Protein in water
78874
    1DC     O5'    1   2.971   4.360   3.348 -0.0696 -0.3852  0.1218
    1DC     H5T    2   2.978   4.360   3.444  3.7886  1.0835  0.0069
    1DC     C5'    3   2.859   4.292   3.296 -0.3879  0.0936  0.1691
    1DC    H5'1    4   2.824   4.350   3.211 -1.3262  0.1773  0.5969
    1DC    H5'2    5   2.780   4.301   3.371  0.0194 -0.1691  0.6375
    1DC     C4'    6   2.884   4.145   3.261  0.4614  0.2764 -0.0222
    1DC     H4'    7   2.787   4.099   3.240  1.2366 -1.2955 -0.2496
    1DC     O4'    8   2.968   4.136   3.148  0.4831  0.4410 -0.0197
    1DC     C1'    9   3.041   4.016   3.156  0.2590  0.3064  0.0023
    1DC     H1'   10   3.017   3.961   3.065 -0.1231  2.0539 -0.9829
    1DC      N1   11   3.187   4.037   3.147  0.3363 -0.1582  0.1421
    1DC      C6   12   3.237   4.150   3.206  0.2989 -0.3223  0.4868
    1DC      H6   13   3.173   4.229   3.242 -0.2963 -0.4191 -0.3272
    1DC      C5   14   3.365   4.185   3.185 -0.0178  0.2557 -0.5603
    1DC      H5   15   3.398   4.284   3.215 -0.5362  0.6306 -1.1908
    1DC      C4   16   3.442   4.087   3.114  0.3447  0.1312 -0.0053
    1DC      N4   17   3.571   4.116   3.093  0.2586  0.1582 -0.5175
    1DC     H41   18   3.604   4.205   3.127  0.4271 -0.3142  0.5972
    1DC     H42   19   3.634   4.044   3.062  2.7639  1.1433  1.8378
    1DC      N3   20   3.397   3.975   3.058 -0.2615  0.2639  0.2050
    1DC      C2   21   3.264   3.950   3.072 -0.2953 -0.0793 -0.6211
    1DC      O2   22   3.221   3.838   3.045 -0.1055 -0.4994  0.7070
    1DC     C3'   23   2.947   4.062   3.372 -0.0019  0.1490  0.1506
    1DC     H3'   24   3.023   4.121   3.422  1.0835  1.1810 -2.5201
    1DC     C2'   25   2.995   3.946   3.284 -0.1774  0.3077 -0.1531
    1DC    H2'1   26   3.081   3.905   3.336  0.4587  2.3260  0.4967
    1DC    H2'2   27   2.906   3.887   3.263  0.6540 -0.9534 -0.2495
    1DC     O3'   28   2.858   4.014   3.470 -0.2490  0.1573 -0.0701
    2DG       P   29   2.895   3.965   3.619 -0.1033  0.3665 -0.0374
    2DG     O1P   30   2.774   3.908   3.683  0.1834 -0.4468 -0.2130
    2DG     O2P   31   2.959   4.079   3.687 -0.3338  0.6159 -0.2343
    2DG     O5'   32   2.997   3.843   3.599 -0.7364 -0.1492 -0.1740
    2DG     C5'   33   2.944   3.715   3.573 -0.0419 -0.3908 -0.4520
    2DG    H5'1   34   2.871   3.729   3.493 -0.6968  0.6379  0.3013
    2DG    H5'2   35   2.891   3.674   3.659 -2.6118  0.0907 -1.6914
    2DG     C4'   36   3.046   3.612   3.526  0.3737 -0.0731 -0.2516
    2DG     H4'   37   2.999   3.515   3.512 -0.8079  0.3926  0.3264
    2DG     O4'   38   3.114   3.637   3.404  0.7765  0.4467  0.0760
    2DG     C1'   39   3.239   3.573   3.412  0.4072 -0.2994 -0.0528
    2DG     H1'   40   3.241   3.496   3.335  1.3412  0.4731 -0.8191
    2DG      N9   41   3.338   3.679   3.386 -0.2586  0.2674 -0.3272
    2DG      C8   42   3.337   3.812   3.421 -0.2610  0.0484  0.5334
    2DG      H8   43   3.250   3.859   3.463  0.6965  0.7693  1.7693
    2DG      N7   44   3.448   3.877   3.398 -0.4715  0.3438  0.3541
    2DG      C5   45   3.529   3.777   3.346 -0.2585  0.6476  0.1077
    2DG      C6   46   3.661   3.778   3.293 -0.2317  0.0725  0.1677
    2DG      O6   47   3.729   3.877   3.266 -0.0541 -0.0532  0.1509
    2DG      N1   48   3.716   3.653   3.268 -0.5444  0.0790 -0.5684
    2DG      H1   49   3.816   3.659   3.254 -0.3863  3.9528  1.0359
    2DG      C2   50   3.645   3.534   3.274 -0.3897 -0.0143 -0.5966
    2DG      N2   51   3.711   3.421   3.247  0.0726  0.2590 -0.6250
    2DG     H21   52   3.802   3.420   3.202  0.0750  1.8922 -0.6980
    2DG     H22   53   3.658   3.335   3.256  0.1253  0.3528  0.8909
    2DG      N3   54   3.523   3.532   3.328  0.2348  0.5570  0.8972
    2DG      C4   55   3.469   3.655   3.350 -0.2073  0.6034 -0.3683
    2DG     C3'   56   3.154   3.579   3.628  0.1603  0.4724  0.1559
    2DG     H3'   57   3.194   3.668   3.677  1.0544 -1.1360  2.5545
    2DG     C2'   58   3.262   3.506   3.547 -0.2198 -0.0939  0.1577
    2DG    H2'1   59   3.364   3.520   3.584 -0.6012  2.1534  0.5380
    2DG    H2'2   60   3.231   3.402   3.546  2.5319 -0.9753  0.3145
    2DG     O3'   61   3.113   3.488   3.727  0.7949 -0.3061 -0.2813
    3DA       P   62   3.185   3.480   3.870 -0.0854 -0.0013  0.1893
    3DA     O1P   63   3.107   3.389   3.957 -0.1248 -0.3519 -0.2071
    3DA     O2P   64   3.203   3.619   3.917  0.2590 -0.0330  0.1585
    3DA     O5'   65   3.327   3.407   3.849 -0.0575  0.0910  0.0629
    3DA     C5'   66   3.319   3.274   3.802 -0.1610  0.1408 -0.0615
    3DA    H5'1   67   3.250   3.264   3.718  0.4769 -1.4280 -0.4305
    3DA    H5'2   68   3.275   3.213   3.880 -2.8737  0.0618 -1.5484
    3DA     C4'   69   3.455   3.217   3.762 -0.0833  0.2155  0.0958
    3DA     H4'   70   3.421   3.118   3.732 -3.7714  1.4633 -0.2987
    3DA     O4'   71   3.507   3.274   3.644  0.2794 -0.6038 -0.1472
    3DA     C1'   72   3.643   3.310   3.654  0.0467  0.3380 -0.2558
    3DA     H1'   73   3.690   3.274   3.563  1.2771  0.1695  0.4166
    3DA      N9   74   3.683   3.452   3.645  0.1306  0.3469  0.2215
    3DA      C8   75   3.612   3.554   3.704 -0.4187  0.0480  0.0867
    3DA      H8   76   3.517   3.534   3.750 -0.1091 -2.2032 -0.1387
    3DA      N7   77   3.672   3.670   3.702  0.5604 -0.4407  0.4531
    3DA      C5   78   3.781   3.646   3.619  0.0867 -0.2221 -0.2334
    3DA      C6   79   3.881   3.721   3.554  0.4097 -0.1446  0.3508
    3DA      N6   80   3.895   3.853   3.573 -0.3062 -0.0292  0.1194
    3DA     H61   81   3.826   3.903   3.627 -0.6614 -0.5738  0.1783
    3DA     H62   82   3.967   3.906   3.525 -2.3757  0.1413 -3.0834
    3DA      N1   83   3.982   3.663   3.489  0.3222  0.0054  0.0783
    3DA      C2   84   3.990   3.531   3.490  0.1613 -0.0038  0.2343
    3DA      H2   85   4.086   3.505   3.446  0.0331  1.3561 -0.9059
    3DA      N3   86   3.898   3.447   3.535  0.6315 -0.3477  0.5641
    3DA      C4   87   3.797   3.512   3.597  0.2732 -0.2132 -0.1492
    3DA     C3'   88   3.567   3.231   3.865 -0.0635 -0.0346  0.1067
    3DA     H3'   89   3.553   3.322   3.923 -0.6504 -0.3238  0.4330
    3DA     C2'   90   3.694   3.248   3.784 -0.2986  0.0884 -0.2389
    3DA    H2'1   91   3.768   3.308   3.836  0.8392 -2.1801  0.9303
    3DA    H2'2   92   3.732   3.148   3.761 -0.3276 -0.0016  0.0954
    3DA     O3'   93   3.570   3.112   3.941  0.2281  0.0420  0.2144
    4DC       P   94   3.632   3.109   4.089  0.0955 -0.2790  0.2652
    4DC     O1P   95   3.614   2.969   4.131  0.0312 -0.4240 -0.2443
    4DC     O2P   96   3.564   3.209   4.176 -0.2802 -0.0873 -0.2478
    4DC     O5'   97   3.789   3.141   4.072 -0.0261  0.3781  0.3442
    4DC     C5'   98   3.887   3.042   4.050 -0.5648 -0.0111 -0.3416
    4DC    H5'1   99   3.847   2.974   3.974 -1.4851 -0.5993  0.6270
    4DC    H5'2  100   3.888   2.986   4.144 -0.2806  0.4858 -0.0416
    4DC     C4'  101   4.026   3.098   4.023 -0.3484 -0.4106 -0.0663
    4DC     H4'  102   4.089   3.010   4.010  0.8930  0.6112 -1.2187
    4DC     O4'  103   4.036   3.171   3.903 -0.1050  0.3922  0.4340
    4DC     C1'  104   4.132   3.273   3.918  0.4469 -0.1164  0.3876
    4DC     H1'  105   4.223   3.256   3.860  0.4213 -1.9865  0.8278
    4DC      N1  106   4.080   3.406   3.883 -0.1641 -0.5934 -0.5638
    4DC      C6  107   3.963   3.440   3.946  0.5164  0.1500  0.3184
    4DC      H6  108   3.897   3.371   3.996 -1.1076 -0.2476 -2.2390
    4DC      C5  109   3.920   3.568   3.947  0.3623  0.1000 -0.0223
    4DC      H5  110   3.830   3.586   4.003 -0.2808 -0.0213 -0.9919
    4DC      C4  111   4.001   3.665   3.879  0.1650  0.4218  0.2013
    4DC      N4  112   3.968   3.795   3.876 -0.6024  0.2330  0.3367
    4DC     H41  113   3.883   3.825   3.922  0.2477  0.0357  2.1221
    4DC     H42  114   4.006   3.845   3.797 -1.2467 -1.3702 -1.0640
    4DC      N3  115   4.117   3.634   3.819  0.1828 -0.1937  0.5440
    4DC      C2  116   4.155   3.504   3.821 -0.2958 -0.3547 -0.3494
    4DC      O2  117   4.270   3.477   3.785 -0.1630 -0.1551 -0.0774
    4DC     C3'  118   4.081   3.179   4.140  0.0972 -0.5016 -0.2086
    4DC     H3'  119   3.997   3.243   4.166 -1.0457 -1.5486 -1.1969
    4DC     C2'  120   4.177   3.270   4.064  0.4531 -0.3771  0.3820
    4DC    H2'1  121   4.173   3.372   4.103  0.2793 -1.0981  2.3263
    4DC    H2'2  122   4.275   3.226   4.077  0.1324 -1.3566 -0.3590
    4DC     O3'  123   4.141   3.095   4.236  0.4015  0.1980  0.2199
    5DT       P  124   4.190   3.148   4.380  0.2156 -0.1568  0.4146
    5DT     O1P  125   4.235   3.031   4.458  0.3948 -0.3653  0.0034
    5DT     O2P  126   4.069   3.213   4.435 -0.1488 -0.7239  0.2907
    5DT     O5'  127   4.318   3.243   4.354 -0.1668  0.1413 -0.4308
    5DT     C5'  128   4.444   3.197   4.313 -0.0470  0.1593 -0.0888
    5DT    H5'1  129   4.433   3.131   4.227 -2.8592  1.6770 -0.9967
    5DT    H5'2  130   4.483   3.146   4.401 -2.1385 -0.8741  0.2992
    5DT     C4'  131   4.538   3.310   4.274  0.3032 -0.1171 -0.0533
    5DT     H4'  132   4.636   3.273   4.243  0.6086 -1.7077  2.5494
    5DT     O4'  133   4.488   3.394   4.172 -0.0454 -0.5365 -0.2255
    5DT     C1'  134   4.534   3.526   4.188 -0.3774 -0.4446 -0.0071
    5DT     H1'  135   4.601   3.551   4.105 -2.1312  1.2479 -0.9828
    5DT      N1  136   4.416   3.613   4.177 -0.1090 -0.0883 -0.0976
    5DT      C6  137   4.292   3.577   4.224 -0.1235  0.3889  0.2296
    5DT      H6  138   4.282   3.482   4.274  2.6155 -0.2658 -0.2637
    5DT      C5  139   4.184   3.658   4.216 -0.3947  0.0149  0.1121
    5DT      C7  140   4.053   3.617   4.278 -0.2308 -0.1553  0.3477
    5DT     H71  141   4.040   3.509   4.278 -1.8744  0.0096  0.4187
    5DT     H72  142   4.057   3.663   4.377  4.1540  1.7305 -0.4669
    5DT     H73  143   3.972   3.657   4.216  0.4171 -0.6487 -0.8411
    5DT      C4  144   4.198   3.791   4.161 -0.3629 -0.0561 -0.0508
    5DT      O4  145   4.106   3.869   4.140 -0.0056  0.2417 -0.5266
    5DT      N3  146   4.326   3.819   4.116 -0.3466 -0.2452 -0.1188
    5DT      H3  147   4.341   3.914   4.086 -1.7362 -0.2957 -1.0296
    5DT      C2  148   4.440   3.741   4.133 -0.2173 -0.0254  0.0259
    5DT      O2  149   4.555   3.782   4.118 -0.1534 -0.1682  0.1348
    5DT     C3'  150   4.565   3.400   4.394 -0.6333  0.5548 -0.3345
    5DT     H3'  151   4.481   3.416   4.461 -1.1822  0.3789 -0.9814
    5DT     C2'  152   4.598   3.533   4.327 -0.1019  0.5046 -0.1786
    5DT    H2'1  153   4.557   3.615   4.385 -0.8986 -1.4952  2.2256
    5DT    H2'2  154   4.707   3.543   4.320 -0.2515  1.7050 -1.1820
    5DT     O3'  155   4.671   3.359   4.478 -0.4860  0.2732 -0.6551
    6DC       P  156   4.697   3.429   4.621 -0.3038  0.0381 -0.5724
    6DC     O1P  157   4.813   3.367   4.688 -0.4576  0.2522 -0.1043
    6DC     O2P  158   4.574   3.418   4.704  0.1785  0.3412  0.1920
    6DC     O5'  159   4.727   3.585   4.594  0.4260  0.0407  0.2027
    6DC     C5'  160   4.858   3.629   4.566  0.5953 -0.3209  0.4209
    6DC    H5'1  161   4.895   3.587   4.473 -3.4928 -0.8369 -1.2005
    6DC    H5'2  162   4.923   3.598   4.648  1.1124  1.4888  0.7383
    6DC     C4'  163   4.855   3.779   4.538 -0.3914 -0.3596  0.2912
    6DC     H4'  164   4.956   3.803   4.506 -0.6908 -1.4211 -1.6446
    6DC     O4'  165   4.772   3.814   4.429  1.0525  0.4168 -0.5898
    6DC     C1'  166   4.732   3.949   4.441  0.0086  0.0866 -0.2594
    6DC     H1'  167   4.760   3.998   4.348 -0.8313 -4.7211 -3.4495
    6DC      N1  168   4.586   3.970   4.445  0.0715  0.4474  0.2390
    6DC      C6  169   4.496   3.875   4.484  0.2203  0.2521  0.1034
    6DC      H6  170   4.545   3.790   4.529  1.7562  0.4376 -1.1182
    6DC      C5  171   4.362   3.884   4.467  0.2169  0.0182  0.0045
    6DC      H5  172   4.297   3.803   4.498  1.2046 -1.5093 -1.7268
    6DC      C4  173   4.318   4.010   4.416 -0.0181 -0.0352  0.0749
    6DC      N4  174   4.186   4.030   4.411 -0.0147 -0.0163  0.0627
    6DC     H41  175   4.115   3.968   4.446 -0.8916  1.4201  0.9500
    6DC     H42  176   4.167   4.130   4.409  0.3375  0.0623  0.5570
    6DC      N3  177   4.399   4.114   4.393 -0.2196  0.0773 -0.1230
    6DC      C2  178   4.532   4.089   4.399 -0.2048  0.1209 -0.2887
    6DC      O2  179   4.609   4.183   4.383 -0.1977  0.1965  0.1815
    6DC     C3'  180   4.813   3.868   4.654  0.3969  0.2438  0.1156
    6DC     H3'  181   4.724   3.828   4.703  1.0376 -0.4670  0.7279
    6DC     C2'  182   4.798   3.995   4.571 -0.7823  0.1236  0.1354
    6DC    H2'1  183   4.737   4.064   4.629  1.2528  1.1935  1.0973
    6DC    H2'2  184   4.898   4.032   4.548 -0.8747  0.0584 -0.3939
    6DC     O3'  185   4.922   3.893   4.741  0.3174  0.2111  0.2250
    7DT       P  186   4.888   3.947   4.889  0.2764  0.1392  0.2420
    7DT     O1P  187   5.014   3.926   4.964  0.2858 -0.0772  0.1684
    7DT     O2P  188   4.760   3.897   4.942  0.2231 -0.1466 -0.1556
    7DT     O5'  189   4.866   4.106   4.877  0.2773  0.1326  0.1532
    7DT     C5'  190   4.966   4.197   4.836  0.3429 -0.1903 -0.4126
    7DT    H5'1  191   5.020   4.151   4.753 -1.2166 -0.2056 -1.4684
    7DT    H5'2  192   5.034   4.209   4.921  0.0126  2.0707 -0.4006
    7DT     C4'  193   4.903   4.327   4.789 -0.1619 -0.1937  0.2338
    7DT     H4'  194   4.973   4.397   4.743 -1.2057  0.3698 -0.5467
    7DT     O4'  195   4.794   4.300   4.703 -0.0940  0.0667  0.0632
    7DT     C1'  196   4.693   4.397   4.717 -0.2086 -0.0635  0.1381
    7DT     H1'  197   4.692   4.463   4.630 -0.3634 -0.9495 -0.5556
    7DT      N1  198   4.560   4.333   4.720 -0.3789  0.2870  0.1120
    7DT      C6  199   4.537   4.211   4.775 -0.0299  0.0588 -0.2429
    7DT      H6  200   4.623   4.159   4.815 -0.0432 -0.7079 -1.1775
    7DT      C5  201   4.419   4.149   4.751 -0.3477  0.3753  0.4717
    7DT      C7  202   4.411   4.003   4.790  0.0584  0.0882 -0.4865
    7DT     H71  203   4.464   3.950   4.712 -1.0163  0.4593 -1.4938
    7DT     H72  204   4.456   3.989   4.889 -1.3518  3.1205  0.7225
    7DT     H73  205   4.307   3.972   4.795 -0.1222  0.7947  0.3561
    7DT      C4  206   4.307   4.220   4.695 -0.1817  0.5894  0.4097
    7DT      O4  207   4.196   4.168   4.688  0.0029  0.2295  0.1962
    7DT      N3  208   4.331   4.351   4.655 -0.4543  0.3788 -0.4644
    7DT      H3  209   4.254   4.412   4.630  0.7447  1.0511 -2.7444
    7DT      C2  210   4.455   4.411   4.675 -0.3993  0.1437 -0.0919
    7DT      O2  211   4.455   4.533   4.662  0.1404  0.1536  0.0018
    7DT     C3'  212   4.838   4.386   4.914 -0.3140 -0.1225  0.1212
    7DT     H3'  213   4.797   4.309   4.980 -1.1105  2.4684  2.8543
    7DT     C2'  214   4.726   4.467   4.848 -0.1426  0.0623  0.0553
    7DT    H2'1  215   4.644   4.468   4.920  1.0931  1.0929  1.5032
    7DT    H2'2  216   4.772   4.565   4.837 -0.5272  0.2820  0.3566
    7DT     O3'  217   4.928   4.464   4.989  0.0930 -0.3838 -0.0884
    8DA       P  218   4.894   4.515   5.138  0.0813 -0.0961 -0.1891
    8DA     O1P  219   5.006   4.606   5.170  0.0515 -0.0441 -0.2323
    8DA     O2P  220   4.868   4.399   5.225  0.2167 -0.3961 -0.5460
    8DA     O5'  221   4.761   4.606   5.132 -0.0507 -0.2542  0.3425
    8DA     C5'  222   4.765   4.741   5.092  0.2207 -0.1747  0.6343
    8DA    H5'1  223   4.821   4.750   4.999  1.5058  3.0744  1.5909
    8DA    H5'2  224   4.829   4.793   5.164 -0.3180 -0.1694  1.1221
    8DA     C4'  225   4.623   4.795   5.081  0.2355 -0.1981  0.3197
    8DA     H4'  226   4.632   4.903   5.075  1.9440 -0.3288  0.2301
    8DA     O4'  227   4.549   4.734   4.978 -0.0304  0.0995  0.3316
    8DA     C1'  228   4.412   4.754   5.006 -0.0044  0.3123  0.3091
    8DA     H1'  229   4.386   4.833   4.936  0.2449 -0.0696 -0.2299
    8DA      N9  230   4.344   4.625   4.980 -0.0322  0.3219  0.3314
    8DA      C8  231   4.385   4.501   5.019  0.3857  0.1821 -0.5319
    8DA      H8  232   4.482   4.470   5.056  0.3207 -0.7757 -1.1171
    8DA      N7  233   4.291   4.412   5.005  0.0492  0.4321  0.1328
    8DA      C5  234   4.179   4.485   4.966 -0.0866 -0.0149 -0.3235
    8DA      C6  235   4.045   4.461   4.931 -0.0792 -0.0774 -0.3100
    8DA      N6  236   3.997   4.336   4.926 -0.0371 -0.0870 -0.4628
    8DA     H61  237   4.052   4.262   4.965 -2.1405 -0.9421  1.0509
    8DA     H62  238   3.907   4.324   4.880 -0.4503  1.4182 -0.1284
    8DA      N1  239   3.965   4.561   4.892  0.1372  0.1576 -0.1631
    8DA      C2  240   4.010   4.685   4.894 -0.2947  0.3188 -0.3203
    8DA      H2  241   3.940   4.756   4.851  0.4564  1.5125  0.3850
    8DA      N3  242   4.135   4.724   4.913 -0.2050 -0.1492  0.0695
    8DA      C4  243   4.209   4.618   4.954  0.0665 -0.0302 -0.1083
    8DA     C3'  244   4.536   4.788   5.207  0.4247  0.0421  0.4630
    8DA     H3'  245   4.542   4.694   5.261 -0.0329  0.3815  1.1275
    8DA     C2'  246   4.396   4.805   5.149  0.3839 -0.1307  0.5125
    8DA    H2'1  247   4.322   4.745   5.203 -0.4968 -1.4974 -2.0254
    8DA    H2'2  248   4.364   4.908   5.154 -0.7651 -0.2719 -2.2516
    8DA     O3'  249   4.573   4.903   5.281  0.1271  0.2808  0.2436
    9DC       P  250   4.520   4.921   5.432  0.5326  0.0559  0.4140
    9DC     O1P  251   4.567   5.054   5.476  0.1431  0.2709  0.1903
    9DC     O2P  252   4.556   4.801   5.511 -0.3700 -0.3533  0.2150
    9DC     O5'  253   4.361   4.930   5.412  0.5676 -0.0312  0.0857
    9DC     C5'  254   4.297   5.055   5.395 -0.5930 -0.6525 -0.2417
    9DC    H5'1  255   4.333   5.107   5.306  1.1497  0.8554  1.2703
    9DC    H5'2  256   4.316   5.126   5.475  0.6651  1.4628 -2.2854
    9DC     C4'  257   4.146   5.039   5.383 -0.6852  0.3251 -0.4278
    9DC     H4'  258   4.102   5.137   5.361  0.6032  1.9173  3.2042
    9DC     O4'  259   4.110   4.941   5.288 -0.1148 -0.3630  0.0613
    9DC     C1'  260   3.982   4.889   5.318 -0.2777  0.1179  0.2115
    9DC     H1'  261   3.910   4.919   5.242 -0.1246 -0.5104 -0.1867
    9DC      N1  262   3.983   4.742   5.329 -0.1695  0.1147  0.1649
    9DC      C6  263   4.091   4.666   5.364  0.0377 -0.0280 -0.7385
    9DC      H6  264   4.175   4.713   5.413 -1.6481  1.1553  1.1839
    9DC      C5  265   4.091   4.533   5.346 -0.3305 -0.0531 -0.5693
    9DC      H5  266   4.172   4.477   5.391 -0.1441 -0.2292 -1.1119
    9DC      C4  267   3.978   4.473   5.281 -0.5274 -0.5428  0.2064
    9DC      N4  268   3.971   4.340   5.267  0.2806 -0.6092  0.3669
    9DC     H41  269   4.044   4.282   5.304 -0.1890  0.3833  3.0458
    9DC     H42  270   3.880   4.309   5.236  0.0067 -2.2132  2.5709
    9DC      N3  271   3.874   4.549   5.244  0.1699  0.3989  0.1272
    9DC      C2  272   3.868   4.678   5.285 -0.3132  0.3655  0.1712
    9DC      O2  273   3.760   4.736   5.280 -0.3665  0.2723  0.2320
    9DC     C3'  274   4.081   4.988   5.511 -0.2521  0.4220 -0.1701
    9DC     H3'  275   4.137   4.899   5.543 -2.0966 -0.9738 -0.6947
    9DC     C2'  276   3.946   4.947   5.455 -0.3507  0.4195  0.0659
    9DC    H2'1  277   3.894   4.868   5.509 -1.7958  0.4900 -1.1440
    9DC    H2'2  278   3.882   5.034   5.446 -2.6477 -1.0257  1.4152
    9DC     O3'  279   4.050   5.087   5.606  0.1573  0.2504  0.1493
   10DG       P  280   3.978   5.055   5.747  0.0304  0.1041  0.0514
   10DG     O1P  281   3.946   5.185   5.809 -0.7413 -0.0933  0.0744
   10DG     O2P  282   4.051   4.952   5.824  0.2541  0.1048 -0.1588
   10DG     O5'  283   3.833   4.991   5.720 -0.1240  0.3587  0.2732
   10DG     C5'  284   3.717   5.071   5.717 -0.1975  0.2471  0.0600
   10DG    H5'1  285   3.728   5.149   5.641  0.2284  2.2778  2.0813
   10DG    H5'2  286   3.707   5.118   5.815 -0.3544  3.2219 -1.2859
   10DG     C4'  287   3.594   4.989   5.682  0.1052 -0.2330  0.1091
   10DG     H4'  288   3.516   5.064   5.669  1.2501  1.6035  2.8399
   10DG     O4'  289   3.607   4.911   5.565 -0.1448  0.1736 -0.1918
   10DG     C1'  290   3.533   4.792   5.580  0.0447  0.0307 -0.3855
   10DG     H1'  291   3.459   4.775   5.501 -1.2368 -3.4407  1.3742
   10DG      N9  292   3.622   4.675   5.582 -0.0040 -0.0023 -0.1794
   10DG      C8  293   3.757   4.662   5.604 -0.0630  0.0548  0.2369
   10DG      H8  294   3.808   4.748   5.646 -3.6665  2.5849 -0.1293
   10DG      N7  295   3.805   4.545   5.575  0.0608  0.0680  0.3890
   10DG      C5  296   3.695   4.468   5.539 -0.1203  0.1174  0.8357
   10DG      C6  297   3.679   4.334   5.497  0.0163  0.3894 -0.1066
   10DG      O6  298   3.767   4.251   5.471  0.0781  0.5783 -0.5137
   10DG      N1  299   3.548   4.301   5.468 -0.0006  0.5472 -0.2109
   10DG      H1  300   3.521   4.211   5.430 -3.4689  0.6820  1.5469
   10DG      C2  301   3.440   4.387   5.474 -0.2293  0.2797 -0.4001
   10DG      N2  302   3.318   4.347   5.437 -0.0256 -0.0515 -0.7260
   10DG     H21  303   3.292   4.253   5.410 -2.6597  1.1826 -2.9317
   10DG     H22  304   3.245   4.415   5.452  0.9011  1.1029 -1.3053
   10DG      N3  305   3.458   4.515   5.509 -0.1075  0.4702 -1.1287
   10DG      C4  306   3.585   4.550   5.541 -0.3290 -0.1555  0.5625
   10DG     C3'  307   3.559   4.892   5.795 -0.7930  0.1740  0.1945
   10DG     H3'  308   3.650   4.845   5.834  0.2350  1.0893 -0.9981
   10DG     C2'  309   3.469   4.796   5.718 -0.0500 -0.0341 -0.4273
   10DG    H2'1  310   3.454   4.696   5.757  0.1410 -0.5461 -1.6260
   10DG    H2'2  311   3.373   4.846   5.704  0.6539  1.1524 -1.1958
   10DG     O3'  312   3.483   4.960   5.893 -0.1634  0.2966  0.6099
   11DG       P  313   3.449   4.893   6.035 -0.0769 -0.3101  0.3498
   11DG     O1P  314   3.359   4.991   6.100  0.0195  0.0564 -0.0676
   11DG     O2P  315   3.574   4.858   6.107  0.2030 -0.2555 -0.1054
   11DG     O5'  316   3.366   4.757   6.017 -0.2050 -0.2439  0.4345
   11DG     C5'  317   3.231   4.771   5.980 -0.0089  0.3820 -0.0585
   11DG    H5'1  318   3.210   4.837   5.895 -2.7917 -0.0551  0.1962
   11DG    H5'2  319   3.184   4.811   6.070  1.5842  1.4537  0.3342
   11DG     C4'  320   3.180   4.632   5.945  0.5951  0.1817 -0.1594
   11DG     H4'  321   3.072   4.641   5.931  0.9290 -0.0478 -4.1045
   11DG     O4'  322   3.229   4.570   5.828 -0.4055 -0.2819 -0.3529
   11DG     C1'  323   3.230   4.430   5.843  0.3546 -0.2709 -0.2620
   11DG     H1'  324   3.170   4.379   5.768 -1.9972 -0.5539  1.6916
   11DG      N9  325   3.369   4.380   5.841  0.4427 -0.0626  0.3945
   11DG      C8  326   3.487   4.447   5.858  0.3118  0.4007 -0.4632
   11DG      H8  327   3.494   4.546   5.902  0.1827 -0.2128  0.9924
   11DG      N7  328   3.593   4.378   5.823  0.2229 -0.3471  0.7100
   11DG      C5  329   3.544   4.254   5.785  0.1695 -0.0264 -0.3047
   11DG      C6  330   3.611   4.133   5.753  0.3413  0.1545 -0.6295
   11DG      O6  331   3.727   4.099   5.735  0.2219 -0.5111 -0.1876
   11DG      N1  332   3.522   4.027   5.737  0.0975  0.3022 -0.2625
   11DG      H1  333   3.567   3.937   5.729  1.7455  1.1351 -0.6461
   11DG      C2  334   3.386   4.033   5.764  0.0719  0.3984 -0.4114
   11DG      N2  335   3.310   3.925   5.748  0.3567  0.0798  0.3252
   11DG     H21  336   3.358   3.839   5.723  0.5809 -0.0318  1.1086
   11DG     H22  337   3.209   3.924   5.752  0.4042 -0.5932  2.1046
   11DG      N3  338   3.326   4.146   5.803  0.0333  0.0842  0.4586
   11DG      C4  339   3.409   4.253   5.809  0.2484 -0.0635  0.1498
   11DG     C3'  340   3.198   4.531   6.058 -0.2790  0.2608  0.0627
   11DG     H3'  341   3.301   4.536   6.095 -0.1983  2.1440 -0.3111
   11DG     C2'  342   3.181   4.399   5.984  0.9881  0.0954  0.0436
   11DG    H2'1  343   3.234   4.315   6.029 -0.4793 -1.5220 -1.1202
   11DG    H2'2  344   3.075   4.379   5.969  1.2246 -0.8938 -0.4354
   11DG     O3'  345   3.101   4.534   6.161 -0.3198 -0.2908  0.0413
   12DA       P  346   3.125   4.479   6.310  0.1173 -0.0589  0.0594
   12DA     O1P  347   3.010   4.529   6.388  0.0142 -0.0835 -0.0759
   12DA     O2P  348   3.264   4.517   6.345  0.0551  0.4571 -0.2553
   12DA     O5'  349   3.129   4.320   6.284 -0.2078 -0.1260  0.4254
   12DA     C5'  350   3.010   4.245   6.273 -0.0642 -0.3882  0.6398
   12DA    H5'1  351   2.951   4.284   6.189  1.2396 -1.9929 -1.1210
   12DA    H5'2  352   2.954   4.244   6.366 -1.1407 -0.5619  0.0159
   12DA     C4'  353   3.032   4.097   6.242 -0.2127 -0.2416 -0.2026
   12DA     H4'  354   2.938   4.043   6.234  0.1516 -0.6186 -2.6608
   12DA     O4'  355   3.105   4.073   6.124  0.1546 -0.7770  0.1266
   12DA     C1'  356   3.182   3.955   6.131  0.4961 -0.5662 -0.0446
   12DA     H1'  357   3.165   3.883   6.050  0.9274 -2.2321  1.3003
   12DA      N9  358   3.324   3.988   6.113  0.2930  0.1841 -0.3207
   12DA      C8  359   3.397   4.098   6.150  0.0669  0.1039  0.3833
   12DA      H8  360   3.352   4.185   6.196  3.2033  1.1812  1.7124
   12DA      N7  361   3.523   4.094   6.118  0.0875 -0.4439  0.5173
   12DA      C5  362   3.537   3.966   6.066  0.3685 -0.4931  0.7081
   12DA      C6  363   3.646   3.891   6.019  0.0632 -0.1900 -0.5385
   12DA      N6  364   3.772   3.932   6.003  0.1138 -0.3388 -0.5352
   12DA     H61  365   3.798   4.030   6.009  1.7717 -0.7718 -0.1940
   12DA     H62  366   3.838   3.869   5.960  1.2550  1.4897 -1.6303
   12DA      N1  367   3.636   3.761   5.986 -0.0422 -0.3550  0.1120
   12DA      C2  368   3.518   3.704   6.007 -0.2323 -0.0076  0.0112
   12DA      H2  369   3.507   3.598   5.990 -0.2545  0.0547 -0.3658
   12DA      N3  370   3.407   3.765   6.044 -0.3868 -0.0238 -0.4123
   12DA      C4  371   3.419   3.897   6.073  0.2078 -0.2495  0.4330
   12DA     C3'  372   3.115   4.028   6.350  0.0712  0.0107 -0.2583
   12DA     H3'  373   3.196   4.095   6.381 -0.0335  0.7587 -1.5481
   12DA     C2'  374   3.163   3.905   6.274  0.1399 -0.1576  0.0535
   12DA    H2'1  375   3.251   3.859   6.319  1.2307  1.6023 -0.1690
   12DA    H2'2  376   3.078   3.837   6.270 -0.9588  1.2197 -1.4168
   12DA     O3'  377   3.038   3.979   6.458  0.2980  0.4333  0.1014
   13DA       P  378   3.107   3.924   6.593  0.1420  0.1397  0.0625
   13DA     O1P  379   3.009   3.914   6.703 -0.2028  0.1674 -0.2388
   13DA     O2P  380   3.221   4.017   6.612  0.5119 -0.1530 -0.6639
   13DA     O5'  381   3.167   3.777   6.561 -0.6018 -0.2337  0.3740
   13DA     C5'  382   3.090   3.664   6.529 -0.4900 -0.0823 -0.4407
   13DA    H5'1  383   3.026   3.686   6.443 -0.5028  2.6217  0.1867
   13DA    H5'2  384   3.035   3.640   6.620  1.7538  1.9798  1.5964
   13DA     C4'  385   3.181   3.550   6.483 -0.2354 -0.1508  0.2235
   13DA     H4'  386   3.116   3.465   6.467 -1.3367  0.6496  0.3388
   13DA     O4'  387   3.250   3.568   6.361  0.4383 -0.3533  0.5715
   13DA     C1'  388   3.379   3.510   6.363  0.6356  0.0695  0.2193
   13DA     H1'  389   3.405   3.446   6.279  2.3974  1.8836 -0.7033
   13DA      N9  390   3.480   3.618   6.367  0.3585  0.3242  0.4309
   13DA      C8  391   3.466   3.751   6.396 -0.4371  0.2501  0.4193
   13DA      H8  392   3.377   3.791   6.441 -0.5714  1.9215 -1.2293
   13DA      N7  393   3.572   3.820   6.362 -0.2547 -0.0447  0.3840
   13DA      C5  394   3.666   3.727   6.319  0.0223  0.5616 -0.3481
   13DA      C6  395   3.801   3.730   6.281  0.2729 -0.2753  0.4358
   13DA      N6  396   3.878   3.839   6.288  0.0896 -0.1293  0.2208
   13DA     H61  397   3.833   3.925   6.315 -0.2566 -0.6942  1.5704
   13DA     H62  398   3.978   3.837   6.271  0.2430  0.5300  0.9804
   13DA      N1  399   3.863   3.613   6.261 -0.0220 -0.2488 -0.7143
   13DA      C2  400   3.796   3.499   6.275  0.0680 -0.1867  0.3114
   13DA      H2  401   3.854   3.409   6.262  1.7334  1.1617 -3.3121
   13DA      N3  402   3.669   3.482   6.305 -0.2933  0.3729 -0.8449
   13DA      C4  403   3.611   3.602   6.331  0.1367  0.4996 -0.4687
   13DA     C3'  404   3.275   3.501   6.593  0.2360  0.2466  0.0036
   13DA     H3'  405   3.334   3.574   6.648 -0.0213  1.8115 -1.6923
   13DA     C2'  406   3.374   3.437   6.497  0.1080 -0.1046  0.1066
   13DA    H2'1  407   3.474   3.431   6.540  0.0933 -0.1879  0.1306
   13DA    H2'2  408   3.331   3.340   6.471 -2.5055  0.7710  0.8925
   13DA     O3'  409   3.223   3.403   6.680  0.1647  0.3184  0.0424
   14DG       P  410   3.285   3.373   6.826 -0.3069  0.1129  0.2022
   14DG     O1P  411   3.196   3.274   6.891 -0.5418 -0.2017 -0.5832
   14DG     O2P  412   3.300   3.501   6.900 -0.7051 -0.1216  0.6916
   14DG     O5'  413   3.431   3.310   6.803 -0.5791 -0.3772 -0.2129
   14DG     C5'  414   3.457   3.179   6.758  0.3150 -0.1938 -0.2488
   14DG    H5'1  415   3.413   3.179   6.659 -0.8950 -2.5166  0.2292
   14DG    H5'2  416   3.415   3.103   6.824  1.0784 -1.3978 -1.1218
   14DG     C4'  417   3.605   3.150   6.737  0.2944 -0.1540 -0.4512
   14DG     H4'  418   3.607   3.045   6.708 -1.7307 -0.3283 -0.0584
   14DG     O4'  419   3.649   3.222   6.624 -0.3282  0.5071 -0.2731
   14DG     C1'  420   3.786   3.252   6.639 -0.1744 -0.2371 -0.1504
   14DG     H1'  421   3.844   3.207   6.559  0.2523 -0.4822  0.2934
   14DG      N9  422   3.809   3.397   6.625 -0.1206 -0.1787  0.5187
   14DG      C8  423   3.725   3.498   6.665  0.3249  0.0792  0.8108
   14DG      H8  424   3.624   3.468   6.688  0.5485 -2.2454 -0.8687
   14DG      N7  425   3.779   3.616   6.653 -0.1249  0.1427 -0.7488
   14DG      C5  426   3.907   3.595   6.604  0.2584  0.2976  0.1713
   14DG      C6  427   4.014   3.679   6.563 -0.1198  0.4569 -0.5109
   14DG      O6  428   4.018   3.802   6.563 -0.3097  0.4651  0.2145
   14DG      N1  429   4.131   3.611   6.532 -0.2131 -0.0100  0.1314
   14DG      H1  430   4.207   3.675   6.512  0.8937 -0.5728  2.1901
   14DG      C2  431   4.147   3.474   6.523  0.0548  0.0539 -0.3931
   14DG      N2  432   4.271   3.424   6.512 -0.4333 -1.2561 -0.0283
   14DG     H21  433   4.349   3.486   6.523 -1.8006  0.5938 -0.1903
   14DG     H22  434   4.281   3.324   6.504 -0.6030 -1.2157 -0.7533
   14DG      N3  435   4.042   3.398   6.556 -0.4590  0.6161 -0.7063
   14DG      C4  436   3.927   3.460   6.594 -0.4464  0.2012  0.0367
   14DG     C3'  437   3.703   3.176   6.852 -0.2179 -0.3999  0.0454
   14DG     H3'  438   3.680   3.262   6.915  0.3319 -0.6012  0.5223
   14DG     C2'  439   3.832   3.209   6.778 -0.3767  0.4912  0.1487
   14DG    H2'1  440   3.865   3.296   6.834 -0.9016  1.5356 -1.1009
   14DG    H2'2  441   3.903   3.126   6.776 -1.5454 -0.5622 -2.7591
   14DG     O3'  442   3.727   3.056   6.922 -0.0018 -0.2646  0.2035
   15DG       P  443   3.793   3.064   7.068  0.1828 -0.3313  0.1242
   15DG     O1P  444   3.793   2.931   7.132 -0.3074 -0.0925  0.6407
   15DG     O2P  445   3.714   3.163   7.144  0.1967 -0.2352  0.0132
   15DG     O5'  446   3.943   3.121   7.052  0.2399 -0.5552 -0.1371
   15DG     C5'  447   4.051   3.033   7.035  0.2552 -0.6393  0.4023
   15DG    H5'1  448   4.015   2.976   6.949 -0.7507  1.2014 -0.4499
   15DG    H5'2  449   4.053   2.974   7.127 -1.0081  0.0668  0.8954
   15DG     C4'  450   4.188   3.092   7.001  0.0224 -0.3433 -0.0310
   15DG     H4'  451   4.251   3.005   6.980 -1.4911 -1.5822  0.3359
   15DG     O4'  452   4.167   3.174   6.888  0.1255 -0.4656 -0.1392
   15DG     C1'  453   4.268   3.272   6.886 -0.2969 -0.0206  0.2009
   15DG     H1'  454   4.319   3.256   6.791 -2.3721 -2.5436 -0.6304
   15DG      N9  455   4.215   3.409   6.898 -0.0721  0.0408  0.4977
   15DG      C8  456   4.091   3.458   6.929 -0.1313  0.0201  0.2923
   15DG      H8  457   4.012   3.394   6.966 -1.1096 -0.3129 -2.1705
   15DG      N7  458   4.073   3.585   6.901 -0.0893  0.0020  0.1840
   15DG      C5  459   4.197   3.622   6.850 -0.0799 -0.5236 -0.1791
   15DG      C6  460   4.239   3.746   6.797 -0.0031 -0.4144  0.1378
   15DG      O6  461   4.182   3.855   6.799  0.1384 -0.3332 -0.1322
   15DG      N1  462   4.373   3.741   6.761 -0.1112 -0.4132 -0.2717
   15DG      H1  463   4.414   3.820   6.714 -0.1783  0.0702  0.4736
   15DG      C2  464   4.458   3.633   6.778  0.4727  0.0892  0.0575
   15DG      N2  465   4.586   3.650   6.743  0.5385 -0.1757  0.1670
   15DG     H21  466   4.622   3.739   6.713  1.7416 -1.1026 -1.3026
   15DG     H22  467   4.637   3.564   6.727 -0.5388 -0.5037 -1.9815
   15DG      N3  468   4.413   3.510   6.807  0.3015  0.2055  0.2918
   15DG      C4  469   4.287   3.518   6.855  0.1740 -0.2935  0.0518
   15DG     C3'  470   4.255   3.180   7.106 -0.2699 -0.1056 -0.0426
   15DG     H3'  471   4.194   3.259   7.149  1.3378  0.2490  1.7467
   15DG     C2'  472   4.352   3.252   7.012  0.0673 -0.6881 -0.1455
   15DG    H2'1  473   4.388   3.343   7.060 -0.7589  0.6097 -1.8782
   15DG    H2'2  474   4.438   3.188   6.993 -0.7458 -1.0445 -3.1481
   15DG     O3'  475   4.312   3.104   7.210 -0.2173 -0.0329 -0.0184
   16DG       P  476   4.346   3.171   7.353 -0.0383  0.1883 -0.1619
   16DG     O1P  477   4.378   3.068   7.455  0.2138  0.0965 -0.3316
   16DG     O2P  478   4.241   3.268   7.390 -0.4141 -0.1454 -0.3446
   16DG     O5'  479   4.477   3.258   7.318  0.0500  0.0822 -0.0972
   16DG     C5'  480   4.598   3.195   7.282  0.0894 -0.1398  0.4133
   16DG    H5'1  481   4.579   3.144   7.187  1.0032  1.1560 -0.4981
   16DG    H5'2  482   4.625   3.130   7.365 -2.2646 -3.1037 -0.9444
   16DG     C4'  483   4.704   3.303   7.267 -0.3764  0.2536 -0.1193
   16DG     H4'  484   4.796   3.245   7.257 -1.0323 -1.0448  1.0280
   16DG     O4'  485   4.680   3.381   7.152 -0.5345  0.0508 -0.2235
   16DG     C1'  486   4.700   3.518   7.180 -0.0030 -0.1439  0.3806
   16DG     H1'  487   4.786   3.545   7.120 -0.1650 -1.5984 -0.5722
   16DG      N9  488   4.578   3.598   7.159  0.0700 -0.2250 -0.3782
   16DG      C8  489   4.448   3.572   7.193 -0.1009  0.1996 -0.6962
   16DG      H8  490   4.428   3.481   7.248 -0.3074  0.3725 -0.4825
   16DG      N7  491   4.366   3.668   7.161  0.1154  0.6768  0.1272
   16DG      C5  492   4.448   3.764   7.103  0.2556  0.6758  0.3219
   16DG      C6  493   4.425   3.899   7.065 -0.1757  0.3991 -0.4277
   16DG      O6  494   4.315   3.954   7.066 -0.3310  0.0951  0.1785
   16DG      N1  495   4.537   3.973   7.031  0.4347 -0.2938  0.0382
   16DG      H1  496   4.522   4.068   7.001  0.6416 -0.2457  0.0858
   16DG      C2  497   4.664   3.925   7.056  0.5245  0.2135  0.5740
   16DG      N2  498   4.766   4.007   7.029  0.1620  0.1841 -0.9717
   16DG     H21  499   4.744   4.104   7.016  2.6881  0.7091 -2.0567
   16DG     H22  500   4.861   3.986   7.058 -0.2458  0.7124  0.8428
   16DG      N3  501   4.692   3.796   7.079  0.0124 -0.0101 -0.0329
   16DG      C4  502   4.580   3.724   7.105  0.0504 -0.0463  0.0338
   16DG     C3'  503   4.723   3.388   7.393  0.0132 -0.0503  0.0282
   16DG     H3'  504   4.633   3.375   7.453  0.0129  0.1048  0.0611
   16DG     C2'  505   4.727   3.527   7.330  0.4246  0.0585  0.2908
   16DG    H2'1  506   4.650   3.575   7.390  2.0576  2.1550  0.8276
   16DG    H2'2  507   4.823   3.575   7.348 -0.1740  1.4197 -0.0407
   16DG     O3'  508   4.848   3.367   7.456  0.2084  0.1241 -0.2994
   17DC       P  509   4.881   3.421   7.604  0.0062 -0.0063 -0.2053
   17DC     O1P  510   5.012   3.361   7.641 -0.0568 -0.0493 -0.0562
   17DC     O2P  511   4.767   3.406   7.697  0.3912  0.0377  0.2766
   17DC     O5'  512   4.913   3.578   7.586 -0.0992  0.1129  0.6493
   17DC     C5'  513   5.035   3.631   7.538 -0.2078  0.1331  0.3974
   17DC    H5'1  514   5.062   3.588   7.442  1.3139 -1.4016  1.4544
   17DC    H5'2  515   5.118   3.602   7.603 -0.1003 -1.0167 -0.2255
   17DC     C4'  516   5.015   3.781   7.520 -0.8323 -0.0040 -0.1043
   17DC     H4'  517   5.109   3.815   7.475 -1.3273  0.6545 -0.6519
   17DC     O4'  518   4.920   3.805   7.419  0.5468 -0.3472 -1.5410
   17DC     C1'  519   4.883   3.941   7.424  0.1464 -0.4860  0.3925
   17DC     H1'  520   4.918   3.992   7.333 -1.0788 -0.4040 -0.0528
   17DC      N1  521   4.736   3.950   7.425  0.1303 -0.4104 -0.6795
   17DC      C6  522   4.655   3.857   7.484  0.1449  0.5035  0.8487
   17DC      H6  523   4.704   3.773   7.531 -2.9908 -1.7081  0.4843
   17DC      C5  524   4.521   3.876   7.488  0.1056  0.4171  0.1271
   17DC      H5  525   4.461   3.804   7.540  0.0022 -0.6492 -1.4071
   17DC      C4  526   4.468   3.987   7.415 -0.2257  0.4872  0.4731
   17DC      N4  527   4.338   4.019   7.411 -0.3767 -0.1776 -0.0273
   17DC     H41  528   4.278   3.956   7.464 -0.6436 -2.9515 -3.2470
   17DC     H42  529   4.317   4.104   7.360  1.5105 -0.0460 -0.6608
   17DC      N3  530   4.546   4.080   7.358 -0.1351 -0.0855 -0.3647
   17DC      C2  531   4.680   4.063   7.368 -0.1771 -0.1323  0.1580
   17DC      O2  532   4.750   4.159   7.335  0.6563 -0.5768  0.6001
   17DC     C3'  533   4.983   3.877   7.634  0.0680  0.0622  0.1062
   17DC     H3'  534   4.909   3.835   7.702 -0.7533  0.6751 -0.3872
   17DC     C2'  535   4.928   3.998   7.558 -0.5832 -0.0121  0.4461
   17DC    H2'1  536   4.846   4.042   7.615 -0.6753 -1.1558  1.2434
   17DC    H2'2  537   5.006   4.074   7.547 -0.8431  0.4462  1.6366
   17DC     O3'  538   5.099   3.918   7.702  0.0578  0.0818  0.1120
   18DA       P  539   5.094   3.958   7.858 -0.2458 -0.0157  0.1274
   18DA     O1P  540   5.228   3.966   7.920 -0.1534  0.1730 -0.1004
   18DA     O2P  541   4.990   3.875   7.925 -0.0093  0.0149  0.5366
   18DA     O5'  542   5.035   4.108   7.856 -0.0271  0.0670 -0.0605
   18DA     C5'  543   5.114   4.218   7.817  0.0639 -0.0178 -0.1178
   18DA    H5'1  544   5.174   4.198   7.729 -1.3101 -0.4828 -0.9712
   18DA    H5'2  545   5.191   4.230   7.894  0.4320 -0.7548 -0.3613
   18DA     C4'  546   5.036   4.349   7.813  0.2017  0.0559 -0.3860
   18DA     H4'  547   5.102   4.435   7.800 -0.5264  0.6369 -0.3273
   18DA     O4'  548   4.946   4.345   7.705 -0.0686  0.3500 -0.1738
   18DA     C1'  549   4.825   4.410   7.737 -0.3805 -0.3874  0.1577
   18DA     H1'  550   4.814   4.499   7.675 -0.5911 -0.9498 -0.6377
   18DA      N9  551   4.704   4.331   7.707 -0.2469 -0.5607  0.0675
   18DA      C8  552   4.673   4.201   7.739  0.2063 -0.6369  0.2070
   18DA      H8  553   4.742   4.133   7.786  1.4807 -0.1815 -0.9111
   18DA      N7  554   4.550   4.165   7.714  0.0176  0.2597 -0.2050
   18DA      C5  555   4.496   4.282   7.662  0.0882  0.6005  0.4681
   18DA      C6  556   4.370   4.321   7.613  0.0922 -0.2896 -0.2813
   18DA      N6  557   4.262   4.245   7.594 -0.1558  0.0280 -0.1581
   18DA     H61  558   4.276   4.146   7.607 -0.3396 -0.0248 -0.3601
   18DA     H62  559   4.192   4.278   7.529 -0.6185 -0.0769  0.2776
   18DA      N1  560   4.340   4.444   7.568  0.3695 -0.2342 -0.3216
   18DA      C2  561   4.439   4.530   7.581 -0.1153  0.2297  0.4220
   18DA      H2  562   4.415   4.630   7.549 -2.1150  0.2235  1.7678
   18DA      N3  563   4.561   4.514   7.630  0.0625  0.4225  0.0458
   18DA      C4  564   4.585   4.386   7.667  0.0459  0.6236  0.7667
   18DA     C3'  565   4.954   4.370   7.940  0.2396  0.0167 -0.3557
   18DA     H3'  566   4.934   4.273   7.986 -0.2044  0.0074 -0.5622
   18DA     C2'  567   4.829   4.439   7.887  0.1864  0.2219  0.0310
   18DA    H2'1  568   4.738   4.414   7.942 -0.2020  3.5648  1.1108
   18DA    H2'2  569   4.845   4.547   7.891 -0.8181  0.3993 -0.2505
   18DA     O3'  570   5.017   4.467   8.021 -0.7156  0.5382 -0.2256
   19DT       P  571   4.961   4.502   8.168  0.2133  0.5099  0.1401
   19DT     O1P  572   5.070   4.577   8.236  0.7812 -0.1905  0.0100
   19DT     O2P  573   4.902   4.383   8.233  0.1031  0.2033 -0.5140
   19DT     O5'  574   4.837   4.601   8.138 -0.0943  0.0380 -0.1535
   19DT     C5'  575   4.852   4.736   8.100 -0.1751  0.0085 -0.2918
   19DT    H5'1  576   4.913   4.746   8.011  1.0755 -1.2595  0.3731
   19DT    H5'2  577   4.906   4.780   8.184  1.1363 -0.3326 -0.9365
   19DT     C4'  578   4.717   4.801   8.074 -0.3040 -0.0798  0.1508
   19DT     H4'  579   4.730   4.907   8.053  3.7627 -0.7668 -1.8120
   19DT     O4'  580   4.645   4.747   7.965  0.3715 -0.3357 -0.1747
   19DT     C1'  581   4.506   4.759   7.987  0.3055 -0.1800 -0.6822
   19DT     H1'  582   4.474   4.828   7.908  0.1501 -0.3107 -0.7330
   19DT      N1  583   4.439   4.627   7.987  0.2079 -0.1359  0.5321
   19DT      C6  584   4.495   4.515   8.042  0.0091 -0.0986  0.8132
   19DT      H6  585   4.584   4.532   8.099  0.8906  0.4383 -0.6691
   19DT      C5  586   4.434   4.396   8.020 -0.2817  0.0989  0.5483
   19DT      C7  587   4.501   4.269   8.064 -0.5571 -0.1347  0.2966
   19DT     H71  588   4.520   4.212   7.973 -0.7914  0.8922 -0.4036
   19DT     H72  589   4.597   4.279   8.114 -0.3141 -0.1833 -0.1606
   19DT     H73  590   4.444   4.207   8.134  2.4149 -1.0267  2.1108
   19DT      C4  591   4.313   4.378   7.942  0.2031  0.4648 -0.3011
   19DT      O4  592   4.252   4.277   7.908  0.2565  0.3458 -0.0461
   19DT      N3  593   4.258   4.498   7.900 -0.4252  0.1936 -0.2643
   19DT      H3  594   4.164   4.494   7.864 -0.2723  0.0456 -0.6597
   19DT      C2  595   4.318   4.622   7.921  0.5177 -0.2945 -0.0263
   19DT      O2  596   4.260   4.727   7.895  0.9708 -0.0360 -0.0083
   19DT     C3'  597   4.626   4.799   8.197 -0.2742 -0.2184  0.1715
   19DT     H3'  598   4.624   4.705   8.252 -1.6801  0.6866  1.7822
   19DT     C2'  599   4.492   4.820   8.126 -0.1026 -0.9523 -0.3813
   19DT    H2'1  600   4.415   4.765   8.181 -0.2325  0.4115  0.8292
   19DT    H2'2  601   4.467   4.925   8.116  2.4795 -0.3644 -1.3687
   19DT     O3'  602   4.662   4.899   8.288  0.4314 -0.4795  0.1801
   20DC       P  603   4.612   4.922   8.440 -0.3650  0.2328 -0.1815
   20DC     O1P  604   4.668   5.053   8.479  0.0436  0.1309 -0.4197
   20DC     O2P  605   4.648   4.801   8.518 -0.2148  0.0323 -0.5547
   20DC     O5'  606   4.451   4.929   8.434 -0.3452  0.3149 -0.7209
   20DC     C5'  607   4.386   5.048   8.398 -0.0643  0.7334  0.1202
   20DC    H5'1  608   4.424   5.088   8.304 -0.0466  0.3252 -0.0468
   20DC    H5'2  609   4.397   5.127   8.472  0.0414  0.3819  0.4794
   20DC     C4'  610   4.237   5.027   8.371  0.1247 -0.4457 -0.0610
   20DC     H4'  611   4.204   5.123   8.332 -0.6287 -0.2412  1.0313
   20DC     O4'  612   4.229   4.927   8.273  0.1220  0.1207 -0.6455
   20DC     C1'  613   4.103   4.862   8.278  0.0615  0.3116  0.4770
   20DC     H1'  614   4.037   4.884   8.195 -1.6236 -2.6828  0.8803
   20DC      N1  615   4.112   4.716   8.290 -0.3771  0.2580  0.1530
   20DC      C6  616   4.224   4.642   8.317 -0.1913  0.2765 -0.5394
   20DC      H6  617   4.308   4.697   8.357 -0.9167  0.8793  0.2126
   20DC      C5  618   4.229   4.509   8.301  0.2760  0.1866  0.2757
   20DC      H5  619   4.318   4.449   8.315  1.1021  1.5629  1.1218
   20DC      C4  620   4.113   4.446   8.245  0.1566  0.2729  0.4285
   20DC      N4  621   4.103   4.317   8.213  0.0883  0.3764  0.0216
   20DC     H41  622   4.178   4.249   8.217 -0.7927 -0.6205  0.3330
   20DC     H42  623   4.010   4.286   8.188 -0.4934  2.0965 -0.0513
   20DC      N3  624   3.999   4.514   8.225 -0.1388 -0.2896  0.1832
   20DC      C2  625   3.999   4.648   8.246  0.1269 -0.1859 -0.4738
   20DC      O2  626   3.901   4.708   8.204 -0.3905 -0.4704  0.3162
   20DC     C3'  627   4.145   4.977   8.483  0.2004 -0.1066  0.1531
   20DC     H3'  628   4.205   4.906   8.539  0.2788  0.2988  0.5949
   20DC     C2'  629   4.031   4.924   8.397 -0.1453  0.3205  0.3473
   20DC    H2'1  630   3.969   4.853   8.452  2.0162 -1.1681  0.9907
   20DC    H2'2  631   3.967   5.004   8.359  0.8145  0.0278 -2.0610
   20DC     O3'  632   4.096   5.070   8.577 -0.1655 -0.0251 -0.1149
   21DT       P  633   4.058   5.026   8.728  0.1029  0.0606 -0.0219
   21DT     O1P  634   4.033   5.154   8.798  0.3893  0.0816  0.0449
   21DT     O2P  635   4.168   4.942   8.780  0.0844  0.1735  0.1980
   21DT     O5'  636   3.924   4.938   8.714  0.0883  0.0134  0.4122
   21DT     C5'  637   3.807   5.010   8.680  0.2639  0.0005 -0.2187
   21DT    H5'1  638   3.828   5.083   8.602 -1.9590  0.7167 -0.1947
   21DT    H5'2  639   3.782   5.083   8.756  0.1127 -0.7503  0.4675
   21DT     C4'  640   3.692   4.917   8.641  0.1203  0.2450 -0.3794
   21DT     H4'  641   3.598   4.967   8.618 -0.3091  0.1981  1.1695
   21DT     O4'  642   3.719   4.841   8.526 -0.1759 -0.2567 -0.1193
   21DT     C1'  643   3.650   4.719   8.542 -0.4538 -0.0663  0.1336
   21DT     H1'  644   3.579   4.701   8.462  0.4349 -0.7671 -0.5122
   21DT      N1  645   3.741   4.604   8.557 -0.1480  0.0826 -0.5751
   21DT      C6  646   3.870   4.617   8.601 -0.2723 -0.5718 -0.0014
   21DT      H6  647   3.902   4.711   8.643  0.2643 -1.7689  2.4818
   21DT      C5  648   3.956   4.513   8.599  0.3113 -0.0966  0.2624
   21DT      C7  649   4.100   4.532   8.642  0.2367  0.1606  0.4020
   21DT     H71  650   4.117   4.638   8.662  0.5463  0.4281 -1.1677
   21DT     H72  651   4.119   4.471   8.730 -4.8437 -0.9071  1.0943
   21DT     H73  652   4.158   4.494   8.558  2.9598  1.0153  1.7947
   21DT      C4  653   3.915   4.385   8.547  0.0603  0.0575  0.0818
   21DT      O4  654   3.985   4.285   8.530  0.3443  0.2980 -0.1826
   21DT      N3  655   3.783   4.376   8.503  0.2016  0.4282 -0.4276
   21DT      H3  656   3.750   4.289   8.465 -0.1271  0.6762 -0.7153
   21DT      C2  657   3.698   4.485   8.501 -0.2489  0.0751 -0.4808
   21DT      O2  658   3.588   4.469   8.447 -0.3231 -0.4154 -0.1852
   21DT     C3'  659   3.646   4.829   8.757 -0.3512  0.3406 -0.4916
   21DT     H3'  660   3.733   4.778   8.799 -2.2438 -2.6868  0.0051
   21DT     C2'  661   3.567   4.732   8.670 -0.4107 -0.2229  0.1788
   21DT    H2'1  662   3.552   4.641   8.728  1.0456 -0.1118  0.7663
   21DT    H2'2  663   3.471   4.773   8.638  0.1008 -0.0721 -1.2264
   21DT     O3'  664   3.562   4.875   8.860 -0.1101 -0.0122 -0.1335
   22DG       P  665   3.545   4.811   9.007  0.2171 -0.0601 -0.1154
   22DG     O1P  666   3.471   4.911   9.087  0.4590  0.4379 -0.5082
   22DG     O2P  667   3.677   4.762   9.054  0.3500  0.3528 -0.0591
   22DG     O5'  668   3.448   4.682   8.994 -0.1430  0.2455 -0.5010
   22DG     C5'  669   3.310   4.689   8.967 -0.1741 -0.5929 -0.5861
   22DG    H5'1  670   3.296   4.764   8.889 -1.2200  1.3350  1.3429
   22DG    H5'2  671   3.261   4.713   9.061 -1.5507 -2.7860 -0.6871
   22DG     C4'  672   3.259   4.550   8.934 -0.0567 -0.7596 -0.0748
   22DG     H4'  673   3.152   4.548   8.913 -0.2031 -0.4916  0.6374
   22DG     O4'  674   3.318   4.498   8.816  0.2912  0.1838 -0.3270
   22DG     C1'  675   3.325   4.358   8.835  0.1613  0.1765 -0.3304
   22DG     H1'  676   3.272   4.308   8.754  2.8443 -1.8953 -0.9712
   22DG      N9  677   3.468   4.325   8.828  0.1057 -0.3208  0.6256
   22DG      C8  678   3.581   4.402   8.841  0.0984 -0.2277  0.1555
   22DG      H8  679   3.567   4.503   8.874  1.8441  0.2394 -0.4144
   22DG      N7  680   3.694   4.339   8.824  0.1733 -0.3578  1.0815
   22DG      C5  681   3.651   4.212   8.787 -0.0185  0.0108 -0.0244
   22DG      C6  682   3.721   4.096   8.743 -0.0752 -0.0577  0.0642
   22DG      O6  683   3.842   4.084   8.723 -0.0255  0.0855  0.2665
   22DG      N1  684   3.643   3.982   8.738 -0.2739  0.0833 -0.0626
   22DG      H1  685   3.686   3.895   8.709 -0.9860 -1.2650  2.5845
   22DG      C2  686   3.505   3.986   8.728 -0.2814 -0.4805 -0.2345
   22DG      N2  687   3.442   3.868   8.722 -0.6546 -0.2499 -0.9429
   22DG     H21  688   3.497   3.784   8.711 -0.2485  0.0126 -0.9239
   22DG     H22  689   3.345   3.859   8.746 -0.4486 -1.1521 -0.4231
   22DG      N3  690   3.436   4.096   8.759  0.1319 -0.1891 -0.3251
   22DG      C4  691   3.515   4.200   8.792 -0.0038 -0.1784 -0.0368
   22DG     C3'  692   3.285   4.454   9.050 -0.0960 -0.4637  0.1780
   22DG     H3'  693   3.382   4.480   9.093 -1.2966  0.3229  2.6122
   22DG     C2'  694   3.272   4.323   8.974 -0.1521 -0.0677 -0.5111
   22DG    H2'1  695   3.332   4.242   9.017 -0.8238 -0.3813 -0.1413
   22DG    H2'2  696   3.168   4.291   8.964 -0.2990  0.3556 -0.3599
   22DG     O3'  697   3.185   4.473   9.147 -0.1409  0.0176  0.0427
   23DC       P  698   3.201   4.415   9.297 -0.5288  0.1137  0.1238
   23DC     O1P  699   3.082   4.453   9.375 -0.5102  0.8417 -0.1963
   23DC     O2P  700   3.335   4.460   9.343 -0.0531 -0.6566 -0.4806
   23DC     O5'  701   3.219   4.257   9.271 -0.3899  0.1609 -0.0728
   23DC     C5'  702   3.106   4.174   9.264  0.0475 -0.4651  0.2135
   23DC    H5'1  703   3.052   4.211   9.177  1.5210  0.4303 -0.3500
   23DC    H5'2  704   3.053   4.184   9.359 -3.4466 -5.3410 -0.8432
   23DC     C4'  705   3.136   4.025   9.246  0.0527 -0.4508  0.1048
   23DC     H4'  706   3.046   3.964   9.241 -0.3014 -0.1321  1.9263
   23DC     O4'  707   3.209   4.000   9.128 -0.0983  0.2246 -0.1366
   23DC     C1'  708   3.307   3.900   9.142 -0.1582  0.1668 -0.1336
   23DC     H1'  709   3.285   3.819   9.072  0.1820  0.0169 -0.0649
   23DC      N1  710   3.448   3.930   9.115 -0.2110  0.4455 -0.0942
   23DC      C6  711   3.500   4.054   9.139 -0.2945  0.4424  0.1040
   23DC      H6  712   3.432   4.133   9.169 -0.5404  1.3683 -2.6222
   23DC      C5  713   3.632   4.081   9.124 -0.2354  0.0954  0.0102
   23DC      H5  714   3.664   4.182   9.141  1.0568 -0.2546 -0.2887
   23DC      C4  715   3.712   3.975   9.070 -0.3295  0.1617 -0.2603
   23DC      N4  716   3.839   3.987   9.030 -0.1225  0.0493  0.3520
   23DC     H41  717   3.872   4.079   9.005 -1.4600  0.8417  1.3652
   23DC     H42  718   3.896   3.907   9.007 -0.2734  0.0651 -0.0756
   23DC      N3  719   3.664   3.851   9.053 -0.2856  0.1618 -0.3830
   23DC      C2  720   3.531   3.829   9.069 -0.2844  0.3788 -0.0796
   23DC      O2  721   3.493   3.715   9.046 -0.2462  0.4619 -0.5615
   23DC     C3'  722   3.224   3.966   9.356  0.3472 -0.1106  0.0539
   23DC     H3'  723   3.303   4.038   9.380  1.7448 -1.3778 -0.5631
   23DC     C2'  724   3.277   3.844   9.281  0.6107  0.0421 -0.0129
   23DC    H2'1  725   3.365   3.793   9.320  0.9745  0.2865 -0.5029
   23DC    H2'2  726   3.197   3.769   9.282 -0.3018  0.9692  1.8933
   23DC     O3'  727   3.158   3.921   9.472 -0.1194  0.3946 -0.0120
   24DG       P  728   3.236   3.850   9.594  0.0954 -0.0840 -0.4234
   24DG     O1P  729   3.127   3.807   9.684 -0.1841  0.1498 -0.6470
   24DG     O2P  730   3.340   3.940   9.649  0.1438 -0.1176 -0.4601
   24DG     O5'  731   3.313   3.718   9.546  0.3363 -0.0940 -0.0031
   24DG     C5'  732   3.247   3.594   9.538  0.1148  0.0189  0.0799
   24DG    H5'1  733   3.170   3.596   9.462 -0.6457  0.8100  0.8445
   24DG    H5'2  734   3.205   3.561   9.634  0.4364  0.3748  0.3451
   24DG     C4'  735   3.337   3.477   9.497 -0.0810 -0.1377  0.0939
   24DG     H4'  736   3.272   3.390   9.490 -0.5626  0.1741  0.5635
   24DG     O4'  737   3.390   3.502   9.369  0.1728  0.4778  0.3128
   24DG     C1'  738   3.519   3.444   9.367  0.1835  0.5018  0.3262
   24DG     H1'  739   3.529   3.370   9.288  0.9277 -0.3941  1.2378
   24DG      N9  740   3.611   3.556   9.336  0.2551  0.3417 -0.0365
   24DG      C8  741   3.607   3.686   9.377  0.2454  0.3845 -0.1720
   24DG      H8  742   3.521   3.726   9.428 -0.6078 -2.0200  0.3786
   24DG      N7  743   3.718   3.754   9.369  0.3784  0.1439 -0.3782
   24DG      C5  744   3.808   3.661   9.318  0.2598  0.0265 -0.3716
   24DG      C6  745   3.948   3.674   9.296  0.3586  0.3143  0.3828
   24DG      O6  746   4.024   3.770   9.305  0.5689  0.1899 -0.0455
   24DG      N1  747   4.006   3.557   9.249 -0.2512  0.3308 -0.4295
   24DG      H1  748   4.106   3.559   9.237  0.0508 -0.8561  1.4179
   24DG      C2  749   3.932   3.441   9.234 -0.0173  0.1836 -0.4522
   24DG      N2  750   4.005   3.331   9.211  0.1895  0.0482  0.7811
   24DG     H21  751   4.104   3.346   9.197 -0.3150  1.2997 -2.2446
   24DG     H22  752   3.958   3.244   9.192 -0.3942  0.6678 -0.8790
   24DG      N3  753   3.799   3.431   9.247  0.0697 -0.1880  0.1888
   24DG      C4  754   3.742   3.543   9.298  0.2579 -0.0546  0.1064
   24DG     C3'  755   3.452   3.454   9.594  0.0686  0.7493  0.1378
   24DG     H3'  756   3.496   3.551   9.615 -2.1846  2.3601 -1.9432
   24DG     C2'  757   3.541   3.373   9.500 -0.1148  0.3608  0.2993
   24DG    H2'1  758   3.644   3.381   9.534 -0.1223 -2.2936  1.1638
   24DG    H2'2  759   3.507   3.270   9.488 -1.6314  0.8848 -0.1901
   24DG     O3'  760   3.414   3.380   9.708  0.3733  0.1201 -0.1606
   25DC       P  761   3.485   3.391   9.853  0.0474 -0.3304  0.0333
   25DC     O1P  762   3.406   3.315   9.953  0.0005 -0.0871  0.1812
   25DC     O2P  763   3.512   3.535   9.873  0.0795 -0.2853 -0.3199
   25DC     O5'  764   3.634   3.331   9.839  0.0175 -0.3854 -0.0439
   25DC     C5'  765   3.643   3.194   9.807 -0.1638 -0.4357  0.1175
   25DC    H5'1  766   3.577   3.169   9.724  1.9285 -0.2068 -1.7107
   25DC    H5'2  767   3.615   3.141   9.898  1.8792  2.0090  2.2995
   25DC     C4'  768   3.780   3.149   9.757  0.0904  0.7083 -0.2446
   25DC     H4'  769   3.770   3.041   9.739 -1.9486  0.7301  0.4638
   25DC     O4'  770   3.810   3.213   9.635 -0.0514  0.3615 -0.4636
   25DC     C1'  771   3.947   3.243   9.627  0.1281 -0.2773  0.1267
   25DC     H1'  772   3.981   3.186   9.540 -1.0640  0.5801 -0.9286
   25DC      N1  773   3.979   3.387   9.618 -0.0892 -0.2465 -0.1618
   25DC      C6  774   3.886   3.482   9.649  0.6318  0.4059  0.0401
   25DC      H6  775   3.790   3.452   9.689  0.8121 -1.3269 -0.7199
   25DC      C5  776   3.916   3.613   9.647 -0.0110  0.5537  0.0257
   25DC      H5  777   3.838   3.677   9.687 -0.1996  0.2416  0.1653
   25DC      C4  778   4.046   3.647   9.597  0.0062 -0.0308 -0.3385
   25DC      N4  779   4.088   3.774   9.588 -0.3160  0.1478  0.5474
   25DC     H41  780   4.021   3.846   9.613  0.5379  0.0557  3.4576
   25DC     H42  781   4.168   3.806   9.535 -0.1815 -1.1947 -0.1008
   25DC      N3  782   4.134   3.558   9.551 -0.2299 -0.0786 -0.7039
   25DC      C2  783   4.097   3.427   9.558  0.2667 -0.1640  0.5843
   25DC      O2  784   4.174   3.346   9.507  0.3750  0.0296  0.4351
   25DC     C3'  785   3.897   3.173   9.851 -0.1087  0.6580  0.0138
   25DC     H3'  786   3.871   3.263   9.907 -1.4249  0.3590 -0.0804
   25DC     C2'  787   4.013   3.192   9.755  0.1943  0.1963  0.2842
   25DC    H2'1  788   4.086   3.266   9.788  1.0827  0.1278 -1.4099
   25DC    H2'2  789   4.068   3.097   9.753  0.2980  0.1752  2.2570
   25DC     O3'  790   3.922   3.062   9.935 -0.2133 -0.1295 -0.9857
   25DC     H3T  791   3.938   3.087  10.026 -1.1885 -0.8223 -0.6126
   26G      O5'  792   5.093   3.943   9.182  0.0686 -0.2228  0.3491
   26G      H5T  793   5.073   3.958   9.089 -1.0068  0.3015  0.6537
   26G      C5'  794   5.176   3.833   9.211 -0.0771 -0.2432  0.6836
   26G     H5'1  795   5.235   3.858   9.299  0.8747  1.5297 -0.4076
   26G     H5'2  796   5.244   3.817   9.128 -0.2399  1.2821  0.2230
   26G      C4'  797   5.090   3.710   9.239  0.0086 -0.4991 -0.1756
   26G      H4'  798   5.167   3.633   9.248  0.7505  0.3482  0.9751
   26G      O4'  799   5.011   3.727   9.354  0.5424 -0.1826  0.1477
   26G      C1'  800   4.894   3.649   9.350  0.2601  0.2624 -0.2754
   26G      H1'  801   4.898   3.586   9.438 -0.4272  0.8818  0.2159
   26G       N9  802   4.770   3.730   9.359 -0.1214 -0.3060 -0.3591
   26G       C8  803   4.743   3.863   9.344  0.3248 -0.1592  0.1142
   26G       H8  804   4.822   3.930   9.312  0.7130 -0.6710 -0.0129
   26G       N7  805   4.623   3.901   9.377  0.4257 -0.0249  0.3311
   26G       C5  806   4.561   3.779   9.403 -0.2319  0.0099 -0.9701
   26G       C6  807   4.428   3.746   9.439  0.0190 -0.3453 -0.3433
   26G       O6  808   4.333   3.823   9.452 -0.1449 -0.6627  0.4345
   26G       N1  809   4.404   3.611   9.461 -0.2658 -0.1975  0.2713
   26G       H1  810   4.308   3.582   9.472 -0.3880 -0.0924 -0.4568
   26G       C2  811   4.500   3.515   9.439 -0.1070  0.0307 -0.0347
   26G       N2  812   4.461   3.387   9.448  0.3649 -0.1466 -0.4523
   26G      H21  813   4.365   3.369   9.475 -0.4403  0.6510 -2.5655
   26G      H22  814   4.522   3.307   9.449 -0.4410 -0.7710  0.0940
   26G       N3  815   4.627   3.542   9.408 -0.1478 -0.0280 -0.2588
   26G       C4  816   4.650   3.675   9.397 -0.1868 -0.0112 -0.1388
   26G      C3'  817   4.991   3.659   9.135  0.2295 -0.6945 -0.2911
   26G      H3'  818   4.938   3.742   9.089  1.0024 -0.7736 -1.3899
   26G      C2'  819   4.903   3.569   9.220 -0.3423 -0.0106 -0.1521
   26G     H2'1  820   4.806   3.534   9.185 -1.9681  0.5035  3.3412
   26G      O2'  821   4.975   3.452   9.254 -0.0641  0.2058  0.0066
   26G     HO'2  822   4.974   3.403   9.172  0.1147  1.7536 -0.9564
   26G      O3'  823   5.058   3.597   9.027  0.2983 -0.5912 -0.3079
   27C        P  824   4.981   3.574   8.888 -0.1229 -0.3779 -0.1123
   27C      O1P  825   5.080   3.500   8.806  0.4616 -0.3179  0.5320
   27C      O2P  826   4.931   3.701   8.832  0.3113 -0.0973  0.1313
   27C      O5'  827   4.859   3.474   8.921 -0.5805  0.3536  0.4248
   27C      C5'  828   4.877   3.335   8.934 -0.1814  0.3175 -0.4611
   27C     H5'1  829   4.954   3.314   9.008 -0.9999  1.3229  0.7134
   27C     H5'2  830   4.903   3.296   8.836  3.3194  3.0027 -0.7830
   27C      C4'  831   4.747   3.269   8.980 -0.2344  0.4749 -0.3831
   27C      H4'  832   4.765   3.166   9.012  1.2048  0.9357  0.3519
   27C      O4'  833   4.687   3.336   9.088 -0.4071  0.2565 -0.3426
   27C      C1'  834   4.546   3.326   9.088 -0.3813 -0.1074 -0.1047
   27C      H1'  835   4.516   3.276   9.180 -2.2650 -0.0535 -0.6477
   27C       N1  836   4.475   3.454   9.100  0.3167  0.2208  0.6393
   27C       C6  837   4.531   3.570   9.053 -0.1378 -0.1203 -0.7960
   27C       H6  838   4.627   3.576   9.005 -0.8155  1.5647 -2.0584
   27C       C5  839   4.464   3.687   9.063 -0.2159 -0.1909 -0.4887
   27C       H5  840   4.506   3.777   9.022 -1.3500  0.6559  0.1689
   27C       C4  841   4.335   3.682   9.125  0.1410 -0.3554  0.2496
   27C       N4  842   4.269   3.792   9.164 -0.0262 -0.4021  0.0982
   27C      H41  843   4.322   3.876   9.148  1.8163 -1.5334 -0.0452
   27C      H42  844   4.186   3.783   9.221  0.2734  1.2951  0.8705
   27C       N3  845   4.277   3.568   9.164 -0.2174 -0.2636 -0.0164
   27C       C2  846   4.344   3.451   9.146 -0.0434 -0.1098 -0.3683
   27C       O2  847   4.278   3.348   9.153 -0.5032  0.1810 -0.3607
   27C      C3'  848   4.631   3.270   8.881 -0.3408  0.1566 -0.2607
   27C      H3'  849   4.629   3.367   8.833  0.7138  0.6971  0.7465
   27C      C2'  850   4.511   3.236   8.969 -0.4238  0.2247 -0.3467
   27C     H2'1  851   4.416   3.266   8.924 -0.6451 -0.0416 -0.0632
   27C      O2'  852   4.508   3.100   9.007  0.0582  0.2922 -0.0529
   27C     HO'2  853   4.429   3.074   9.055  1.5105 -0.1474  2.2420
   27C      O3'  854   4.656   3.173   8.781  0.1209  0.2849 -0.2711
   28G        P  855   4.592   3.180   8.633 -0.3159 -0.1984 -0.1056
   28G      O1P  856   4.638   3.051   8.576 -0.5203 -0.2282 -0.2040
   28G      O2P  857   4.627   3.306   8.565 -0.2369 -0.3250 -0.3002
   28G      O5'  858   4.431   3.175   8.634 -0.3096 -0.4529  0.0796
   28G      C5'  859   4.376   3.051   8.672 -0.0654 -0.4246  0.5273
   28G     H5'1  860   4.434   3.015   8.757 -1.8548 -1.2999  1.4395
   28G     H5'2  861   4.383   2.987   8.584  0.6122 -1.4140  1.2864
   28G      C4'  862   4.234   3.074   8.723 -0.1790  0.0320  0.0188
   28G      H4'  863   4.198   2.976   8.753 -1.9408  1.1191  1.6317
   28G      O4'  864   4.218   3.152   8.839 -0.5239  0.2508 -0.1757
   28G      C1'  865   4.098   3.225   8.821 -0.4934  0.3130 -0.1250
   28G      H1'  866   4.034   3.193   8.904  0.3107 -3.1991 -0.6761
   28G       N9  867   4.117   3.370   8.836  0.1447  0.1909  0.3456
   28G       C8  868   4.227   3.445   8.805  0.6111 -0.3412  0.7193
   28G       H8  869   4.314   3.408   8.753 -0.2345  0.5917 -1.4543
   28G       N7  870   4.212   3.571   8.833  0.3907 -0.2137  0.0452
   28G       C5  871   4.080   3.578   8.878  0.2898 -0.0295 -0.2809
   28G       C6  872   4.006   3.693   8.916  0.1614 -0.1887 -0.0544
   28G       O6  873   4.031   3.813   8.912  0.1869 -0.2056 -0.3753
   28G       N1  874   3.872   3.666   8.936  0.2289 -0.1524  0.4519
   28G       H1  875   3.801   3.739   8.929 -0.0603 -0.5780 -1.7597
   28G       C2  876   3.822   3.537   8.937  0.1010 -0.1022  0.6564
   28G       N2  877   3.691   3.514   8.949  0.1052 -0.1516  0.6033
   28G      H21  878   3.632   3.594   8.968  2.3560  1.4822  1.1687
   28G      H22  879   3.663   3.419   8.969  0.3282 -0.9490 -2.4696
   28G       N3  880   3.890   3.426   8.908  0.0511 -0.0139  0.1861
   28G       C4  881   4.020   3.455   8.885  0.0231  0.1272  0.2155
   28G      C3'  882   4.140   3.130   8.617 -0.1481  0.2926  0.1302
   28G      H3'  883   4.192   3.212   8.566 -2.6784  2.0726  0.1997
   28G      C2'  884   4.022   3.189   8.694 -0.3895  0.1753 -0.1484
   28G     H2'1  885   3.989   3.283   8.649  2.8013  1.9604  0.8917
   28G      O2'  886   3.917   3.100   8.726  0.0703 -0.3607 -0.1124
   28G     HO'2  887   3.845   3.120   8.666  0.4202 -0.9359 -0.7358
   28G      O3'  888   4.105   3.037   8.517  0.0361  0.2879  0.0693
   29C        P  889   4.043   3.085   8.376 -0.0190 -0.1347 -0.0494
   29C      O1P  890   4.025   2.962   8.296 -0.7663  0.1499 -0.3227
   29C      O2P  891   4.138   3.186   8.325 -0.2638  0.1028 -0.0386
   29C      O5'  892   3.903   3.162   8.395 -0.1191 -0.2409 -0.3585
   29C      C5'  893   3.789   3.083   8.420  0.0688 -0.3453  0.1738
   29C     H5'1  894   3.812   3.011   8.499  1.9360  0.1954  0.1677
   29C     H5'2  895   3.757   3.036   8.327 -1.9815 -0.0687  0.6811
   29C      C4'  896   3.673   3.169   8.469  0.4025  0.3954 -0.3326
   29C      H4'  897   3.584   3.112   8.496 -0.1717  1.7895  0.8309
   29C      O4'  898   3.715   3.243   8.581 -0.4781 -0.5455  0.6497
   29C      C1'  899   3.636   3.359   8.591 -0.1361 -0.2778  0.3078
   29C      H1'  900   3.583   3.367   8.686 -0.6080  0.4739 -0.0006
   29C       N1  901   3.721   3.479   8.584 -0.3653 -0.1227  0.1494
   29C       C6  902   3.849   3.481   8.536 -0.5589  0.7094 -0.3567
   29C       H6  903   3.888   3.392   8.489  0.8543  0.2950  1.5165
   29C       C5  904   3.929   3.589   8.544  0.1428  0.1690 -0.0684
   29C       H5  905   4.033   3.588   8.514  0.1371  0.4571 -0.0931
   29C       C4  906   3.872   3.712   8.589 -0.3362  0.1116 -0.5111
   29C       N4  907   3.936   3.824   8.627 -0.2018 -0.1671  0.0951
   29C      H41  908   4.027   3.841   8.587 -0.2477  0.8857  0.4245
   29C      H42  909   3.880   3.906   8.642  0.2575  0.4290 -1.3163
   29C       N3  910   3.745   3.717   8.632 -0.3017  0.1339 -0.4123
   29C       C2  911   3.674   3.602   8.628 -0.2785  0.1200 -0.4235
   29C       O2  912   3.561   3.613   8.676 -0.1706 -0.4824 -0.0202
   29C      C3'  913   3.613   3.263   8.364 -0.2725  0.2354 -0.0931
   29C      H3'  914   3.696   3.315   8.318  1.5495 -0.7013  1.9795
   29C      C2'  915   3.547   3.355   8.466 -0.1548 -0.1291  0.3177
   29C     H2'1  916   3.540   3.452   8.416 -0.0279 -0.6836 -0.7923
   29C      O2'  917   3.421   3.304   8.505 -0.3180  0.1622  0.1780
   29C     HO'2  918   3.383   3.277   8.421 -0.2645  0.2500  0.1244
   29C      O3'  919   3.519   3.212   8.272 -0.4584  0.0264  0.2115
   30A        P  920   3.500   3.278   8.127 -0.1169  0.0167  0.1594
   30A      O1P  921   3.404   3.196   8.048  0.0655 -0.1830  0.1457
   30A      O2P  922   3.633   3.311   8.071  0.0499 -0.3855  0.3172
   30A      O5'  923   3.432   3.416   8.174  0.7799  0.3395  0.5080
   30A      C5'  924   3.301   3.415   8.224  0.5816 -0.5568 -0.0088
   30A     H5'1  925   3.297   3.340   8.304  1.4072 -1.4424 -0.7790
   30A     H5'2  926   3.236   3.379   8.144 -0.7738 -0.6957  1.1055
   30A      C4'  927   3.252   3.556   8.259  0.4243 -0.7440  0.5398
   30A      H4'  928   3.148   3.545   8.288  0.1737  0.3188  0.0736
   30A      O4'  929   3.315   3.622   8.367  0.2681  0.2547  0.0258
   30A      C1'  930   3.339   3.758   8.337  0.2430  0.3011  0.2153
   30A      H1'  931   3.304   3.810   8.426 -0.3958  1.8287 -0.8908
   30A       N9  932   3.480   3.797   8.322  0.2975  0.0028 -0.0696
   30A       C8  933   3.585   3.725   8.272  0.0687 -0.2838 -0.1377
   30A       H8  934   3.581   3.623   8.237 -0.0137 -0.7284  1.1119
   30A       N7  935   3.699   3.784   8.296 -0.2357  0.1510  0.2359
   30A       C5  936   3.669   3.908   8.353  0.0969  0.3393  0.0068
   30A       C6  937   3.742   4.016   8.406  0.2343 -0.3500  1.2734
   30A       N6  938   3.875   4.029   8.399  0.1339 -0.0778 -0.5459
   30A      H61  939   3.927   3.952   8.358 -0.3890 -1.5457  1.3784
   30A      H62  940   3.916   4.111   8.440  1.2028 -0.3548 -1.0264
   30A       N1  941   3.673   4.123   8.447  0.0847  0.0800 -0.0451
   30A       C2  942   3.541   4.126   8.441  0.0637 -0.3541  0.1611
   30A       H2  943   3.497   4.218   8.475  0.4969  0.2633 -0.8931
   30A       N3  944   3.463   4.029   8.396 -0.1543  0.0831 -0.4235
   30A       C4  945   3.532   3.919   8.359  0.0757  0.0608  0.0541
   30A      C3'  946   3.247   3.650   8.139 -0.5142 -0.2157  0.9823
   30A      H3'  947   3.335   3.629   8.078 -1.7492 -1.3594 -0.4547
   30A      C2'  948   3.249   3.782   8.216  0.6754  0.4151 -0.0876
   30A     H2'1  949   3.295   3.860   8.155  2.2423  1.0530  1.8232
   30A      O2'  950   3.124   3.826   8.264  0.5541 -0.0177  0.0011
   30A     HO'2  951   3.063   3.815   8.190  2.3110  1.7432 -1.8448
   30A      O3'  952   3.129   3.646   8.062  0.1691  0.3019 -0.1177
   31G        P  953   3.124   3.721   7.920  0.2980 -0.2110 -0.3956
   31G      O1P  954   2.986   3.713   7.868  0.2822 -0.1917 -0.3574
   31G      O2P  955   3.235   3.666   7.839  0.3975 -0.0012 -0.4037
   31G      O5'  956   3.151   3.878   7.947  0.3245 -0.1845 -0.5761
   31G      C5'  957   3.044   3.964   7.980  0.6958 -0.0037  0.1833
   31G     H5'1  958   3.005   3.929   8.075  1.1954  2.0736  1.1974
   31G     H5'2  959   2.965   3.968   7.905  0.5220 -1.5417  0.2388
   31G      C4'  960   3.090   4.106   8.008  0.2911  0.0820  0.4144
   31G      H4'  961   3.008   4.171   8.038 -2.2487 -2.3859 -0.7100
   31G      O4'  962   3.187   4.107   8.110  0.4242 -0.5725  0.3000
   31G      C1'  963   3.272   4.217   8.087  0.0119 -0.3615 -0.2338
   31G      H1'  964   3.264   4.292   8.166 -2.4079 -1.8331  1.0075
   31G       N9  965   3.414   4.177   8.089  0.0989 -0.0593 -0.2019
   31G       C8  966   3.466   4.056   8.050 -0.1992 -0.5325  0.8371
   31G       H8  967   3.406   3.970   8.024 -0.9016  0.1861  0.0199
   31G       N7  968   3.596   4.051   8.063 -0.1352 -0.4314  0.2449
   31G       C5  969   3.628   4.182   8.097 -0.0941 -0.3743 -0.0144
   31G       C6  970   3.755   4.241   8.119 -0.3743  0.0141  0.5780
   31G       O6  971   3.866   4.187   8.119 -0.4069 -0.0541  0.2175
   31G       N1  972   3.756   4.376   8.148  0.1235  0.1974 -0.2681
   31G       H1  973   3.841   4.413   8.188  0.5580  0.3480 -1.3109
   31G       C2  974   3.636   4.445   8.156 -0.2238 -0.4604  0.2865
   31G       N2  975   3.641   4.577   8.175 -0.1818 -0.4698  0.3395
   31G      H21  976   3.730   4.617   8.201  0.9411 -1.3058 -1.9006
   31G      H22  977   3.553   4.626   8.184  0.9430  1.4719  1.3999
   31G       N3  978   3.513   4.395   8.140 -0.3073 -0.0452 -0.4422
   31G       C4  979   3.518   4.262   8.115  0.0971 -0.1021 -0.0575
   31G      C3'  980   3.148   4.178   7.887 -0.3205  0.3949  0.3006
   31G      H3'  981   3.217   4.109   7.839  0.3802 -0.8687  2.9869
   31G      C2'  982   3.233   4.285   7.956  0.2646  0.1583 -0.0444
   31G     H2'1  983   3.321   4.307   7.896 -0.5002  0.0438 -1.2518
   31G      O2'  984   3.156   4.399   7.985 -0.1267 -0.2065  0.3675
   31G     HO'2  985   3.086   4.403   7.919  0.8928  0.3330 -0.7187
   31G      O3'  986   3.055   4.236   7.798  0.3619  0.7110 -0.2226
   32A        P  987   3.094   4.260   7.644 -0.0635 -0.0274 -0.4476
   32A      O1P  988   2.975   4.314   7.574 -0.2479 -0.0478 -0.1518
   32A      O2P  989   3.157   4.138   7.588 -0.4900 -0.4116 -0.0979
   32A      O5'  990   3.199   4.381   7.636  0.1661 -0.2092 -0.2000
   32A      C5'  991   3.151   4.513   7.648  0.2812 -0.1674 -0.2037
   32A     H5'1  992   3.084   4.513   7.734  2.4506 -0.6982  1.6204
   32A     H5'2  993   3.101   4.558   7.563  0.0454 -1.6775 -0.8754
   32A      C4'  994   3.259   4.610   7.697  0.0258 -0.1883  0.4143
   32A      H4'  995   3.220   4.708   7.724  2.7619  0.6654  1.6764
   32A      O4'  996   3.327   4.565   7.812  0.3335  0.5421  0.5246
   32A      C1'  997   3.464   4.596   7.798  0.3688  0.0668 -0.2413
   32A      H1'  998   3.499   4.654   7.884  1.2461 -1.1999  0.2857
   32A       N9  999   3.564   4.490   7.775  0.3040  0.0685 -0.5335
   32A       C8 1000   3.548   4.363   7.728  0.1108 -0.1431  0.0945
   32A       H8 1001   3.454   4.328   7.688  1.2899 -0.4092 -2.7019
   32A       N7 1002   3.655   4.292   7.748  0.0019 -0.2230  0.4007
   32A       C5 1003   3.751   4.382   7.791 -0.1118  0.0396  0.1038
   32A       C6 1004   3.887   4.378   7.826  0.1429  0.1636 -0.8325
   32A       N6 1005   3.953   4.261   7.834  0.1256  0.1523 -0.8568
   32A      H61 1006   3.902   4.175   7.839  1.0499 -0.3170  1.6216
   32A      H62 1007   4.053   4.266   7.846  0.0446  1.3652 -0.5690
   32A       N1 1008   3.958   4.489   7.852 -0.1170  0.1134  0.1507
   32A       C2 1009   3.889   4.601   7.862 -0.3482 -0.0175  0.0283
   32A       H2 1010   3.941   4.692   7.886  1.3193 -0.7152 -0.7630
   32A       N3 1011   3.760   4.622   7.840 -0.3147  0.3488  0.1749
   32A       C4 1012   3.697   4.507   7.808 -0.0006 -0.0021  0.8006
   32A      C3' 1013   3.363   4.635   7.587 -0.2630 -0.0505  0.1728
   32A      H3' 1014   3.386   4.537   7.546  1.4821  0.1341  0.6434
   32A      C2' 1015   3.474   4.688   7.677 -0.1126  0.2149 -0.1694
   32A     H2'1 1016   3.568   4.685   7.623  1.3729  2.8950  1.9914
   32A      O2' 1017   3.440   4.817   7.723 -0.6839 -0.1078  0.3333
   32A     HO'2 1018   3.346   4.837   7.728 -0.9229 -1.4273  1.8296
   32A      O3' 1019   3.314   4.723   7.488  0.2399  0.6335  0.5243
   33U        P 1020   3.386   4.742   7.346 -0.5863 -0.3416 -0.0375
   33U      O1P 1021   3.315   4.839   7.259  0.0548  0.3997  0.2527
   33U      O2P 1022   3.410   4.602   7.303 -0.2771 -0.3118  0.0370
   33U      O5' 1023   3.534   4.800   7.373 -0.7777 -0.0185  0.3183
   33U      C5' 1024   3.558   4.933   7.413  0.1354 -0.0943  0.0336
   33U     H5'1 1025   3.504   4.951   7.505  0.4282 -0.2222  0.2315
   33U     H5'2 1026   3.525   5.002   7.335 -0.7417  0.2489  0.6902
   33U      C4' 1027   3.707   4.958   7.433  0.2161  0.2493 -0.9240
   33U      H4' 1028   3.717   5.060   7.469  1.0632 -0.1814  0.1371
   33U      O4' 1029   3.757   4.870   7.532  0.1772  0.2473 -0.9064
   33U      C1' 1030   3.894   4.856   7.504  0.2975  0.2771 -0.3421
   33U      H1' 1031   3.961   4.892   7.582 -1.0163  0.4854  0.7103
   33U       N1 1032   3.915   4.710   7.492 -0.1649  0.1762  0.0459
   33U       C6 1033   3.821   4.617   7.459  0.1964 -0.3518  0.4860
   33U       H6 1034   3.727   4.649   7.417 -0.9596 -1.8307  1.8493
   33U       C5 1035   3.848   4.485   7.461 -0.2888 -0.4526  0.3162
   33U       H5 1036   3.779   4.416   7.413  1.6328 -1.9634 -0.3883
   33U       C4 1037   3.975   4.429   7.500  0.0994 -0.2199 -0.5902
   33U       O4 1038   3.999   4.308   7.506  0.3720 -0.1429 -0.1485
   33U       N3 1039   4.062   4.529   7.539 -0.6032  0.3321 -0.4181
   33U       H3 1040   4.156   4.497   7.559 -1.0720 -0.5670  0.4279
   33U       C2 1041   4.036   4.666   7.542 -0.2863  0.3797  0.5324
   33U       O2 1042   4.133   4.738   7.565  0.3735 -0.2916 -0.0849
   33U      C3' 1043   3.788   4.928   7.307  0.4507 -0.3220 -0.6440
   33U      H3' 1044   3.757   4.833   7.263 -1.1772 -0.9841  1.7064
   33U      C2' 1045   3.924   4.931   7.375  0.1847  0.6684 -0.1414
   33U     H2'1 1046   4.004   4.879   7.322  1.9486  0.0470  2.8856
   33U      O2' 1047   3.976   5.056   7.414  0.3250  0.4920  0.2409
   33U     HO'2 1048   3.917   5.121   7.373  0.3862 -0.4849 -1.5041
   33U      O3' 1049   3.781   5.030   7.209 -0.2433 -0.3247 -0.6062
   34G        P 1050   3.853   5.017   7.066  0.5234  0.4793 -0.3071
   34G      O1P 1051   3.856   5.151   7.004 -0.4073  0.7845  0.2803
   34G      O2P 1052   3.795   4.903   6.990  0.1275  0.3866  0.1292
   34G      O5' 1053   4.006   4.979   7.095  0.1882 -0.4758  0.2724
   34G      C5' 1054   4.102   5.080   7.119  0.1500 -0.3600 -0.0616
   34G     H5'1 1055   4.074   5.130   7.212 -1.6542  0.1881 -0.8517
   34G     H5'2 1056   4.096   5.155   7.040  0.2360  0.9597  1.1278
   34G      C4' 1057   4.244   5.028   7.133  0.3147  0.2213  0.4990
   34G      H4' 1058   4.310   5.111   7.156 -0.3396  0.7473  0.5032
   34G      O4' 1059   4.236   4.942   7.245  0.0328 -0.0341  0.2846
   34G      C1' 1060   4.324   4.834   7.221  0.4506  0.4232 -0.2735
   34G      H1' 1061   4.405   4.839   7.293  0.5841 -0.4764 -0.3470
   34G       N9 1062   4.256   4.703   7.218  0.5270  0.3814 -0.1065
   34G       C8 1063   4.131   4.663   7.179  0.4191  0.0583  0.5449
   34G       H8 1064   4.059   4.734   7.142 -0.8410 -0.9348  1.0149
   34G       N7 1065   4.106   4.538   7.207  0.2835 -0.1526 -0.4660
   34G       C5 1066   4.228   4.488   7.252  0.3176 -0.0249 -0.4174
   34G       C6 1067   4.272   4.357   7.285  0.1124  0.1024  0.3822
   34G       O6 1068   4.213   4.250   7.298 -0.1654  0.1565 -0.3697
   34G       N1 1069   4.410   4.346   7.298  0.0386 -0.4822  0.6777
   34G       H1 1070   4.448   4.255   7.318  1.2398 -0.2767 -0.5138
   34G       C2 1071   4.499   4.450   7.280 -0.7235 -0.0806 -0.8756
   34G       N2 1072   4.630   4.425   7.283 -0.6843  0.2368  0.4777
   34G      H21 1073   4.668   4.334   7.306 -1.2126  0.2568  1.4729
   34G      H22 1074   4.694   4.503   7.276  0.6293 -0.7011  1.3517
   34G       N3 1075   4.458   4.575   7.255  0.1271  0.3339 -0.2249
   34G       C4 1076   4.323   4.587   7.248  0.0880  0.2304  0.3017
   34G      C3' 1077   4.288   4.941   7.016 -0.1038 -0.0962  0.5760
   34G      H3' 1078   4.208   4.878   6.975  0.0017 -0.7955  1.4050
   34G      C2' 1079   4.392   4.853   7.085  0.1681 -0.7257 -0.5881
   34G     H2'1 1080   4.406   4.765   7.023  1.4010  1.2882 -3.3488
   34G      O2' 1081   4.514   4.921   7.101 -0.2492 -0.0757 -0.0857
   34G     HO'2 1082   4.577   4.885   7.038  0.1918  2.3030 -1.0914
   34G      O3' 1083   4.346   5.025   6.918 -0.6550 -0.2265  0.1292
   35C        P 1084   4.380   4.974   6.769 -0.2065  0.3758  0.0224
   35C      O1P 1085   4.446   5.078   6.689  0.1134  0.6873  0.6806
   35C      O2P 1086   4.256   4.919   6.709  0.1871  0.0101 -0.4577
   35C      O5' 1087   4.487   4.858   6.800 -0.4630  0.1828  0.2035
   35C      C5' 1088   4.624   4.881   6.773 -0.3571 -0.2738  0.3504
   35C     H5'1 1089   4.659   4.970   6.825  0.6541 -0.3723 -0.1426
   35C     H5'2 1090   4.640   4.887   6.665 -1.0558 -1.8530  0.1180
   35C      C4' 1091   4.716   4.767   6.817  0.4219  0.2202  0.0329
   35C      H4' 1092   4.815   4.810   6.825  0.6892 -0.1516 -1.2019
   35C      O4' 1093   4.664   4.710   6.936  0.8253 -0.1926  0.0124
   35C      C1' 1094   4.683   4.570   6.931  0.2217 -0.2681 -0.1736
   35C      H1' 1095   4.746   4.534   7.011  2.0726  1.6130 -0.7010
   35C       N1 1096   4.563   4.484   6.937  0.2491 -0.3390 -0.5587
   35C       C6 1097   4.440   4.531   6.903 -0.1549 -0.2523  0.9552
   35C       H6 1098   4.428   4.630   6.862 -1.2495 -1.6248 -2.3902
   35C       C5 1099   4.335   4.447   6.920 -0.2114 -0.2237  0.7644
   35C       H5 1100   4.236   4.483   6.901  0.7941  1.7729 -1.0580
   35C       C4 1101   4.356   4.315   6.973  0.1925 -0.4330  0.0992
   35C       N4 1102   4.253   4.233   6.995 -0.0334 -0.1100  0.2631
   35C      H41 1103   4.155   4.253   6.978 -0.6569 -2.9513 -0.0977
   35C      H42 1104   4.278   4.137   7.013 -1.4603 -0.7456 -0.8969
   35C       N3 1105   4.480   4.267   6.989  0.2407 -0.2979  0.1435
   35C       C2 1106   4.585   4.351   6.968  0.1749 -0.0747  0.6779
   35C       O2 1107   4.697   4.303   6.975  0.3345  0.1878  0.0059
   35C      C3' 1108   4.718   4.654   6.715  0.1433  0.0523  0.2094
   35C      H3' 1109   4.622   4.633   6.668  1.3254 -1.0543 -1.8906
   35C      C2' 1110   4.768   4.543   6.807  0.2775 -0.1902 -0.1527
   35C     H2'1 1111   4.737   4.452   6.756 -0.4926  0.9313 -1.7737
   35C      O2' 1112   4.908   4.535   6.826  0.3230 -0.1424 -0.4648
   35C     HO'2 1113   4.932   4.448   6.859  0.9535 -0.7821 -2.4350
   35C      O3' 1114   4.799   4.693   6.606  0.1115 -0.7150 -0.0982
   36C        P 1115   4.794   4.638   6.455  0.1338 -0.2566 -0.2681
   36C      O1P 1116   4.910   4.706   6.394 -0.1392  0.5046  0.0505
   36C      O2P 1117   4.662   4.652   6.391  0.2524  0.2455 -0.4041
   36C      O5' 1118   4.830   4.481   6.461  0.2891 -0.1977  0.4754
   36C      C5' 1119   4.960   4.435   6.491  0.4390 -0.0263  0.1034
   36C     H5'1 1120   5.006   4.490   6.573  1.9050  1.2269 -1.4905
   36C     H5'2 1121   5.024   4.455   6.405 -0.9911  2.1833 -0.5110
   36C      C4' 1122   4.962   4.286   6.525  0.0867 -0.0279  0.1178
   36C      H4' 1123   5.066   4.275   6.555 -0.0481  2.0097  1.5600
   36C      O4' 1124   4.895   4.251   6.644  0.0739 -0.0818  0.0946
   36C      C1' 1125   4.845   4.119   6.636 -0.1236  0.0354 -0.6742
   36C      H1' 1126   4.881   4.065   6.723  0.7831 -0.6727 -1.4653
   36C       N1 1127   4.698   4.110   6.640 -0.1005 -0.1690 -0.2181
   36C       C6 1128   4.620   4.218   6.612  0.3624  0.2115 -0.0589
   36C       H6 1129   4.668   4.311   6.585  0.4429  1.1703  2.9948
   36C       C5 1130   4.486   4.223   6.631  0.4469 -0.3198  0.7144
   36C       H5 1131   4.433   4.316   6.617 -2.3841 -1.8189  0.6822
   36C       C4 1132   4.424   4.100   6.672 -0.1341 -0.4083 -0.3910
   36C       N4 1133   4.295   4.107   6.711 -0.0429  0.0142 -0.1566
   36C      H41 1134   4.239   4.185   6.679 -0.3562 -0.2578 -0.2733
   36C      H42 1135   4.257   4.020   6.742 -1.1080  0.5675  0.1203
   36C       N3 1136   4.499   3.992   6.694  0.0859 -0.0646  0.6127
   36C       C2 1137   4.635   3.995   6.684  0.0459 -0.1595  0.0242
   36C       O2 1138   4.699   3.896   6.718  0.4909  0.0653 -0.1555
   36C      C3' 1139   4.925   4.183   6.419 -0.0220  0.4106 -0.2757
   36C      H3' 1140   4.833   4.219   6.373  0.5799  2.0832 -0.2446
   36C      C2' 1141   4.891   4.060   6.503 -0.2438  0.1372 -0.7616
   36C     H2'1 1142   4.815   3.997   6.457  0.0746 -0.4160 -0.5409
   36C      O2' 1143   5.005   3.982   6.534 -0.0953  0.3355 -0.8011
   36C     HO'2 1144   5.062   3.979   6.457 -0.4725 -0.7948 -1.0682
   36C      O3' 1145   5.023   4.173   6.318  0.0995 -0.0268 -0.1180
   37C        P 1146   5.000   4.100   6.176  0.4536  0.0946 -0.2393
   37C      O1P 1147   5.133   4.081   6.115  0.3761 -0.2860 -0.2873
   37C      O2P 1148   4.893   4.173   6.105 -0.1444  0.1888  0.7328
   37C      O5' 1149   4.946   3.955   6.218  0.6061  0.1257  0.0702
   37C      C5' 1150   5.024   3.838   6.232 -0.2899 -0.4861  0.1156
   37C     H5'1 1151   5.097   3.862   6.310  0.5270 -2.2257 -0.0605
   37C     H5'2 1152   5.072   3.829   6.134  0.2131 -1.2813  0.4244
   37C      C4' 1153   4.941   3.715   6.266  0.0706 -0.6684  0.3421
   37C      H4' 1154   4.998   3.628   6.298 -1.6718 -2.2735 -0.7252
   37C      O4' 1155   4.852   3.748   6.371 -0.1901 -0.7967  0.1638
   37C      C1' 1156   4.734   3.672   6.360 -0.2746 -0.6491  0.0634
   37C      H1' 1157   4.740   3.596   6.437  1.9296 -0.1588  0.4357
   37C       N1 1158   4.605   3.741   6.383 -0.0408 -0.2643  0.2278
   37C       C6 1159   4.598   3.872   6.346 -0.0515 -0.2045  0.4406
   37C       H6 1160   4.682   3.923   6.302 -0.7491 -0.0696 -0.7826
   37C       C5 1161   4.485   3.944   6.366 -0.1327 -0.1809 -0.0989
   37C       H5 1162   4.481   4.049   6.341 -0.2425  0.2045  1.4562
   37C       C4 1163   4.377   3.871   6.427 -0.0014 -0.0730  0.2646
   37C       N4 1164   4.268   3.943   6.457  0.1286  0.3669 -0.2870
   37C      H41 1165   4.269   4.043   6.441  0.0668  0.3756 -0.2397
   37C      H42 1166   4.182   3.899   6.487  1.0151 -0.9940  0.3708
   37C       N3 1167   4.384   3.741   6.454 -0.3368 -0.2748 -0.5821
   37C       C2 1168   4.497   3.669   6.431  0.0089 -0.1140  0.5674
   37C       O2 1169   4.499   3.548   6.448 -0.1474 -0.2867 -0.5927
   37C      C3' 1170   4.853   3.677   6.148  0.3262 -0.4565  0.0821
   37C      H3' 1171   4.814   3.771   6.108 -0.3425 -0.0811  1.5389
   37C      C2' 1172   4.742   3.604   6.224  0.1201 -0.3159 -0.0811
   37C     H2'1 1173   4.654   3.600   6.160  1.2831  1.4241 -1.9311
   37C      O2' 1174   4.778   3.469   6.242  0.6821 -0.2226 -0.4622
   37C     HO'2 1175   4.767   3.426   6.157  1.5009 -0.1537 -0.6095
   37C      O3' 1176   4.935   3.603   6.061 -0.0054 -0.7010 -0.0270
   38U        P 1177   4.868   3.555   5.923 -0.1253 -0.1080 -0.1758
   38U      O1P 1178   4.970   3.466   5.863 -0.1185 -0.2153 -0.0058
   38U      O2P 1179   4.815   3.671   5.848  0.3229  0.3946  0.2721
   38U      O5' 1180   4.736   3.471   5.961 -0.0247 -0.0030  0.4231
   38U      C5' 1181   4.731   3.332   5.982  0.3091  0.0356  0.7497
   38U     H5'1 1182   4.804   3.310   6.060 -0.9361  2.7704  2.8400
   38U     H5'2 1183   4.764   3.289   5.887 -0.8457 -0.2955  0.4909
   38U      C4' 1184   4.590   3.289   6.018  0.2457 -0.3145  0.1040
   38U      H4' 1185   4.599   3.185   6.050  3.1631 -0.2028 -0.1465
   38U      O4' 1186   4.536   3.368   6.122  0.0561  0.1829 -0.3699
   38U      C1' 1187   4.395   3.373   6.112  0.0535  0.3003 -0.2886
   38U      H1' 1188   4.344   3.301   6.176  0.6422 -0.0347 -0.1819
   38U       N1 1189   4.330   3.503   6.135  0.1711  0.1850  0.7349
   38U       C6 1190   4.387   3.618   6.089  0.1030 -0.0565  0.0317
   38U       H6 1191   4.476   3.605   6.031 -1.3608 -0.1214 -2.3408
   38U       C5 1192   4.330   3.740   6.100 -0.3856 -0.2566 -0.2262
   38U       H5 1193   4.386   3.828   6.071  1.1660 -1.0926  0.0864
   38U       C4 1194   4.200   3.752   6.162 -0.2156 -0.0719  0.0995
   38U       O4 1195   4.142   3.858   6.182  0.0374  0.0546  0.1735
   38U       N3 1196   4.140   3.630   6.191 -0.2695 -0.1785 -0.4505
   38U       H3 1197   4.043   3.635   6.218 -0.4089 -0.3608 -0.9039
   38U       C2 1198   4.197   3.505   6.172  0.0034 -0.1520  0.1612
   38U       O2 1199   4.130   3.405   6.197 -0.1785 -0.1302 -0.2185
   38U      C3' 1200   4.497   3.302   5.897  0.4245 -0.2056 -0.0209
   38U      H3' 1201   4.512   3.394   5.840  0.1366 -1.4291 -2.1497
   38U      C2' 1202   4.365   3.321   5.971  0.3383 -0.1209 -0.1971
   38U     H2'1 1203   4.297   3.392   5.924  1.0580 -0.1154 -1.2700
   38U      O2' 1204   4.298   3.198   5.980 -0.6368  0.4260  0.2235
   38U     HO'2 1205   4.220   3.187   5.925  0.5199  0.6539 -1.5246
   38U      O3' 1206   4.505   3.191   5.812 -0.2402 -0.2453 -0.0343
   39U        P 1207   4.441   3.172   5.665 -0.3485  0.3452 -0.0656
   39U      O1P 1208   4.490   3.038   5.625 -0.0346  0.4936 -0.1775
   39U      O2P 1209   4.493   3.287   5.588  0.5582  0.0942  0.1540
   39U      O5' 1210   4.280   3.176   5.670 -0.3703  0.0167 -0.4772
   39U      C5' 1211   4.200   3.060   5.680 -0.0733 -0.0772  1.0764
   39U     H5'1 1212   4.257   2.990   5.742  1.9171  0.2510 -0.2704
   39U     H5'2 1213   4.190   3.013   5.582  2.4324  0.1232  0.6399
   39U      C4' 1214   4.060   3.085   5.735 -0.4732 -0.5339  0.2874
   39U      H4' 1215   4.021   2.985   5.750  0.6151 -0.8397  1.1908
   39U      O4' 1216   4.055   3.163   5.853 -0.2449 -0.3518  0.1798
   39U      C1' 1217   3.931   3.231   5.851 -0.1287 -0.1394  0.1334
   39U      H1' 1218   3.869   3.196   5.934 -1.6126 -1.0469 -1.2947
   39U       N1 1219   3.948   3.377   5.859  0.1384 -0.1888  0.4703
   39U       C6 1220   4.059   3.439   5.808 -0.2256 -0.1534 -0.2923
   39U       H6 1221   4.133   3.388   5.749  0.4065  1.3930 -0.8810
   39U       C5 1222   4.079   3.571   5.825 -0.6680 -0.1329  0.1169
   39U       H5 1223   4.172   3.611   5.787 -0.4723  0.1000  0.8314
   39U       C4 1224   3.981   3.654   5.891 -0.6012  0.3899 -0.4319
   39U       O4 1225   3.992   3.774   5.917  0.4619  0.1078  0.5190
   39U       N3 1226   3.869   3.588   5.941 -0.3504  0.3157  0.0371
   39U       H3 1227   3.788   3.641   5.971 -1.8739 -1.0747 -1.4409
   39U       C2 1228   3.850   3.452   5.922  0.1543  0.2516 -0.0278
   39U       O2 1229   3.745   3.404   5.963  0.3365 -0.0064  0.1442
   39U      C3' 1230   3.976   3.161   5.632 -0.2504 -0.4472  0.1676
   39U      H3' 1231   4.032   3.250   5.602  0.0980 -0.5729  0.4332
   39U      C2' 1232   3.858   3.199   5.721 -0.1569 -0.0538  0.1277
   39U     H2'1 1233   3.810   3.286   5.677  0.1577 -0.2269 -0.5732
   39U      O2' 1234   3.755   3.105   5.745 -0.6570  0.5676  0.4272
   39U     HO'2 1235   3.730   3.077   5.657  0.0974  0.2139  0.3235
   39U      O3' 1236   3.947   3.082   5.520 -0.6110 -0.0741 -0.0035
   40C        P 1237   3.890   3.147   5.384 -0.0827 -0.0051 -0.1945
   40C      O1P 1238   3.856   3.046   5.282 -0.1113 -0.2815  0.0884
   40C      O2P 1239   3.986   3.252   5.341 -0.1365  0.0732 -0.1238
   40C      O5' 1240   3.750   3.213   5.427 -0.1158 -0.3283  0.1929
   40C      C5' 1241   3.630   3.139   5.441 -0.0727 -0.3445  0.4967
   40C     H5'1 1242   3.646   3.055   5.508 -0.5126 -0.0326  0.9954
   40C     H5'2 1243   3.610   3.104   5.340 -0.7148  0.0019  0.5019
   40C      C4' 1244   3.516   3.225   5.495 -0.0832 -0.1207  0.1265
   40C      H4' 1245   3.431   3.161   5.518  1.5765 -2.7004 -0.4468
   40C      O4' 1246   3.537   3.296   5.615 -0.2947 -0.2711  0.2548
   40C      C1' 1247   3.470   3.420   5.612  0.0914 -0.0609  0.0647
   40C      H1' 1248   3.403   3.430   5.698  0.3054 -0.8757  0.3336
   40C       N1 1249   3.563   3.534   5.608 -0.0444  0.0663  0.4242
   40C       C6 1250   3.691   3.520   5.562 -0.1810  0.0505  0.0429
   40C       H6 1251   3.715   3.426   5.515 -2.5313 -0.0959 -0.9733
   40C       C5 1252   3.781   3.620   5.571  0.0307 -0.1409  0.0746
   40C       H5 1253   3.879   3.605   5.529 -1.2281 -1.3022 -2.6519
   40C       C4 1254   3.735   3.741   5.632  0.3508  0.1239 -0.2079
   40C       N4 1255   3.814   3.850   5.631  0.2148  0.2233 -0.1209
   40C      H41 1256   3.910   3.853   5.600  0.4591 -2.6737  0.0729
   40C      H42 1257   3.774   3.940   5.656  1.4384  0.3912  1.4228
   40C       N3 1258   3.608   3.761   5.668  0.3049  0.6611 -0.6406
   40C       C2 1259   3.522   3.656   5.657  0.3916  0.5665 -0.4348
   40C       O2 1260   3.404   3.670   5.688  0.3216 -0.5389 -0.1519
   40C      C3' 1261   3.472   3.327   5.391 -0.5175 -0.0713  0.3585
   40C      H3' 1262   3.560   3.380   5.354 -0.7377  1.1653  1.5340
   40C      C2' 1263   3.389   3.416   5.483 -0.0474  0.6104  0.1289
   40C     H2'1 1264   3.378   3.517   5.444 -1.7288 -0.2104 -1.7129
   40C      O2' 1265   3.263   3.356   5.506 -0.1255  0.6899 -0.0796
   40C     HO'2 1266   3.191   3.419   5.509 -1.8974 -1.0751 -2.2708
   40C      O3' 1267   3.386   3.274   5.292  0.0940  0.0622 -0.2480
   41C        P 1268   3.346   3.357   5.160 -0.1237  0.3889  0.0214
   41C      O1P 1269   3.247   3.274   5.087 -0.0690  0.5348 -0.2202
   41C      O2P 1270   3.476   3.389   5.098  0.2518 -0.5894  0.2892
   41C      O5' 1271   3.269   3.490   5.207  0.0612  0.4923  0.0329
   41C      C5' 1272   3.130   3.488   5.231  0.0211 -0.0982 -0.2349
   41C     H5'1 1273   3.089   3.429   5.314  0.3292 -2.5235 -1.7084
   41C     H5'2 1274   3.081   3.450   5.142  1.9126  0.2247 -1.4575
   41C      C4' 1275   3.079   3.629   5.261  0.2427 -0.1102  0.2142
   41C      H4' 1276   2.973   3.619   5.284  0.2780 -1.9128 -0.2114
   41C      O4' 1277   3.150   3.677   5.373  0.2486  0.2210  0.0688
   41C      C1' 1278   3.168   3.817   5.363  0.3563  0.1985 -0.0494
   41C      H1' 1279   3.125   3.855   5.455 -1.2520 -0.8490 -0.3248
   41C       N1 1280   3.307   3.863   5.349  0.3160  0.3017 -0.1106
   41C       C6 1281   3.399   3.766   5.319  0.1517  0.1781 -0.2174
   41C       H6 1282   3.374   3.668   5.283 -1.3462  0.6969 -0.6625
   41C       C5 1283   3.532   3.789   5.333  0.1669  0.0422 -0.1383
   41C       H5 1284   3.604   3.708   5.324  0.6828  0.0572  2.9035
   41C       C4 1285   3.568   3.922   5.371  0.1305 -0.0996  0.4040
   41C       N4 1286   3.695   3.962   5.383  0.1044 -0.0300  0.4496
   41C      H41 1287   3.768   3.894   5.368  0.8683  0.4168  1.9495
   41C      H42 1288   3.715   4.051   5.427 -0.1453  0.0532  0.3944
   41C       N3 1289   3.479   4.017   5.402  0.3266  0.1834  0.1061
   41C       C2 1290   3.347   3.990   5.388  0.3551  0.5771 -1.0160
   41C       O2 1291   3.263   4.073   5.422 -0.0901 -0.3194  0.1491
   41C      C3' 1292   3.100   3.731   5.149 -0.1749 -0.2793 -0.0204
   41C      H3' 1293   3.197   3.715   5.102 -0.7317  0.6765 -1.5628
   41C      C2' 1294   3.091   3.855   5.237 -0.0694 -0.3192  0.0462
   41C     H2'1 1295   3.140   3.942   5.192 -0.3337 -0.5284 -0.6551
   41C      O2' 1296   2.962   3.889   5.282 -0.1380 -0.2539 -0.1971
   41C     HO'2 1297   2.896   3.837   5.234  0.2528  0.2436 -1.3046
   41C      O3' 1298   2.997   3.721   5.053 -0.4801  0.1260  0.2634
   42G        P 1299   3.005   3.796   4.911  0.0125 -0.0683  0.1873
   42G      O1P 1300   2.878   3.782   4.835  0.1602  0.5572 -0.1780
   42G      O2P 1301   3.130   3.750   4.847  0.0194 -0.0229  0.1686
   42G      O5' 1302   3.028   3.953   4.938 -0.0859  0.0212 -0.2404
   42G      C5' 1303   2.914   4.031   4.962 -0.1433 -0.3082  0.5759
   42G     H5'1 1304   2.842   3.983   5.029 -0.3136 -0.6308  0.1627
   42G     H5'2 1305   2.864   4.041   4.865  0.0117 -1.7894  0.3238
   42G      C4' 1306   2.963   4.168   5.009  0.2324 -0.2418 -0.0028
   42G      H4' 1307   2.871   4.211   5.047 -0.1353 -0.9045 -0.1227
   42G      O4' 1308   3.058   4.160   5.113  0.2989 -0.4712 -0.0802
   42G      C1' 1309   3.138   4.276   5.111 -0.2333 -0.0885  0.4288
   42G      H1' 1310   3.110   4.340   5.195 -0.8001  1.4369 -0.8770
   42G       N9 1311   3.278   4.231   5.107 -0.0505  0.5335 -0.3516
   42G       C8 1312   3.329   4.110   5.066 -0.2146  0.2742  0.1966
   42G       H8 1313   3.277   4.022   5.034 -0.9423  0.8096 -0.1338
   42G       N7 1314   3.460   4.105   5.071 -0.2242 -0.1712  0.0367
   42G       C5 1315   3.499   4.230   5.118  0.5474 -0.3912 -0.0174
   42G       C6 1316   3.625   4.294   5.136 -0.0510  0.7173  0.3340
   42G       O6 1317   3.735   4.241   5.126 -0.2959  0.2846 -0.1432
   42G       N1 1318   3.630   4.431   5.153 -0.2950  0.7400  0.2264
   42G       H1 1319   3.721   4.476   5.154  0.4524 -0.7171 -0.0461
   42G       C2 1320   3.510   4.497   5.169 -0.8421 -0.2092  0.0868
   42G       N2 1321   3.517   4.627   5.201 -0.2897 -0.2512  0.1342
   42G      H21 1322   3.605   4.663   5.235 -0.7778  0.1082  1.0675
   42G      H22 1323   3.428   4.674   5.209 -0.4785 -0.7237  0.8972
   42G       N3 1324   3.388   4.442   5.162 -0.7485 -0.4357  0.2402
   42G       C4 1325   3.388   4.310   5.131  0.5851 -0.2117 -0.7803
   42G      C3' 1326   3.028   4.249   4.897  0.0609  0.3297  0.3069
   42G      H3' 1327   3.100   4.181   4.852 -1.1380 -2.3516  2.1662
   42G      C2' 1328   3.097   4.352   4.986  0.1841  0.1426  0.4306
   42G     H2'1 1329   3.182   4.383   4.926  1.5569 -3.1334  0.4755
   42G      O2' 1330   3.009   4.453   5.032  0.2319  0.2786  0.2261
   42G     HO'2 1331   2.967   4.497   4.959 -2.2686  0.6414  1.7800
   42G      O3' 1332   2.931   4.302   4.810 -0.1399  0.1497  0.4194
   43U        P 1333   2.969   4.355   4.662 -0.0511 -0.5035  0.2051
   43U      O1P 1334   2.844   4.424   4.623  0.2967 -0.1564 -0.3052
   43U      O2P 1335   3.023   4.244   4.580 -0.3323 -0.1534 -0.4566
   43U      O5' 1336   3.084   4.462   4.697 -0.0476 -0.3169 -0.3678
   43U      C5' 1337   3.042   4.596   4.714 -0.0078 -0.3268 -0.1801
   43U     H5'1 1338   2.963   4.609   4.788 -2.2339 -1.7636 -2.1334
   43U     H5'2 1339   3.003   4.636   4.620  1.0017  2.5219  0.5234
   43U      C4' 1340   3.160   4.688   4.742 -0.1215 -0.2178 -0.0581
   43U      H4' 1341   3.120   4.781   4.781  0.7655  0.5681 -0.9769
   43U      O4' 1342   3.237   4.643   4.852  0.2200 -0.8472 -0.5478
   43U      C1' 1343   3.370   4.684   4.830 -0.0415  0.3934  0.0888
   43U      H1' 1344   3.398   4.739   4.919 -2.9489 -0.5746  1.7280
   43U       N1 1345   3.469   4.576   4.815 -0.0106  0.4142  0.1522
   43U       C6 1346   3.429   4.456   4.765 -0.3177  0.2503  0.7747
   43U       H6 1347   3.326   4.445   4.736  0.0567  0.3616 -0.6889
   43U       C5 1348   3.517   4.353   4.756 -0.2196  0.4226 -0.4267
   43U       H5 1349   3.478   4.258   4.723 -1.4315 -0.5802  3.4193
   43U       C4 1350   3.655   4.366   4.794 -0.3674 -0.0638  0.2864
   43U       O4 1351   3.741   4.278   4.783 -0.1983  0.1261  0.0798
   43U       N3 1352   3.694   4.492   4.836  0.3531  0.1244 -0.8861
   43U       H3 1353   3.792   4.508   4.855  0.0045  1.0628  0.2877
   43U       C2 1354   3.603   4.597   4.844  0.1045 -0.1445  0.0366
   43U       O2 1355   3.645   4.706   4.882 -0.3744  0.0397  0.0479
   43U      C3' 1356   3.256   4.711   4.625  0.0024  0.5192  0.1846
   43U      H3' 1357   3.300   4.617   4.592  3.4183  1.8978  0.4099
   43U      C2' 1358   3.370   4.773   4.706  0.2569  0.2821  0.0071
   43U     H2'1 1359   3.461   4.776   4.647  0.7331 -1.0237  0.6324
   43U      O2' 1360   3.339   4.908   4.730 -0.1682  0.1187  0.3881
   43U     HO'2 1361   3.318   4.956   4.649  0.1735 -1.2759 -0.5541
   43U      O3' 1362   3.206   4.799   4.527 -0.2315  0.2706  0.0782
   44A        P 1363   3.259   4.790   4.376  0.4403 -0.0861  0.3334
   44A      O1P 1364   3.183   4.891   4.298  0.4139 -0.3058  0.0725
   44A      O2P 1365   3.253   4.650   4.328  0.5235 -0.0616  0.2496
   44A      O5' 1366   3.411   4.841   4.397  0.2548  0.5549  0.1398
   44A      C5' 1367   3.443   4.978   4.402 -0.4040  0.6984  0.5442
   44A     H5'1 1368   3.373   5.021   4.474 -2.5952 -0.7305 -0.6027
   44A     H5'2 1369   3.433   5.013   4.299 -1.0744 -3.3979 -0.9770
   44A      C4' 1370   3.589   5.012   4.430  0.0331 -0.5761 -0.1294
   44A      H4' 1371   3.601   5.120   4.432  0.8243 -0.5054 -3.2387
   44A      O4' 1372   3.640   4.945   4.544 -0.1833  0.0706  0.3526
   44A      C1' 1373   3.775   4.915   4.518 -0.3845 -0.8960  0.3940
   44A      H1' 1374   3.826   4.969   4.598 -1.1263  0.6326 -0.1232
   44A       N9 1375   3.789   4.768   4.513  0.3171 -0.8219  0.0980
   44A       C8 1376   3.693   4.673   4.492 -0.4696 -0.1407  0.5434
   44A       H8 1377   3.599   4.700   4.446 -0.2941  0.5951  0.6099
   44A       N7 1378   3.736   4.551   4.506  0.2808  0.0551  0.0253
   44A       C5 1379   3.867   4.572   4.548  0.1307 -0.1431  0.6157
   44A       C6 1380   3.977   4.488   4.573  0.2204 -0.2022  0.0419
   44A       N6 1381   3.974   4.354   4.575  0.0277 -0.1988 -0.0133
   44A      H61 1382   3.887   4.304   4.570 -0.1265  0.1726 -1.9301
   44A      H62 1383   4.052   4.305   4.616  0.3974  0.4122  0.0290
   44A       N1 1384   4.099   4.536   4.603  0.2949 -0.4016  0.0609
   44A       C2 1385   4.121   4.666   4.591  0.4619 -0.4196  0.1667
   44A       H2 1386   4.217   4.704   4.624  0.8521 -1.3601  0.1404
   44A       N3 1387   4.029   4.758   4.564  0.6335 -0.3013 -0.0186
   44A       C4 1388   3.907   4.703   4.542  0.5610 -0.2814  0.3335
   44A      C3' 1389   3.676   4.963   4.315  0.0389 -0.5009 -0.1564
   44A      H3' 1390   3.642   4.864   4.284  0.4122 -0.8849  0.6458
   44A      C2' 1391   3.813   4.972   4.382 -0.3759 -0.2350  0.6703
   44A     H2'1 1392   3.891   4.911   4.335 -0.5000  0.3630 -0.3552
   44A      O2' 1393   3.857   5.102   4.415 -0.5259 -0.0234  0.0505
   44A     HO'2 1394   3.810   5.160   4.354 -0.3073 -0.5373 -0.6259
   44A      O3' 1395   3.677   5.050   4.204 -0.1739 -0.2481  0.0384
   45G        P 1396   3.740   5.018   4.059 -0.0979  0.0032  0.0143
   45G      O1P 1397   3.730   5.144   3.983  0.5387 -0.1907 -0.4084
   45G      O2P 1398   3.671   4.895   4.014  0.3680 -0.2831  0.0626
   45G      O5' 1399   3.893   4.983   4.097 -0.1031  0.0982  0.1236
   45G      C5' 1400   3.988   5.087   4.102  0.1034 -0.0677 -0.2749
   45G     H5'1 1401   3.954   5.161   4.175  0.3056  0.8111 -1.0527
   45G     H5'2 1402   4.006   5.136   4.006 -0.0493  2.4005  0.8711
   45G      C4' 1403   4.127   5.038   4.137 -0.1329 -0.1191  0.6142
   45G      H4' 1404   4.193   5.123   4.155  0.9074 -1.0433  1.3422
   45G      O4' 1405   4.139   4.970   4.261  0.3170  0.1151  0.7028
   45G      C1' 1406   4.239   4.871   4.251  0.0848 -0.0854  0.3347
   45G      H1' 1407   4.311   4.878   4.333 -0.3314  3.2123  0.5713
   45G       N9 1408   4.174   4.739   4.245  0.0325 -0.0539  0.1848
   45G       C8 1409   4.043   4.712   4.219  0.0476  0.2012 -0.1548
   45G       H8 1410   3.970   4.789   4.201 -0.5161  0.2566  2.1252
   45G       N7 1411   4.017   4.584   4.222  0.2992  0.1328 -0.6801
   45G       C5 1412   4.135   4.521   4.260  0.1089  0.0129 -0.2774
   45G       C6 1413   4.165   4.386   4.292  0.2693  0.2445  0.5860
   45G       O6 1414   4.090   4.289   4.288 -0.1900  0.6163 -0.0829
   45G       N1 1415   4.298   4.368   4.324  0.3450 -0.4380 -0.0701
   45G       H1 1416   4.335   4.274   4.318  1.2942 -0.0117 -1.4793
   45G       C2 1417   4.390   4.471   4.333  0.2532 -0.3489 -0.1606
   45G       N2 1418   4.521   4.452   4.354  0.4671  0.8923 -0.3038
   45G      H21 1419   4.552   4.357   4.366 -1.9194 -0.0515 -0.9939
   45G      H22 1420   4.587   4.528   4.366  2.3071 -0.4864 -1.2046
   45G       N3 1421   4.359   4.601   4.316  0.2456 -0.3934 -0.4941
   45G       C4 1422   4.230   4.618   4.279  0.2223 -0.0983 -0.2749
   45G      C3' 1423   4.201   4.957   4.031 -0.1504  0.4913  0.1325
   45G      H3' 1424   4.127   4.886   3.994 -0.4523  0.3626  0.9595
   45G      C2' 1425   4.309   4.892   4.117 -0.3943  0.0404  0.1022
   45G     H2'1 1426   4.346   4.795   4.083  0.1172 -0.6634  2.5110
   45G      O2' 1427   4.412   4.986   4.133 -0.1564 -0.1727 -0.1634
   45G     HO'2 1428   4.455   5.009   4.050 -0.3146  0.3609 -0.1065
   45G      O3' 1429   4.256   5.043   3.935 -0.2983  0.2492 -0.1724
   46A        P 1430   4.285   4.991   3.785  0.1813  0.0302 -0.0051
   46A      O1P 1431   4.371   5.094   3.722 -0.0259  0.0756 -0.2145
   46A      O2P 1432   4.159   4.961   3.713  0.3077 -0.2568 -0.1087
   46A      O5' 1433   4.377   4.860   3.802 -0.5269 -0.5049 -0.2861
   46A      C5' 1434   4.517   4.875   3.809 -0.5414 -0.5282  0.0831
   46A     H5'1 1435   4.546   4.949   3.883 -1.0341 -1.5956  1.3927
   46A     H5'2 1436   4.548   4.914   3.712  2.4168  0.2450  1.2334
   46A      C4' 1437   4.593   4.750   3.854  0.1538 -0.0605  0.2232
   46A      H4' 1438   4.697   4.781   3.863  0.6730 -0.7900 -2.3469
   46A      O4' 1439   4.550   4.681   3.969  0.3936  0.0402  0.3743
   46A      C1' 1440   4.582   4.545   3.950 -0.2104 -0.0570  0.0153
   46A      H1' 1441   4.653   4.510   4.024 -0.6759 -0.0564  0.4654
   46A       N9 1442   4.456   4.468   3.946 -0.4379  0.2809  0.6539
   46A       C8 1443   4.330   4.519   3.930 -0.4141  0.2133  0.2558
   46A       H8 1444   4.304   4.618   3.893 -5.3406 -0.9529 -0.2128
   46A       N7 1445   4.244   4.422   3.945  0.1458 -0.1920  0.9016
   46A       C5 1446   4.313   4.313   3.995  0.4148 -0.3270  0.2514
   46A       C6 1447   4.284   4.180   4.031  0.0233 -0.4545 -0.5145
   46A       N6 1448   4.162   4.125   4.040 -0.0919 -0.2642 -0.8873
   46A      H61 1449   4.082   4.185   4.044  0.8005  0.8703  1.0724
   46A      H62 1450   4.152   4.027   4.066  0.1648  0.2102  1.1474
   46A       N1 1451   4.380   4.088   4.044  0.1498 -0.2194  0.3215
   46A       C2 1452   4.505   4.128   4.033 -0.0092  0.0803 -0.4332
   46A       H2 1453   4.580   4.055   4.057  1.1959  1.3424 -0.2212
   46A       N3 1454   4.550   4.251   4.008  0.3537 -0.0514 -0.4378
   46A       C4 1455   4.448   4.338   3.988  0.3383  0.0901  0.2307
   46A      C3' 1456   4.601   4.647   3.742  0.2474  0.1350  0.0485
   46A      H3' 1457   4.497   4.626   3.715  0.0611  0.8619  0.1961
   46A      C2' 1458   4.655   4.525   3.817  0.2207  0.2230  0.2095
   46A     H2'1 1459   4.630   4.430   3.770 -0.1555  0.3799  0.0892
   46A      O2' 1460   4.793   4.537   3.843  0.2535 -0.1797  0.2277
   46A     HO'2 1461   4.830   4.574   3.762  0.6604  1.0685  0.9629
   46A      O3' 1462   4.684   4.680   3.633  0.4507 -0.4911  0.0050
   47G        P 1463   4.650   4.634   3.482  0.0515 -0.0394 -0.0463
   47G      O1P 1464   4.749   4.695   3.391  0.5499  0.0123  0.5181
   47G      O2P 1465   4.508   4.657   3.449  0.0112 -0.0078  0.1436
   47G      O5' 1466   4.683   4.477   3.489 -0.7525 -0.2162 -0.1991
   47G      C5' 1467   4.816   4.432   3.497 -0.5812  0.3999  0.6283
   47G     H5'1 1468   4.880   4.490   3.563  1.4878  1.2320 -1.9246
   47G     H5'2 1469   4.864   4.455   3.402 -2.4570  5.0994  0.5743
   47G      C4' 1470   4.827   4.289   3.548 -0.1361  0.2074  0.0155
   47G      H4' 1471   4.933   4.269   3.562 -0.3146 -1.0520 -0.2621
   47G      O4' 1472   4.770   4.252   3.672  0.4512 -0.3066  0.1424
   47G      C1' 1473   4.703   4.129   3.654 -0.2362  0.0926 -0.0702
   47G      H1' 1474   4.725   4.060   3.736  0.2617  0.6829  0.3055
   47G       N9 1475   4.555   4.134   3.660 -0.2118  0.8168  0.0588
   47G       C8 1476   4.473   4.241   3.638 -0.2474  0.7195 -0.2816
   47G       H8 1477   4.501   4.338   3.601 -0.0950  0.5485 -0.6218
   47G       N7 1478   4.348   4.204   3.650  0.0135 -0.0243  0.1943
   47G       C5 1479   4.352   4.071   3.689  0.1485 -0.0186  0.2013
   47G       C6 1480   4.247   3.980   3.718  0.2320 -0.3425 -0.4851
   47G       O6 1481   4.125   3.989   3.700  0.2082  0.3275 -0.0149
   47G       N1 1482   4.291   3.859   3.770  0.4489  0.1633  0.5361
   47G       H1 1483   4.223   3.788   3.794 -0.9368  1.4534  0.5787
   47G       C2 1484   4.424   3.823   3.768  0.3970 -0.0045 -0.0759
   47G       N2 1485   4.456   3.696   3.795 -0.1553 -0.1267  0.0152
   47G      H21 1486   4.381   3.630   3.808 -0.7275  0.1385 -1.6889
   47G      H22 1487   4.549   3.657   3.788  0.2010  0.3368  1.6000
   47G       N3 1488   4.525   3.901   3.726  0.0094  0.2987 -0.4591
   47G       C4 1489   4.481   4.027   3.703  0.3303  0.5822  0.4255
   47G      C3' 1490   4.781   4.192   3.440 -0.0614  0.1000  0.0798
   47G      H3' 1491   4.689   4.228   3.394 -0.6415  0.7678  1.7069
   47G      C2' 1492   4.755   4.068   3.525  0.0534  0.0620  0.0604
   47G     H2'1 1493   4.679   4.002   3.483  1.6082 -1.4592 -0.4956
   47G      O2' 1494   4.872   3.993   3.547  0.0260  0.1052  0.3632
   47G     HO'2 1495   4.874   3.930   3.474 -1.1953  1.6267 -1.0762
   47G      O3' 1496   4.875   4.168   3.337 -0.3334 -0.0965 -0.1238
   48U        P 1497   4.835   4.120   3.189  0.0933 -0.0118 -0.2680
   48U      O1P 1498   4.964   4.113   3.118  0.3359 -0.2910  0.1979
   48U      O2P 1499   4.730   4.208   3.133 -0.4632 -0.5438 -0.0752
   48U      O5' 1500   4.780   3.970   3.208 -0.1979  0.1144 -0.1109
   48U      C5' 1501   4.867   3.860   3.227  0.2956  0.4028 -0.6631
   48U     H5'1 1502   4.936   3.887   3.307 -0.3693  0.3927 -0.0734
   48U     H5'2 1503   4.926   3.836   3.139  0.5409  0.2167 -0.4505
   48U      C4' 1504   4.785   3.737   3.267  0.2396  0.5006 -0.4747
   48U      H4' 1505   4.853   3.655   3.289 -1.2141 -0.7855 -0.6218
   48U      O4' 1506   4.696   3.763   3.374  0.3662 -0.1491 -0.2104
   48U      C1' 1507   4.585   3.677   3.366  0.1660  0.0328  0.5490
   48U      H1' 1508   4.577   3.612   3.453 -0.2648 -1.7161 -0.7296
   48U       N1 1509   4.467   3.766   3.365  0.1489  0.0094  0.0558
   48U       C6 1510   4.465   3.895   3.321 -0.3475  0.0217  0.1079
   48U       H6 1511   4.549   3.942   3.271  0.3301 -2.3396 -1.1133
   48U       C5 1512   4.355   3.972   3.334 -0.1970  0.3090 -0.2891
   48U       H5 1513   4.356   4.072   3.294 -0.5228  0.8722  1.0456
   48U       C4 1514   4.233   3.913   3.385  0.2656 -0.6066 -0.2086
   48U       O4 1515   4.125   3.971   3.393  0.5788  0.0106 -0.3330
   48U       N3 1516   4.236   3.780   3.421 -0.2658 -0.7304 -0.5953
   48U       H3 1517   4.154   3.742   3.466 -0.1078 -0.0077  0.3271
   48U       C2 1518   4.353   3.705   3.413  0.0320 -0.2721 -0.5689
   48U       O2 1519   4.344   3.585   3.441  0.3499 -0.2157 -0.2209
   48U      C3' 1520   4.697   3.678   3.158  0.1042 -0.2020  0.0118
   48U      H3' 1521   4.646   3.759   3.106  0.9455  1.8460  2.2225
   48U      C2' 1522   4.600   3.592   3.240 -0.3860  0.4922  0.1683
   48U     H2'1 1523   4.504   3.566   3.196 -0.1594 -2.9892  1.4557
   48U      O2' 1524   4.659   3.469   3.275  0.1373  0.8144  0.4399
   48U     HO'2 1525   4.737   3.450   3.223 -0.1544 -0.7558  0.5099
   48U      O3' 1526   4.777   3.615   3.061 -0.0059 -0.6077  0.1802
   49C        P 1527   4.713   3.593   2.915  0.0096  0.0570  0.0705
   49C      O1P 1528   4.813   3.517   2.838  0.0292 -0.5937  0.7265
   49C      O2P 1529   4.676   3.729   2.867 -0.4250 -0.1774 -0.2724
   49C      O5' 1530   4.573   3.515   2.934  0.0831 -0.0900  0.0049
   49C      C5' 1531   4.571   3.379   2.973  0.2064 -0.0583  0.1223
   49C     H5'1 1532   4.633   3.361   3.060  0.3507 -1.2040 -0.2095
   49C     H5'2 1533   4.610   3.324   2.887  2.8462  0.4569  0.9020
   49C      C4' 1534   4.439   3.320   3.018  0.1641  0.3036  0.4785
   49C      H4' 1535   4.458   3.220   3.059 -2.0952 -0.1212  0.6668
   49C      O4' 1536   4.383   3.391   3.126 -0.1048  0.2416  0.3808
   49C      C1' 1537   4.243   3.372   3.126 -0.0341 -0.2998  0.0778
   49C      H1' 1538   4.215   3.335   3.225 -1.2047  1.6004  0.5029
   49C       N1 1539   4.177   3.503   3.112 -0.2098 -0.3821  0.1365
   49C       C6 1540   4.244   3.617   3.078 -0.2687 -0.3579  0.1009
   49C       H6 1541   4.349   3.608   3.056 -0.2763 -2.5094  0.6868
   49C       C5 1542   4.183   3.738   3.086 -0.4815 -0.4578  0.0016
   49C       H5 1543   4.235   3.831   3.071  0.6946 -1.1590 -0.4073
   49C       C4 1544   4.046   3.742   3.128 -0.4430  0.0511  0.0823
   49C       N4 1545   3.982   3.859   3.143 -0.5052  0.0979 -0.5268
   49C      H41 1546   4.028   3.947   3.126 -3.1161  1.2200 -2.6280
   49C      H42 1547   3.893   3.858   3.191 -0.0702 -0.7952  0.2840
   49C       N3 1548   3.979   3.630   3.158 -0.1160 -0.2551 -0.3253
   49C       C2 1549   4.045   3.511   3.152 -0.0463 -0.2751  0.6613
   49C       O2 1550   3.980   3.414   3.191 -0.1453 -0.5174 -0.0889
   49C      C3' 1551   4.322   3.308   2.921  0.4117 -0.0136  0.2195
   49C      H3' 1552   4.309   3.403   2.869 -0.2996 -0.3439 -0.2218
   49C      C2' 1553   4.208   3.273   3.016 -0.0901  0.1502 -0.3124
   49C     H2'1 1554   4.108   3.300   2.982 -0.1108 -0.5205 -0.8016
   49C      O2' 1555   4.221   3.142   3.067  0.1289  0.4886  0.5112
   49C     HO'2 1556   4.147   3.126   3.126 -1.0940 -1.2538 -1.3597
   49C      O3' 1557   4.334   3.206   2.824  0.2835  0.1258  0.0558
   50G        P 1558   4.269   3.226   2.678  0.3300  0.0001  0.0184
   50G      O1P 1559   4.303   3.112   2.589 -0.5642 -0.1641 -0.1181
   50G      O2P 1560   4.304   3.361   2.630 -0.5650  0.3254  0.2757
   50G      O5' 1561   4.112   3.219   2.711  0.3218  0.1051  0.0012
   50G      C5' 1562   4.052   3.106   2.770 -0.0955  0.4832  0.3126
   50G     H5'1 1563   4.104   3.078   2.862 -0.9305  0.3841  0.7628
   50G     H5'2 1564   4.059   3.028   2.694  1.8707  0.9455 -0.0438
   50G      C4' 1565   3.904   3.132   2.797 -0.1748 -0.0323  0.3818
   50G      H4' 1566   3.857   3.037   2.824 -0.6600  0.1786  0.2724
   50G      O4' 1567   3.873   3.215   2.907 -0.0093  0.1838  0.2666
   50G      C1' 1568   3.757   3.288   2.872 -0.0519 -0.1370 -0.2843
   50G      H1' 1569   3.670   3.270   2.934 -0.7416  3.1054 -0.1299
   50G       N9 1570   3.787   3.432   2.882 -0.4100 -0.0821  0.0193
   50G       C8 1571   3.897   3.502   2.838 -0.2018 -0.1149  0.4803
   50G       H8 1572   3.979   3.452   2.789 -0.7226 -2.4156  1.8352
   50G       N7 1573   3.886   3.630   2.860 -0.2992 -0.0298 -0.0360
   50G       C5 1574   3.757   3.651   2.910 -0.1414 -0.1590  0.4316
   50G       C6 1575   3.681   3.766   2.940  0.1206  0.0099  0.4460
   50G       O6 1576   3.708   3.886   2.939 -0.2165  0.0824 -0.0065
   50G       N1 1577   3.550   3.745   2.980  0.1277  0.2915  0.6249
   50G       H1 1578   3.505   3.828   3.015  1.3929  0.2503  2.4806
   50G       C2 1579   3.496   3.618   2.977  0.3865  0.1852  0.3310
   50G       N2 1580   3.374   3.611   3.032 -0.1729  0.1114 -0.8950
   50G      H21 1581   3.326   3.694   3.063 -0.9321 -0.5196 -0.3055
   50G      H22 1582   3.340   3.517   3.051  0.8700 -0.1356 -0.1888
   50G       N3 1583   3.566   3.507   2.950 -0.3980 -0.2147 -0.1190
   50G       C4 1584   3.696   3.528   2.917 -0.3868 -0.0626  0.0245
   50G      C3' 1585   3.830   3.179   2.672  0.2306 -0.1524  0.0929
   50G      H3' 1586   3.889   3.243   2.607  1.0087 -1.5994 -0.6771
   50G      C2' 1587   3.712   3.255   2.730  0.0923 -0.0243 -0.3572
   50G     H2'1 1588   3.699   3.343   2.667  3.2922 -0.2450 -1.4712
   50G      O2' 1589   3.598   3.171   2.735  0.0956 -0.0155 -0.0960
   50G     HO'2 1590   3.620   3.096   2.680 -5.1127 -2.0100  0.0471
   50G      O3' 1591   3.775   3.070   2.602  0.1138 -0.0579  0.0389
   50G      H3T 1592   3.756   3.097   2.512 -0.8138 -2.5151 -0.5862
   51SOL     OW 1593   1.452   0.742   1.717 -0.3566 -0.6501  0.8245
   51SOL    HW1 1594   1.396   0.682   1.666  0.1478 -1.7823  1.5495
   51SOL    HW2 1595   1.540   0.723   1.687 -0.2021 -0.1716  0.9774
   52SOL     OW 1596   7.337   0.249   0.769  0.1877 -0.2406  0.0801
   52SOL    HW1 1597   7.388   0.236   0.689  0.4519 -0.8669  0.3448
   52SOL    HW2 1598   7.269   0.181   0.766  0.1965 -0.2660  0.3852
   53SOL     OW 1599   0.728   0.015   0.866  0.4913 -0.5824 -0.2490
   53SOL    HW1 1600   0.652  -0.019   0.915 -0.5913 -0.0938 -1.5306
   53SOL    HW2 1601   0.742   0.102   0.903  0.4232 -0.6696 -0.0112
   54SOL     OW 1602   1.459   1.062  11.890 -0.5232  0.1336 -0.4582
   54SOL    HW1 1603   1.390   1.129  11.895 -1.8973 -1.3036  2.0237
   54SOL    HW2 1604   1.426   0.998  11.827 -0.0243  0.8799 -1.5062
   55SOL     OW 1605   1.685   3.418  11.068 -0.7609 -0.2552  0.5314
   55SOL    HW1 1606   1.661   3.345  11.010  1.5366 -0.7056  0.0652
   55SOL    HW2 1607   1.645   3.396  11.152 -3.1020 -0.2190 -0.4844
   56SOL     OW 1608   1.336   1.102  11.573  0.1999 -0.4169 -0.0186
   56SOL    HW1 1609   1.349   1.010  11.550  2.0012 -0.5506  1.3080
   56SOL    HW2 1610   1.278   1.100  11.649 -1.4260 -0.2872 -1.2019
   57SOL     OW 1611   1.500   1.463  12.244  0.5972  0.0159  0.3889
   57SOL    HW1 1612   1.495   1.459  12.340  1.6712 -0.5288  0.4296
   57SOL    HW2 1613   1.434   1.529  12.220  0.5637  0.4240  1.5251
   58SOL     OW 1614   0.504   2.883   1.597  0.2399  0.2949  0.2595
   58SOL    HW1 1615   0.495   2.788   1.593  0.3638  0.3282 -2.0557
   58SOL    HW2 1616   0.595   2.897   1.624  0.4598 -0.2664 -0.1536
   59SOL     OW 1617   7.918   1.705   1.728  0.4270  0.2120 -0.2019
   59SOL    HW1 1618   7.935   1.627   1.781 -0.4371 -0.1151 -0.3959
   59SOL    HW2 1619   7.942   1.778   1.785  0.4046 -0.1647  0.3008
   60SOL     OW 1620   1.525   0.903   0.324  0.0533 -0.5442  0.2421
   60SOL    HW1 1621   1.496   0.989   0.355  2.2741  0.9534 -1.4785
   60SOL    HW2 1622   1.516   0.908   0.229  2.0567 -1.4343 -0.0366
   61SOL     OW 1623   0.824   2.586   0.906  0.1333 -0.6467 -0.6469
   61SOL    HW1 1624   0.752   2.617   0.851 -1.1122 -1.7925  0.2642
   61SOL    HW2 1625   0.795   2.499   0.936  1.5191 -0.7630  0.4462
   62SOL     OW 1626   7.770   2.621   1.402  0.2070 -0.3071  0.2450
   62SOL    HW1 1627   7.716   2.542   1.397  0.4366 -0.5214  1.0038
   62SOL    HW2 1628   7.727   2.676   1.467  1.0634 -0.6228  1.0998
   63SOL     OW 1629   0.075   2.380   0.327 -0.1231 -0.8095 -0.9767
   63SOL    HW1 1630   0.152   2.356   0.378 -0.2584 -1.7897 -1.2104
   63SOL    HW2 1631   0.099   2.363   0.236 -0.6900 -1.3368 -1.0315
   64SOL     OW 1632   0.541   7.684   1.615 -0.7321 -0.1283 -0.2336
   64SOL    HW1 1633   0.581   7.762   1.577 -0.0610  0.0066  0.7167
   64SOL    HW2 1634   0.601   7.613   1.592  1.1931  0.3373  2.7619
   65SOL     OW 1635   2.891   7.959  12.097 -0.0982 -0.0119 -0.1610
   65SOL    HW1 1636   2.848   8.044  12.102 -0.2073 -0.1514  2.6976
   65SOL    HW2 1637   2.980   7.978  12.070 -0.5330  0.8301 -1.0420
   66SOL     OW 1638   7.987   2.663   0.322 -0.5570  0.5752  0.0040
   66SOL    HW1 1639   7.893   2.669   0.340 -0.6579 -0.7227 -0.0263
   66SOL    HW2 1640   8.011   2.574   0.347  0.2201  0.1675 -1.9813
   67SOL     OW 1641   7.804   7.254   2.013  0.4504 -0.4656  0.6892
   67SOL    HW1 1642   7.784   7.344   1.984 -1.0102 -0.2833  2.1179
   67SOL    HW2 1643   7.795   7.257   2.108 -0.4470 -2.3175  0.7054
   68SOL     OW 1644   0.937   3.062   0.058 -0.4443  0.3528  0.3503
   68SOL    HW1 1645   1.019   3.023   0.029  0.0445  1.1975  0.5542
   68SOL    HW2 1646   0.869   2.999   0.032  0.2204 -0.1359 -0.2260
   69SOL     OW 1647   7.311   1.408   0.759 -0.7827  0.5435 -0.1882
   69SOL    HW1 1648   7.235   1.444   0.804 -0.8348 -0.4186  0.5084
   69SOL    HW2 1649   7.323   1.321   0.796  0.6798  0.6815 -0.2697
   70SOL     OW 1650   1.328   0.289   1.660  0.7398  0.2550  0.0911
   70SOL    HW1 1651   1.360   0.304   1.749  0.4007  0.6779  0.1420
   70SOL    HW2 1652   1.275   0.366   1.639 -0.0401 -0.3105 -0.0897
   71SOL     OW 1653   0.025   0.720  11.532 -0.6682  0.3048  0.0969
   71SOL    HW1 1654  -0.069   0.711  11.545 -0.6668  1.7359  1.4212
   71SOL    HW2 1655   0.058   0.630  11.531 -1.8691 -0.1713  1.0941
   72SOL     OW 1656   0.592   0.696   1.430  0.8342  0.9236 -0.2886
   72SOL    HW1 1657   0.586   0.685   1.525 -0.2440  1.3977 -0.2893
   72SOL    HW2 1658   0.524   0.759   1.408  0.2291 -0.0871 -1.5246
   73SOL     OW 1659   7.137   1.543  11.656  0.2368 -0.2132  0.0401
   73SOL    HW1 1660   7.082   1.621  11.642 -1.5115 -1.2826  0.6734
   73SOL    HW2 1661   7.112   1.484  11.585  1.8451 -0.0874 -0.6688
   74SOL     OW 1662   2.085   2.091  12.497  0.4981  0.2835 -0.2834
   74SOL    HW1 1663   2.053   2.051  12.416  1.2748 -1.1475  0.0784
   74SOL    HW2 1664   2.178   2.070  12.499  1.2272  3.1125 -0.5906
   75SOL     OW 1665   0.838   0.361   0.955  0.0172 -0.0174 -0.3837
   75SOL    HW1 1666   0.818   0.399   1.041 -0.0184 -0.8076 -0.0340
   75SOL    HW2 1667   0.909   0.299   0.972  1.5145  1.3799 -1.2942
   76SOL     OW 1668   1.356   6.211   1.601  0.4653 -0.0409 -0.0098
   76SOL    HW1 1669   1.386   6.267   1.529 -2.2546  1.6274 -0.0087
   76SOL    HW2 1670   1.385   6.256   1.680  0.1541  0.2219 -0.0411
   77SOL     OW 1671   0.854   7.404   1.077  0.7249  0.7316 -0.2353
   77SOL    HW1 1672   0.944   7.372   1.070  0.1395 -0.9524 -0.5421
   77SOL    HW2 1673   0.838   7.450   0.995  0.6398 -0.8670 -1.1603
   78SOL     OW 1674   0.079   0.045  11.384  0.1427  0.0470  0.0961
   78SOL    HW1 1675   0.123   0.029  11.468  0.8788  1.6692  0.0479
   78SOL    HW2 1676   0.151   0.046  11.320 -0.1616  0.9066 -0.2445
   79SOL     OW 1677   1.960   0.304   1.277 -0.0444  0.5554 -0.2599
   79SOL    HW1 1678   2.052   0.278   1.276 -0.7870 -2.6708 -2.5796
   79SOL    HW2 1679   1.929   0.281   1.365  1.0176  0.2967  0.0586
   80SOL     OW 1680   0.354   0.842   1.397  0.0146 -0.3673  0.0094
   80SOL    HW1 1681   0.301   0.772   1.359 -1.6712  0.9246 -0.1707
   80SOL    HW2 1682   0.336   0.918   1.342  1.8643  0.2166  0.1515
   81SOL     OW 1683   0.657   1.153   1.852  0.4765  0.1737  0.2087
   81SOL    HW1 1684   0.588   1.182   1.911  2.0019  3.2417  0.6564
   81SOL    HW2 1685   0.613   1.094   1.790 -2.4329  1.6714  0.7148
   82SOL     OW 1686   1.034   1.474  12.084  0.3581 -0.5697 -0.5012
   82SOL    HW1 1687   1.021   1.509  11.995 -1.4399 -0.4352 -0.2280
   82SOL    HW2 1688   1.049   1.552  12.138 -0.1844 -0.5045 -0.4395
   83SOL     OW 1689   1.136   1.600   2.739 -0.2611  0.0853 -0.1108
   83SOL    HW1 1690   1.203   1.533   2.753  1.2948  1.6207  0.1166
   83SOL    HW2 1691   1.056   1.560   2.773  0.9862 -0.9346  1.8781
   84SOL     OW 1692   1.848   7.509   2.183  0.5913  0.9203  0.0661
   84SOL    HW1 1693   1.811   7.426   2.153  1.6545  0.3337  0.3337
   84SOL    HW2 1694   1.781   7.574   2.162 -0.2198  0.0125 -0.2322
   85SOL     OW 1695   2.876   0.698   0.462  0.1516 -0.3447 -0.2064
   85SOL    HW1 1696   2.875   0.606   0.490 -1.3759 -0.1173  0.6047
   85SOL    HW2 1697   2.969   0.718   0.452  0.7848 -0.9910  3.0849
   86SOL     OW 1698   2.217   2.433  11.267  0.6494  0.0263  0.8063
   86SOL    HW1 1699   2.182   2.405  11.351 -2.0549  0.0697 -0.2095
   86SOL    HW2 1700   2.141   2.461  11.217  2.0120 -0.9084 -2.0238
   87SOL     OW 1701   0.985   0.588   0.380 -0.3767 -0.1177 -0.1518
   87SOL    HW1 1702   0.977   0.680   0.353  1.9229  0.9516  2.3393
   87SOL    HW2 1703   0.903   0.570   0.426 -0.4157  1.1010  0.3094
   88SOL     OW 1704   1.431   0.935   2.289  0.7720 -0.4321 -0.6231
   88SOL    HW1 1705   1.506   0.993   2.279  1.1726 -0.5557  1.3286
   88SOL    HW2 1706   1.366   0.986   2.337  0.9097 -1.3625  0.6063
   89SOL     OW 1707   2.399   7.661   0.517 -0.8285  0.3864  0.2836
   89SOL    HW1 1708   2.390   7.683   0.610 -1.0227  1.9128 -0.0656
   89SOL    HW2 1709   2.448   7.734   0.481 -0.5089 -0.3366 -0.7761
   90SOL     OW 1710   6.703   1.801   0.610 -0.0361  0.3497 -0.3506
   90SOL    HW1 1711   6.618   1.799   0.654  1.0896  0.2036  1.9714
   90SOL    HW2 1712   6.691   1.862   0.537 -1.3378  2.6950  1.6939
   91SOL     OW 1713   2.230   7.341   2.077 -0.3084  0.0056  0.3222
   91SOL    HW1 1714   2.316   7.327   2.119 -0.5324 -3.1200 -0.0697
   91SOL    HW2 1715   2.229   7.435   2.058  3.0529  0.1752  0.2780
   92SOL     OW 1716   0.309   1.079   0.253  0.1140  0.1139  0.2125
   92SOL    HW1 1717   0.386   1.033   0.286  0.4085  0.5180  0.0925
   92SOL    HW2 1718   0.342   1.162   0.219 -0.1781 -0.2524 -1.0466
   93SOL     OW 1719   0.914   7.535   2.837 -0.0695  0.0591  0.5465
   93SOL    HW1 1720   0.930   7.610   2.781 -0.3806  0.4666  0.9985
   93SOL    HW2 1721   0.905   7.572   2.925  1.4575 -0.6683  1.0516
   94SOL     OW 1722   0.595   7.901   0.100 -0.7269  0.3831 -0.1752
   94SOL    HW1 1723   0.570   7.969   0.163 -1.2623  0.2858 -0.2835
   94SOL    HW2 1724   0.684   7.877   0.125 -0.7872  0.6395  0.2862
   95SOL     OW 1725   1.818   0.276  12.111  0.3068 -0.3828  0.0056
   95SOL    HW1 1726   1.810   0.303  12.202 -0.2136 -0.1648 -0.0979
   95SOL    HW2 1727   1.902   0.230  12.106  2.5891  3.4498 -0.3701
   96SOL     OW 1728   7.636   3.060   1.147 -0.0522  0.3809 -0.1549
   96SOL    HW1 1729   7.704   3.066   1.079  1.7927 -2.5150  1.2606
   96SOL    HW2 1730   7.554   3.053   1.097  0.8256  1.8423 -1.9555
   97SOL     OW 1731   2.605   0.842  12.497  0.0359 -0.1762 -0.2078
   97SOL    HW1 1732   2.661   0.839  12.575  0.4453  1.6517 -0.3823
   97SOL    HW2 1733   2.516   0.850  12.531  0.1295 -0.2317  0.0557
   98SOL     OW 1734   1.975   1.509   1.120 -0.1911  0.0739 -0.3003
   98SOL    HW1 1735   1.973   1.568   1.196 -1.9891 -2.5229  1.8823
   98SOL    HW2 1736   2.045   1.447   1.139 -0.0173 -0.0309 -1.2505
   99SOL     OW 1737   1.534   0.609   1.276  0.0030  0.0161 -0.2164
   99SOL    HW1 1738   1.505   0.538   1.220 -2.8532  0.2233  0.8289
   99SOL    HW2 1739   1.627   0.591   1.292 -0.1394 -2.3210 -1.5798
  100SOL     OW 1740   7.921   7.512   1.048  0.3795  0.3549 -0.3098
  100SOL    HW1 1741   7.910   7.439   0.986  1.1087  0.1615 -0.2199
  100SOL    HW2 1742   8.007   7.549   1.027  0.1358  1.0142 -0.1665
  101SOL     OW 1743   1.602   0.368   3.510 -0.0973  0.0174 -0.1694
  101SOL    HW1 1744   1.601   0.305   3.581  1.9934  0.7856  0.6266
  101SOL    HW2 1745   1.513   0.402   3.506 -1.0223 -2.2709 -0.0157
  102SOL     OW 1746   1.641   3.226   0.310  0.0669 -0.2917 -0.2701
  102SOL    HW1 1747   1.727   3.199   0.343  0.5092  1.3156  0.0126
  102SOL    HW2 1748   1.657   3.248   0.219 -0.0305  0.0427 -0.2072
  103SOL     OW 1749   1.979   0.049   1.569 -0.0674 -0.1892  0.3882
  103SOL    HW1 1750   2.074   0.042   1.577  0.1453 -1.1810 -2.0071
  103SOL    HW2 1751   1.960   0.021   1.479 -2.5261  1.0856  0.4055
  104SOL     OW 1752   2.762   2.481   1.346  0.0208  0.2396  0.4603
  104SOL    HW1 1753   2.803   2.531   1.275 -1.4338 -0.8576 -1.2245
  104SOL    HW2 1754   2.709   2.546   1.393 -0.1991  0.7041 -0.4080
  105SOL     OW 1755   7.796   2.337   0.111  0.2548 -0.1273 -0.6865
  105SOL    HW1 1756   7.760   2.375   0.191  0.7664 -0.0173 -0.5063
  105SOL    HW2 1757   7.762   2.248   0.109 -0.6208  0.1998 -0.8978
  106SOL     OW 1758   0.797   7.897   1.722  0.1830 -0.1817 -0.1218
  106SOL    HW1 1759   0.716   7.907   1.672 -0.0483  1.4161  0.5081
  106SOL    HW2 1760   0.779   7.940   1.806  1.0014 -1.6237  0.8341
  107SOL     OW 1761   6.192   0.209   0.404 -0.4397  0.3276 -0.2687
  107SOL    HW1 1762   6.267   0.268   0.396  0.8845 -1.4066 -1.4989
  107SOL    HW2 1763   6.165   0.217   0.495  1.5998  0.5971  0.3678
  108SOL     OW 1764   6.769   0.348   0.549 -0.0722 -0.1980 -0.5116
  108SOL    HW1 1765   6.726   0.400   0.480 -0.9189 -0.3030 -0.0805
  108SOL    HW2 1766   6.739   0.387   0.631  0.2521 -0.6004 -0.1984
  109SOL     OW 1767   1.053   6.643   2.564 -0.5360  0.6694 -0.1660
  109SOL    HW1 1768   0.997   6.716   2.590 -1.8723 -1.1736  2.6480
  109SOL    HW2 1769   1.001   6.594   2.501 -1.1112  0.3228  0.5579
  110SOL     OW 1770   1.315   1.965   0.382 -0.0402  0.4567  0.2782
  110SOL    HW1 1771   1.270   2.048   0.367  1.2167  1.0453 -0.4379
  110SOL    HW2 1772   1.330   1.961   0.476  1.1143  1.7333  0.1738
  111SOL     OW 1773   7.882   0.791  12.247  0.5450 -0.4833 -0.2722
  111SOL    HW1 1774   7.965   0.754  12.276  1.0921 -0.2621 -1.5092
  111SOL    HW2 1775   7.866   0.750  12.162 -0.8046 -0.8009  0.1071
  112SOL     OW 1776   7.270   1.241   0.109  0.0673  0.0047 -1.0071
  112SOL    HW1 1777   7.242   1.332   0.117 -0.9055 -0.4566  1.8820
  112SOL    HW2 1778   7.190   1.192   0.097  0.5986 -0.5334 -2.6520
  113SOL     OW 1779   1.410   1.128   0.477  0.4290  0.2832  0.1145
  113SOL    HW1 1780   1.479   1.177   0.520  0.0498  0.4774  0.5142
  113SOL    HW2 1781   1.348   1.106   0.547  0.7324 -1.0220  0.0042
  114SOL     OW 1782   1.635   1.281   0.605 -0.8217 -0.1363  0.7213
  114SOL    HW1 1783   1.599   1.361   0.642 -2.5802 -0.4219 -0.2533
  114SOL    HW2 1784   1.656   1.226   0.681  1.6164  1.6483  1.4732
  115SOL     OW 1785   0.482   0.892  12.443  0.1424 -0.4140  0.1458
  115SOL    HW1 1786   0.450   0.824  12.503  0.0055 -1.2224 -0.8177
  115SOL    HW2 1787   0.518   0.843  12.369  1.4471  0.5437  0.1249
  116SOL     OW 1788   1.712   0.325   2.050 -0.3668 -0.4286  0.1615
  116SOL    HW1 1789   1.801   0.293   2.038 -0.0800  0.4381 -0.1163
  116SOL    HW2 1790   1.710   0.357   2.140 -0.0643  0.5232 -0.1555
  117SOL     OW 1791   1.225   7.295   1.306 -0.4202  0.1057 -0.0168
  117SOL    HW1 1792   1.173   7.257   1.377 -0.9910  1.9625  0.6134
  117SOL    HW2 1793   1.247   7.383   1.336  1.9347 -0.1177 -0.8795
  118SOL     OW 1794   0.896   0.370   2.089 -0.1507  0.2505 -0.4714
  118SOL    HW1 1795   0.946   0.395   2.167 -0.3432 -0.0693 -0.2423
  118SOL    HW2 1796   0.833   0.441   2.077 -0.4766  0.0449 -0.0165
  119SOL     OW 1797   0.335   2.933   2.275  0.4570  0.2164 -0.0851
  119SOL    HW1 1798   0.267   2.977   2.225  0.8175 -0.9357 -1.6518
  119SOL    HW2 1799   0.295   2.917   2.361 -0.5941  1.1338 -0.3770
  120SOL     OW 1800   1.653   1.638   0.436  0.2598  0.5837  0.2199
  120SOL    HW1 1801   1.712   1.562   0.437 -1.6302 -1.0143 -1.4518
  120SOL    HW2 1802   1.585   1.617   0.499 -0.1406  1.0015 -0.0626
  121SOL     OW 1803   0.356   2.298   0.419 -0.3502  0.1893  0.3457
  121SOL    HW1 1804   0.393   2.285   0.506  0.8378  1.0787  0.0064
  121SOL    HW2 1805   0.411   2.243   0.362  0.7341  1.7746 -0.2134
  122SOL     OW 1806   1.229   1.814   0.772 -0.6691  0.2497  0.0899
  122SOL    HW1 1807   1.297   1.855   0.719  0.5387 -1.5838  0.1307
  122SOL    HW2 1808   1.214   1.730   0.730 -0.1709 -0.9690  2.2321
  123SOL     OW 1809   0.981   6.828   1.411  0.3242  0.2107 -0.1913
  123SOL    HW1 1810   0.928   6.762   1.455  1.3638  0.0547  0.8735
  123SOL    HW2 1811   1.050   6.849   1.474 -0.1766  2.5791 -0.3521
  124SOL     OW 1812   1.517   7.950  12.147 -0.2146 -0.2147 -0.0713
  124SOL    HW1 1813   1.541   7.858  12.149 -3.4831 -1.1766  0.2867
  124SOL    HW2 1814   1.516   7.972  12.053  2.6945  0.2006 -0.0981
  125SOL     OW 1815   1.152   0.965   0.936  0.6683 -0.2124  0.2368
  125SOL    HW1 1816   1.223   1.016   0.898 -1.1200  2.9548  0.8590
  125SOL    HW2 1817   1.125   0.905   0.866  1.7450  0.8976 -1.1693
  126SOL     OW 1818   7.442   0.910   0.698  0.2479 -0.0678  0.4326
  126SOL    HW1 1819   7.503   0.886   0.768  1.2473  0.5868 -0.1832
  126SOL    HW2 1820   7.497   0.952   0.632 -0.4278 -1.9408 -1.4308
  127SOL     OW 1821   0.256   2.102   0.753 -0.1113 -0.0462 -0.2791
  127SOL    HW1 1822   0.308   2.180   0.772 -0.4100  0.6573 -2.1916
  127SOL    HW2 1823   0.278   2.079   0.663 -2.0855 -0.5294 -0.6780
  128SOL     OW 1824   2.462   3.939   0.270  0.5863 -0.0698 -0.0166
  128SOL    HW1 1825   2.385   3.900   0.310  0.6377  0.1428  0.2961
  128SOL    HW2 1826   2.499   3.994   0.339  0.3759  0.7234 -0.5287
  129SOL     OW 1827   1.512   7.857   2.400  0.3390 -0.1968  0.5727
  129SOL    HW1 1828   1.420   7.882   2.414 -0.2368 -1.0357 -1.3323
  129SOL    HW2 1829   1.508   7.764   2.379  1.6323 -0.2167  0.3669
  130SOL     OW 1830   1.442   2.048   1.511  0.0372  0.4174 -0.2459
  130SOL    HW1 1831   1.520   2.083   1.467  0.3969 -0.3155 -0.1981
  130SOL    HW2 1832   1.455   2.070   1.603  1.3715 -1.7769  0.1500
  131SOL     OW 1833   1.974   7.505  11.927 -0.3593  0.0738 -0.0815
  131SOL    HW1 1834   1.943   7.420  11.895 -0.6065  0.1174  0.0356
  131SOL    HW2 1835   2.046   7.484  11.986  1.6144  0.0847 -2.3183
  132SOL     OW 1836   6.864   0.563   1.324  0.0243 -0.5638 -0.7120
  132SOL    HW1 1837   6.921   0.489   1.303  0.1929 -0.6274 -0.0659
  132SOL    HW2 1838   6.779   0.540   1.286 -0.0828 -1.3636 -0.0433
  133SOL     OW 1839   0.577   6.913   3.046  0.9861 -0.8924  0.2223
  133SOL    HW1 1840   0.632   6.966   2.988  1.1210 -0.5982  0.6139
  133SOL    HW2 1841   0.496   6.900   2.997  0.5795  0.4674  0.4834
  134SOL     OW 1842   7.052   0.465   1.631  0.5179 -0.6122  0.3371
  134SOL    HW1 1843   7.075   0.506   1.548 -0.0636  0.1291  0.5275
  134SOL    HW2 1844   6.978   0.517   1.664  0.3994 -1.2180  1.0607
  135SOL     OW 1845   7.534   6.957  12.189 -0.0317 -0.3189 -0.1060
  135SOL    HW1 1846   7.566   7.024  12.129  0.7445 -0.2134  0.4072
  135SOL    HW2 1847   7.469   7.003  12.243  0.5143  0.0452  0.2595
  136SOL     OW 1848   1.270   1.639   0.317 -0.2303 -0.1605  0.0985
  136SOL    HW1 1849   1.307   1.711   0.266  1.8284  1.1571  3.1988
  136SOL    HW2 1850   1.307   1.560   0.277  1.5800  0.8244 -0.2483
  137SOL     OW 1851   1.171   1.040   1.268  0.3265 -0.3434  0.1765
  137SOL    HW1 1852   1.191   1.029   1.361  0.1976 -1.2163  0.1083
  137SOL    HW2 1853   1.210   0.963   1.226  1.5160  0.6700 -0.6722
  138SOL     OW 1854   2.046   1.174   0.075  0.1466 -0.5326 -0.4352
  138SOL    HW1 1855   2.058   1.250   0.017 -0.3570  0.4058  0.6496
  138SOL    HW2 1856   1.963   1.135   0.046  0.3669 -0.6253 -0.9495
  139SOL     OW 1857   0.768   7.157  11.712 -0.7195  0.6858 -0.4689
  139SOL    HW1 1858   0.845   7.100  11.719 -1.1277  0.3352  3.1665
  139SOL    HW2 1859   0.787   7.215  11.638  3.3439  1.0375  0.6277
  140SOL     OW 1860   1.192   7.943   0.274 -0.2872  0.2368 -0.3101
  140SOL    HW1 1861   1.129   7.958   0.204 -0.3910 -1.4966 -0.6404
  140SOL    HW2 1862   1.144   7.966   0.354 -0.8614  0.2840 -0.6598
  141SOL     OW 1863   2.812   0.431   0.539  0.7121  0.6262  0.3592
  141SOL    HW1 1864   2.775   0.350   0.505  1.1479  0.3100  0.6206
  141SOL    HW2 1865   2.842   0.408   0.627 -3.2893  2.2092  2.3407
  142SOL     OW 1866   0.053   7.657   0.324  0.8232 -0.5300 -0.1189
  142SOL    HW1 1867  -0.013   7.667   0.255  1.4725  0.9544 -0.5565
  142SOL    HW2 1868   0.024   7.716   0.394  0.2967 -1.8448  0.8173
  143SOL     OW 1869   1.174   1.927   1.267 -0.1611 -0.2602  0.3017
  143SOL    HW1 1870   1.194   1.958   1.355  0.7200 -0.3868  0.1471
  143SOL    HW2 1871   1.081   1.947   1.255 -0.0943  0.4612  0.9655
  144SOL     OW 1872   7.666   1.017   0.398 -0.0347  0.4265 -0.3607
  144SOL    HW1 1873   7.592   1.073   0.374  0.5976  0.8276 -1.4292
  144SOL    HW2 1874   7.743   1.062   0.363  0.5738 -0.6976 -0.5204
  145SOL     OW 1875   1.669   1.127   0.874  0.2320  0.3026 -0.3239
  145SOL    HW1 1876   1.693   1.217   0.898  0.6838  0.3959 -1.1041
  145SOL    HW2 1877   1.598   1.105   0.934  0.3268  1.0689  0.0864
  146SOL     OW 1878   0.989   2.649   3.031  0.2053  0.3217  0.5531
  146SOL    HW1 1879   0.929   2.721   3.053  0.4340  1.4976 -2.2237
  146SOL    HW2 1880   0.932   2.582   2.993  0.3271  0.3247  0.3619
  147SOL     OW 1881   1.355   2.691   1.132 -0.2352 -0.0193  0.1161
  147SOL    HW1 1882   1.362   2.683   1.037 -0.0839 -1.7976  0.2397
  147SOL    HW2 1883   1.278   2.639   1.155  0.1375 -0.1776  1.0342
  148SOL     OW 1884   1.229   3.849   1.882  0.5238 -0.3002 -0.2898
  148SOL    HW1 1885   1.177   3.843   1.962 -0.4420 -1.7552 -0.9899
  148SOL    HW2 1886   1.313   3.810   1.905 -0.1963 -1.9349 -0.3071
  149SOL     OW 1887   1.148   0.837   2.448  0.1773 -0.0115  0.3313
  149SOL    HW1 1888   1.196   0.920   2.443  0.7096 -0.3059  0.4502
  149SOL    HW2 1889   1.191   0.780   2.385 -1.5534  0.4479 -1.3526
  150SOL     OW 1890   7.711   1.418  12.243  0.0466 -0.2729 -0.0371
  150SOL    HW1 1891   7.658   1.353  12.289  0.2508 -0.1096  0.4423
  150SOL    HW2 1892   7.776   1.366  12.195  0.6448 -0.4150  0.8955
  151SOL     OW 1893   2.386   3.481   0.448  0.2330 -0.2877 -0.2536
  151SOL    HW1 1894   2.379   3.501   0.354  0.2445  2.2822  0.2270
  151SOL    HW2 1895   2.432   3.557   0.485  2.1301 -2.1776  1.5424
  152SOL     OW 1896   7.859   1.358  11.805  0.1404  0.2662  0.3647
  152SOL    HW1 1897   7.910   1.284  11.773 -0.0709  0.3540 -0.1896
  152SOL    HW2 1898   7.914   1.435  11.787 -0.5096  0.4450 -0.9913
  153SOL     OW 1899   0.393   2.460   1.833 -0.0370  0.0835 -0.1842
  153SOL    HW1 1900   0.318   2.508   1.871 -0.7218  0.0714 -1.4732
  153SOL    HW2 1901   0.377   2.369   1.857 -0.6309  0.0331 -0.7565
  154SOL     OW 1902   6.638   0.158  12.082 -0.1392 -0.2233  0.2613
  154SOL    HW1 1903   6.673   0.093  12.143  0.3124 -0.5452 -0.3322
  154SOL    HW2 1904   6.628   0.111  11.999  0.0228  0.4105 -0.1316
  155SOL     OW 1905   7.601   6.623   1.363 -0.3669 -0.1516 -0.1165
  155SOL    HW1 1906   7.685   6.655   1.395 -0.5464  0.4510 -0.2189
  155SOL    HW2 1907   7.538   6.690   1.393 -1.2109 -1.8370  2.2214
  156SOL     OW 1908   1.960   1.263  11.819 -0.4378  0.1019 -0.0626
  156SOL    HW1 1909   1.909   1.229  11.892  0.3198  0.0915  0.4745
  156SOL    HW2 1910   1.928   1.216  11.743 -0.0457 -1.1672  0.5245
  157SOL     OW 1911   0.062   2.554  11.679 -0.2647 -0.3251 -0.4620
  157SOL    HW1 1912   0.090   2.638  11.713 -2.7882  0.4204 -0.0224
  157SOL    HW2 1913   0.096   2.552  11.589 -0.4425  1.3074 -0.5854
  158SOL     OW 1914   1.655   7.223   1.113  0.1999 -0.2229  0.0178
  158SOL    HW1 1915   1.579   7.221   1.171  1.0504  1.1772  1.2630
  158SOL    HW2 1916   1.657   7.136   1.073 -0.4602 -1.2618  2.0688
  159SOL     OW 1917   0.637   2.539   0.211 -0.4804 -0.8690  0.0636
  159SOL    HW1 1918   0.544   2.537   0.189 -1.1084 -0.1698  2.4314
  159SOL    HW2 1919   0.653   2.455   0.254 -0.5833 -0.1205  1.6246
  160SOL     OW 1920   0.033   1.013   1.968 -0.4728 -0.0185  0.5229
  160SOL    HW1 1921   0.003   0.986   1.881 -3.8623  0.3616  1.4484
  160SOL    HW2 1922   0.069   0.933   2.007  1.3343 -0.1403 -1.2138
  161SOL     OW 1923   1.036   3.225   0.249  0.2274 -1.0246  0.2919
  161SOL    HW1 1924   1.006   3.155   0.190 -0.7917 -0.3206 -0.0618
  161SOL    HW2 1925   1.010   3.306   0.204  0.1613 -0.4548  1.3318
  162SOL     OW 1926   7.517   7.215   1.281  0.1624  0.3774  0.5018
  162SOL    HW1 1927   7.521   7.162   1.202  0.7059 -0.2920  0.9616
  162SOL    HW2 1928   7.601   7.260   1.285  0.2265  0.2355  0.8117
  163SOL     OW 1929   1.417   0.172  11.421  0.3718  0.0305 -0.1591
  163SOL    HW1 1930   1.419   0.151  11.327  0.0145 -2.6113  0.3359
  163SOL    HW2 1931   1.324   0.175  11.442  0.4421 -1.5711  0.4897
  164SOL     OW 1932   0.426   1.776  12.249  0.2365  0.2964 -0.1295
  164SOL    HW1 1933   0.404   1.686  12.225 -0.2943 -0.1766  1.9001
  164SOL    HW2 1934   0.522   1.776  12.258  0.1908 -0.2494  0.4305
  165SOL     OW 1935   7.624   7.650  11.828  0.1705  0.1136 -0.4906
  165SOL    HW1 1936   7.657   7.736  11.803 -0.8301  0.9083  0.8040
  165SOL    HW2 1937   7.554   7.668  11.890  1.8422 -1.6699  2.1144
  166SOL     OW 1938   1.555   0.277  12.019 -0.3836  0.1506 -0.2033
  166SOL    HW1 1939   1.648   0.253  12.013 -0.7548 -1.0442 -2.4046
  166SOL    HW2 1940   1.534   0.271  12.112  1.3037 -1.3429  0.1369
  167SOL     OW 1941   7.414   2.697   1.222 -0.0180  0.6776 -0.1200
  167SOL    HW1 1942   7.506   2.709   1.200  0.2042 -2.3269 -1.4096
  167SOL    HW2 1943   7.368   2.703   1.139 -0.5422 -0.7560  0.0274
  168SOL     OW 1944   7.701   2.105   1.336 -0.3472 -0.4562  0.1194
  168SOL    HW1 1945   7.775   2.122   1.394 -0.1005  2.0228 -0.8257
  168SOL    HW2 1946   7.623   2.121   1.389 -0.2570 -2.1832  0.8520
  169SOL     OW 1947   1.524   0.028   3.343  0.2739 -0.3022 -0.3895
  169SOL    HW1 1948   1.453   0.060   3.398 -0.7621 -0.6110 -1.4866
  169SOL    HW2 1949   1.597   0.013   3.403 -0.5110  0.2419  0.7340
  170SOL     OW 1950   0.581   0.539   0.273  0.5856 -0.7139  0.0746
  170SOL    HW1 1951   0.555   0.540   0.181 -0.6753 -1.8253  0.3831
  170SOL    HW2 1952   0.624   0.454   0.285  3.8202  0.7551 -0.2233
  171SOL     OW 1953   2.099   6.513  11.799  0.3506  0.1614 -0.2829
  171SOL    HW1 1954   2.112   6.515  11.705 -0.7227 -0.5008 -0.4664
  171SOL    HW2 1955   2.004   6.522  11.810  0.2550 -1.5455  0.6312
  172SOL     OW 1956   7.876   0.918   0.041  0.5339 -0.1956  0.0649
  172SOL    HW1 1957   7.904   0.878  -0.042  0.0158 -2.9335  1.0928
  172SOL    HW2 1958   7.904   0.856   0.108 -2.9336 -0.3404  1.5948
  173SOL     OW 1959   0.291   7.160   1.202  0.4328 -0.5134 -0.1823
  173SOL    HW1 1960   0.334   7.133   1.121 -0.3720  0.0393 -0.8060
  173SOL    HW2 1961   0.347   7.125   1.272  0.0260 -2.8596 -0.9385
  174SOL     OW 1962   2.735   7.717   0.829 -0.1906  0.0286 -0.3722
  174SOL    HW1 1963   2.648   7.683   0.853 -0.3359 -0.2235 -1.2340
  174SOL    HW2 1964   2.796   7.652   0.864 -0.2927  0.6481  1.0072
  175SOL     OW 1965   1.045   0.447  12.267  0.7910 -0.1044 -0.0624
  175SOL    HW1 1966   1.083   0.375  12.216  0.0935 -0.3588 -0.2401
  175SOL    HW2 1967   1.112   0.469  12.331  1.6637  0.1601 -1.0237
  176SOL     OW 1968   7.579   0.702  11.736  0.6415 -0.0145  0.6657
  176SOL    HW1 1969   7.540   0.656  11.810 -0.0379  0.5277  0.6633
  176SOL    HW2 1970   7.593   0.791  11.768 -2.6157  1.1687 -0.7232
  177SOL     OW 1971   0.856   1.944   9.192  0.1907 -0.2454  0.6062
  177SOL    HW1 1972   0.796   1.991   9.249 -0.8956 -0.2305 -0.5165
  177SOL    HW2 1973   0.805   1.925   9.113  0.8230 -2.5956  0.6839
  178SOL     OW 1974   1.336   1.343   0.249  0.1513  0.2842 -0.5571
  178SOL    HW1 1975   1.343   1.338   0.344 -2.6428  1.9692 -0.1427
  178SOL    HW2 1976   1.305   1.256   0.223  0.4159 -0.0247  0.1247
  179SOL     OW 1977   7.977   2.454   1.911 -0.0263 -0.0666 -0.1394
  179SOL    HW1 1978   7.884   2.451   1.891  0.3078  0.5012 -1.8789
  179SOL    HW2 1979   8.010   2.368   1.885  0.0413 -0.0789 -0.0179
  180SOL     OW 1980   6.588   1.115  11.657 -0.3064 -0.1537  0.7973
  180SOL    HW1 1981   6.497   1.126  11.685 -0.3315  1.4060  0.2311
  180SOL    HW2 1982   6.634   1.190  11.696  0.0104  1.0976 -1.7913
  181SOL     OW 1983   1.583   0.168   1.048  0.5335 -0.0262  0.3941
  181SOL    HW1 1984   1.602   0.253   1.008  0.6398 -0.4551 -0.5132
  181SOL    HW2 1985   1.668   0.125   1.055  0.2910 -0.8310 -1.0424
  182SOL     OW 1986   0.129   0.681  12.368  0.1749 -0.8278 -0.3080
  182SOL    HW1 1987   0.164   0.722  12.447  0.0493 -0.1480 -0.5995
  182SOL    HW2 1988   0.205   0.641  12.326  0.1659 -1.6208  0.3995
  183SOL     OW 1989   7.216   1.892   0.183  0.0391  0.3221  0.0246
  183SOL    HW1 1990   7.232   1.885   0.089  0.0722  1.0217 -0.0295
  183SOL    HW2 1991   7.255   1.975   0.208 -2.1737  1.4183  0.1454
  184SOL     OW 1992   7.650   3.042   0.389 -0.1740  0.0854  0.4851
  184SOL    HW1 1993   7.726   3.094   0.362  0.3323 -1.0783 -0.4422
  184SOL    HW2 1994   7.635   3.065   0.480 -0.0644  1.9515  0.0562
  185SOL     OW 1995   1.742   0.779  11.647 -0.0885 -0.0273 -0.0924
  185SOL    HW1 1996   1.774   0.831  11.721 -1.0409 -0.7162  0.8169
  185SOL    HW2 1997   1.813   0.717  11.629 -0.4667 -0.8941  1.2713
  186SOL     OW 1998   2.371   0.075   2.787  0.2990 -0.6716  0.3486
  186SOL    HW1 1999   2.340   0.146   2.730 -0.0132 -1.3236 -0.2981
  186SOL    HW2 2000   2.461   0.099   2.807  0.7589 -0.9368 -1.2619
  187SOL     OW 2001   0.580   0.832   0.581  0.0311 -0.5581 -0.2678
  187SOL    HW1 2002   0.555   0.888   0.655 -1.3917  1.4497 -2.1356
  187SOL    HW2 2003   0.662   0.791   0.609 -0.2750  0.3649  2.2719
  188SOL     OW 2004   7.143   1.459   2.484  0.2392 -0.1033  0.3511
  188SOL    HW1 2005   7.062   1.457   2.434  0.1406 -5.7337  0.1818
  188SOL    HW2 2006   7.115   1.450   2.575  0.4928 -2.6996  0.2502
  189SOL     OW 2007   0.816   2.004   0.335  0.4114 -0.6697  0.0903
  189SOL    HW1 2008   0.850   1.975   0.251  0.3807 -1.5576  0.3685
  189SOL    HW2 2009   0.733   1.957   0.345 -0.1862  0.3486  0.0813
  190SOL     OW 2010   0.339   2.970   0.073  0.1143 -0.1416  0.6818
  190SOL    HW1 2011   0.321   2.890   0.122  2.2211 -0.6011  0.7987
  190SOL    HW2 2012   0.435   2.976   0.070  0.0588  2.8245  1.4013
  191SOL     OW 2013   7.983   1.576   1.015 -0.6797  0.0645  0.0380
  191SOL    HW1 2014   7.982   1.658   1.064 -1.1175 -0.4513  0.9147
  191SOL    HW2 2015   8.031   1.515   1.071 -1.4891 -0.6329 -0.0008
  192SOL     OW 2016   0.701   3.387   2.502  0.6278 -0.5870 -0.3089
  192SOL    HW1 2017   0.677   3.424   2.417  0.4353  0.3548  0.1354
  192SOL    HW2 2018   0.619   3.350   2.536  0.6735 -0.8355 -0.4666
  193SOL     OW 2019   7.903   1.358   0.027  0.3404  0.0886  0.2230
  193SOL    HW1 2020   7.859   1.301  -0.035  1.6259 -0.9145  0.1779
  193SOL    HW2 2021   7.880   1.447  -0.001 -1.5049 -0.3763  0.1574
  194SOL     OW 2022   2.167   3.108   0.392 -0.3933  0.0412  0.1819
  194SOL    HW1 2023   2.162   3.044   0.321  1.2543  0.6577 -0.5310
  194SOL    HW2 2024   2.194   3.058   0.469 -1.3939 -0.4852  0.2160
  195SOL     OW 2025   7.611   1.557   1.233  0.4226  0.1702 -0.0524
  195SOL    HW1 2026   7.525   1.520   1.255  0.5534 -0.7348 -0.9953
  195SOL    HW2 2027   7.606   1.648   1.263 -0.8359  0.1154 -0.0219
  196SOL     OW 2028   7.509   0.036   1.477  0.4640 -0.2705 -0.3633
  196SOL    HW1 2029   7.458   0.086   1.414  0.2424 -1.1107 -0.8685
  196SOL    HW2 2030   7.595   0.078   1.477  0.2042  0.2683 -0.5773
  197SOL     OW 2031   0.665   7.445   1.557  0.1008  0.0377  0.4857
  197SOL    HW1 2032   0.730   7.422   1.492  0.0320 -2.3720  1.1822
  197SOL    HW2 2033   0.611   7.367   1.567 -1.9363  1.4265  1.0784
  198SOL     OW 2034   0.944   0.852   0.317 -0.1871  0.6396 -0.2556
  198SOL    HW1 2035   1.012   0.893   0.264  2.1520 -0.5662  1.5737
  198SOL    HW2 2036   0.938   0.907   0.395  0.1111 -0.2792  0.4349
  199SOL     OW 2037   0.582   3.030  10.530 -0.6442 -0.0836  0.1222
  199SOL    HW1 2038   0.638   2.952  10.526  0.1546  0.5113 -0.9092
  199SOL    HW2 2039   0.516   3.009  10.596  0.0735 -1.2882  0.4917
  200SOL     OW 2040   1.180   2.483   1.156 -0.3608  0.5998 -0.0954
  200SOL    HW1 2041   1.217   2.407   1.112  2.1670  0.4035  2.1117
  200SOL    HW2 2042   1.092   2.455   1.181 -0.7277 -0.3263 -2.2128
  201SOL     OW 2043   2.103   1.808  11.437  0.2880  0.0087  0.2384
  201SOL    HW1 2044   2.036   1.853  11.489  0.9205 -1.1865  2.1951
  201SOL    HW2 2045   2.105   1.856  11.354 -1.3099  1.5283  1.0064
  202SOL     OW 2046   1.429   0.976   1.838 -0.2843  0.3075 -0.2936
  202SOL    HW1 2047   1.360   1.024   1.791  0.6880 -0.4399 -2.6322
  202SOL    HW2 2048   1.442   0.897   1.787 -0.5948 -1.6822  2.4985
  203SOL     OW 2049   7.801   6.347   1.164 -0.0648 -0.0992  0.2747
  203SOL    HW1 2050   7.847   6.371   1.245  0.7153 -0.1349 -0.1540
  203SOL    HW2 2051   7.860   6.372   1.094 -0.7822  0.0226 -0.2993
  204SOL     OW 2052   2.598   7.372   3.238  0.1920 -0.1555  0.1632
  204SOL    HW1 2053   2.609   7.279   3.260  0.7054 -0.2415 -0.4320
  204SOL    HW2 2054   2.687   7.406   3.236 -0.0330  0.5422  1.1521
  205SOL     OW 2055   7.804   3.678   0.230 -0.9185  0.4956 -0.2522
  205SOL    HW1 2056   7.871   3.611   0.217 -1.7431 -0.0357 -2.2249
  205SOL    HW2 2057   7.733   3.632   0.276 -1.0297  0.3145 -0.6028
  206SOL     OW 2058   0.058   1.621   0.725  0.6177 -0.3973 -0.1076
  206SOL    HW1 2059   0.011   1.541   0.701 -0.5690  0.0924  0.5002
  206SOL    HW2 2060   0.089   1.604   0.814  0.4656 -0.2255 -0.0222
  207SOL     OW 2061   2.245   7.897  10.889 -0.3352 -0.2259  0.1051
  207SOL    HW1 2062   2.163   7.946  10.887 -0.0345  0.3213  0.8552
  207SOL    HW2 2063   2.250   7.855  10.803 -0.2489  1.6150 -0.8199
  208SOL     OW 2064   0.886   2.012   0.007 -0.2690  0.2230 -0.0370
  208SOL    HW1 2065   0.880   1.921   0.036 -0.1328  0.1284 -0.3012
  208SOL    HW2 2066   0.821   2.020  -0.062  0.2043  0.1327 -0.5038
  209SOL     OW 2067   0.505   1.197  12.177 -0.4621 -0.4882  0.3061
  209SOL    HW1 2068   0.455   1.224  12.254  0.9593  2.1745  0.4293
  209SOL    HW2 2069   0.597   1.204  12.205  0.1237 -3.9430 -0.2981
  210SOL     OW 2070   0.725   0.753   0.157  0.1847 -0.5401  0.4582
  210SOL    HW1 2071   0.804   0.792   0.196  0.0768 -0.2245  0.3696
  210SOL    HW2 2072   0.689   0.697   0.225 -0.0689  0.0959  0.8647
  211SOL     OW 2073   7.667   7.174  12.065  0.0480 -0.0836  0.6402
  211SOL    HW1 2074   7.744   7.208  12.111  0.7515 -1.2765  0.3724
  211SOL    HW2 2075   7.688   7.183  11.972 -0.9533  1.3642  0.5071
  212SOL     OW 2076   0.159   7.578   2.907 -0.2900 -0.0309  0.5946
  212SOL    HW1 2077   0.103   7.624   2.970 -2.3152 -1.1081 -0.3275
  212SOL    HW2 2078   0.122   7.490   2.901 -0.2493  0.0404 -2.1269
  213SOL     OW 2079   7.544   1.416  10.994 -0.7500  0.2319  0.1208
  213SOL    HW1 2080   7.568   1.355  11.064  1.1960 -0.0137 -0.7007
  213SOL    HW2 2081   7.449   1.428  11.004 -1.2027 -2.8334  0.3619
  214SOL     OW 2082   1.547   1.711   0.185 -0.2298 -0.4868  0.0972
  214SOL    HW1 2083   1.545   1.805   0.203 -1.5628 -0.1762 -1.3800
  214SOL    HW2 2084   1.565   1.670   0.269  0.9706  1.0992  0.6686
  215SOL     OW 2085   0.875   2.162  11.809 -0.0701  0.0710 -0.2928
  215SOL    HW1 2086   0.968   2.177  11.823  0.2902 -2.0481 -0.2044
  215SOL    HW2 2087   0.852   2.221  11.737  1.5213  0.0151 -0.8716
  216SOL     OW 2088   2.665   2.017   1.036  0.9681 -0.0685 -0.1548
  216SOL    HW1 2089   2.571   2.035   1.042  1.2996  1.7150  0.4034
  216SOL    HW2 2090   2.678   1.936   1.085 -0.0817  0.4841  1.0860
  217SOL     OW 2091   0.811   0.563   3.061  0.1873  0.1653 -0.1294
  217SOL    HW1 2092   0.894   0.531   3.025 -0.9200 -0.9133 -1.9108
  217SOL    HW2 2093   0.810   0.656   3.041  0.5676 -0.0069 -0.9977
  218SOL     OW 2094   0.482   1.189   1.064  0.3160  0.1300 -0.0595
  218SOL    HW1 2095   0.436   1.116   1.021 -0.6085  1.0272 -0.6402
  218SOL    HW2 2096   0.509   1.154   1.148 -0.9438 -0.6232  0.0652
  219SOL     OW 2097   4.099   1.546  12.416 -0.2514  0.4752 -0.0930
  219SOL    HW1 2098   4.094   1.459  12.376 -1.9917  0.8535 -0.7483
  219SOL    HW2 2099   4.041   1.541  12.492 -0.4374  1.1030 -0.1900
  220SOL     OW 2100   2.685   6.358   0.550  0.2248 -0.2843  0.5251
  220SOL    HW1 2101   2.652   6.446   0.570  2.7688  0.7652  0.5605
  220SOL    HW2 2102   2.779   6.371   0.536  1.1539 -3.3326  2.7598
  221SOL     OW 2103   0.829   2.572  11.971 -0.2162  0.5489 -0.0373
  221SOL    HW1 2104   0.866   2.543  11.888  0.6697  2.3902 -0.3303
  221SOL    HW2 2105   0.905   2.581  12.029 -0.8052 -0.5696  0.9651
  222SOL     OW 2106   1.551   7.944   2.134  0.2467  0.6552 -0.5050
  222SOL    HW1 2107   1.461   7.925   2.109  0.6311 -0.5272 -1.0141
  222SOL    HW2 2108   1.558   7.914   2.225  0.3165  0.1278 -0.6852
  223SOL     OW 2109   7.855   2.325  11.621  0.2032 -0.0296  0.0213
  223SOL    HW1 2110   7.901   2.377  11.688 -2.1548  1.0151  0.9443
  223SOL    HW2 2111   7.762   2.344  11.636 -0.4423  0.1544 -3.5066
  224SOL     OW 2112   0.148   0.811   2.411  0.1190  0.1154  0.1869
  224SOL    HW1 2113   0.242   0.816   2.431 -0.0019 -2.8572  2.0550
  224SOL    HW2 2114   0.135   0.723   2.375 -2.0241  0.3097  0.3371
  225SOL     OW 2115   7.662   7.309  12.394  0.0688 -0.5238 -0.5135
  225SOL    HW1 2116   7.642   7.402  12.385  0.8487 -0.4300 -1.4310
  225SOL    HW2 2117   7.578   7.264  12.379 -0.4101  0.0304  0.4087
  226SOL     OW 2118   7.511   2.014  12.171 -0.0205 -0.5212 -0.4226
  226SOL    HW1 2119   7.569   2.058  12.109 -0.9104  0.4359 -0.6064
  226SOL    HW2 2120   7.428   2.006  12.125 -0.3126 -1.0268  0.1692
  227SOL     OW 2121   0.522   0.582   0.917  0.0808 -0.2294 -0.0140
  227SOL    HW1 2122   0.579   0.637   0.972 -0.4979  0.6698 -0.2907
  227SOL    HW2 2123   0.453   0.553   0.977 -0.8661  1.2123 -0.3446
  228SOL     OW 2124   0.644   6.589   1.780 -0.1232 -0.5063  0.0196
  228SOL    HW1 2125   0.566   6.610   1.832 -0.3434 -0.6895 -0.2354
  228SOL    HW2 2126   0.717   6.614   1.836 -0.3625 -0.5624  0.3590
  229SOL     OW 2127   7.107   2.224  12.141  0.3820 -0.1365 -0.0812
  229SOL    HW1 2128   7.045   2.208  12.070 -0.1985 -0.3655  0.4628
  229SOL    HW2 2129   7.191   2.241  12.098 -0.5617  2.9237 -0.9787
  230SOL     OW 2130   0.783   0.845   3.022  0.1963  0.6753  0.2614
  230SOL    HW1 2131   0.842   0.871   2.951  2.8036 -0.2195  1.9285
  230SOL    HW2 2132   0.754   0.927   3.061 -0.2470  1.1493 -1.0187
  231SOL     OW 2133   1.261   2.325   0.746  0.0520  0.0119 -0.3733
  231SOL    HW1 2134   1.192   2.320   0.814 -0.9700 -1.9437 -1.4597
  231SOL    HW2 2135   1.327   2.263   0.775 -0.4257 -0.8912 -1.1784
  232SOL     OW 2136   7.305   0.987   2.802  0.0580  0.0817 -0.2542
  232SOL    HW1 2137   7.218   1.017   2.826  0.0920  1.3341 -1.5681
  232SOL    HW2 2138   7.335   0.937   2.878 -1.2144  0.8742  0.8105
  233SOL     OW 2139   1.255   0.870   2.104  0.0024 -0.1897 -0.2805
  233SOL    HW1 2140   1.341   0.888   2.141 -0.0075 -0.8904  0.0794
  233SOL    HW2 2141   1.228   0.787   2.142 -1.3137  0.5484  0.4744
  234SOL     OW 2142   6.805   1.455   0.740  0.5129 -0.2802 -0.7256
  234SOL    HW1 2143   6.831   1.406   0.662 -2.1963 -2.2166 -0.5429
  234SOL    HW2 2144   6.710   1.465   0.732 -0.0659 -1.5339  2.7857
  235SOL     OW 2145   2.400   7.952  12.006  0.0674  0.2983  0.0055
  235SOL    HW1 2146   2.375   8.000  12.084 -0.9414  0.4198 -0.3757
  235SOL    HW2 2147   2.345   7.874  12.006 -1.2899  1.1925 -1.5115
  236SOL     OW 2148   2.070   0.602  11.805 -0.8292 -0.1234  0.2949
  236SOL    HW1 2149   2.011   0.596  11.880  0.1790 -0.5962  1.0610
  236SOL    HW2 2150   2.036   0.677  11.755  0.0741  2.0315  2.6684
  237SOL     OW 2151   1.106   0.435   1.923 -0.5415 -0.1777 -0.0696
  237SOL    HW1 2152   1.025   0.392   1.951 -1.2517  0.1373 -1.5790
  237SOL    HW2 2153   1.079   0.499   1.858  0.6449  1.7334  1.2083
  238SOL     OW 2154   1.440   5.193   0.180  0.1358 -0.4226  0.4085
  238SOL    HW1 2155   1.380   5.262   0.151 -0.5072 -1.4779 -0.8747
  238SOL    HW2 2156   1.446   5.205   0.275  0.7679  1.9323  0.1319
  239SOL     OW 2157   2.572   7.166  10.893  0.1341  0.1106  0.1073
  239SOL    HW1 2158   2.598   7.258  10.902  2.0661 -0.3272 -0.4847
  239SOL    HW2 2159   2.648   7.124  10.852 -0.6613 -1.7802  0.4856
  240SOL     OW 2160   1.208   2.838   0.243 -0.1694 -0.1923 -0.3689
  240SOL    HW1 2161   1.167   2.751   0.242 -1.6741  0.5036 -1.8614
  240SOL    HW2 2162   1.263   2.840   0.165 -0.3696  0.3093 -0.4999
  241SOL     OW 2163   0.756   0.589  11.626  0.4868  0.3645  0.4598
  241SOL    HW1 2164   0.782   0.654  11.691  1.0909 -1.0817  1.7453
  241SOL    HW2 2165   0.839   0.558  11.588  0.4296 -1.2168  1.5040
  242SOL     OW 2166   1.069   7.779  12.108  0.0536  0.4635  0.0731
  242SOL    HW1 2167   1.116   7.848  12.062 -2.4246  1.8032 -0.6115
  242SOL    HW2 2168   1.074   7.803  12.200  0.0650  0.9926 -0.0664
  243SOL     OW 2169   3.226   1.096   0.017 -0.0803  0.2121 -0.0088
  243SOL    HW1 2170   3.254   1.178   0.057  0.3982 -0.3827  0.9129
  243SOL    HW2 2171   3.305   1.062  -0.026 -0.4445  0.5570 -0.9644
  244SOL     OW 2172   0.702   1.721  12.222  0.0316  0.4245  0.5139
  244SOL    HW1 2173   0.668   1.637  12.253 -0.3046  0.4912  0.3289
  244SOL    HW2 2174   0.715   1.709  12.128  0.7608  0.3206  0.6249
  245SOL     OW 2175   1.465   0.621   0.056 -0.2536  0.4587 -0.0515
  245SOL    HW1 2176   1.471   0.715   0.041  1.2754 -0.0698 -3.9770
  245SOL    HW2 2177   1.386   0.594   0.010 -0.3678 -0.2562  0.5414
  246SOL     OW 2178   7.574   0.501  11.941  0.0929  0.0028  0.0400
  246SOL    HW1 2179   7.646   0.450  11.979  1.3470  0.0698 -2.0853
  246SOL    HW2 2180   7.545   0.449  11.866 -3.0661 -0.6796  1.5897
  247SOL     OW 2181   0.297   6.503   1.778  0.4547 -0.5452  0.1454
  247SOL    HW1 2182   0.212   6.511   1.820 -0.5950 -1.6271 -1.6156
  247SOL    HW2 2183   0.349   6.575   1.814 -1.6829  1.1086  0.1332
  248SOL     OW 2184   1.530   0.952   0.059 -0.0329  0.2098  0.1251
  248SOL    HW1 2185   1.462   1.007   0.020  0.8409 -0.2359 -2.2592
  248SOL    HW2 2186   1.601   0.953  -0.006  1.7424 -0.3430  1.9457
  249SOL     OW 2187   1.503   0.213  10.644 -0.0363 -0.3818 -0.3348
  249SOL    HW1 2188   1.452   0.132  10.641  0.1914 -0.5918  1.0139
  249SOL    HW2 2189   1.586   0.187  10.684  1.3198 -0.1255 -2.7809
  250SOL     OW 2190   0.773   0.664   2.359 -0.4210  0.2468 -0.0519
  250SOL    HW1 2191   0.845   0.624   2.311  0.0761  0.4611  0.5015
  250SOL    HW2 2192   0.791   0.646   2.451 -1.5771 -0.5080  0.0556
  251SOL     OW 2193   0.508   1.295   0.438  0.7452  0.4099 -0.1120
  251SOL    HW1 2194   0.536   1.206   0.420 -1.7098 -0.6531  0.9135
  251SOL    HW2 2195   0.574   1.330   0.498  0.6482 -1.4427  1.1185
  252SOL     OW 2196   0.135   0.396   1.574  0.5393 -0.0094 -0.3046
  252SOL    HW1 2197   0.071   0.402   1.503  0.4468  1.1697 -0.1499
  252SOL    HW2 2198   0.150   0.487   1.600  0.0021 -0.4367  1.6926
  253SOL     OW 2199   2.595   6.118   2.176  0.2799 -0.4673  0.1632
  253SOL    HW1 2200   2.500   6.128   2.184  0.0444 -0.3791 -2.1719
  253SOL    HW2 2201   2.630   6.206   2.191 -0.0538 -0.3762  0.4209
  254SOL     OW 2202   0.428   3.888  11.571 -0.4065 -0.4907 -0.1775
  254SOL    HW1 2203   0.496   3.876  11.504  0.6103 -0.6659  0.8453
  254SOL    HW2 2204   0.386   3.971  11.547  1.1931  0.4293 -0.0160
  255SOL     OW 2205   0.174   2.632   1.347 -0.0385  0.0837 -0.1728
  255SOL    HW1 2206   0.137   2.592   1.268  1.5166  0.6030 -1.2081
  255SOL    HW2 2207   0.108   2.695   1.375 -0.8738 -0.5262 -0.7034
  256SOL     OW 2208   1.932   7.193  11.863  0.5287 -0.0542  0.5416
  256SOL    HW1 2209   1.992   7.191  11.938  0.0461  0.4819  0.9517
  256SOL    HW2 2210   1.941   7.106  11.823  1.7247  0.0807  0.4683
  257SOL     OW 2211   0.308   6.819  12.410  0.5832 -0.0115  0.3600
  257SOL    HW1 2212   0.346   6.897  12.451 -1.0116  0.9693  0.0336
  257SOL    HW2 2213   0.214   6.836  12.408  0.1303 -2.1810  0.7359
  258SOL     OW 2214   7.908   0.035   0.133 -0.4466 -0.2893  0.4140
  258SOL    HW1 2215   7.815   0.030   0.156 -0.6499  0.9524 -0.0756
  258SOL    HW2 2216   7.912   0.009   0.041 -0.7153  2.2560 -0.3826
  259SOL     OW 2217   1.075   1.023  12.080  0.1050  0.2965 -0.2448
  259SOL    HW1 2218   1.106   0.943  12.037  1.1277  0.7249 -0.3247
  259SOL    HW2 2219   1.092   1.092  12.016 -2.4049  0.3840 -0.9149
  260SOL     OW 2220   0.392   3.421  12.269  0.2248  0.0234  0.2988
  260SOL    HW1 2221   0.470   3.407  12.324  1.4678 -1.1310 -1.6466
  260SOL    HW2 2222   0.390   3.516  12.256  0.6792  0.1783  1.2443
  261SOL     OW 2223   0.405   0.982   2.128 -0.3306 -0.1192  0.0938
  261SOL    HW1 2224   0.322   0.947   2.097  0.4108 -1.8377 -0.0849
  261SOL    HW2 2225   0.384   1.023   2.212 -1.1781 -1.6520  0.6793
  262SOL     OW 2226   0.699   1.678   3.433  0.1301  0.0990 -0.4746
  262SOL    HW1 2227   0.633   1.741   3.462  1.7173  1.8842 -0.5263
  262SOL    HW2 2228   0.782   1.724   3.445  1.9746 -3.5385  4.0584
  263SOL     OW 2229   5.887   6.816   3.589 -0.4018 -0.0849 -0.1759
  263SOL    HW1 2230   5.945   6.865   3.531 -0.3611  0.5323  0.3789
  263SOL    HW2 2231   5.804   6.864   3.587 -0.5029 -0.2491  0.0173
  264SOL     OW 2232   1.390   1.011   2.885  0.0816  0.0721  0.1742
  264SOL    HW1 2233   1.420   1.076   2.949 -0.3842  0.5237 -0.0561
  264SOL    HW2 2234   1.421   0.927   2.919  1.3327  0.4801  0.1097
  265SOL     OW 2235   0.920   2.056   0.969 -0.0979  0.2579 -0.4052
  265SOL    HW1 2236   0.943   2.044   1.061 -1.0371  2.3330  0.1677
  265SOL    HW2 2237   0.844   1.998   0.956  0.5359 -0.6594 -0.1290
  266SOL     OW 2238   1.447   0.301   2.420 -0.0786  0.8958 -0.2530
  266SOL    HW1 2239   1.537   0.331   2.413  0.2075  0.0812 -0.1851
  266SOL    HW2 2240   1.421   0.278   2.331  0.9867 -2.1942  0.1286
  267SOL     OW 2241   0.834   7.343   3.506 -0.1604  0.1514 -0.0577
  267SOL    HW1 2242   0.853   7.363   3.414  0.9944 -0.4201  0.0416
  267SOL    HW2 2243   0.806   7.252   3.505 -0.5664  0.2758  0.1033
  268SOL     OW 2244   7.293   2.053   3.213 -0.1459 -0.0928  0.1608
  268SOL    HW1 2245   7.332   1.971   3.184 -0.5915  0.1263 -1.1586
  268SOL    HW2 2246   7.204   2.030   3.239 -0.4890  0.0623 -0.8432
  269SOL     OW 2247   7.920   0.184   3.536  0.5241 -0.0783  0.0526
  269SOL    HW1 2248   7.941   0.187   3.443  1.4530 -1.5374  0.1895
  269SOL    HW2 2249   7.827   0.160   3.539  0.6482 -0.6491 -0.5028
  270SOL     OW 2250   0.131   0.689   1.628 -0.0308 -0.0855  0.1021
  270SOL    HW1 2251   0.083   0.708   1.709 -1.8184  1.0285 -1.1692
  270SOL    HW2 2252   0.164   0.775   1.599  0.8341 -0.5172 -0.2387
  271SOL     OW 2253   7.781   1.580   3.964  0.5057 -0.0767 -0.1904
  271SOL    HW1 2254   7.768   1.672   3.985  1.0465  0.3419 -1.6038
  271SOL    HW2 2255   7.738   1.568   3.879 -0.0021 -1.2631  0.2056
  272SOL     OW 2256   1.547   2.023   1.862  0.0597 -0.0797 -1.0702
  272SOL    HW1 2257   1.632   2.046   1.900 -0.9241  0.0917  1.1835
  272SOL    HW2 2258   1.561   1.939   1.820  1.4709  0.2049 -1.2223
  273SOL     OW 2259   1.547   0.368   3.951  0.1234 -0.2355 -0.2960
  273SOL    HW1 2260   1.526   0.442   3.894  0.2591  0.9929  1.1667
  273SOL    HW2 2261   1.481   0.371   4.020  0.5888 -1.0251  0.2003
  274SOL     OW 2262   6.741   1.191   2.553 -0.0188  0.3483 -0.2284
  274SOL    HW1 2263   6.721   1.279   2.585  0.4776  0.8413 -1.2020
  274SOL    HW2 2264   6.827   1.200   2.511 -0.4859 -0.3097 -1.3984
  275SOL     OW 2265   1.108   0.220   1.323  0.1782  0.0199 -0.2488
  275SOL    HW1 2266   1.135   0.137   1.286 -0.1553 -0.1468 -0.1283
  275SOL    HW2 2267   1.072   0.197   1.409  0.1098  0.2891 -0.2044
  276SOL     OW 2268   0.584   0.430   1.382  0.0666  0.8666  0.0048
  276SOL    HW1 2269   0.613   0.518   1.404 -0.7687  0.7133  1.9827
  276SOL    HW2 2270   0.651   0.396   1.323  2.3880  1.5394  2.0875
  277SOL     OW 2271   0.366   2.294   3.879  0.2138  0.1573 -0.3068
  277SOL    HW1 2272   0.366   2.380   3.836 -0.4161  1.0921  1.4178
  277SOL    HW2 2273   0.392   2.313   3.969  3.9844 -2.0354 -0.7523
  278SOL     OW 2274   1.029   3.110   0.689  0.1503 -0.0988  0.8270
  278SOL    HW1 2275   1.017   3.080   0.599 -0.5000  0.0956  0.8434
  278SOL    HW2 2276   1.085   3.187   0.682 -1.7191  1.3002  0.3377
  279SOL     OW 2277   7.579   1.851   1.868 -0.4249 -0.0735 -0.0265
  279SOL    HW1 2278   7.623   1.804   1.796  0.4037 -1.4068  1.2829
  279SOL    HW2 2279   7.650   1.900   1.911 -0.7490  0.0274  0.3930
  280SOL     OW 2280   0.626   1.426   3.489 -0.9458  0.2649 -0.0040
  280SOL    HW1 2281   0.559   1.452   3.552  0.1922 -0.6278  1.6303
  280SOL    HW2 2282   0.677   1.506   3.474 -1.0182  0.4045  0.4682
  281SOL     OW 2283   7.305   1.979   2.327 -0.1405  0.1700 -0.4773
  281SOL    HW1 2284   7.386   1.938   2.296 -0.3737  0.0764 -0.9619
  281SOL    HW2 2285   7.236   1.935   2.279 -0.5552 -0.3924  0.5980
  282SOL     OW 2286   1.672   6.484   3.148 -0.2284  0.0571 -0.6324
  282SOL    HW1 2287   1.743   6.545   3.167 -0.2672 -0.5158  1.5382
  282SOL    HW2 2288   1.598   6.541   3.125  0.5324  0.6877 -1.6740
  283SOL     OW 2289   0.625   0.022   1.917  0.0156  0.0960 -0.4900
  283SOL    HW1 2290   0.549   0.016   1.859  0.1519  1.4176 -0.8306
  283SOL    HW2 2291   0.636  -0.067   1.951 -1.0060 -0.3576 -1.2909
  284SOL     OW 2292   2.020   0.708   3.141  0.5273 -0.2627 -0.0268
  284SOL    HW1 2293   2.063   0.623   3.146  2.6325  0.6679 -1.2019
  284SOL    HW2 2294   1.939   0.691   3.092  1.6579 -1.3322 -1.5992
  285SOL     OW 2295   0.285   1.574   1.813 -0.0916 -0.5543  0.6262
  285SOL    HW1 2296   0.328   1.660   1.814  1.9220 -1.4962  1.1486
  285SOL    HW2 2297   0.278   1.550   1.906 -1.3909 -0.6219  0.5232
  286SOL     OW 2298   0.952   1.680   1.219  0.1945  0.2209  0.5270
  286SOL    HW1 2299   1.014   1.686   1.147 -1.4075 -0.8321 -1.0116
  286SOL    HW2 2300   0.998   1.630   1.287  0.9999 -0.6591 -0.6389
  287SOL     OW 2301   2.259   0.681   2.249  0.3513  0.1572 -0.1131
  287SOL    HW1 2302   2.289   0.762   2.209 -0.1421 -0.0123 -0.8417
  287SOL    HW2 2303   2.300   0.681   2.336  0.3007  1.2110 -0.0747
  288SOL     OW 2304   6.802   0.831   4.456 -0.3629 -0.1407  0.0451
  288SOL    HW1 2305   6.802   0.915   4.502 -0.0147 -0.0627 -0.0876
  288SOL    HW2 2306   6.893   0.800   4.463 -0.7634 -1.1336  1.2154
  289SOL     OW 2307   0.082   2.582   2.129 -0.0533  0.0257  0.2326
  289SOL    HW1 2308   0.142   2.644   2.088 -0.3786  0.0657 -0.1930
  289SOL    HW2 2309   0.029   2.548   2.056  1.3628 -2.1880  0.1203
  290SOL     OW 2310   1.314   2.313   2.733  0.1590  0.3956 -0.2855
  290SOL    HW1 2311   1.317   2.290   2.826 -0.0711  0.7368 -0.1921
  290SOL    HW2 2312   1.259   2.245   2.694  0.9507 -0.2383 -0.3229
  291SOL     OW 2313   1.500   1.467   3.092  0.4270  0.1245 -0.2805
  291SOL    HW1 2314   1.490   1.516   3.174 -1.5777 -1.2911  0.3935
  291SOL    HW2 2315   1.513   1.535   3.026  0.9205  1.3698  1.0244
  292SOL     OW 2316   0.908   6.763   3.244 -0.1411 -0.4054  0.3959
  292SOL    HW1 2317   0.816   6.736   3.251 -0.7364  0.8975 -1.5867
  292SOL    HW2 2318   0.930   6.749   3.152  2.1384 -1.9940  1.0956
  293SOL     OW 2319   2.223   0.018   1.726  0.6559  0.2897 -0.4584
  293SOL    HW1 2320   2.242  -0.038   1.651  0.1088 -2.3756  1.2954
  293SOL    HW2 2321   2.287  -0.007   1.792 -0.0039  1.3018  0.6021
  294SOL     OW 2322   0.833   1.599   3.733 -0.0389  0.4270 -0.1500
  294SOL    HW1 2323   0.884   1.677   3.711  1.9129 -0.4775  0.9001
  294SOL    HW2 2324   0.876   1.527   3.686 -0.8028 -0.2707  0.1835
  295SOL     OW 2325   7.466   1.119   3.083 -0.3585  0.7014 -0.2614
  295SOL    HW1 2326   7.533   1.182   3.058 -0.3097  1.8583  2.4078
  295SOL    HW2 2327   7.510   1.034   3.079  0.8619  1.2906  0.0797
  296SOL     OW 2328   1.086   0.544   2.637  0.1708  0.0570  0.1630
  296SOL    HW1 2329   1.097   0.484   2.563 -0.3896  0.1236  0.0176
  296SOL    HW2 2330   1.072   0.629   2.596  1.9922  0.4801  0.3839
  297SOL     OW 2331   1.342   2.707   1.414 -0.3928 -0.1894  0.8431
  297SOL    HW1 2332   1.337   2.639   1.481 -2.6649  0.2399  1.1990
  297SOL    HW2 2333   1.342   2.659   1.331  3.1977 -0.7639  1.0270
  298SOL     OW 2334   7.100   4.031   2.735 -1.3607 -0.1497 -0.2131
  298SOL    HW1 2335   7.038   4.036   2.663  0.3671 -0.2923 -1.7769
  298SOL    HW2 2336   7.154   4.110   2.727 -0.2909 -0.8209  0.0841
  299SOL     OW 2337   7.588   0.178   2.574  0.3522  0.5137 -0.7220
  299SOL    HW1 2338   7.655   0.128   2.619  0.1416  0.1165 -0.8440
  299SOL    HW2 2339   7.613   0.176   2.482  0.6925  1.1831 -0.6492
  300SOL     OW 2340   1.727   2.317   3.230  0.4438  0.2152  0.6248
  300SOL    HW1 2341   1.680   2.286   3.153 -0.5897 -1.0386  1.7109
  300SOL    HW2 2342   1.820   2.303   3.209  0.3559  1.8965 -1.1957
  301SOL     OW 2343   1.194   7.253   4.050 -0.1113  0.3331 -0.5237
  301SOL    HW1 2344   1.227   7.314   3.983 -0.7402  0.4692 -0.7147
  301SOL    HW2 2345   1.125   7.302   4.094 -0.1074  0.0217 -0.1748
  302SOL     OW 2346   0.909   1.089   3.367  0.0358  0.2761 -0.0191
  302SOL    HW1 2347   0.878   1.135   3.446 -0.6623 -0.4838  0.1605
  302SOL    HW2 2348   0.847   1.115   3.299  0.7857  1.1306 -0.3931
  303SOL     OW 2349   7.531   1.268   3.752  0.6000 -0.4174 -0.0433
  303SOL    HW1 2350   7.462   1.230   3.697  0.8887 -0.2402 -0.5382
  303SOL    HW2 2351   7.514   1.233   3.840 -0.3937 -0.0033 -0.0651
  304SOL     OW 2352   0.040   6.687   2.846 -0.3212 -0.0010 -0.5846
  304SOL    HW1 2353   0.000   6.646   2.769 -2.1292 -0.1326  0.3814
  304SOL    HW2 2354  -0.029   6.689   2.911  1.0993  0.3451  0.9849
  305SOL     OW 2355   2.481   0.469   1.590  0.3078  0.1120 -0.0880
  305SOL    HW1 2356   2.450   0.509   1.672  1.1974  0.0940  0.2678
  305SOL    HW2 2357   2.470   0.375   1.603 -1.2777  0.1780 -0.7172
  306SOL     OW 2358   2.791   1.316   0.467  0.0812 -0.4030 -0.5236
  306SOL    HW1 2359   2.883   1.294   0.476  0.1411 -0.9759 -2.1593
  306SOL    HW2 2360   2.765   1.278   0.383 -1.8816 -1.0601  0.3048
  307SOL     OW 2361   6.404   0.555   3.810  0.3861 -0.1442  0.2796
  307SOL    HW1 2362   6.378   0.584   3.897 -1.5428 -2.0057  0.4161
  307SOL    HW2 2363   6.365   0.619   3.750 -1.0618 -0.5906  0.6918
  308SOL     OW 2364   0.160   1.111   3.083  0.3278 -0.4740  0.0178
  308SOL    HW1 2365   0.113   1.054   3.023  0.6802 -0.2654 -0.4589
  308SOL    HW2 2366   0.249   1.116   3.047  0.0214  1.2588 -0.5618
  309SOL     OW 2367   1.555   0.412   2.822  0.1337 -0.7787  0.0665
  309SOL    HW1 2368   1.502   0.448   2.751 -0.6088  1.9511  1.8413
  309SOL    HW2 2369   1.645   0.420   2.791 -0.1869  0.1171 -0.6871
  310SOL     OW 2370   7.366   2.308   3.330 -1.2137 -0.1217  0.2028
  310SOL    HW1 2371   7.308   2.361   3.275 -1.1502  0.0554  0.3075
  310SOL    HW2 2372   7.354   2.219   3.298 -2.5727 -0.3000  1.1046
  311SOL     OW 2373   7.697   1.024   2.521 -0.3354 -0.4627 -0.3558
  311SOL    HW1 2374   7.751   1.073   2.582 -1.2179 -1.3640  1.2000
  311SOL    HW2 2375   7.756   0.961   2.482  0.1201 -0.2461 -0.0230
  312SOL     OW 2376   0.517   3.260   2.794  0.0078  0.1576 -0.0618
  312SOL    HW1 2377   0.488   3.282   2.706  1.3588  1.0431 -0.3056
  312SOL    HW2 2378   0.437   3.265   2.847 -0.6494  0.5222 -1.0565
  313SOL     OW 2379   0.434   0.955   0.777  0.2853 -0.1532  0.0142
  313SOL    HW1 2380   0.388   0.976   0.858  0.3649 -0.5312  0.1614
  313SOL    HW2 2381   0.364   0.942   0.713  0.1133 -1.7031  0.4697
  314SOL     OW 2382   4.064   0.987   1.113 -0.3142  0.0853  0.1481
  314SOL    HW1 2383   3.999   0.938   1.063 -0.5869 -0.3365  0.8953
  314SOL    HW2 2384   4.019   1.012   1.193  0.0973  0.8062  0.1574
  315SOL     OW 2385   1.877   1.652   2.310  0.3407  0.1198  0.1818
  315SOL    HW1 2386   1.905   1.595   2.381  3.3084  0.3716 -0.6649
  315SOL    HW2 2387   1.806   1.604   2.267  2.1115 -2.5994  0.0509
  316SOL     OW 2388   7.270   7.905   1.605 -0.1209  0.5116  0.0092
  316SOL    HW1 2389   7.237   7.925   1.693  1.2958 -0.8789  0.9105
  316SOL    HW2 2390   7.364   7.921   1.610  0.2142 -1.0002 -0.7895
  317SOL     OW 2391   7.338   2.003   4.313  0.3230 -0.5340  0.3157
  317SOL    HW1 2392   7.291   2.042   4.240 -0.2530 -2.1044 -0.2019
  317SOL    HW2 2393   7.286   1.926   4.337  2.1799 -1.9058  0.2187
  318SOL     OW 2394   6.737   0.430   2.786 -0.6731  0.3151  0.0747
  318SOL    HW1 2395   6.681   0.404   2.860  0.3229  0.2621  0.8380
  318SOL    HW2 2396   6.738   0.526   2.790  2.3289  0.3620  2.5401
  319SOL     OW 2397   1.405   0.195   2.183  0.4564 -0.2362  0.5253
  319SOL    HW1 2398   1.371   0.230   2.100  0.5530 -0.7800  0.2498
  319SOL    HW2 2399   1.496   0.173   2.164  0.3629 -0.7406  0.6624
  320SOL     OW 2400   7.643   7.601   2.178 -0.3804  0.6883  0.0760
  320SOL    HW1 2401   7.580   7.647   2.234 -0.7931 -0.4324  0.5713
  320SOL    HW2 2402   7.613   7.510   2.179  0.2489  0.4464 -1.0959
  321SOL     OW 2403   2.183   0.276   1.791 -0.1814 -0.1856  0.0073
  321SOL    HW1 2404   2.193   0.186   1.760  0.1133 -0.1145 -0.1105
  321SOL    HW2 2405   2.154   0.267   1.882 -3.2593 -0.4273 -0.8659
  322SOL     OW 2406   0.537   2.243   1.679  0.3234 -0.7360 -0.1088
  322SOL    HW1 2407   0.530   2.316   1.740  0.6070 -0.5617 -0.2863
  322SOL    HW2 2408   0.450   2.236   1.639  0.9222  1.1089 -1.9246
  323SOL     OW 2409   7.855   0.744   3.072 -0.2578 -0.2678 -0.3379
  323SOL    HW1 2410   7.938   0.785   3.050  0.3841  0.3387  2.7663
  323SOL    HW2 2411   7.872   0.650   3.066  1.1396 -0.1952  1.5552
  324SOL     OW 2412   1.335   1.797   3.463  0.1763 -0.1264  0.3220
  324SOL    HW1 2413   1.373   1.830   3.545  0.2158  0.4358  0.0796
  324SOL    HW2 2414   1.281   1.868   3.431  0.6093 -0.1296 -0.4369
  325SOL     OW 2415   7.483   1.783   4.146  0.5845  0.4937 -0.2982
  325SOL    HW1 2416   7.489   1.797   4.240 -0.9940 -0.5097 -0.0085
  325SOL    HW2 2417   7.429   1.855   4.114 -0.5678 -0.2585 -0.0990
  326SOL     OW 2418   7.600   2.796   1.527 -0.6158  0.0229 -0.9959
  326SOL    HW1 2419   7.581   2.797   1.620  0.8285 -1.0692 -0.6459
  326SOL    HW2 2420   7.539   2.732   1.490 -0.8850  0.1260 -0.7243
  327SOL     OW 2421   1.190   5.981   5.043  0.4587 -0.6207  0.0832
  327SOL    HW1 2422   1.235   5.907   5.084  2.1998  1.4973  2.2551
  327SOL    HW2 2423   1.260   6.038   5.011 -0.8438 -0.2080 -2.2431
  328SOL     OW 2424   1.498   7.400   2.901  0.1729 -0.0348  0.0847
  328SOL    HW1 2425   1.439   7.328   2.879  0.9527 -0.4570 -0.6688
  328SOL    HW2 2426   1.459   7.438   2.980  0.9175 -2.6788  1.8858
  329SOL     OW 2427   7.275   7.703   3.788 -0.0437  0.1354  0.0343
  329SOL    HW1 2428   7.282   7.614   3.754  0.7447  0.4149 -0.5580
  329SOL    HW2 2429   7.224   7.694   3.869  0.5870 -0.9394  0.3309
  330SOL     OW 2430   0.165   0.590   2.793 -0.2249  0.3404  0.1975
  330SOL    HW1 2431   0.165   0.504   2.752  0.3568  0.4681 -0.0685
  330SOL    HW2 2432   0.086   0.633   2.759 -0.3419  0.0350  0.0846
  331SOL     OW 2433   2.178   6.875   2.487  0.3881 -0.0441 -0.1075
  331SOL    HW1 2434   2.174   6.899   2.579 -1.8127 -0.7404  0.0404
  331SOL    HW2 2435   2.203   6.783   2.487  0.3630 -0.0514 -0.2052
  332SOL     OW 2436   7.671   1.826   1.353  0.4837  0.5514  1.0210
  332SOL    HW1 2437   7.686   1.912   1.314  2.0723 -0.7711 -1.4921
  332SOL    HW2 2438   7.752   1.807   1.402  1.4682 -0.7169 -0.9731
  333SOL     OW 2439   0.357   0.575   4.202 -0.4511 -0.2142  0.9955
  333SOL    HW1 2440   0.346   0.578   4.107  1.4449  1.9971  0.7786
  333SOL    HW2 2441   0.416   0.501   4.217  1.5566  1.1377  0.1225
  334SOL     OW 2442   0.306   0.571   1.918 -0.3103 -0.4281  0.3709
  334SOL    HW1 2443   0.220   0.530   1.910 -0.0956 -0.9557  0.7704
  334SOL    HW2 2444   0.338   0.544   2.004 -0.5695  1.3515  1.0670
  335SOL     OW 2445   2.753   0.348   1.264  0.1734  0.3645  0.0641
  335SOL    HW1 2446   2.686   0.282   1.248  0.9017 -0.0875 -1.3098
  335SOL    HW2 2447   2.761   0.394   1.180 -0.7126  2.6063  1.1161
  336SOL     OW 2448   1.382   0.763  11.717 -0.0952 -0.2128 -0.1679
  336SOL    HW1 2449   1.406   0.763  11.624 -1.2533  1.4682 -0.5111
  336SOL    HW2 2450   1.301   0.711  11.719  0.7574 -1.5907  0.1932
  337SOL     OW 2451   0.604   7.721   2.015  0.3994  0.2706 -0.0498
  337SOL    HW1 2452   0.529   7.718   2.074 -1.1869  1.8990 -1.8839
  337SOL    HW2 2453   0.587   7.652   1.951  0.3030  0.8658 -0.6642
  338SOL     OW 2454   1.275   7.860   2.111 -0.2246 -0.0304 -0.4829
  338SOL    HW1 2455   1.195   7.877   2.159  0.2760 -0.6883  0.6352
  338SOL    HW2 2456   1.259   7.895   2.023 -1.8156 -0.4005 -0.3604
  339SOL     OW 2457   7.997   2.740   2.607 -0.1476 -0.0362 -0.2148
  339SOL    HW1 2458   7.929   2.807   2.619  0.4539  0.6393 -0.5085
  339SOL    HW2 2459   7.951   2.657   2.621 -0.7924  0.4510  0.7131
  340SOL     OW 2460   0.007   1.205   2.140  0.3015 -0.2849  0.3408
  340SOL    HW1 2461   0.044   1.153   2.212  1.1967 -0.3792 -0.1690
  340SOL    HW2 2462  -0.001   1.142   2.068 -0.4370 -0.1529  0.2993
  341SOL     OW 2463   2.487   1.111   1.792 -0.1078 -0.4192  0.1950
  341SOL    HW1 2464   2.445   1.075   1.714 -0.1298 -1.2020  0.5597
  341SOL    HW2 2465   2.499   1.204   1.772 -1.2049 -0.3585 -0.2675
  342SOL     OW 2466   1.325   0.654   1.480 -0.4747 -0.1314 -0.2397
  342SOL    HW1 2467   1.295   0.744   1.472  0.4802  0.0761 -2.0239
  342SOL    HW2 2468   1.397   0.647   1.417  0.1112 -1.8745  0.5625
  343SOL     OW 2469   0.154   6.880   1.839  0.3088  0.4863  0.1534
  343SOL    HW1 2470   0.186   6.961   1.881 -0.5976  2.0626 -2.0027
  343SOL    HW2 2471   0.060   6.882   1.855  0.5286 -1.5241  2.1892
  344SOL     OW 2472   0.964   7.472   3.694 -0.3100 -0.3050  0.0448
  344SOL    HW1 2473   0.893   7.428   3.648 -0.7190 -0.3210  0.6722
  344SOL    HW2 2474   0.967   7.560   3.656  0.1706 -0.6969 -0.8541
  345SOL     OW 2475   0.619   2.079   3.142 -0.1150 -0.2501 -0.1911
  345SOL    HW1 2476   0.569   2.027   3.205 -0.0806  0.2706  0.2678
  345SOL    HW2 2477   0.708   2.042   3.146 -0.1492 -0.3159 -0.0504
  346SOL     OW 2478   0.453   6.570   0.495 -0.1406  0.0411 -0.2727
  346SOL    HW1 2479   0.518   6.573   0.565  0.5549  1.4439 -0.9466
  346SOL    HW2 2480   0.503   6.584   0.415 -1.2191  0.7461 -0.8426
  347SOL     OW 2481   2.078   1.482   2.660  0.8357 -0.1731 -0.2267
  347SOL    HW1 2482   2.066   1.511   2.751 -1.1282  1.6204 -0.9652
  347SOL    HW2 2483   2.170   1.497   2.642  1.3965 -1.0903  1.6214
  348SOL     OW 2484   7.867   3.505   2.028 -0.4164 -0.2925  0.8386
  348SOL    HW1 2485   7.786   3.458   2.006 -1.0770  1.7859 -1.5807
  348SOL    HW2 2486   7.933   3.436   2.032 -1.6235 -1.6688 -0.9468
  349SOL     OW 2487   1.891   7.351   2.491  0.5571 -0.7552  0.0650
  349SOL    HW1 2488   1.898   7.438   2.453  2.8338 -0.9635 -0.1538
  349SOL    HW2 2489   1.820   7.358   2.554  1.0523  1.4381  0.4706
  350SOL     OW 2490   1.558   7.959   1.638  0.0344  0.4733 -0.1166
  350SOL    HW1 2491   1.572   8.016   1.713 -1.0325 -0.2523  0.6690
  350SOL    HW2 2492   1.532   7.875   1.676  0.0683 -0.0946 -1.2844
  351SOL     OW 2493   1.262   0.282   4.636 -0.5545 -0.2156 -0.1983
  351SOL    HW1 2494   1.273   0.266   4.730 -0.7842 -0.8127 -0.2684
  351SOL    HW2 2495   1.180   0.238   4.614 -0.1971 -0.5920 -0.7997
  352SOL     OW 2496   0.134   7.260   3.235  0.2968  0.5767 -0.2852
  352SOL    HW1 2497   0.099   7.186   3.185  0.2455 -0.4694  1.2200
  352SOL    HW2 2498   0.227   7.241   3.243  0.4503  1.1531 -0.6359
  353SOL     OW 2499   7.269   1.924   2.651 -0.1747 -0.1202 -0.2305
  353SOL    HW1 2500   7.252   1.886   2.737 -0.0125  2.0462  0.8165
  353SOL    HW2 2501   7.212   1.875   2.591 -0.9297 -1.0838  1.2214
  354SOL     OW 2502   1.087   0.474   3.226 -0.4073 -0.3591 -0.2728
  354SOL    HW1 2503   1.056   0.391   3.191 -2.3003 -0.2021  0.9103
  354SOL    HW2 2504   1.015   0.536   3.211  1.3154  1.3832 -2.0108
  355SOL     OW 2505   0.501   1.128   4.427  0.0377  0.8428 -0.0346
  355SOL    HW1 2506   0.409   1.118   4.402 -0.6198  1.7283  1.8518
  355SOL    HW2 2507   0.533   1.201   4.375 -0.5422  0.9898 -0.1853
  356SOL     OW 2508   3.309   0.915   1.917  0.3562 -0.7367 -0.1154
  356SOL    HW1 2509   3.296   1.010   1.916  0.7462 -0.6836 -0.6701
  356SOL    HW2 2510   3.270   0.887   2.000 -2.7075 -0.5264 -1.3260
  357SOL     OW 2511   1.371   1.793   1.711  0.3190 -0.3847 -0.0977
  357SOL    HW1 2512   1.465   1.801   1.693  0.5205 -1.7040  0.2604
  357SOL    HW2 2513   1.359   1.835   1.796  0.2943  1.1267 -0.8096
  358SOL     OW 2514   1.164   1.494   0.918  0.1158 -0.3076  0.6061
  358SOL    HW1 2515   1.256   1.468   0.909 -0.1278 -1.8120  1.9492
  358SOL    HW2 2516   1.167   1.579   0.962  0.8844  0.5787 -1.0961
  359SOL     OW 2517   0.988   1.481   3.307  0.8292 -0.4447 -0.7043
  359SOL    HW1 2518   0.948   1.563   3.277  2.8479  0.7223 -0.3887
  359SOL    HW2 2519   1.004   1.432   3.226  1.9454  0.6375 -1.1850
  360SOL     OW 2520   7.842   1.105   4.392 -0.1969  0.5204 -0.5105
  360SOL    HW1 2521   7.920   1.160   4.398 -0.4526  0.7781  0.8320
  360SOL    HW2 2522   7.774   1.164   4.358  0.0277  0.4750 -1.0419
  361SOL     OW 2523   1.745   7.337   1.935  0.1818 -0.4607 -0.5736
  361SOL    HW1 2524   1.838   7.324   1.917  0.8066  0.7268  1.4454
  361SOL    HW2 2525   1.728   7.427   1.908 -0.0104 -0.2361  0.2432
  362SOL     OW 2526   6.976   0.299   2.792 -0.1374  0.0148 -0.4004
  362SOL    HW1 2527   6.899   0.356   2.792 -0.4094 -0.3208  1.0547
  362SOL    HW2 2528   6.959   0.237   2.721 -0.4694  0.8849 -1.1074
  363SOL     OW 2529   0.081   1.446   1.715 -0.1103  0.3190 -0.0958
  363SOL    HW1 2530   0.166   1.460   1.756  0.0604 -0.6845 -0.0901
  363SOL    HW2 2531   0.087   1.491   1.631 -0.0417  1.3549  0.4389
  364SOL     OW 2532   7.330   1.534   1.502  0.2309 -0.7849  0.3898
  364SOL    HW1 2533   7.376   1.457   1.535 -1.7096 -1.8238  0.8101
  364SOL    HW2 2534   7.310   1.512   1.411  0.8913 -0.1731  0.0904
  365SOL     OW 2535   7.723   0.140   2.857  0.0163 -0.2126 -0.5744
  365SOL    HW1 2536   7.729   0.208   2.790  0.8870  0.6969  0.3988
  365SOL    HW2 2537   7.645   0.163   2.908  0.7060  0.4873  0.1906
  366SOL     OW 2538   1.897   1.845   1.020  0.2060  0.2481  0.1299
  366SOL    HW1 2539   1.923   1.810   1.105 -1.6538 -0.5119  0.4407
  366SOL    HW2 2540   1.958   1.916   1.003  0.8747  0.1356  1.9029
  367SOL     OW 2541   0.861   2.822   2.001 -0.3757 -0.4660 -0.2450
  367SOL    HW1 2542   0.956   2.833   1.990  0.0189 -2.3349  0.7480
  367SOL    HW2 2543   0.834   2.768   1.928 -0.4356 -0.9521  0.1309
  368SOL     OW 2544   1.167   7.113   1.661 -0.4267  0.5689 -0.2878
  368SOL    HW1 2545   1.131   7.142   1.745  1.8349  0.7790  0.6816
  368SOL    HW2 2546   1.138   7.179   1.599  0.6542  2.3630  1.0062
  369SOL     OW 2547   7.914   2.737   2.957 -0.3640 -0.1990 -0.8890
  369SOL    HW1 2548   7.904   2.665   2.894 -0.8424 -0.9991  0.0672
  369SOL    HW2 2549   7.833   2.787   2.950 -1.2056 -1.3156  0.3025
  370SOL     OW 2550   7.588   0.501   4.015  0.4722  0.5902  1.0080
  370SOL    HW1 2551   7.606   0.592   3.992  1.3390 -0.1624 -1.5825
  370SOL    HW2 2552   7.667   0.453   3.992 -0.2137 -0.9313  1.6428
  371SOL     OW 2553   1.100   0.410   5.284 -0.0189  0.3931 -0.0876
  371SOL    HW1 2554   1.125   0.475   5.218  1.0616  0.3853  0.2836
  371SOL    HW2 2555   1.018   0.443   5.321 -0.4080  0.6218 -1.1199
  372SOL     OW 2556   1.827   0.139   4.669 -0.2869  0.8737 -0.3890
  372SOL    HW1 2557   1.851   0.047   4.662  0.7173  1.0153  0.8528
  372SOL    HW2 2558   1.796   0.162   4.582 -0.1781 -0.5328 -0.8255
  373SOL     OW 2559   0.059   7.571   1.571 -0.2862 -0.6812 -0.5766
  373SOL    HW1 2560   0.002   7.625   1.626  1.3424 -0.2292  0.7541
  373SOL    HW2 2561   0.035   7.481   1.593  0.7790 -0.5265  1.4447
  374SOL     OW 2562   7.468   2.547   1.446 -0.1519  0.1007  0.2832
  374SOL    HW1 2563   7.479   2.571   1.354  0.2139  1.9589  0.7707
  374SOL    HW2 2564   7.448   2.453   1.445  2.7662 -0.6348 -1.5309
  375SOL     OW 2565   2.258   1.715   1.212 -0.2334 -0.3007  0.6741
  375SOL    HW1 2566   2.236   1.676   1.127 -0.3362 -1.3601  1.1593
  375SOL    HW2 2567   2.174   1.731   1.254 -0.2025 -2.2429  1.6123
  376SOL     OW 2568   0.418   1.963   2.886 -0.6786 -0.8613 -0.7743
  376SOL    HW1 2569   0.382   1.980   2.799  0.6845  2.7518 -0.7828
  376SOL    HW2 2570   0.505   1.927   2.870  0.1151  1.0458 -1.0400
  377SOL     OW 2571   0.210   1.641   2.143  0.0896 -0.0934 -0.2050
  377SOL    HW1 2572   0.164   1.716   2.181 -2.6257 -0.7821 -1.8658
  377SOL    HW2 2573   0.147   1.569   2.148  1.8149 -1.7171 -0.6738
  378SOL     OW 2574   6.966   7.366   3.652  0.0770 -0.6591 -0.9674
  378SOL    HW1 2575   7.000   7.454   3.634 -2.6976  0.1264 -3.1011
  378SOL    HW2 2576   7.003   7.312   3.582  1.3732 -1.1279  0.0470
  379SOL     OW 2577   7.645   0.013   2.340  0.0414 -0.5166 -0.3006
  379SOL    HW1 2578   7.601   0.081   2.289 -1.7809 -0.2622  1.4859
  379SOL    HW2 2579   7.604  -0.068   2.311 -1.3804 -0.3225  1.0385
  380SOL     OW 2580   7.822   2.465   2.274  0.1691 -0.2000  0.5864
  380SOL    HW1 2581   7.902   2.413   2.276  0.2853 -0.0281  0.3999
  380SOL    HW2 2582   7.783   2.447   2.188 -0.5849 -1.1682  1.1011
  381SOL     OW 2583   7.735   1.567   2.895  0.3896  0.5362 -0.2042
  381SOL    HW1 2584   7.781   1.488   2.865 -1.4488 -0.4284 -0.6216
  381SOL    HW2 2585   7.678   1.591   2.822  0.2133  1.7071  0.2892
  382SOL     OW 2586   0.677   0.915   2.121  0.0873  0.0891 -0.4135
  382SOL    HW1 2587   0.588   0.940   2.097  0.0513  0.0632 -0.3088
  382SOL    HW2 2588   0.677   0.914   2.217  0.2225  0.1693 -0.4123
  383SOL     OW 2589   1.308   0.564   3.072  0.6075 -1.0945 -0.1265
  383SOL    HW1 2590   1.372   0.494   3.060  1.0216 -1.1959  2.2433
  383SOL    HW2 2591   1.229   0.520   3.102  0.2832 -0.6927 -0.3714
  384SOL     OW 2592   0.012   1.135   5.725  0.5121  0.1191 -0.2049
  384SOL    HW1 2593   0.003   1.175   5.811  1.3515 -1.9430  0.9184
  384SOL    HW2 2594  -0.046   1.058   5.728  1.5008 -0.6896 -0.9732
  385SOL     OW 2595   1.740   7.753   2.085 -0.5316 -0.5526  0.5296
  385SOL    HW1 2596   1.819   7.805   2.072 -0.3690 -0.5672  1.3636
  385SOL    HW2 2597   1.669   7.817   2.092 -0.8619 -0.5927 -1.7478
  386SOL     OW 2598   6.589   1.569   1.481 -0.0912  0.3644  0.1694
  386SOL    HW1 2599   6.569   1.655   1.446  1.3419  0.8880  0.5454
  386SOL    HW2 2600   6.554   1.570   1.570 -0.0620  0.5748  0.1777
  387SOL     OW 2601   1.431   6.749   3.520 -0.4395 -0.3605  0.1845
  387SOL    HW1 2602   1.432   6.810   3.594  0.3676 -0.8517  0.5838
  387SOL    HW2 2603   1.347   6.704   3.528 -0.5260 -0.1410  0.5758
  388SOL     OW 2604   0.301   7.083   2.449  0.0164  0.1233  0.5430
  388SOL    HW1 2605   0.375   7.035   2.486  0.8639  0.7978 -0.2283
  388SOL    HW2 2606   0.286   7.155   2.511 -0.3102 -0.2856  0.9450
  389SOL     OW 2607   0.334   1.521   3.049  0.8806 -0.3335  0.1781
  389SOL    HW1 2608   0.383   1.501   2.969 -0.5797 -0.6695 -0.6666
  389SOL    HW2 2609   0.389   1.487   3.119  0.5961 -3.3965 -0.9049
  390SOL     OW 2610   7.603   2.710   3.555 -0.1033 -0.3962 -0.4605
  390SOL    HW1 2611   7.521   2.734   3.599 -0.7352  0.9277 -2.2326
  390SOL    HW2 2612   7.660   2.680   3.626 -1.2707  0.9924  1.1637
  391SOL     OW 2613   0.453   7.300   2.056  0.3429 -0.1484 -0.7418
  391SOL    HW1 2614   0.469   7.344   1.973  0.7437  1.8732  0.3308
  391SOL    HW2 2615   0.537   7.305   2.102  0.6379 -2.7646 -0.8233
  392SOL     OW 2616   0.703   0.418   3.652  0.4407  0.1252 -0.1294
  392SOL    HW1 2617   0.687   0.446   3.742  0.4307 -1.4191  0.3804
  392SOL    HW2 2618   0.722   0.499   3.605  0.5098  0.9616  1.2710
  393SOL     OW 2619   1.488   7.552   4.481  0.2772  0.0676  0.0983
  393SOL    HW1 2620   1.404   7.536   4.437  0.0309  2.4260 -0.4381
  393SOL    HW2 2621   1.472   7.526   4.571 -0.1915 -1.9430 -0.5189
  394SOL     OW 2622   0.297   0.994   0.994 -0.8416  0.1338 -0.1418
  394SOL    HW1 2623   0.255   0.916   0.958 -1.3496  0.6310 -0.6429
  394SOL    HW2 2624   0.257   1.005   1.081 -0.4658 -0.3908  0.1060
  395SOL     OW 2625   1.102   2.856   3.623 -0.2518  0.3339  0.2972
  395SOL    HW1 2626   1.196   2.862   3.642 -0.2388 -1.5442  1.1044
  395SOL    HW2 2627   1.096   2.867   3.528  0.8380  0.1094  0.1874
  396SOL     OW 2628   2.250   0.326   2.110 -0.0333 -0.0670  0.0195
  396SOL    HW1 2629   2.223   0.415   2.134  0.5441 -0.2833  1.5537
  396SOL    HW2 2630   2.344   0.333   2.093  0.2777 -0.6101  1.4097
  397SOL     OW 2631   7.112   2.886   2.000 -0.1617  0.1507 -0.1458
  397SOL    HW1 2632   7.197   2.842   2.008  1.0403  2.4654  0.6169
  397SOL    HW2 2633   7.048   2.821   2.029  1.5047 -1.1296  0.8105
  398SOL     OW 2634   5.440   0.640   3.799  0.6090  0.1117 -0.2727
  398SOL    HW1 2635   5.498   0.607   3.867 -0.1216  0.0681  0.3344
  398SOL    HW2 2636   5.421   0.564   3.744 -0.2640 -0.2764  0.5390
  399SOL     OW 2637   7.158   0.680   3.721 -0.3966  0.0070  0.4455
  399SOL    HW1 2638   7.126   0.730   3.646 -0.6528  1.2404  1.3396
  399SOL    HW2 2639   7.099   0.605   3.728 -1.7661  1.0650  0.7237
  400SOL     OW 2640   0.889   2.218   2.328  0.8347  0.3070  0.4620
  400SOL    HW1 2641   0.904   2.292   2.387  1.4567  1.6161 -1.2849
  400SOL    HW2 2642   0.821   2.167   2.372  0.0359  2.1550  1.4915
  401SOL     OW 2643   7.132   7.573   2.988  0.5370  0.0797  0.0907
  401SOL    HW1 2644   7.102   7.658   3.023 -0.0023  0.1172 -0.4362
  401SOL    HW2 2645   7.163   7.525   3.065  1.9290  1.1793  0.2545
  402SOL     OW 2646   2.702   0.963   3.904 -0.1411 -0.4419  0.0373
  402SOL    HW1 2647   2.737   0.951   3.816  0.1849  1.1842 -0.0815
  402SOL    HW2 2648   2.640   1.035   3.896 -0.0960 -0.2648  1.1348
  403SOL     OW 2649   0.567   3.357   3.126 -0.6342  0.0682 -0.1119
  403SOL    HW1 2650   0.603   3.381   3.211 -0.1825  0.8619 -0.5130
  403SOL    HW2 2651   0.485   3.406   3.120 -1.2698 -0.9192  0.3596
  404SOL     OW 2652   0.200   2.761   2.849 -0.0592  0.4150 -0.4995
  404SOL    HW1 2653   0.216   2.667   2.838  1.2623  0.3129  1.7682
  404SOL    HW2 2654   0.105   2.769   2.840 -0.1294 -1.0044 -1.4560
  405SOL     OW 2655   7.794   1.289   3.618 -0.0562 -0.2072  0.3102
  405SOL    HW1 2656   7.862   1.313   3.681  0.3654  0.2790 -0.3147
  405SOL    HW2 2657   7.716   1.273   3.671  0.2802  0.2360  0.9531
  406SOL     OW 2658   6.744   0.215   2.337  0.5745  0.7905  0.1448
  406SOL    HW1 2659   6.802   0.149   2.300 -1.9369 -2.3110  1.3115
  406SOL    HW2 2660   6.708   0.261   2.261  2.0215  0.5549 -0.7275
  407SOL     OW 2661   0.398   1.921   2.116 -0.3497  0.2527 -0.3227
  407SOL    HW1 2662   0.370   1.959   2.200  0.6172  0.4773 -0.0835
  407SOL    HW2 2663   0.338   1.849   2.101 -0.0361 -0.3127  0.9834
  408SOL     OW 2664   0.265   2.753   1.940  0.3634 -0.3344  0.2445
  408SOL    HW1 2665   0.340   2.813   1.945  0.3182 -0.1485 -0.9166
  408SOL    HW2 2666   0.241   2.753   1.847  0.0201 -1.7326  0.3019
  409SOL     OW 2667   2.491   0.471   1.128  0.1745  0.0793 -0.0578
  409SOL    HW1 2668   2.445   0.555   1.126  1.3169  0.7183 -0.6706
  409SOL    HW2 2669   2.559   0.479   1.060 -0.8459 -2.0373 -1.4436
  410SOL     OW 2670   0.447   0.666   3.606  0.0419 -0.1535  0.7107
  410SOL    HW1 2671   0.515   0.699   3.664  0.9088 -1.3416  0.4010
  410SOL    HW2 2672   0.369   0.715   3.630  0.4259 -0.4500  2.7189
  411SOL     OW 2673   0.439   2.659   0.789 -0.2254 -0.6012  0.1915
  411SOL    HW1 2674   0.525   2.700   0.779 -0.7572  0.4245 -0.3335
  411SOL    HW2 2675   0.378   2.732   0.799 -0.7897 -1.3408  2.9120
  412SOL     OW 2676   0.065   2.154   2.037  0.4578  0.9279 -0.7161
  412SOL    HW1 2677   0.055   2.106   1.955 -0.3027  0.9006 -0.6174
  412SOL    HW2 2678   0.054   2.088   2.105 -1.2116  1.3061 -0.5683
  413SOL     OW 2679   0.026   2.875   2.050  0.1659  0.1475 -0.0098
  413SOL    HW1 2680   0.120   2.868   2.031  0.5707 -0.0133  1.8610
  413SOL    HW2 2681  -0.013   2.901   1.967  1.6328 -1.4799 -1.2680
  414SOL     OW 2682   0.357   6.233   4.386  0.2483  0.0118 -0.2721
  414SOL    HW1 2683   0.312   6.187   4.457 -0.7353 -0.5036 -1.2119
  414SOL    HW2 2684   0.314   6.318   4.381 -0.3728 -0.3315 -0.9066
  415SOL     OW 2685   2.291   1.891   1.543  0.2229  0.4105  0.1460
  415SOL    HW1 2686   2.330   1.809   1.573 -0.3304  0.8891  2.3954
  415SOL    HW2 2687   2.318   1.898   1.452  2.9705 -0.6975  0.7500
  416SOL     OW 2688   0.908   3.727   4.435 -0.3723  0.0513 -0.5169
  416SOL    HW1 2689   0.887   3.758   4.523  0.0687 -1.2828  0.0764
  416SOL    HW2 2690   0.950   3.642   4.448  1.2905  0.5952 -1.8981
  417SOL     OW 2691   0.958   7.594   2.477  0.1544  0.0615 -0.7699
  417SOL    HW1 2692   1.014   7.646   2.535  0.2784 -0.0865 -0.7577
  417SOL    HW2 2693   0.869   7.615   2.505  0.1892  0.5739 -1.0227
  418SOL     OW 2694   7.829   7.478   3.597 -0.8566  0.2056  0.0305
  418SOL    HW1 2695   7.853   7.404   3.541 -1.2095  0.4453 -0.4456
  418SOL    HW2 2696   7.764   7.526   3.546 -0.7478  0.7561  0.4050
  419SOL     OW 2697   7.001   2.934   1.286  0.1958  0.0449  0.1862
  419SOL    HW1 2698   6.908   2.942   1.309  0.0153  0.2140 -0.5704
  419SOL    HW2 2699   7.033   3.024   1.284  0.3240 -0.0000  0.2382
  420SOL     OW 2700   1.258   2.557   3.042 -0.0380 -0.1071  0.3055
  420SOL    HW1 2701   1.173   2.599   3.030  0.2971  0.6075  0.3616
  420SOL    HW2 2702   1.318   2.609   2.989  0.3486 -0.6742  0.1770
  421SOL     OW 2703   1.984   1.937   1.782  0.0671  0.3317 -0.3605
  421SOL    HW1 2704   2.075   1.964   1.782  0.3290 -0.5307 -0.0750
  421SOL    HW2 2705   1.965   1.911   1.692  0.6829 -1.3431 -0.0432
  422SOL     OW 2706   0.138   0.328   2.634 -0.2699  0.2447 -0.1826
  422SOL    HW1 2707   0.175   0.271   2.702 -0.7462  3.1421  2.7430
  422SOL    HW2 2708   0.213   0.349   2.578  0.1319 -2.2704 -0.6955
  423SOL     OW 2709   1.454   3.263   1.259  0.3390  0.4317  0.2548
  423SOL    HW1 2710   1.502   3.198   1.206 -0.0787 -1.4000  1.9966
  423SOL    HW2 2711   1.472   3.237   1.349 -1.7607  1.3507  0.9783
  424SOL     OW 2712   1.139   0.209   4.082 -0.5837  0.0378  0.0180
  424SOL    HW1 2713   1.133   0.134   4.142  0.9565 -0.5597 -0.5197
  424SOL    HW2 2714   1.222   0.251   4.104 -0.1406 -0.0042 -1.4565
  425SOL     OW 2715   1.895   0.752   0.816  0.5382  0.2747  0.3555
  425SOL    HW1 2716   1.981   0.794   0.820  0.8142 -0.1347 -0.7210
  425SOL    HW2 2717   1.849   0.800   0.747  1.3972 -2.0314 -2.0055
  426SOL     OW 2718   1.150   1.319   0.604  0.1625 -0.0426  0.3481
  426SOL    HW1 2719   1.114   1.385   0.545  0.4565  1.2229  1.5153
  426SOL    HW2 2720   1.076   1.291   0.657 -0.0517 -0.9989 -0.4363
  427SOL     OW 2721   7.648   3.118   3.540 -0.1986  0.5165 -0.1701
  427SOL    HW1 2722   7.652   3.084   3.630 -0.3753 -1.3985 -0.8355
  427SOL    HW2 2723   7.704   3.059   3.490 -2.7693 -0.6171 -1.9204
  428SOL     OW 2724   1.634   0.645   4.203  0.2578 -0.4757  0.1969
  428SOL    HW1 2725   1.566   0.648   4.270 -1.6988 -0.1539 -1.6928
  428SOL    HW2 2726   1.668   0.556   4.205 -0.7024 -0.8336  0.7386
  429SOL     OW 2727   2.015   0.668   2.626 -0.1072  0.0507 -0.1609
  429SOL    HW1 2728   1.923   0.670   2.598 -1.4600 -0.0203  3.7012
  429SOL    HW2 2729   2.050   0.753   2.601 -1.4772  0.4003 -0.9718
  430SOL     OW 2730   0.301   0.531   2.481  0.6816  0.0453  0.5058
  430SOL    HW1 2731   0.245   0.527   2.404  1.2699 -1.8050  0.1238
  430SOL    HW2 2732   0.290   0.620   2.514 -0.6344  0.4526 -0.9126
  431SOL     OW 2733   1.458   1.065   1.049  0.3202 -0.1157 -0.2781
  431SOL    HW1 2734   1.399   1.136   1.077  0.2032  0.0214 -0.8737
  431SOL    HW2 2735   1.459   1.005   1.124 -0.2320  0.0989 -0.0903
  432SOL     OW 2736   6.654   2.179   4.557  0.4854 -0.3669  0.0089
  432SOL    HW1 2737   6.717   2.197   4.488  0.4699 -0.9046 -0.1546
  432SOL    HW2 2738   6.656   2.257   4.613  1.4270 -0.4482  0.1083
  433SOL     OW 2739   7.093   2.512   1.684  0.2731  0.2484  0.9157
  433SOL    HW1 2740   7.027   2.495   1.616  0.0545 -2.1056  1.6170
  433SOL    HW2 2741   7.042   2.543   1.759  0.6266  4.1311 -0.2110
  434SOL     OW 2742   0.393   0.427   3.745  0.0689  0.1306  0.2687
  434SOL    HW1 2743   0.339   0.379   3.682  0.7974 -0.8643  0.3838
  434SOL    HW2 2744   0.422   0.505   3.697  1.6392 -1.2212 -1.0831
  435SOL     OW 2745   7.381   7.432   2.780  0.0255 -0.0704  0.0884
  435SOL    HW1 2746   7.434   7.355   2.757 -0.2431 -0.2338  0.0046
  435SOL    HW2 2747   7.441   7.506   2.773  0.4349 -0.3309  0.7114
  436SOL     OW 2748   7.370   0.471   2.242 -0.0577  0.2386 -0.2580
  436SOL    HW1 2749   7.401   0.391   2.200  0.9407  0.2761  0.3731
  436SOL    HW2 2750   7.275   0.461   2.245  0.0417 -0.8857 -0.2697
  437SOL     OW 2751   0.740   2.039   3.429  0.2476 -0.2890  0.0337
  437SOL    HW1 2752   0.744   2.132   3.450  0.2327 -0.5651  1.3282
  437SOL    HW2 2753   0.648   2.023   3.410  0.3601  0.0908 -0.8818
  438SOL     OW 2754   1.449   0.017   0.472  0.1052 -0.6068 -0.2971
  438SOL    HW1 2755   1.542   0.017   0.493  0.0047 -2.2061  0.3182
  438SOL    HW2 2756   1.440  -0.047   0.402 -0.6202 -1.0963  0.2208
  439SOL     OW 2757   3.011   7.963   0.887  0.2917  0.2451  0.1897
  439SOL    HW1 2758   2.920   7.935   0.899  0.6537 -0.7311  0.7287
  439SOL    HW2 2759   3.040   7.918   0.808  0.2782  0.6398 -0.0416
  440SOL     OW 2760   2.122   0.966   5.238 -0.1645 -0.0078  0.4242
  440SOL    HW1 2761   2.156   1.012   5.314 -0.8354  1.6609 -0.2258
  440SOL    HW2 2762   2.176   0.887   5.230 -0.3214 -0.4144  2.8008
  441SOL     OW 2763   0.145   1.971   3.283 -0.1040 -0.4569 -0.2132
  441SOL    HW1 2764   0.191   2.054   3.275  0.3285 -0.6827 -0.0967
  441SOL    HW2 2765   0.192   1.912   3.224 -1.2282 -0.2735 -1.3327
  442SOL     OW 2766   0.067   0.772   3.378 -0.1854  0.0139  0.3060
  442SOL    HW1 2767   0.052   0.865   3.363  2.3231  0.9620  2.7811
  442SOL    HW2 2768   0.034   0.756   3.466  1.0182 -0.9653  0.6037
  443SOL     OW 2769   1.325   2.623   4.150  0.5561  0.2209 -0.3473
  443SOL    HW1 2770   1.407   2.611   4.101 -0.1975 -1.1731 -1.3384
  443SOL    HW2 2771   1.289   2.705   4.116  0.7826  0.0406 -1.0453
  444SOL     OW 2772   7.833   2.385   2.947 -0.5784  0.5552  0.6185
  444SOL    HW1 2773   7.836   2.291   2.963  1.7061  0.3403 -0.6947
  444SOL    HW2 2774   7.749   2.413   2.985 -1.0207 -1.8644  1.6138
  445SOL     OW 2775   1.841   1.442   0.471 -0.0319 -0.6094 -0.5625
  445SOL    HW1 2776   1.810   1.358   0.504 -0.0388 -0.4257 -0.0999
  445SOL    HW2 2777   1.927   1.454   0.510 -0.8170  0.4836  0.9326
  446SOL     OW 2778   0.480   1.741   2.611  0.1678  0.7762 -0.0536
  446SOL    HW1 2779   0.483   1.647   2.591 -1.8895  0.4561  0.9238
  446SOL    HW2 2780   0.510   1.747   2.702 -1.6365  0.7672  0.5813
  447SOL     OW 2781   0.579   2.603   0.534  0.5475  0.2862 -0.1630
  447SOL    HW1 2782   0.650   2.543   0.557 -1.2105 -1.2478  1.6290
  447SOL    HW2 2783   0.502   2.569   0.580 -1.3486  1.9734 -1.8446
  448SOL     OW 2784   0.967   7.922   4.097  0.2134  0.6456  0.3395
  448SOL    HW1 2785   0.998   7.945   4.184 -0.3603  1.0960  0.4353
  448SOL    HW2 2786   0.894   7.982   4.081  0.7480  1.0404 -0.7288
  449SOL     OW 2787   1.414   0.791   2.584 -0.4788  0.3930  0.9493
  449SOL    HW1 2788   1.336   0.783   2.638  0.3406 -0.8233  2.0153
  449SOL    HW2 2789   1.441   0.701   2.567  1.3569  0.7613  1.6375
  450SOL     OW 2790   0.705   1.579   1.870 -0.3183  0.5149 -0.1937
  450SOL    HW1 2791   0.665   1.515   1.929  1.3472 -1.7772 -1.4032
  450SOL    HW2 2792   0.785   1.537   1.840 -0.4994  2.0414 -3.1969
  451SOL     OW 2793   0.508   1.219   1.551 -0.2916 -0.6921 -0.1149
  451SOL    HW1 2794   0.523   1.137   1.598 -1.0526 -0.8279 -0.0963
  451SOL    HW2 2795   0.523   1.288   1.617  3.6722 -0.5709 -0.8873
  452SOL     OW 2796   1.349   1.961   2.526 -0.0381 -0.2639  0.2917
  452SOL    HW1 2797   1.365   2.036   2.469 -0.2960  0.5407  1.2375
  452SOL    HW2 2798   1.262   1.978   2.563  0.2313 -0.6262  1.1144
  453SOL     OW 2799   0.967   1.556   1.836  0.0012  0.0271  0.1358
  453SOL    HW1 2800   1.026   1.602   1.895 -1.7505  1.8827  0.5789
  453SOL    HW2 2801   1.021   1.530   1.762  1.4435  1.2087  0.7336
  454SOL     OW 2802   1.529   7.730   1.051  0.2711  0.0717 -0.1454
  454SOL    HW1 2803   1.572   7.798   0.998 -1.6634  0.7123 -0.9853
  454SOL    HW2 2804   1.587   7.654   1.043  0.7476  0.5667 -2.1041
  455SOL     OW 2805   6.757   2.023   3.583  0.4810  0.1403 -0.5849
  455SOL    HW1 2806   6.715   1.985   3.661  0.0033  1.3855 -0.2180
  455SOL    HW2 2807   6.847   1.992   3.588  0.3773 -0.0619  0.2915
  456SOL     OW 2808   6.672   2.756   3.222 -0.1405 -0.3289 -0.1240
  456SOL    HW1 2809   6.631   2.716   3.145 -2.3733  0.6649  0.4524
  456SOL    HW2 2810   6.655   2.695   3.293  1.5142 -1.0243 -0.2840
  457SOL     OW 2811   7.261   1.534   4.811 -0.1622 -0.2729  0.5514
  457SOL    HW1 2812   7.343   1.576   4.787  0.8991 -2.0127  0.9373
  457SOL    HW2 2813   7.204   1.605   4.840 -0.1261  1.4646 -3.1360
  458SOL     OW 2814   0.729   0.225   3.238  0.4427  0.4221  0.4922
  458SOL    HW1 2815   0.650   0.233   3.184 -0.8725 -0.9470  2.1041
  458SOL    HW2 2816   0.707   0.270   3.320  0.9818 -0.6666  1.2719
  459SOL     OW 2817   4.776   7.984   4.528  0.0196 -0.6357 -0.5168
  459SOL    HW1 2818   4.804   7.902   4.488  0.7500 -1.1050  0.8574
  459SOL    HW2 2819   4.737   7.957   4.611  0.4774  0.4025  0.0545
  460SOL     OW 2820   0.588   0.236   1.585  0.2629  0.2244  0.3217
  460SOL    HW1 2821   0.575   0.279   1.500  2.2438 -0.2264 -0.2664
  460SOL    HW2 2822   0.521   0.274   1.642 -0.5415  1.1902 -1.2105
  461SOL     OW 2823   1.840   0.877   1.931 -0.1190  0.3927 -0.4169
  461SOL    HW1 2824   1.834   0.942   1.861 -1.2200  0.1503 -0.5530
  461SOL    HW2 2825   1.884   0.924   2.002  1.6826  0.4332 -1.4894
  462SOL     OW 2826   0.434   2.428   1.092  0.5729 -0.0685 -0.0871
  462SOL    HW1 2827   0.409   2.364   1.159 -1.6789  1.9044  1.1295
  462SOL    HW2 2828   0.433   2.512   1.138  2.4543  1.0012 -1.8429
  463SOL     OW 2829   0.383   0.028   0.768  0.7800 -0.4312  0.1551
  463SOL    HW1 2830   0.305  -0.022   0.744  0.5317  0.5577 -1.2287
  463SOL    HW2 2831   0.387   0.022   0.864 -0.1156 -1.7664  0.1283
  464SOL     OW 2832   1.238   6.321   3.773 -0.2234 -0.6769  0.2799
  464SOL    HW1 2833   1.220   6.253   3.838  1.4733  0.2278  1.7554
  464SOL    HW2 2834   1.288   6.276   3.704 -0.1895 -1.1790  0.6284
  465SOL     OW 2835   7.314   0.779   1.704 -0.4857 -0.0132  0.0770
  465SOL    HW1 2836   7.346   0.691   1.683 -0.9109  0.2205 -1.6917
  465SOL    HW2 2837   7.296   0.776   1.797  2.4405 -0.8616  0.7360
  466SOL     OW 2838   7.680   2.877   3.949 -0.0781 -0.0647  0.1558
  466SOL    HW1 2839   7.765   2.922   3.951 -0.1607  0.1218 -0.2790
  466SOL    HW2 2840   7.693   2.800   4.004  0.3100  0.0736  0.2670
  467SOL     OW 2841   0.403   1.210   1.963 -0.3983  0.2598 -0.1493
  467SOL    HW1 2842   0.324   1.207   1.909 -0.7242  0.6452  0.2964
  467SOL    HW2 2843   0.418   1.119   1.990 -0.3460  0.0987 -0.7254
  468SOL     OW 2844   7.736   0.871   2.177  0.7064 -0.9814  0.3950
  468SOL    HW1 2845   7.688   0.797   2.213 -0.7837 -0.7484 -0.9995
  468SOL    HW2 2846   7.746   0.851   2.084  2.5736 -0.5959  0.4681
  469SOL     OW 2847   0.743   7.997   2.578 -0.3588 -0.3223  0.1130
  469SOL    HW1 2848   0.682   7.925   2.563 -0.7215  0.3042 -1.5859
  469SOL    HW2 2849   0.689   8.076   2.576 -0.2612  0.0113  3.6887
  470SOL     OW 2850   0.196   3.447   1.696  0.4975 -0.1298 -0.2977
  470SOL    HW1 2851   0.162   3.534   1.674 -0.4188  0.1553  1.9857
  470SOL    HW2 2852   0.188   3.441   1.791  0.0033 -2.9288 -0.4235
  471SOL     OW 2853   1.424   1.739   1.220  0.2822  0.3655 -0.1090
  471SOL    HW1 2854   1.334   1.774   1.225  0.3789  0.5240  0.7864
  471SOL    HW2 2855   1.442   1.733   1.127 -0.1521  1.6836 -0.3117
  472SOL     OW 2856   0.041   0.261   2.981 -0.4427 -0.2032 -0.2301
  472SOL    HW1 2857   0.091   0.255   2.899  1.0698 -1.0402  0.7100
  472SOL    HW2 2858   0.046   0.174   3.019 -1.0298  0.2030  0.8193
  473SOL     OW 2859   0.883   0.598   5.122 -0.4525  0.2108 -0.0066
  473SOL    HW1 2860   0.852   0.614   5.033 -1.6385  0.6052  0.4620
  473SOL    HW2 2861   0.811   0.551   5.164 -0.5985  1.4574  1.2163
  474SOL     OW 2862   0.724   1.094   3.119  0.4143 -0.5141 -0.1130
  474SOL    HW1 2863   0.671   1.057   3.189  1.1459 -0.7870  0.3014
  474SOL    HW2 2864   0.682   1.178   3.099  0.7074 -0.0057  1.2775
  475SOL     OW 2865   0.018   1.323   4.403 -0.3238  0.6063 -0.1122
  475SOL    HW1 2866   0.098   1.351   4.359 -0.4558  0.3491 -0.5228
  475SOL    HW2 2867   0.024   1.362   4.491  0.9019 -0.5348  0.3536
  476SOL     OW 2868   1.804   2.074   1.947 -0.1227  0.2111  0.3039
  476SOL    HW1 2869   1.850   2.008   1.895  0.9667  1.2859 -0.1450
  476SOL    HW2 2870   1.845   2.157   1.922 -0.4351  0.9022  1.9656
  477SOL     OW 2871   7.944   1.140   5.282 -0.2532  0.1716 -0.2778
  477SOL    HW1 2872   8.028   1.186   5.277  0.8030 -1.7415 -1.4657
  477SOL    HW2 2873   7.912   1.141   5.191 -1.1753  0.2607  0.0422
  478SOL     OW 2874   1.733   0.679   2.061 -0.2641  0.1146  0.2288
  478SOL    HW1 2875   1.770   0.756   2.017  0.4038 -1.2067 -1.6317
  478SOL    HW2 2876   1.793   0.608   2.040 -1.7747 -1.2777  0.4190
  479SOL     OW 2877   0.477   0.034   5.168  0.4160 -0.0250 -0.2763
  479SOL    HW1 2878   0.420  -0.041   5.184  1.6277 -0.7874  0.6595
  479SOL    HW2 2879   0.507   0.022   5.078 -1.0514  0.5207 -0.8670
  480SOL     OW 2880   0.856   0.027   8.008 -0.0708  0.6521 -0.8612
  480SOL    HW1 2881   0.771   0.068   8.028  1.1035  3.1670 -0.5765
  480SOL    HW2 2882   0.911   0.050   8.083  1.3322  0.6231 -1.8468
  481SOL     OW 2883   6.852   1.312   3.060 -0.0981  0.8419 -0.8049
  481SOL    HW1 2884   6.903   1.354   3.129 -0.0093  0.4651 -0.6355
  481SOL    HW2 2885   6.914   1.298   2.989  0.4039 -0.8559 -0.0861
  482SOL     OW 2886   0.501   2.529   6.175  0.1614 -0.2483 -0.2787
  482SOL    HW1 2887   0.532   2.488   6.256 -0.4181  0.4232  0.2996
  482SOL    HW2 2888   0.420   2.573   6.201 -0.3291 -0.4947 -1.3577
  483SOL     OW 2889   6.846   2.384   4.149  0.2799  0.2252  0.0183
  483SOL    HW1 2890   6.790   2.337   4.087 -0.3529 -1.3236  1.6771
  483SOL    HW2 2891   6.927   2.401   4.100 -0.1254 -1.0784 -1.1748
  484SOL     OW 2892   1.280   7.093   5.028  0.3005  0.1736 -0.3591
  484SOL    HW1 2893   1.374   7.112   5.027  0.4718 -0.6093  0.2946
  484SOL    HW2 2894   1.263   7.052   4.943  0.4875  0.5832 -0.5966
  485SOL     OW 2895   1.360   0.561   4.741 -0.0826 -0.0126 -0.5734
  485SOL    HW1 2896   1.331   0.470   4.733 -0.8270  0.3165 -1.8723
  485SOL    HW2 2897   1.280   0.611   4.755  0.1851  0.5713 -1.0748
  486SOL     OW 2898   1.555   0.547   6.996 -0.3994  0.2543 -0.2204
  486SOL    HW1 2899   1.643   0.558   7.033 -0.3182  0.0919 -0.3691
  486SOL    HW2 2900   1.501   0.520   7.071 -0.2575  0.0342 -0.1977
  487SOL     OW 2901   0.869   2.414   4.658 -0.0237  0.7718 -0.1074
  487SOL    HW1 2902   0.941   2.476   4.669  0.6393 -0.1202  0.7507
  487SOL    HW2 2903   0.906   2.330   4.684 -1.1503  0.1614 -0.4378
  488SOL     OW 2904   2.301   0.367   7.106 -0.5968 -0.0609  0.0480
  488SOL    HW1 2905   2.300   0.273   7.123 -0.0351 -0.5651 -2.2945
  488SOL    HW2 2906   2.250   0.405   7.178 -0.2821 -2.0628  1.4056
  489SOL     OW 2907   0.188   7.861   4.986 -0.0008  0.4890  0.4097
  489SOL    HW1 2908   0.222   7.841   5.073 -1.3816  3.4049  1.7736
  489SOL    HW2 2909   0.124   7.792   4.969 -0.0729  0.1438  1.9361
  490SOL     OW 2910   7.866   0.884   4.549 -0.2176  0.1953  0.2056
  490SOL    HW1 2911   7.839   0.951   4.486 -2.1679  0.1085  0.8600
  490SOL    HW2 2912   7.896   0.811   4.495  1.3001  1.3122 -0.5287
  491SOL     OW 2913   2.758   2.385   6.297  0.0101  0.3625 -0.2930
  491SOL    HW1 2914   2.790   2.471   6.268  1.4111 -0.2867 -0.7549
  491SOL    HW2 2915   2.792   2.324   6.231  1.2977 -0.8798  1.4294
  492SOL     OW 2916   7.981   0.440   1.362 -0.8325  0.4022 -0.6893
  492SOL    HW1 2917   7.906   0.492   1.391 -2.5316 -1.8483 -0.7584
  492SOL    HW2 2918   7.996   0.466   1.272 -0.7273  1.7350 -0.3026
  493SOL     OW 2919   2.080   6.381   5.758  1.3175 -0.9950  0.1096
  493SOL    HW1 2920   2.142   6.417   5.820  1.0326 -0.9820  0.3929
  493SOL    HW2 2921   2.048   6.457   5.709  1.4892 -0.9965 -0.0062
  494SOL     OW 2922   7.947   0.082   3.990 -0.5439  0.0006  0.1970
  494SOL    HW1 2923   8.002   0.017   4.034  1.2661  0.7879 -0.7681
  494SOL    HW2 2924   7.997   0.107   3.912 -2.2293  0.9014 -0.6590
  495SOL     OW 2925   1.822   2.070   2.227  0.0045 -0.1498  0.6259
  495SOL    HW1 2926   1.769   2.149   2.224  0.6295  0.2712  0.5965
  495SOL    HW2 2927   1.835   2.045   2.136 -2.3967 -1.8032  0.6418
  496SOL     OW 2928   0.401   0.565   3.351  0.6386  0.2140  0.7172
  496SOL    HW1 2929   0.473   0.519   3.307  0.9394  1.1885  0.1592
  496SOL    HW2 2930   0.440   0.600   3.431  0.6003  0.1308  0.7724
  497SOL     OW 2931   7.282   1.182   4.327 -0.0505  0.4812  0.2959
  497SOL    HW1 2932   7.257   1.219   4.242  1.1343  0.4782 -0.0729
  497SOL    HW2 2933   7.231   1.101   4.334  0.0819  0.3104 -0.5720
  498SOL     OW 2934   1.285   2.134   1.121 -0.2247 -0.2181  0.2564
  498SOL    HW1 2935   1.263   2.076   1.193 -2.8167  1.6341  1.1177
  498SOL    HW2 2936   1.358   2.186   1.153  0.8680 -1.6771  0.1915
  499SOL     OW 2937   0.112   0.940   4.971 -0.3710 -0.8138 -0.5870
  499SOL    HW1 2938   0.100   1.020   4.919  0.9877  0.5428  1.0839
  499SOL    HW2 2939   0.082   0.870   4.913 -1.7353  0.8867 -2.0728
  500SOL     OW 2940   0.129   1.030   4.557 -0.0113  0.4477 -0.6660
  500SOL    HW1 2941   0.125   1.103   4.619  0.1167  0.8911 -1.1668
  500SOL    HW2 2942   0.044   0.988   4.564 -0.0155  0.5233 -0.2250
  501SOL     OW 2943   0.949   0.319   4.721  0.4423  0.5122  0.6503
  501SOL    HW1 2944   0.870   0.308   4.774  0.8892 -0.5409  1.1203
  501SOL    HW2 2945   1.015   0.351   4.782  0.9173 -0.5506  0.7210
  502SOL     OW 2946   0.891   0.419   5.467  0.1085  0.4824 -0.3357
  502SOL    HW1 2947   0.930   0.338   5.499  0.7834  1.4680  1.5255
  502SOL    HW2 2948   0.816   0.434   5.525  0.7205  1.7979  0.1457
  503SOL     OW 2949   6.551   0.446   4.959  0.2945  0.2333  0.7662
  503SOL    HW1 2950   6.580   0.454   4.868 -0.4626  0.8686  0.5706
  503SOL    HW2 2951   6.631   0.429   5.009  1.0016  1.7904  0.2276
  504SOL     OW 2952   0.464   7.541   3.410  0.3802  0.7371  0.5155
  504SOL    HW1 2953   0.373   7.516   3.396  0.6357  0.1435 -0.1487
  504SOL    HW2 2954   0.507   7.523   3.326  1.2228  0.4957  0.9857
  505SOL     OW 2955   0.757   1.951   2.696 -0.1166  0.4670 -0.2503
  505SOL    HW1 2956   0.777   1.893   2.623 -1.4072 -2.0008  1.2429
  505SOL    HW2 2957   0.714   1.895   2.761 -0.7255  2.9379  1.6405
  506SOL     OW 2958   0.710   5.979   5.211  0.6996 -0.3513 -0.3477
  506SOL    HW1 2959   0.713   6.054   5.152  0.4410  1.1947  1.5385
  506SOL    HW2 2960   0.723   6.015   5.298  2.0184 -2.6717  0.5206
  507SOL     OW 2961   1.124   0.709   4.780  0.5971  0.3273 -0.1270
  507SOL    HW1 2962   1.081   0.733   4.862 -0.1698 -1.6884  0.1174
  507SOL    HW2 2963   1.113   0.785   4.723 -0.3975  1.0888  1.0517
  508SOL     OW 2964   1.891   0.588   3.688 -0.1955  0.1974 -0.3349
  508SOL    HW1 2965   1.820   0.638   3.648  0.5534  0.4405 -1.3775
  508SOL    HW2 2966   1.947   0.654   3.729 -1.6234 -0.0914  2.3919
  509SOL     OW 2967   7.288   0.005   4.700  0.0348  0.9175 -0.8954
  509SOL    HW1 2968   7.382   0.021   4.699  0.0371  1.3781  1.6523
  509SOL    HW2 2969   7.280  -0.089   4.682  1.1069  0.5512  0.3912
  510SOL     OW 2970   7.154   0.886   4.631  0.6043  0.1973  0.0813
  510SOL    HW1 2971   7.248   0.875   4.618  0.4151 -1.3076 -0.2253
  510SOL    HW2 2972   7.114   0.842   4.557 -0.3548  1.0440  0.0762
  511SOL     OW 2973   1.529   2.731   5.538 -0.1237  0.3725 -0.2503
  511SOL    HW1 2974   1.622   2.730   5.561 -0.7297 -0.5235  2.4569
  511SOL    HW2 2975   1.486   2.678   5.605 -2.3322 -1.4372 -2.8325
  512SOL     OW 2976   0.722   0.085   3.928 -0.6141  0.5266 -0.2111
  512SOL    HW1 2977   0.668   0.163   3.939  0.7196  1.6714 -1.3615
  512SOL    HW2 2978   0.671   0.015   3.969 -2.6505  1.6572 -0.6446
  513SOL     OW 2979   1.009   7.415   4.633 -0.1035  0.5294  0.5875
  513SOL    HW1 2980   1.009   7.409   4.729  1.5456 -2.5386  0.5111
  513SOL    HW2 2981   1.093   7.379   4.606 -0.3465  1.6807 -2.0632
  514SOL     OW 2982   0.897   2.605   7.018 -0.1934  0.0600  0.2495
  514SOL    HW1 2983   0.876   2.561   7.100  1.6539 -0.6177  0.3894
  514SOL    HW2 2984   0.959   2.674   7.042  2.4082 -1.7609 -0.8134
  515SOL     OW 2985   7.807   0.136   5.827  0.5841  0.2271  0.1918
  515SOL    HW1 2986   7.826   0.211   5.771  1.1213 -0.6548 -0.8410
  515SOL    HW2 2987   7.743   0.170   5.890  1.8853  1.9351  0.6844
  516SOL     OW 2988   0.653   1.362   3.061  0.3091 -0.3182  0.1253
  516SOL    HW1 2989   0.620   1.395   2.978  0.6639 -1.8834 -0.6807
  516SOL    HW2 2990   0.590   1.393   3.126 -1.1090 -0.7364 -0.9842
  517SOL     OW 2991   0.323   1.386   4.537 -0.5853  0.1278 -0.3699
  517SOL    HW1 2992   0.345   1.467   4.583 -0.5635  0.7967 -1.5130
  517SOL    HW2 2993   0.266   1.339   4.597  0.3997  0.4103  0.8258
  518SOL     OW 2994   0.378   2.648   5.479 -0.6162  0.3025 -0.2579
  518SOL    HW1 2995   0.462   2.626   5.439  1.4048 -0.5857  3.8833
  518SOL    HW2 2996   0.316   2.586   5.440  1.4205 -1.4408 -0.9556
  519SOL     OW 2997   0.624   0.707   2.693  0.0949 -0.2785  0.1775
  519SOL    HW1 2998   0.701   0.764   2.697 -1.0786  1.3347  2.2990
  519SOL    HW2 2999   0.583   0.717   2.779 -1.5266 -2.4639 -0.2633
  520SOL     OW 3000   3.785   2.003   6.432 -0.1124 -0.0668 -0.0659
  520SOL    HW1 3001   3.761   1.998   6.339  0.1235  0.7106 -0.1693
  520SOL    HW2 3002   3.737   1.930   6.472 -0.1218 -0.4864 -0.8117
  521SOL     OW 3003   7.751   0.092   5.522 -0.3967  0.4391  0.2387
  521SOL    HW1 3004   7.782   0.098   5.613 -1.6041 -1.8398  0.8838
  521SOL    HW2 3005   7.663   0.128   5.524 -0.3787  0.4978 -0.0528
  522SOL     OW 3006   0.720   6.812   3.862  0.0793  0.0939 -0.0721
  522SOL    HW1 3007   0.760   6.725   3.852  0.8237  0.2324  1.4397
  522SOL    HW2 3008   0.720   6.828   3.956  0.4097  1.9426 -0.3515
  523SOL     OW 3009   7.782   1.753   2.611 -0.4744 -0.6257  0.7045
  523SOL    HW1 3010   7.867   1.791   2.592  0.1160 -2.2912 -0.1790
  523SOL    HW2 3011   7.743   1.813   2.675  0.2843  1.5127 -0.7386
  524SOL     OW 3012   1.096   1.366   3.984  0.0095  0.5498 -0.0586
  524SOL    HW1 3013   1.119   1.417   4.062  2.1198 -0.2196 -0.1194
  524SOL    HW2 3014   1.174   1.371   3.929 -1.1311  0.3500 -1.7533
  525SOL     OW 3015   0.856   1.948   3.142  0.7169 -0.0049  0.0621
  525SOL    HW1 3016   0.854   1.859   3.105 -1.5729 -1.1991  2.6582
  525SOL    HW2 3017   0.871   1.934   3.236  0.8242  2.4168  0.4631
  526SOL     OW 3018   0.899   2.753   6.308 -0.3848  0.7955 -0.1320
  526SOL    HW1 3019   0.979   2.701   6.299 -2.0208 -1.9486  0.2475
  526SOL    HW2 3020   0.862   2.754   6.220 -0.5405  1.0448 -0.0634
  527SOL     OW 3021   0.165   1.190   4.113  0.1652  0.3480 -0.6311
  527SOL    HW1 3022   0.093   1.236   4.070 -0.1312 -0.4459 -1.0012
  527SOL    HW2 3023   0.210   1.257   4.164  1.9203  1.8822 -3.8791
  528SOL     OW 3024   2.654   0.567   5.258 -0.4893  0.1493 -0.0625
  528SOL    HW1 3025   2.730   0.553   5.314 -0.7120 -0.6062  0.0664
  528SOL    HW2 3026   2.674   0.519   5.178  0.5319  2.5411 -1.3252
  529SOL     OW 3027   7.873   2.522   3.229  0.1754 -0.1129  0.6227
  529SOL    HW1 3028   7.853   2.435   3.265 -0.2272  0.0322  0.7499
  529SOL    HW2 3029   7.953   2.508   3.179 -0.6506 -0.8955 -0.5634
  530SOL     OW 3030   0.907   1.902   3.913 -0.2577  0.3952  0.0433
  530SOL    HW1 3031   0.926   1.823   3.965 -0.0451 -0.5582 -1.4328
  530SOL    HW2 3032   0.843   1.949   3.965  0.9643  0.1875  1.8336
  531SOL     OW 3033   1.057   0.209   7.324 -0.2747 -0.2505  0.1120
  531SOL    HW1 3034   1.064   0.154   7.402  0.3351 -2.2176 -1.2596
  531SOL    HW2 3035   1.147   0.214   7.291 -0.5667  0.3720 -0.6044
  532SOL     OW 3036   1.566   6.655   4.462  0.1474 -0.4224 -0.5582
  532SOL    HW1 3037   1.539   6.669   4.552  1.4406 -0.6795 -0.1165
  532SOL    HW2 3038   1.608   6.738   4.437  0.1669 -0.5000 -0.7864
  533SOL     OW 3039   0.586   3.034   3.132 -0.6126  0.0352 -0.0764
  533SOL    HW1 3040   0.584   3.093   3.056  1.0022  0.8709  0.4783
  533SOL    HW2 3041   0.625   3.087   3.202  2.3540 -2.0701  0.0481
  534SOL     OW 3042   1.290   0.034   1.579 -0.4930 -0.0508 -0.3527
  534SOL    HW1 3043   1.370  -0.009   1.547 -0.6888 -2.7787  2.3372
  534SOL    HW2 3044   1.316   0.125   1.595  2.8929 -1.2772  2.4784
  535SOL     OW 3045   0.769   1.584   6.914 -0.1798 -0.2596 -0.1716
  535SOL    HW1 3046   0.787   1.538   6.996  0.5147  0.3141  0.0002
  535SOL    HW2 3047   0.743   1.514   6.853 -0.4411 -0.7191  0.4536
  536SOL     OW 3048   1.374   0.505   3.552 -0.1428  0.5035  0.1782
  536SOL    HW1 3049   1.373   0.593   3.589  0.0422  0.2581  0.7804
  536SOL    HW2 3050   1.283   0.477   3.556 -0.2296  0.7288 -0.1708
  537SOL     OW 3051   0.108   7.886   4.132  0.1637 -0.1525  0.4083
  537SOL    HW1 3052   0.122   7.809   4.077 -1.0085  0.1487 -0.3347
  537SOL    HW2 3053   0.100   7.851   4.221 -0.9605 -0.9608  0.0064
  538SOL     OW 3054   2.490   1.233   6.718 -0.5388  0.3794  0.5337
  538SOL    HW1 3055   2.578   1.269   6.708 -0.5560  0.1776 -0.4599
  538SOL    HW2 3056   2.502   1.138   6.710 -0.7955  0.3262  0.7742
  539SOL     OW 3057   0.395   7.845   3.415 -0.1725 -0.5406 -0.4537
  539SOL    HW1 3058   0.414   7.753   3.433 -0.1736 -0.7782 -1.6180
  539SOL    HW2 3059   0.480   7.884   3.397  0.1024  0.1709  1.9311
  540SOL     OW 3060   1.629   7.350   4.069  0.2738 -0.6325  0.2177
  540SOL    HW1 3061   1.679   7.370   4.148  2.4115 -0.0106 -1.1856
  540SOL    HW2 3062   1.562   7.419   4.065  0.6687 -0.1847  1.0460
  541SOL     OW 3063   7.731   1.120   3.974  0.2869  0.0164  0.0944
  541SOL    HW1 3064   7.764   1.209   3.986  0.0464  0.1381 -0.1225
  541SOL    HW2 3065   7.639   1.126   3.999  0.0661  0.0130 -0.6738
  542SOL     OW 3066   2.284   7.822   4.804  0.6851  0.0814  0.1699
  542SOL    HW1 3067   2.291   7.778   4.719 -2.7048  1.3505 -0.9320
  542SOL    HW2 3068   2.308   7.754   4.867  0.1132 -1.9513 -1.6507
  543SOL     OW 3069   0.570   0.331   3.920 -0.5583 -0.6303  0.2863
  543SOL    HW1 3070   0.504   0.362   3.858 -0.6226  2.2148  1.6073
  543SOL    HW2 3071   0.525   0.328   4.004  0.6644  0.2250  0.9984
  544SOL     OW 3072   0.232   0.933   4.006  0.1678  0.4528  0.3950
  544SOL    HW1 3073   0.195   1.020   4.020 -0.8833 -0.0909  1.1348
  544SOL    HW2 3074   0.157   0.877   3.988  0.5573 -0.7363  2.1958
  545SOL     OW 3075   0.227   2.004   4.087 -0.3710  0.0545  0.5080
  545SOL    HW1 3076   0.200   2.090   4.118  0.2516  1.7424 -3.1798
  545SOL    HW2 3077   0.146   1.953   4.085 -1.2735  1.4596  0.0635
  546SOL     OW 3078   2.556   0.580   3.591  0.2882  0.2447  0.1510
  546SOL    HW1 3079   2.530   0.490   3.611  1.2193  0.0108  0.3417
  546SOL    HW2 3080   2.556   0.624   3.676  0.0089  0.3831  0.0809
  547SOL     OW 3081   0.586   7.956   2.924 -0.2702 -0.2167  0.3285
  547SOL    HW1 3082   0.560   7.987   2.837  1.2071 -1.6027 -0.6762
  547SOL    HW2 3083   0.639   8.027   2.960  0.7933 -0.4130 -0.7779
  548SOL     OW 3084   1.047   0.865   3.274  0.0209  0.2944 -0.5916
  548SOL    HW1 3085   1.041   0.943   3.328  1.4552 -0.3453  0.5762
  548SOL    HW2 3086   0.971   0.868   3.217 -2.7502  0.0342  2.7846
  549SOL     OW 3087   0.840   7.346   5.756 -0.2096  0.1102  0.0060
  549SOL    HW1 3088   0.838   7.250   5.761  0.4660  0.0813 -0.2021
  549SOL    HW2 3089   0.846   7.365   5.662 -2.2583  0.4125 -0.1225
  550SOL     OW 3090   0.467   1.927   3.317  0.2504  0.1875 -0.3135
  550SOL    HW1 3091   0.402   1.875   3.270 -1.4916  3.3554 -1.7093
  550SOL    HW2 3092   0.423   1.954   3.397  1.6534 -1.5270  1.1139
  551SOL     OW 3093   7.477   1.697   5.286 -0.9974 -0.1567 -0.1810
  551SOL    HW1 3094   7.554   1.662   5.241 -1.1188 -1.5223  0.6307
  551SOL    HW2 3095   7.408   1.693   5.220 -0.4359  0.9450 -0.8718
  552SOL     OW 3096   0.928   0.714   4.151 -0.2310  0.3789  0.0202
  552SOL    HW1 3097   0.849   0.755   4.187 -0.5758  0.6466 -1.0071
  552SOL    HW2 3098   0.901   0.684   4.063  0.2196 -1.3491  0.4325
  553SOL     OW 3099   0.671   2.159   2.840  0.5589 -0.3293  0.3072
  553SOL    HW1 3100   0.701   2.075   2.805 -0.0051 -0.5250  0.2880
  553SOL    HW2 3101   0.616   2.136   2.915  0.1778  0.0106  0.1334
  554SOL     OW 3102   0.859   0.346   4.321 -0.9317  0.2542 -0.0645
  554SOL    HW1 3103   0.888   0.332   4.231 -1.0091  1.4966 -0.3004
  554SOL    HW2 3104   0.915   0.417   4.354 -0.2028 -0.8675  1.2282
  555SOL     OW 3105   7.530   7.228   4.632 -0.3478  0.5256  0.5588
  555SOL    HW1 3106   7.560   7.301   4.577 -1.1621 -0.1092 -0.7813
  555SOL    HW2 3107   7.587   7.155   4.608 -0.0048  0.5199  1.3710
  556SOL     OW 3108   7.674   0.512   4.586  0.4344 -0.2718  0.0466
  556SOL    HW1 3109   7.684   0.513   4.491 -0.7559 -0.3352 -0.1020
  556SOL    HW2 3110   7.703   0.425   4.613 -0.0058 -0.5537 -0.3700
  557SOL     OW 3111   0.534   7.571   5.573 -0.0362 -0.3509 -0.0384
  557SOL    HW1 3112   0.469   7.505   5.548  0.6365 -1.2363  0.4689
  557SOL    HW2 3113   0.618   7.532   5.548  0.5494 -0.6172  2.1231
  558SOL     OW 3114   0.579   0.887   3.546 -0.3546  0.3467 -0.3031
  558SOL    HW1 3115   0.508   0.951   3.555 -0.1070  0.5949 -0.0804
  558SOL    HW2 3116   0.591   0.878   3.452 -0.2070  0.8354 -0.3333
  559SOL     OW 3117   0.233   2.162   2.999  0.4306  0.2758  0.1078
  559SOL    HW1 3118   0.194   2.181   2.914  0.5628 -0.2491 -0.0743
  559SOL    HW2 3119   0.304   2.101   2.979  3.3265  3.4136  0.0279
  560SOL     OW 3120   1.130   7.696   4.910 -0.1256 -0.6955 -0.1136
  560SOL    HW1 3121   1.224   7.705   4.927 -0.4548  0.5214  1.3394
  560SOL    HW2 3122   1.089   7.726   4.991 -1.7766 -1.4623 -0.6273
  561SOL     OW 3123   0.454   1.604   2.256  0.0440 -0.6154 -0.1879
  561SOL    HW1 3124   0.437   1.556   2.337  0.1232 -1.8406 -0.8775
  561SOL    HW2 3125   0.367   1.617   2.218 -0.2563  1.9749  1.1486
  562SOL     OW 3126   0.790   1.389   2.211 -0.0087 -0.2470 -0.3638
  562SOL    HW1 3127   0.826   1.301   2.202  0.7209  0.0638 -0.5477
  562SOL    HW2 3128   0.727   1.396   2.139 -1.3670 -1.2209  0.6825
  563SOL     OW 3129   2.435   0.126   4.843  0.6417 -0.0903  0.4042
  563SOL    HW1 3130   2.501   0.181   4.885  1.2783 -0.4345 -0.1149
  563SOL    HW2 3131   2.478   0.094   4.764 -1.1127  2.0424 -1.5579
  564SOL     OW 3132   7.776   0.451   4.344  0.1689  0.1731 -0.1208
  564SOL    HW1 3133   7.836   0.396   4.293  0.8146  0.0429  0.7458
  564SOL    HW2 3134   7.805   0.540   4.325  0.4157  0.1253  0.0206
  565SOL     OW 3135   1.689   7.673   2.894 -0.0808  0.6597  0.4655
  565SOL    HW1 3136   1.653   7.640   2.976 -0.3031 -0.2489  0.0200
  565SOL    HW2 3137   1.631   7.637   2.827 -0.4091  2.0936 -0.0386
  566SOL     OW 3138   0.154   0.477   4.567  0.7074 -0.8138  0.2562
  566SOL    HW1 3139   0.212   0.505   4.638  0.4167 -0.0293  0.1951
  566SOL    HW2 3140   0.211   0.461   4.493  0.8511 -0.0737  0.2043
  567SOL     OW 3141   0.509   1.811   5.844 -0.3851 -0.0014 -0.1057
  567SOL    HW1 3142   0.564   1.819   5.922  0.2688  1.8093 -0.6833
  567SOL    HW2 3143   0.540   1.732   5.800  0.1739 -0.2775  0.7672
  568SOL     OW 3144   0.451   0.860   4.231  0.1501  0.0354  0.1703
  568SOL    HW1 3145   0.388   0.928   4.251 -0.0256  0.2149 -0.9585
  568SOL    HW2 3146   0.399   0.780   4.222 -0.5178  0.7153 -4.1102
  569SOL     OW 3147   1.577   1.263   4.036  0.0837  0.7749 -0.1006
  569SOL    HW1 3148   1.657   1.275   3.984 -0.0008  0.3653 -0.3314
  569SOL    HW2 3149   1.506   1.260   3.972  0.0919 -0.8622 -0.0966
  570SOL     OW 3150   7.730   1.275   3.227  0.0143  0.5190  0.0929
  570SOL    HW1 3151   7.723   1.238   3.139 -0.3592 -2.1027  1.1556
  570SOL    HW2 3152   7.763   1.364   3.213 -1.1914  0.6065 -2.7559
  571SOL     OW 3153   7.449   1.277   4.543 -0.1937  0.1093 -0.4030
  571SOL    HW1 3154   7.444   1.298   4.636  0.1689  0.3407 -0.4326
  571SOL    HW2 3155   7.371   1.224   4.526 -1.0149  1.2374 -0.2779
  572SOL     OW 3156   1.099   0.058   4.336 -0.1700  0.2508  0.0233
  572SOL    HW1 3157   1.157   0.013   4.397  1.0075  0.8979 -0.5754
  572SOL    HW2 3158   1.029   0.094   4.390  0.8905  0.8780  1.0089
  573SOL     OW 3159   0.311   1.366   4.253 -0.0160 -0.3073 -0.1366
  573SOL    HW1 3160   0.295   1.456   4.223  1.7746 -0.0880 -0.5488
  573SOL    HW2 3161   0.320   1.374   4.348 -1.4886 -0.3373  0.0301
  574SOL     OW 3162   1.980   0.325   4.019 -0.5752 -0.0988  0.5191
  574SOL    HW1 3163   1.990   0.414   4.054  0.3292  0.2576 -0.5717
  574SOL    HW2 3164   1.964   0.339   3.926 -1.1313 -1.0696  0.4650
  575SOL     OW 3165   1.368   0.836   5.085 -0.2155  0.5082  0.4885
  575SOL    HW1 3166   1.381   0.853   5.178  1.2890  0.5602  0.3043
  575SOL    HW2 3167   1.281   0.870   5.066 -0.1056  1.5236  1.6484
  576SOL     OW 3168   2.217   0.911   3.392 -0.3736  0.6888  0.4168
  576SOL    HW1 3169   2.208   0.816   3.402  2.4466  0.1896 -0.9148
  576SOL    HW2 3170   2.140   0.937   3.341 -0.3261 -1.1987 -0.7261
  577SOL     OW 3171   7.979   7.812   2.723  0.3816 -0.2962  0.3306
  577SOL    HW1 3172   8.022   7.882   2.672  0.8473 -0.9180 -0.1460
  577SOL    HW2 3173   8.046   7.784   2.785  0.1187 -0.1642  0.6720
  578SOL     OW 3174   7.009   0.345   4.042  0.1528 -0.0059 -0.0182
  578SOL    HW1 3175   6.926   0.326   3.999  0.3167 -0.2712 -0.2162
  578SOL    HW2 3176   7.014   0.441   4.040  0.8100 -0.0396 -1.8555
  579SOL     OW 3177   2.107   0.566   4.573 -0.1925 -0.3060 -0.2687
  579SOL    HW1 3178   2.012   0.556   4.569 -0.2705  0.4305 -0.3857
  579SOL    HW2 3179   2.136   0.492   4.626 -0.8838 -0.2470  0.2116
  580SOL     OW 3180   1.796   0.239   5.470  0.7463 -0.4022  0.3275
  580SOL    HW1 3181   1.874   0.292   5.489  0.6113 -0.2489  0.4537
  580SOL    HW2 3182   1.820   0.151   5.498  2.1952 -1.1655 -2.8258
  581SOL     OW 3183   1.381   2.777   4.428 -0.3975 -0.0783 -0.0520
  581SOL    HW1 3184   1.414   2.852   4.380 -0.1497  0.3631  0.7755
  581SOL    HW2 3185   1.289   2.770   4.404  0.5593 -2.4255 -3.8157
  582SOL     OW 3186   7.135   0.007   4.435  0.6149  0.1388 -0.7893
  582SOL    HW1 3187   7.192   0.072   4.475 -2.0212  2.1215  0.0270
  582SOL    HW2 3188   7.101   0.051   4.356 -1.2729 -0.1212 -0.1829
  583SOL     OW 3189   0.939   0.535   6.515 -0.3416  0.2233 -0.4781
  583SOL    HW1 3190   1.012   0.494   6.561 -1.4459 -1.9493 -0.5329
  583SOL    HW2 3191   0.981   0.593   6.451  1.2663  0.5928  0.8373
  584SOL     OW 3192   0.434   6.899   6.238  0.1300 -0.7638 -0.4245
  584SOL    HW1 3193   0.516   6.943   6.216  0.0351  0.1205  0.8655
  584SOL    HW2 3194   0.376   6.915   6.163  0.7868 -0.4763 -0.8722
  585SOL     OW 3195   7.627   6.458   7.059 -0.0989  0.1339  0.2457
  585SOL    HW1 3196   7.609   6.450   7.153  2.1704  2.7073  1.0219
  585SOL    HW2 3197   7.554   6.510   7.025 -0.4383  0.0193  0.7807
  586SOL     OW 3198   1.715   7.554   5.794  0.0396 -0.1256 -0.2108
  586SOL    HW1 3199   1.681   7.624   5.738 -0.1116 -1.8584 -2.3927
  586SOL    HW2 3200   1.696   7.473   5.747  1.4757 -1.5841  1.5401
  587SOL     OW 3201   7.970   7.802   4.378  0.3058 -0.1250 -0.2757
  587SOL    HW1 3202   7.971   7.885   4.425  2.0790 -0.0558 -0.3799
  587SOL    HW2 3203   7.974   7.735   4.446  0.9200 -0.0629 -0.2421
  588SOL     OW 3204   0.154   7.335   4.796 -0.3350 -0.3530 -0.7270
  588SOL    HW1 3205   0.178   7.427   4.807  0.7694 -0.6410 -0.5390
  588SOL    HW2 3206   0.149   7.300   4.885 -1.7962 -0.2458 -0.7448
  589SOL     OW 3207   7.179   7.726   4.410  0.0666 -0.7505 -0.4816
  589SOL    HW1 3208   7.151   7.816   4.398  0.0011 -0.7982 -0.6980
  589SOL    HW2 3209   7.255   7.731   4.468 -1.8516 -0.7998  2.2259
  590SOL     OW 3210   0.211   1.557   8.258  0.3161  0.0033 -0.0386
  590SOL    HW1 3211   0.248   1.644   8.247 -0.6524  0.3214 -0.9724
  590SOL    HW2 3212   0.153   1.545   8.183  0.5163 -1.5018  0.0020
  591SOL     OW 3213   7.134   0.912   2.381 -0.3205  0.1407  0.0298
  591SOL    HW1 3214   7.104   0.822   2.372 -0.0509  0.0854 -0.3803
  591SOL    HW2 3215   7.138   0.945   2.291  1.5379 -0.0966 -0.0142
  592SOL     OW 3216   7.972   7.588   4.548  0.6089 -0.1509 -0.0358
  592SOL    HW1 3217   7.941   7.518   4.491  1.4571 -0.6402  0.0929
  592SOL    HW2 3218   7.958   7.556   4.637 -1.1979  0.8218  0.0924
  593SOL     OW 3219   1.549   0.767   3.924  0.0830  0.2941  0.2568
  593SOL    HW1 3220   1.534   0.723   4.007  1.1832  1.0542  0.8948
  593SOL    HW2 3221   1.528   0.702   3.858  1.5378 -1.1672  1.1555
  594SOL     OW 3222   0.630   0.965   4.054 -0.0617 -0.5280 -0.9217
  594SOL    HW1 3223   0.573   0.925   4.120  0.5103  0.8291  0.4604
  594SOL    HW2 3224   0.606   1.058   4.055 -0.3543 -0.5389 -2.9980
  595SOL     OW 3225   1.286   2.078   3.840 -0.4799 -0.1439  0.4354
  595SOL    HW1 3226   1.321   2.162   3.812  1.4392 -1.3278 -1.0536
  595SOL    HW2 3227   1.262   2.090   3.931 -1.4852  2.3388 -0.0944
  596SOL     OW 3228   7.357   2.206   4.714 -0.6351  0.6100  0.1067
  596SOL    HW1 3229   7.364   2.291   4.755 -1.4936 -0.1555  1.9347
  596SOL    HW2 3230   7.417   2.210   4.639  0.0117  2.4750  0.6872
  597SOL     OW 3231   0.159   0.738   3.011  0.3900 -0.5136 -0.1391
  597SOL    HW1 3232   0.162   0.695   2.926 -0.3590 -0.9505  0.0487
  597SOL    HW2 3233   0.165   0.666   3.074 -1.0120 -0.3744  0.1772
  598SOL     OW 3234   1.836   0.832   4.137  0.6238 -0.3362 -0.1087
  598SOL    HW1 3235   1.885   0.827   4.218 -0.8424  0.2107  0.8621
  598SOL    HW2 3236   1.762   0.772   4.149 -0.0904  0.3945 -0.6709
  599SOL     OW 3237   1.088   0.478   3.524 -0.4911 -0.0934  0.3523
  599SOL    HW1 3238   1.011   0.432   3.556 -0.8148  0.9254  1.0926
  599SOL    HW2 3239   1.105   0.441   3.438 -0.6439 -1.6898  0.9770
  600SOL     OW 3240   0.893   0.159   4.507  0.5030  0.3385 -0.1431
  600SOL    HW1 3241   0.893   0.194   4.596 -0.1486 -2.5473  1.1430
  600SOL    HW2 3242   0.875   0.234   4.451 -0.2992  2.0626  2.2641
  601SOL     OW 3243   0.237   6.887   5.254  0.6335 -0.1046 -0.0304
  601SOL    HW1 3244   0.286   6.821   5.204 -0.7273 -0.6781 -0.6481
  601SOL    HW2 3245   0.179   6.928   5.189 -0.4046 -0.1193  0.8629
  602SOL     OW 3246   2.965   0.389   6.672 -0.1995 -0.0785 -0.2041
  602SOL    HW1 3247   2.904   0.358   6.604  1.7872 -0.5208 -1.8884
  602SOL    HW2 3248   2.972   0.483   6.656  1.2969 -0.3818 -1.5718
  603SOL     OW 3249   0.244   7.228   7.475  0.4812  0.4384 -0.5050
  603SOL    HW1 3250   0.266   7.316   7.505  0.7944  0.6237 -1.2630
  603SOL    HW2 3251   0.324   7.195   7.434  0.8481 -0.7852  1.0643
  604SOL     OW 3252   0.261   1.055   4.320  0.5119  0.6759  0.2338
  604SOL    HW1 3253   0.202   1.075   4.248  0.0144 -0.9751  0.1274
  604SOL    HW2 3254   0.206   1.060   4.399  0.1404 -0.9805  0.1230
  605SOL     OW 3255   7.229   3.899   5.752  0.2701 -0.6674  0.2266
  605SOL    HW1 3256   7.232   3.987   5.790 -0.5175 -0.6052  0.1611
  605SOL    HW2 3257   7.294   3.849   5.801  0.5787 -0.1035  0.4040
  606SOL     OW 3258   0.288   1.393   3.441 -0.1800 -0.1646 -0.0378
  606SOL    HW1 3259   0.215   1.442   3.404 -0.3502  1.0924  1.8069
  606SOL    HW2 3260   0.289   1.417   3.534  2.7362  0.0949 -0.0177
  607SOL     OW 3261   0.780   0.009   3.661 -0.3427 -0.4077  0.4498
  607SOL    HW1 3262   0.744   0.001   3.749  0.3831 -0.6605  0.7337
  607SOL    HW2 3263   0.756   0.098   3.634 -0.6420 -0.3570  0.8666
  608SOL     OW 3264   7.856   0.583   6.808  0.0882 -0.1990  0.5459
  608SOL    HW1 3265   7.870   0.519   6.878 -2.3917 -0.1015  1.2302
  608SOL    HW2 3266   7.931   0.642   6.814  0.2976 -0.6100  2.6560
  609SOL     OW 3267   7.479   7.671   4.107  0.1426  0.1531  0.1885
  609SOL    HW1 3268   7.531   7.744   4.141  1.2340 -0.2648 -0.5299
  609SOL    HW2 3269   7.470   7.689   4.014 -1.7733  0.6562  0.4353
  610SOL     OW 3270   7.023   7.033   5.915 -0.1452 -0.3925 -0.1929
  610SOL    HW1 3271   7.096   7.005   5.859 -0.1769 -0.5683 -0.1487
  610SOL    HW2 3272   6.959   7.070   5.854  0.0313 -0.1306 -0.2193
  611SOL     OW 3273   1.907   7.728   3.444 -0.0815 -1.4513  0.0403
  611SOL    HW1 3274   1.963   7.706   3.519 -0.4914 -1.1030  0.4599
  611SOL    HW2 3275   1.933   7.668   3.375  0.0477 -2.0301  0.5917
  612SOL     OW 3276   2.451   7.851   5.996  0.1302 -0.2403 -0.2854
  612SOL    HW1 3277   2.403   7.909   5.937 -0.9075 -0.5487  0.2233
  612SOL    HW2 3278   2.539   7.888   6.001  0.1261  0.0152 -1.7073
  613SOL     OW 3279   6.765   1.506   5.059  0.2513  0.1719  0.1558
  613SOL    HW1 3280   6.717   1.443   5.006  1.2263 -0.4881  0.0200
  613SOL    HW2 3281   6.777   1.582   5.003 -0.1701  0.1310  0.0117
  614SOL     OW 3282   0.982   0.572   4.390 -0.2209  0.7964  0.3364
  614SOL    HW1 3283   1.074   0.594   4.403 -0.1280  0.5606  0.0797
  614SOL    HW2 3284   0.957   0.619   4.311  0.5252 -1.5412 -1.4112
  615SOL     OW 3285   1.426   1.449   6.342 -0.0171  0.0970 -0.2519
  615SOL    HW1 3286   1.384   1.363   6.348  0.6288 -0.1469  1.2131
  615SOL    HW2 3287   1.439   1.475   6.433  0.1142  1.6028 -0.6805
  616SOL     OW 3288   2.824   0.271   3.142  0.5594 -0.5970 -0.0355
  616SOL    HW1 3289   2.864   0.358   3.146 -1.0708  0.2799 -1.5023
  616SOL    HW2 3290   2.869   0.221   3.210  1.3107  1.4854  1.0891
  617SOL     OW 3291   0.324   3.674   3.624 -0.1714 -0.2021 -0.0241
  617SOL    HW1 3292   0.232   3.671   3.596  0.1806  3.0638 -2.0825
  617SOL    HW2 3293   0.325   3.736   3.697  0.3950 -0.2079 -0.0245
  618SOL     OW 3294   0.017   6.881   4.378 -0.0280 -0.6136  0.6416
  618SOL    HW1 3295  -0.043   6.884   4.453 -2.1683  1.4383 -0.9849
  618SOL    HW2 3296   0.100   6.915   4.413 -1.2000  1.1270  1.9379
  619SOL     OW 3297   0.575   0.706   3.854 -0.0294 -0.1196  0.3606
  619SOL    HW1 3298   0.520   0.628   3.852 -0.9272  0.4950 -1.8299
  619SOL    HW2 3299   0.540   0.758   3.926 -0.2276 -1.1435  1.0302
  620SOL     OW 3300   0.339   1.034   3.428 -0.4636  0.3138 -0.0026
  620SOL    HW1 3301   0.314   1.082   3.506 -1.4346  0.5630 -0.4515
  620SOL    HW2 3302   0.276   1.061   3.361  0.9724  0.9111 -1.1852
  621SOL     OW 3303   0.807   7.951   6.095 -0.3363 -0.0820  0.3101
  621SOL    HW1 3304   0.881   7.931   6.153  1.4421  0.0896 -1.7993
  621SOL    HW2 3305   0.823   8.041   6.066 -0.7377 -0.4311 -1.0523
  622SOL     OW 3306   7.508   0.908   5.148  0.5324  0.4443 -0.3919
  622SOL    HW1 3307   7.484   0.994   5.114  2.5394  0.9176 -0.6899
  622SOL    HW2 3308   7.550   0.926   5.232  0.7617 -0.2724 -0.3447
  623SOL     OW 3309   0.871   1.340   7.856 -0.0764  0.4292 -0.3917
  623SOL    HW1 3310   0.898   1.260   7.809  1.3162  0.4319  0.3329
  623SOL    HW2 3311   0.807   1.309   7.920 -0.0584 -0.0007 -0.5740
  624SOL     OW 3312   1.411   0.200   6.079  0.0140  0.6614  0.2897
  624SOL    HW1 3313   1.474   0.229   6.013 -0.8225 -1.1890 -1.4223
  624SOL    HW2 3314   1.453   0.125   6.120 -0.4976  0.2531  0.0766
  625SOL     OW 3315   1.665   1.529   2.236  0.7880 -0.1632 -0.2215
  625SOL    HW1 3316   1.612   1.484   2.170  0.7583 -2.2679  1.1379
  625SOL    HW2 3317   1.613   1.523   2.316  1.5856  0.7873  0.3761
  626SOL     OW 3318   0.979   0.200   5.083 -0.7112  0.5879 -0.6207
  626SOL    HW1 3319   0.999   0.271   5.144 -0.5175 -1.4118  1.8010
  626SOL    HW2 3320   0.916   0.238   5.022 -1.9232  2.3950  1.5935
  627SOL     OW 3321   1.966   2.410   3.560  0.0126  0.4142  0.5821
  627SOL    HW1 3322   2.036   2.445   3.506 -0.1920  1.3928  0.9414
  627SOL    HW2 3323   1.886   2.440   3.517 -0.1546  2.2662  2.0671
  628SOL     OW 3324   7.205   0.326   4.366 -0.1275  0.3758  0.0639
  628SOL    HW1 3325   7.280   0.326   4.306  1.7126  0.6205  2.2081
  628SOL    HW2 3326   7.128   0.321   4.309  1.4993  0.1200 -2.2541
  629SOL     OW 3327   0.779   2.075   4.250 -0.2147 -0.3565 -0.2962
  629SOL    HW1 3328   0.748   2.159   4.283 -0.1570 -0.3487 -0.2640
  629SOL    HW2 3329   0.762   2.079   4.155  0.6647  0.0705 -0.4471
  630SOL     OW 3330   2.368   0.051   3.427 -0.0354  0.3851  0.7594
  630SOL    HW1 3331   2.376  -0.027   3.373 -0.7330  0.9563 -0.1876
  630SOL    HW2 3332   2.355   0.123   3.365  0.1804  1.2025  1.6306
  631SOL     OW 3333   7.962   0.843   5.560  0.3158  0.0206  0.2679
  631SOL    HW1 3334   7.924   0.767   5.515 -0.6882  0.1608  0.8309
  631SOL    HW2 3335   7.887   0.884   5.604  0.8817  1.2154  0.1546
  632SOL     OW 3336   0.099   0.937   6.099 -0.1817  0.1189 -0.0209
  632SOL    HW1 3337   0.176   0.889   6.128  0.1136  0.3726 -0.3760
  632SOL    HW2 3338   0.113   0.949   6.005 -1.0679 -0.6058 -0.2626
  633SOL     OW 3339   7.897   0.730   3.935  0.0263 -0.2818 -0.2730
  633SOL    HW1 3340   7.895   0.785   4.013 -0.2815 -0.8918  0.1551
  633SOL    HW2 3341   7.840   0.775   3.873 -0.8731 -0.5213  0.3566
  634SOL     OW 3342   1.197   0.768   4.100  0.3281 -0.4202 -0.4059
  634SOL    HW1 3343   1.113   0.724   4.112 -1.3254  2.4931 -0.4124
  634SOL    HW2 3344   1.238   0.763   4.187 -0.3443 -0.9190 -0.1016
  635SOL     OW 3345   2.192   0.552   3.501  0.1188  1.1326 -0.1377
  635SOL    HW1 3346   2.227   0.610   3.568  0.7592  0.2031  0.3464
  635SOL    HW2 3347   2.100   0.539   3.526  1.0040 -1.4005  2.1925
  636SOL     OW 3348   2.742   2.522   4.149 -0.1460 -0.3221  0.5312
  636SOL    HW1 3349   2.668   2.581   4.133  0.7126  0.5333 -0.3844
  636SOL    HW2 3350   2.704   2.449   4.198 -1.0978  1.3879  2.5201
  637SOL     OW 3351   7.747   1.511   6.929 -0.0518 -0.2588  0.5894
  637SOL    HW1 3352   7.666   1.484   6.885  0.1906  0.1704 -0.1241
  637SOL    HW2 3353   7.817   1.468   6.880  0.5482  3.2052 -1.9710
  638SOL     OW 3354   1.890   1.263   6.336 -0.3917  0.3036  0.4742
  638SOL    HW1 3355   1.822   1.330   6.330 -1.6010 -1.0392 -1.9478
  638SOL    HW2 3356   1.940   1.271   6.255 -0.5741 -1.7086  0.1215
  639SOL     OW 3357   0.816   0.947   3.694 -0.1504  0.0462  0.0115
  639SOL    HW1 3358   0.737   0.909   3.656  0.3829  0.1360 -1.2358
  639SOL    HW2 3359   0.834   1.023   3.640  1.0231 -0.2186  0.0140
  640SOL     OW 3360   0.035   0.243   4.627 -0.3520 -0.1779 -0.3068
  640SOL    HW1 3361   0.114   0.188   4.635  0.2312  0.5604 -0.8371
  640SOL    HW2 3362   0.067   0.325   4.590 -1.4116  0.0575 -0.7351
  641SOL     OW 3363   0.755   7.635   4.946  0.2783  0.3662  0.4786
  641SOL    HW1 3364   0.706   7.637   4.864  0.6089 -0.4635  0.2519
  641SOL    HW2 3365   0.702   7.687   5.007 -1.5164 -1.5061  0.5865
  642SOL     OW 3366   1.241   1.136   5.688 -0.4129  0.0792  0.3726
  642SOL    HW1 3367   1.333   1.128   5.664 -1.2354 -3.0215 -2.4607
  642SOL    HW2 3368   1.229   1.229   5.707  3.0719  0.7353 -0.0084
  643SOL     OW 3369   5.666   6.147   4.561  0.0776 -0.5990  0.9966
  643SOL    HW1 3370   5.726   6.209   4.520 -0.4808 -0.5814  0.2006
  643SOL    HW2 3371   5.597   6.202   4.600  1.0225 -0.5527  2.7180
  644SOL     OW 3372   1.102   1.833   4.861  0.1136 -0.3124  0.1261
  644SOL    HW1 3373   1.102   1.754   4.914  0.9969  0.5508  1.4673
  644SOL    HW2 3374   1.194   1.848   4.840  0.1010  0.9571  0.8532
  645SOL     OW 3375   1.064   7.978   5.823 -0.0447  0.1872  0.4657
  645SOL    HW1 3376   0.981   8.006   5.785 -0.0074 -0.2139  0.0796
  645SOL    HW2 3377   1.087   8.047   5.884 -1.0287 -0.0408  1.1166
  646SOL     OW 3378   7.559   1.309   4.281 -0.6498  0.2670  0.0560
  646SOL    HW1 3379   7.556   1.263   4.197  1.0531 -0.1014  0.1421
  646SOL    HW2 3380   7.503   1.258   4.339 -2.3907  0.9147 -1.0066
  647SOL     OW 3381   2.392   1.021   4.154 -0.0569  0.1696  0.6461
  647SOL    HW1 3382   2.317   1.003   4.211  0.4138 -0.6222  1.0382
  647SOL    HW2 3383   2.367   1.098   4.104  0.2175  2.0583  3.2210
  648SOL     OW 3384   7.573   7.548   3.506  0.9339 -0.4243  0.8388
  648SOL    HW1 3385   7.502   7.599   3.465  0.4470 -0.1826  1.9424
  648SOL    HW2 3386   7.584   7.473   3.449 -0.2789 -0.5083  0.6759
  649SOL     OW 3387   0.604   0.572   4.523  0.4587  0.2209 -0.3465
  649SOL    HW1 3388   0.557   0.641   4.569 -0.6824  0.4830 -1.8324
  649SOL    HW2 3389   0.695   0.581   4.551  0.8791  3.9612 -2.3202
  650SOL     OW 3390   0.391   2.838   3.898  0.1306 -0.2862 -0.1749
  650SOL    HW1 3391   0.480   2.875   3.897  0.5219 -1.0981  1.5193
  650SOL    HW2 3392   0.347   2.884   3.970 -0.1835 -1.2794  0.2824
  651SOL     OW 3393   1.289   2.920   4.070 -0.3981 -0.0366 -0.1102
  651SOL    HW1 3394   1.366   2.909   4.015 -0.2313  1.8301 -0.3127
  651SOL    HW2 3395   1.217   2.938   4.009 -0.8290 -0.9178  0.1249
  652SOL     OW 3396   7.887   7.363   4.395  0.3699  0.4430  0.1125
  652SOL    HW1 3397   7.969   7.327   4.428  0.8626  1.6421  0.2409
  652SOL    HW2 3398   7.911   7.414   4.318 -0.3928  0.0431 -0.4130
  653SOL     OW 3399   1.649   1.225   4.444  0.6659  0.3308  0.7807
  653SOL    HW1 3400   1.625   1.304   4.394  1.3648  0.7509  1.0908
  653SOL    HW2 3401   1.602   1.154   4.400  0.2323  0.8831  0.3304
  654SOL     OW 3402   0.596   7.999   4.918 -0.6111 -0.0669 -0.1673
  654SOL    HW1 3403   0.677   8.033   4.958 -1.1361 -0.9110  1.7373
  654SOL    HW2 3404   0.544   8.077   4.900  1.0460  0.6236 -2.6308
  655SOL     OW 3405   1.058   0.767   3.743 -0.6254 -0.2544 -0.4574
  655SOL    HW1 3406   1.119   0.738   3.676 -1.3079  1.1298 -1.7374
  655SOL    HW2 3407   1.090   0.854   3.769 -1.7265  0.2729 -0.7819
  656SOL     OW 3408   0.847   7.736   3.594 -0.0902 -0.1871 -0.2808
  656SOL    HW1 3409   0.822   7.828   3.601  0.2669 -0.0283 -1.0029
  656SOL    HW2 3410   0.764   7.688   3.602 -0.2580  0.1828  0.2497
  657SOL     OW 3411   3.049   1.579   4.948  0.7379  0.0947 -0.3085
  657SOL    HW1 3412   3.017   1.668   4.964 -0.4860 -0.2649 -0.6776
  657SOL    HW2 3413   2.978   1.535   4.901  1.2741 -1.1235 -0.0299
  658SOL     OW 3414   0.960   0.762   5.314  0.0847 -0.3344 -0.6206
  658SOL    HW1 3415   0.926   0.711   5.241 -1.8593  0.6407 -0.4850
  658SOL    HW2 3416   0.928   0.851   5.298  0.2600  0.0647  1.0054
  659SOL     OW 3417   6.710   1.262   4.533 -0.0809  0.8234  0.0719
  659SOL    HW1 3418   6.769   1.333   4.509  1.1362  0.4359  1.8013
  659SOL    HW2 3419   6.765   1.197   4.574 -1.3278 -0.7458 -0.6344
  660SOL     OW 3420   2.747   1.185   3.686 -0.0930  0.5557  0.0482
  660SOL    HW1 3421   2.656   1.192   3.713 -0.1850  0.7215 -0.2940
  660SOL    HW2 3422   2.752   1.105   3.634  0.1369  0.1035  0.7525
  661SOL     OW 3423   7.804   1.225   5.027  0.0116  0.3544 -0.3225
  661SOL    HW1 3424   7.857   1.243   4.950  1.0113  0.8191  0.4474
  661SOL    HW2 3425   7.841   1.281   5.095 -0.5423 -0.4037  0.6301
  662SOL     OW 3426   1.634   0.964   2.629 -0.4205 -0.3293  0.2366
  662SOL    HW1 3427   1.632   1.034   2.694  0.8209  0.4072 -0.4837
  662SOL    HW2 3428   1.548   0.921   2.637 -1.4545  1.6318  0.3131
  663SOL     OW 3429   3.949   1.153   4.998  0.0852 -0.0500 -0.5288
  663SOL    HW1 3430   4.010   1.206   5.049 -0.5909 -0.2417  0.5343
  663SOL    HW2 3431   3.864   1.168   5.040 -0.7475  0.7589 -2.3948
  664SOL     OW 3432   7.347   6.994   6.174  0.4911 -0.4619 -0.3302
  664SOL    HW1 3433   7.278   7.053   6.205  1.6127  0.9970 -0.5029
  664SOL    HW2 3434   7.413   6.997   6.242  0.7400 -1.2257 -0.5318
  665SOL     OW 3435   1.585   3.055   3.219 -0.0205 -0.4576 -0.3988
  665SOL    HW1 3436   1.613   3.112   3.148 -1.1941 -0.1711 -0.6530
  665SOL    HW2 3437   1.643   2.979   3.215  0.3208 -0.1489 -1.2620
  666SOL     OW 3438   1.421   1.888   3.721  0.0409  0.4343  0.0471
  666SOL    HW1 3439   1.498   1.944   3.724 -0.0771  0.5756  2.0801
  666SOL    HW2 3440   1.351   1.941   3.760 -0.7742 -0.1311 -0.6142
  667SOL     OW 3441   2.162   0.634   6.543  0.2680  0.4151  0.2055
  667SOL    HW1 3442   2.067   0.645   6.547  0.1791 -0.3905  0.4969
  667SOL    HW2 3443   2.179   0.549   6.585  1.2116  1.0006  1.0683
  668SOL     OW 3444   7.278   0.547   3.354 -0.4239  0.2945 -0.2652
  668SOL    HW1 3445   7.267   0.481   3.422 -3.1365  1.0987  0.1928
  668SOL    HW2 3446   7.243   0.628   3.392  0.2622  1.3472 -1.7543
  669SOL     OW 3447   2.899   7.239   5.397  0.5728  0.3562  0.3886
  669SOL    HW1 3448   2.964   7.299   5.360  1.6085 -0.8881  0.1120
  669SOL    HW2 3449   2.822   7.250   5.341  0.8457  1.1994  0.1592
  670SOL     OW 3450   0.202   1.251   5.576 -0.2524 -0.2210  0.1417
  670SOL    HW1 3451   0.126   1.211   5.619  0.7365 -1.9938  0.3387
  670SOL    HW2 3452   0.190   1.230   5.483  0.2202 -0.9256  0.2331
  671SOL     OW 3453   1.781   0.694   2.905  0.2558 -0.3095  0.0519
  671SOL    HW1 3454   1.792   0.599   2.911  1.0412 -0.1742  1.4295
  671SOL    HW2 3455   1.818   0.717   2.820 -0.0900 -1.2510 -0.3713
  672SOL     OW 3456   2.144   0.214   4.807  0.0092 -0.3569 -0.1154
  672SOL    HW1 3457   2.070   0.257   4.851 -0.5327  0.0955 -1.4093
  672SOL    HW2 3458   2.213   0.280   4.807  0.1742 -0.5230  0.4511
  673SOL     OW 3459   1.356   0.377   4.147  0.2074  0.3624  0.6589
  673SOL    HW1 3460   1.318   0.465   4.144  3.3291  1.8815  1.0705
  673SOL    HW2 3461   1.382   0.365   4.239  1.5291 -0.1238  0.2543
  674SOL     OW 3462   0.627   1.752   2.854 -0.5708 -0.1020 -0.1468
  674SOL    HW1 3463   0.600   1.661   2.841 -2.1783  0.4215 -0.7012
  674SOL    HW2 3464   0.704   1.747   2.911 -1.1964 -1.7460  0.5987
  675SOL     OW 3465   1.787   1.480   6.625  0.5395 -0.3103 -0.4781
  675SOL    HW1 3466   1.869   1.431   6.629  0.6951  0.0144  0.7908
  675SOL    HW2 3467   1.729   1.437   6.688  0.0494  0.0172 -0.6946
  676SOL     OW 3468   0.866   4.900   5.012 -0.4442  0.2704  0.6966
  676SOL    HW1 3469   0.867   4.879   4.919  0.0205 -1.4048  1.0461
  676SOL    HW2 3470   0.945   4.952   5.026 -1.3188  1.8744 -0.0947
  677SOL     OW 3471   1.867   7.593   4.221 -0.3008  0.4624 -0.1882
  677SOL    HW1 3472   1.940   7.626   4.272 -0.4734 -0.7748  0.9185
  677SOL    HW2 3473   1.842   7.666   4.165  0.2870  1.6746  1.0665
  678SOL     OW 3474   3.156   7.175   5.101 -0.7533 -0.0164 -0.0681
  678SOL    HW1 3475   3.163   7.153   5.008 -1.2230 -1.6059  0.2289
  678SOL    HW2 3476   3.209   7.108   5.145 -1.7896 -0.2311  0.8959
  679SOL     OW 3477   0.367   2.902   2.676  0.2328 -0.8419  0.1135
  679SOL    HW1 3478   0.386   2.819   2.632 -1.0005 -1.1280  0.0776
  679SOL    HW2 3479   0.305   2.878   2.745  0.7419 -0.1156  0.8446
  680SOL     OW 3480   0.721   1.705   1.024 -0.0338 -0.2379 -0.5121
  680SOL    HW1 3481   0.796   1.688   1.080  0.7786  1.7189 -0.9248
  680SOL    HW2 3482   0.662   1.631   1.039  1.7948 -1.6280  0.0960
  681SOL     OW 3483   0.165   0.937   5.447  0.1775  0.5970 -0.6983
  681SOL    HW1 3484   0.138   1.029   5.450 -0.2175  0.4542  0.5233
  681SOL    HW2 3485   0.092   0.889   5.486  1.9393  0.1563  2.3245
  682SOL     OW 3486   7.597   0.675   5.056  0.3186  0.1079  0.4905
  682SOL    HW1 3487   7.568   0.765   5.074  0.5526  0.0693  1.0717
  682SOL    HW2 3488   7.660   0.656   5.125  0.6655 -0.3208  0.0608
  683SOL     OW 3489   0.365   0.773   3.189  0.2092 -0.1436  0.2822
  683SOL    HW1 3490   0.346   0.711   3.259 -1.9501 -0.0526 -0.1477
  683SOL    HW2 3491   0.279   0.800   3.157  1.1191  1.3804 -1.0354
  684SOL     OW 3492   1.211   0.849   5.356  0.2731 -0.1741  0.2854
  684SOL    HW1 3493   1.122   0.829   5.326  0.6574  0.8593 -1.6756
  684SOL    HW2 3494   1.205   0.841   5.452 -1.4743 -1.8039  0.1179
  685SOL     OW 3495   0.283   1.392   6.529 -0.4859  0.4820 -0.3012
  685SOL    HW1 3496   0.306   1.431   6.445 -0.8923  0.7150 -0.3043
  685SOL    HW2 3497   0.353   1.419   6.588  1.0026 -1.4722 -1.0538
  686SOL     OW 3498   1.631   0.921   4.361 -0.3700  0.2176 -0.1931
  686SOL    HW1 3499   1.652   0.949   4.271  0.9888 -0.8523 -0.2431
  686SOL    HW2 3500   1.703   0.862   4.385 -1.1777 -0.2124  1.2833
  687SOL     OW 3501   0.438   0.645   5.289 -0.0860 -0.5338 -0.2040
  687SOL    HW1 3502   0.439   0.573   5.226 -2.6362 -2.3217  1.5337
  687SOL    HW2 3503   0.391   0.716   5.245 -0.0803 -1.0069 -0.9823
  688SOL     OW 3504   7.299   1.984   6.618 -0.1379  0.0467 -0.0516
  688SOL    HW1 3505   7.223   1.984   6.676 -1.0962  1.6796 -1.2132
  688SOL    HW2 3506   7.364   1.931   6.664 -1.5261 -0.3663  1.5610
  689SOL     OW 3507   6.652   1.812   6.114  0.6876  0.0126 -0.2106
  689SOL    HW1 3508   6.644   1.907   6.121  0.1660  0.0545 -1.2295
  689SOL    HW2 3509   6.746   1.797   6.107  0.7104  0.5408 -1.1305
  690SOL     OW 3510   3.210   1.140   6.550 -0.5851 -0.6428 -0.3198
  690SOL    HW1 3511   3.218   1.114   6.642 -1.2276 -0.3570 -0.1714
  690SOL    HW2 3512   3.134   1.091   6.518  0.3310 -1.6274 -1.0371
  691SOL     OW 3513   7.742   0.750   6.449  0.0611 -0.2614 -0.2002
  691SOL    HW1 3514   7.832   0.764   6.478 -0.2476  0.6083  0.4185
  691SOL    HW2 3515   7.697   0.832   6.471 -0.6825 -0.3466 -1.3009
  692SOL     OW 3516   0.994   2.640   4.014  0.0162 -0.4165 -0.2248
  692SOL    HW1 3517   0.925   2.696   4.051 -0.9749 -1.6342 -0.1587
  692SOL    HW2 3518   0.979   2.643   3.920 -0.5422 -1.1657 -0.1720
  693SOL     OW 3519   1.750   2.408   7.675  0.4427  0.5953  0.0736
  693SOL    HW1 3520   1.715   2.474   7.615 -0.7063 -0.2879 -0.2679
  693SOL    HW2 3521   1.673   2.361   7.706  1.2331 -0.5406  0.3683
  694SOL     OW 3522   1.454   7.212   6.973 -0.0780  0.3324 -0.1312
  694SOL    HW1 3523   1.407   7.237   7.052 -0.2276 -1.4942  0.4187
  694SOL    HW2 3524   1.516   7.145   7.003  0.9381  0.7105 -1.3171
  695SOL     OW 3525   2.531   0.057   6.628 -0.7548  0.1287 -0.2206
  695SOL    HW1 3526   2.619   0.022   6.618 -0.9199 -0.3404 -0.0648
  695SOL    HW2 3527   2.473  -0.017   6.608 -1.1188 -0.3130  2.1296
  696SOL     OW 3528   0.376   0.978   5.853  0.0630 -0.2630 -0.4770
  696SOL    HW1 3529   0.339   0.911   5.796 -1.0954 -1.2947  1.3969
  696SOL    HW2 3530   0.468   0.952   5.863  0.5151  0.4202 -2.4954
  697SOL     OW 3531   1.388   0.358   6.860 -0.2602 -0.0523  0.1407
  697SOL    HW1 3532   1.449   0.419   6.902  0.0241 -0.8347  0.8816
  697SOL    HW2 3533   1.425   0.343   6.774 -0.7991  1.5060 -0.4069
  698SOL     OW 3534   7.948   0.222   4.893 -0.1710  0.1258 -0.1451
  698SOL    HW1 3535   7.917   0.290   4.952 -1.9512  0.5675 -1.5149
  698SOL    HW2 3536   7.945   0.262   4.806 -0.9866 -1.5674 -0.9444
  699SOL     OW 3537   7.813   0.901   7.228 -0.1323 -0.1458  0.4271
  699SOL    HW1 3538   7.836   0.927   7.139 -1.3687  0.8904  0.3852
  699SOL    HW2 3539   7.733   0.950   7.247  0.7224  0.5264  2.5356
  700SOL     OW 3540   6.278   1.289   5.600  0.1147 -0.5621  0.2835
  700SOL    HW1 3541   6.218   1.349   5.644  0.5327 -0.9439  1.4326
  700SOL    HW2 3542   6.239   1.273   5.514 -0.4402  0.6638  0.2954
  701SOL     OW 3543   7.272   0.736   5.880 -0.2130 -0.0032  0.3991
  701SOL    HW1 3544   7.263   0.783   5.797  0.3175 -0.1680  0.2454
  701SOL    HW2 3545   7.200   0.673   5.879 -0.0317 -0.2058 -0.0708
  702SOL     OW 3546   1.413   6.729   6.805  0.1241 -0.1453 -0.2696
  702SOL    HW1 3547   1.353   6.673   6.853 -2.2108  1.5673 -0.9472
  702SOL    HW2 3548   1.461   6.670   6.748 -1.0583 -1.6250  0.1959
  703SOL     OW 3549   7.386   6.558   5.461 -0.2230 -0.0391  0.0252
  703SOL    HW1 3550   7.430   6.562   5.376  1.0402 -0.0205  0.6605
  703SOL    HW2 3551   7.322   6.487   5.452 -1.5055  1.2198 -1.5502
  704SOL     OW 3552   0.243   0.422   5.760  0.6569 -0.1853  0.2682
  704SOL    HW1 3553   0.257   0.465   5.845 -1.6082  0.4839  0.3841
  704SOL    HW2 3554   0.263   0.490   5.696  0.7904 -0.1689  0.3268
  705SOL     OW 3555   7.764   2.234   5.178  0.5207 -0.3543 -0.1681
  705SOL    HW1 3556   7.853   2.211   5.151  0.8966  0.5824  0.2107
  705SOL    HW2 3557   7.762   2.330   5.171  0.7782  0.0444  3.3758
  706SOL     OW 3558   2.533   3.012   5.284  0.1473  0.4314  0.0153
  706SOL    HW1 3559   2.445   3.050   5.286  0.3434  0.9036  1.7754
  706SOL    HW2 3560   2.569   3.038   5.199 -0.6104  2.1602  0.1818
  707SOL     OW 3561   2.008   7.951   5.245  0.1327 -0.5089  0.6228
  707SOL    HW1 3562   2.091   7.997   5.232  0.5393 -1.1764  0.7778
  707SOL    HW2 3563   1.976   7.936   5.156 -0.1819  0.3807  0.5832
  708SOL     OW 3564   1.754   2.213   6.970  0.3579 -0.0720 -0.0929
  708SOL    HW1 3565   1.812   2.155   7.020  1.6257 -1.2616 -2.7561
  708SOL    HW2 3566   1.703   2.155   6.914  1.5077  1.2317 -2.7046
  709SOL     OW 3567   0.474   2.202   4.412 -0.1517 -0.0819 -0.3510
  709SOL    HW1 3568   0.558   2.246   4.403  0.7370 -0.9897  2.5812
  709SOL    HW2 3569   0.416   2.269   4.449 -0.1276 -0.0734 -0.3289
  710SOL     OW 3570   1.238   2.645   8.802 -0.3837 -0.0945  0.1204
  710SOL    HW1 3571   1.213   2.606   8.719 -1.2761  1.9115 -0.6270
  710SOL    HW2 3572   1.265   2.734   8.779 -1.3989  0.7692  2.0359
  711SOL     OW 3573   0.254   1.994   7.377 -0.1551  0.2649  0.3151
  711SOL    HW1 3574   0.297   1.970   7.295 -0.1703 -0.7638  0.5964
  711SOL    HW2 3575   0.280   1.926   7.439 -1.1873  0.3066  0.8181
  712SOL     OW 3576   0.360   1.400   8.824 -0.0184 -0.2711 -0.3579
  712SOL    HW1 3577   0.405   1.430   8.745  2.5551 -2.7103  0.0343
  712SOL    HW2 3578   0.400   1.450   8.895  0.1100 -0.4685 -0.2886
  713SOL     OW 3579   0.715   0.664   6.591  0.2222 -0.1827 -0.5531
  713SOL    HW1 3580   0.802   0.625   6.586 -0.0539 -0.6561 -2.2213
  713SOL    HW2 3581   0.659   0.604   6.542 -0.6620  1.0886 -1.1552
  714SOL     OW 3582   3.564   1.442   7.371 -0.3801  0.2306  0.6971
  714SOL    HW1 3583   3.658   1.427   7.368 -0.4850 -0.3714 -1.6285
  714SOL    HW2 3584   3.554   1.534   7.346 -0.4577 -0.2954 -1.3929
  715SOL     OW 3585   7.377   1.506   6.235  0.6084  0.1822  0.3436
  715SOL    HW1 3586   7.438   1.446   6.193  0.5432 -0.5219  1.2419
  715SOL    HW2 3587   7.423   1.536   6.314  0.6621  1.3605 -0.1061
  716SOL     OW 3588   1.903   1.209   6.600  0.0669 -0.4305 -0.3314
  716SOL    HW1 3589   1.905   1.214   6.504  2.3181 -0.9285 -0.3713
  716SOL    HW2 3590   1.976   1.151   6.622  0.2006  0.4426  1.7346
  717SOL     OW 3591   7.576   2.031   5.802  0.3365 -0.6001 -0.0850
  717SOL    HW1 3592   7.496   2.082   5.815  1.0769  0.6415 -0.2506
  717SOL    HW2 3593   7.642   2.095   5.776  0.9546 -1.8507 -1.7966
  718SOL     OW 3594   7.561   1.190   6.995  0.0807 -0.0726 -0.1179
  718SOL    HW1 3595   7.588   1.132   6.923  1.6064  0.0476  0.3368
  718SOL    HW2 3596   7.551   1.276   6.954  0.6683 -0.0613 -0.2385
  719SOL     OW 3597   1.155   0.182   5.960 -0.0424 -0.2835  0.0751
  719SOL    HW1 3598   1.246   0.181   5.989  0.1115 -0.3051 -0.3988
  719SOL    HW2 3599   1.104   0.196   6.040  0.2770 -1.8932  0.5867
  720SOL     OW 3600   0.886   7.897   4.866  0.6974 -0.4219  0.0075
  720SOL    HW1 3601   0.861   7.919   4.956 -0.4905 -2.4817  0.2292
  720SOL    HW2 3602   0.885   7.802   4.863  1.1892 -0.4010 -2.0769
  721SOL     OW 3603   7.947   2.156   7.978 -0.0647  0.2813  0.0315
  721SOL    HW1 3604   8.036   2.180   8.000 -0.1564  0.1113  0.5954
  721SOL    HW2 3605   7.949   2.142   7.883  0.5406  0.1216  0.0634
  722SOL     OW 3606   1.678   0.010   4.958 -0.0521 -0.0608 -0.2155
  722SOL    HW1 3607   1.696   0.101   4.981  1.6538 -0.4003 -0.0462
  722SOL    HW2 3608   1.601   0.014   4.901 -0.5096  1.3942  0.4545
  723SOL     OW 3609   7.435   0.845   7.705  0.0600 -0.1934  0.0050
  723SOL    HW1 3610   7.531   0.844   7.708  0.0530 -1.3969  0.6780
  723SOL    HW2 3611   7.413   0.924   7.656  1.4386 -0.8091 -1.7467
  724SOL     OW 3612   3.850   7.848   7.414  0.1274 -0.3301  0.0526
  724SOL    HW1 3613   3.777   7.818   7.359  0.6103 -1.5073  0.0328
  724SOL    HW2 3614   3.851   7.943   7.402 -0.9140 -0.3787 -0.5551
  725SOL     OW 3615   1.844   7.923   6.921 -0.2101  0.2750  0.0398
  725SOL    HW1 3616   1.884   7.930   6.834  1.5958  0.5694  0.8463
  725SOL    HW2 3617   1.873   7.838   6.954 -2.3249 -0.6430 -0.2734
  726SOL     OW 3618   0.213   0.912   7.730  0.0181  0.2019 -0.3659
  726SOL    HW1 3619   0.303   0.941   7.713  0.4364 -1.3026 -0.8836
  726SOL    HW2 3620   0.169   0.920   7.646  0.0394 -0.3187 -0.4276
  727SOL     OW 3621   7.438   0.206   6.425 -0.2418 -0.1543 -0.0504
  727SOL    HW1 3622   7.388   0.288   6.429  0.3735  0.2025  0.7810
  727SOL    HW2 3623   7.397   0.156   6.354 -0.3454  1.0607 -0.8859
  728SOL     OW 3624   2.185   1.214   7.746  0.1664 -0.3872 -0.1771
  728SOL    HW1 3625   2.272   1.200   7.784  0.0523  1.3203  0.8151
  728SOL    HW2 3626   2.128   1.229   7.821 -0.7723 -0.3916 -0.8705
  729SOL     OW 3627   7.417   0.473   7.287  0.3491  0.0681 -0.0418
  729SOL    HW1 3628   7.446   0.559   7.318 -0.8798 -0.0331  1.5403
  729SOL    HW2 3629   7.339   0.454   7.339 -0.9117 -0.8848 -2.1481
  730SOL     OW 3630   7.181   0.913   8.324 -0.7479 -0.4924 -0.2294
  730SOL    HW1 3631   7.223   0.835   8.288 -1.3067 -1.2155  0.6467
  730SOL    HW2 3632   7.254   0.969   8.352 -0.3454 -1.1520  0.0755
  731SOL     OW 3633   6.324   2.625   7.818  0.3235  0.0611  0.4061
  731SOL    HW1 3634   6.407   2.662   7.791  0.9328 -1.1255  0.5697
  731SOL    HW2 3635   6.320   2.640   7.913  0.7846 -0.6626  0.5503
  732SOL     OW 3636   6.833   1.489   4.518 -0.5017 -0.0352  0.2977
  732SOL    HW1 3637   6.877   1.511   4.436 -1.2063 -0.8084 -0.3097
  732SOL    HW2 3638   6.899   1.443   4.570  0.2919  1.4518  0.6456
  733SOL     OW 3639   2.240   6.750   4.753 -0.4724  0.5424  0.5310
  733SOL    HW1 3640   2.324   6.703   4.748 -0.4393  0.7124 -0.9020
  733SOL    HW2 3641   2.265   6.841   4.770 -0.3276  0.7068 -0.5477
  734SOL     OW 3642   0.048   1.965   8.318  0.2621  0.2606 -0.2748
  734SOL    HW1 3643   0.079   2.002   8.400 -0.9640 -2.8434  1.7606
  734SOL    HW2 3644   0.121   1.913   8.285 -0.5644 -1.9245  1.1784
  735SOL     OW 3645   7.625   2.209   6.366 -0.6487  0.1369  0.5169
  735SOL    HW1 3646   7.708   2.228   6.321 -1.1666 -0.6202 -0.8239
  735SOL    HW2 3647   7.643   2.130   6.416 -0.2580  0.5987  1.1197
  736SOL     OW 3648   1.838   7.795   6.225  0.5033 -0.2503  0.0563
  736SOL    HW1 3649   1.787   7.744   6.288  0.8763 -0.2983  0.3256
  736SOL    HW2 3650   1.908   7.736   6.198  1.7030  0.5115  1.3359
  737SOL     OW 3651   1.097   0.647   7.782 -0.3995 -0.6985 -0.1167
  737SOL    HW1 3652   1.183   0.670   7.816 -1.1238  0.6499  0.9221
  737SOL    HW2 3653   1.114   0.580   7.717  1.2551 -1.9121  1.4668
  738SOL     OW 3654   0.896   1.517   6.511  0.3728  0.0882  0.3028
  738SOL    HW1 3655   0.831   1.586   6.510 -0.1854 -0.4355 -0.2665
  738SOL    HW2 3656   0.944   1.527   6.429  0.2108 -0.2724  0.1624
  739SOL     OW 3657   0.473   1.699   6.636 -0.6320  0.4368 -0.1700
  739SOL    HW1 3658   0.567   1.714   6.640 -0.2097 -1.7785 -0.1465
  739SOL    HW2 3659   0.437   1.778   6.596  1.3789  0.7926 -1.4146
  740SOL     OW 3660   1.140   0.590   6.163 -0.0831 -0.3985  0.7090
  740SOL    HW1 3661   1.067   0.557   6.109  0.3652 -0.3166  0.0374
  740SOL    HW2 3662   1.204   0.621   6.099  0.6070 -0.6119  1.2933
  741SOL     OW 3663   0.443   0.215   4.874  0.4065 -0.1744 -0.1158
  741SOL    HW1 3664   0.472   0.225   4.783  1.7332 -0.6589  0.2384
  741SOL    HW2 3665   0.355   0.179   4.867  1.5895 -3.1155 -1.2215
  742SOL     OW 3666   2.148   5.362   6.759 -0.0451  0.4558  0.3524
  742SOL    HW1 3667   2.122   5.291   6.700 -3.1364  0.5785  1.3861
  742SOL    HW2 3668   2.072   5.420   6.762  0.8402  1.6230  2.7510
  743SOL     OW 3669   6.775   1.954   6.488  0.1137  0.2885 -0.4256
  743SOL    HW1 3670   6.700   2.009   6.464 -0.0219  0.2856 -0.0183
  743SOL    HW2 3671   6.806   1.991   6.571  0.1662 -0.1033 -0.2679
  744SOL     OW 3672   1.006   2.967   6.916  0.6106  1.0383  0.1455
  744SOL    HW1 3673   1.018   3.055   6.951 -0.2749  1.4175 -0.4834
  744SOL    HW2 3674   0.911   2.957   6.906  0.6486 -0.2734  0.9281
  745SOL     OW 3675   6.207   1.350   4.571  0.0890  0.3498 -0.2575
  745SOL    HW1 3676   6.150   1.297   4.515 -2.3277  1.5799  0.9149
  745SOL    HW2 3677   6.294   1.338   4.534 -0.9179 -1.5041 -2.2367
  746SOL     OW 3678   0.143   7.722   6.505  0.1895  0.0797 -0.5232
  746SOL    HW1 3679   0.104   7.732   6.592 -0.1373  1.1667 -0.7794
  746SOL    HW2 3680   0.223   7.774   6.509  0.8477 -0.9076 -0.4817
  747SOL     OW 3681   7.560   1.160   5.000 -0.0206 -0.0389  0.6089
  747SOL    HW1 3682   7.554   1.218   5.076 -0.3089  1.8459 -0.7645
  747SOL    HW2 3683   7.653   1.157   4.979  0.0448 -0.4507  0.9656
  748SOL     OW 3684   0.745   1.219   5.402  0.0669 -0.2172  0.3190
  748SOL    HW1 3685   0.763   1.271   5.324 -0.0945 -1.9783 -0.9547
  748SOL    HW2 3686   0.670   1.260   5.443 -0.4857  0.1511 -1.0325
  749SOL     OW 3687   1.459   1.815   8.749  0.3115 -0.5389 -0.4476
  749SOL    HW1 3688   1.539   1.855   8.716  0.3293 -1.5235 -1.6765
  749SOL    HW2 3689   1.388   1.864   8.705  0.3101 -1.1219 -1.1171
  750SOL     OW 3690   0.757   3.540   7.005 -0.0692  0.7988 -0.2678
  750SOL    HW1 3691   0.813   3.618   7.006  1.7833 -0.4554 -0.1966
  750SOL    HW2 3692   0.677   3.568   6.961 -0.1216  3.1497  1.1546
  751SOL     OW 3693   0.985   2.485   3.497  0.0909 -0.0448 -0.1723
  751SOL    HW1 3694   0.937   2.563   3.472  0.6766  0.6155  0.7186
  751SOL    HW2 3695   0.973   2.478   3.592  1.1812 -0.2493 -0.0335
  752SOL     OW 3696   0.348   1.855   6.160  0.3654 -0.1591  0.0180
  752SOL    HW1 3697   0.291   1.885   6.089 -0.1051  1.9708  1.2227
  752SOL    HW2 3698   0.363   1.762   6.141 -1.9906 -0.3359 -1.3380
  753SOL     OW 3699   0.319   6.859   7.558 -0.6027  0.0496  0.3006
  753SOL    HW1 3700   0.403   6.876   7.599 -1.0723  0.1671  1.2389
  753SOL    HW2 3701   0.315   6.764   7.548 -0.0830  0.0935 -0.3607
  754SOL     OW 3702   7.092   6.907   5.629  0.0179 -0.1807  0.2591
  754SOL    HW1 3703   6.999   6.926   5.641 -0.1753 -0.7728 -0.2665
  754SOL    HW2 3704   7.103   6.899   5.534  1.0756  2.2071  0.1135
  755SOL     OW 3705   0.358   7.381   4.436 -0.0037  0.1567 -0.3025
  755SOL    HW1 3706   0.369   7.412   4.526 -0.1744  0.8976 -0.5301
  755SOL    HW2 3707   0.435   7.414   4.390  0.5458 -0.9857 -0.2408
  756SOL     OW 3708   0.289   0.597   5.537  0.0927  0.5488  0.1127
  756SOL    HW1 3709   0.306   0.688   5.563  0.6368  0.3208  0.5588
  756SOL    HW2 3710   0.306   0.595   5.443  0.6584  0.7669  0.2107
  757SOL     OW 3711   1.536   2.877   7.407 -0.3331  0.7147 -0.2540
  757SOL    HW1 3712   1.494   2.884   7.321 -1.4291  0.6087  0.2580
  757SOL    HW2 3713   1.627   2.854   7.387 -0.9695 -1.0321 -1.3503
  758SOL     OW 3714   7.522   2.553   8.367 -0.2219  0.0257  0.2032
  758SOL    HW1 3715   7.430   2.581   8.370  0.4035  2.2280  0.6159
  758SOL    HW2 3716   7.570   2.632   8.341  1.7267 -0.6606  1.5345
  759SOL     OW 3717   1.296   1.668   5.476 -0.5211  0.6922 -0.4785
  759SOL    HW1 3718   1.274   1.709   5.392 -0.3553  0.9624 -0.3911
  759SOL    HW2 3719   1.332   1.739   5.529  0.0945  0.3642 -0.4481
  760SOL     OW 3720   0.477   2.704   7.056  0.4336  0.1669  0.4486
  760SOL    HW1 3721   0.534   2.664   6.991  0.4154 -1.7299  1.5397
  760SOL    HW2 3722   0.388   2.690   7.023  0.3540 -1.9177  1.4180
  761SOL     OW 3723   2.066   7.838   5.924  0.1938  0.2488 -0.0594
  761SOL    HW1 3724   2.043   7.855   5.833 -0.1532  2.6036  0.4039
  761SOL    HW2 3725   2.104   7.750   5.923  0.5056  0.3426 -2.5102
  762SOL     OW 3726   6.582   1.664   5.440 -0.6033  0.2590  0.0716
  762SOL    HW1 3727   6.641   1.620   5.502 -0.3817 -0.2076 -0.4684
  762SOL    HW2 3728   6.593   1.617   5.358 -1.6628  0.2321 -0.0689
  763SOL     OW 3729   2.283   0.886   8.951  0.2943  0.7298 -0.4442
  763SOL    HW1 3730   2.247   0.971   8.924 -1.2957  0.4438  0.6008
  763SOL    HW2 3731   2.366   0.907   8.993 -0.4853  1.8998  0.5822
  764SOL     OW 3732   0.519   1.019   6.546 -0.2385 -0.0390 -0.1941
  764SOL    HW1 3733   0.508   0.930   6.513 -1.5648 -0.7877  2.0653
  764SOL    HW2 3734   0.429   1.053   6.556  0.0787  0.3496  1.9037
  765SOL     OW 3735   0.214   0.404   7.350 -0.4340  0.6338  0.0695
  765SOL    HW1 3736   0.121   0.404   7.325 -0.6219  1.0691  0.7259
  765SOL    HW2 3737   0.246   0.489   7.320 -0.1974  0.4003 -0.3369
  766SOL     OW 3738   1.896   0.627   6.286  0.5117 -0.1672 -0.0739
  766SOL    HW1 3739   1.885   0.640   6.380  0.9167 -0.0806 -0.0401
  766SOL    HW2 3740   1.856   0.541   6.270  0.9967 -0.4642  0.2819
  767SOL     OW 3741   0.780   0.715   7.174  0.1611  0.6457  0.5048
  767SOL    HW1 3742   0.718   0.759   7.114 -0.4188  0.4477  0.9512
  767SOL    HW2 3743   0.858   0.770   7.171  0.1855  0.5738 -0.5288
  768SOL     OW 3744   1.840   0.991   7.780 -0.2984 -0.1243  0.1277
  768SOL    HW1 3745   1.783   0.919   7.807 -2.6763  1.9572  1.0290
  768SOL    HW2 3746   1.904   0.998   7.852 -0.6475 -0.6957  0.5090
  769SOL     OW 3747   0.886   1.036   5.270 -0.5205 -0.1397 -0.2226
  769SOL    HW1 3748   0.836   1.108   5.309 -0.2761  0.4951 -1.0639
  769SOL    HW2 3749   0.911   1.068   5.183  0.2373 -0.9526 -0.3159
  770SOL     OW 3750   2.747   7.638   5.073  0.0428  0.3289  0.1356
  770SOL    HW1 3751   2.823   7.592   5.108  0.4722  0.2168 -0.9177
  770SOL    HW2 3752   2.689   7.569   5.042 -0.1768  0.4405  0.2913
  771SOL     OW 3753   2.236   7.280   6.361  0.0396 -0.2864 -0.1086
  771SOL    HW1 3754   2.196   7.306   6.278  0.3057  0.4814 -0.0046
  771SOL    HW2 3755   2.250   7.362   6.408 -0.2534 -0.7244  0.7720
  772SOL     OW 3756   1.976   7.907   4.616  0.7856 -0.3392  0.2842
  772SOL    HW1 3757   1.976   7.842   4.686 -0.5158  1.5649  2.1694
  772SOL    HW2 3758   2.058   7.955   4.627 -0.3345  1.3438  1.9988
  773SOL     OW 3759   0.536   1.224   5.783 -0.0069 -0.1150  0.3176
  773SOL    HW1 3760   0.558   1.235   5.875  1.8201 -0.8423  0.0032
  773SOL    HW2 3761   0.451   1.180   5.783 -0.1183  0.0646  1.6241
  774SOL     OW 3762   7.490   2.055   8.304  0.3533  0.4441  0.8709
  774SOL    HW1 3763   7.539   2.028   8.227  1.1581  1.0445  1.1681
  774SOL    HW2 3764   7.476   2.149   8.293  0.0436  0.4433  1.2190
  775SOL     OW 3765   2.123   2.742   7.177  0.2258 -0.2572  0.8528
  775SOL    HW1 3766   2.112   2.702   7.263  1.5414  1.9478  2.1282
  775SOL    HW2 3767   2.186   2.812   7.191  0.0887  0.5012 -1.8226
  776SOL     OW 3768   1.487   1.034   4.134  0.2371 -0.0873  0.0316
  776SOL    HW1 3769   1.451   0.995   4.054 -1.2628 -0.2689  0.7634
  776SOL    HW2 3770   1.535   1.112   4.103 -0.5847  0.0282 -1.0069
  777SOL     OW 3771   0.129   1.947   5.994  0.6157 -0.0685 -0.0957
  777SOL    HW1 3772   0.134   1.888   5.919  0.1523 -0.6192  0.2936
  777SOL    HW2 3773   0.050   1.998   5.980  1.0826  0.5501 -0.4937
  778SOL     OW 3774   1.832   0.117   6.126 -0.0364  0.2036 -0.7900
  778SOL    HW1 3775   1.738   0.132   6.118  0.1987  1.3323 -1.5872
  778SOL    HW2 3776   1.856   0.161   6.208 -0.2655 -0.4624 -0.3565
  779SOL     OW 3777   6.916   1.194   7.601  0.6434  0.4019  0.1565
  779SOL    HW1 3778   6.833   1.195   7.554 -0.7130  0.1801  2.3870
  779SOL    HW2 3779   6.952   1.107   7.584 -0.3462 -0.0641  0.3533
  780SOL     OW 3780   7.962   1.823   7.077  0.3079 -0.5072  0.4651
  780SOL    HW1 3781   7.885   1.774   7.050  0.0607 -0.2631  0.7257
  780SOL    HW2 3782   7.937   1.915   7.068  0.5687 -0.4255  0.5461
  781SOL     OW 3783   0.468   1.803   7.777  0.3617 -0.3033 -0.0800
  781SOL    HW1 3784   0.562   1.793   7.797  0.5719  0.2416 -0.7834
  781SOL    HW2 3785   0.435   1.860   7.847  0.7377  0.1857 -0.2920
  782SOL     OW 3786   0.988   7.915   6.300  0.3143 -1.1094  0.2082
  782SOL    HW1 3787   1.063   7.857   6.287  1.3013  0.2661 -0.5082
  782SOL    HW2 3788   1.027   7.999   6.324 -0.8822  0.0573 -1.7099
  783SOL     OW 3789   7.912   0.584   7.120  0.0781 -0.2281  0.2735
  783SOL    HW1 3790   7.821   0.558   7.103  0.3902 -2.8556  2.0287
  783SOL    HW2 3791   7.962   0.543   7.049  0.0773 -0.1931  0.2527
  784SOL     OW 3792   0.205   7.227   5.816 -0.0535 -0.3288 -0.5574
  784SOL    HW1 3793   0.190   7.204   5.908  1.3675  1.2709  0.1075
  784SOL    HW2 3794   0.135   7.181   5.769 -1.8334  0.1377  1.4809
  785SOL     OW 3795   1.634   0.822   6.499 -0.2911  0.1224 -0.0586
  785SOL    HW1 3796   1.550   0.861   6.472 -0.0932  1.1756  0.7747
  785SOL    HW2 3797   1.616   0.783   6.584 -0.2234 -0.7046 -0.4208
  786SOL     OW 3798   0.387   0.872   5.570 -0.0740 -0.0608 -0.5475
  786SOL    HW1 3799   0.443   0.932   5.520 -1.0392 -0.2859 -1.9666
  786SOL    HW2 3800   0.298   0.893   5.541 -0.5257 -1.3241 -0.1435
  787SOL     OW 3801   1.524   2.072   6.887  0.6176  0.2521  0.3712
  787SOL    HW1 3802   1.492   2.007   6.948  0.5276  0.1649  0.2329
  787SOL    HW2 3803   1.453   2.137   6.882  0.0998 -0.3659 -0.5658
  788SOL     OW 3804   3.174   0.357   4.939 -0.2610  0.0995  0.1100
  788SOL    HW1 3805   3.238   0.289   4.917  0.7342  0.5125  1.5742
  788SOL    HW2 3806   3.227   0.431   4.969 -1.3120  1.5607 -1.4742
  789SOL     OW 3807   0.403   1.825   7.210 -0.6353 -0.3119 -0.6552
  789SOL    HW1 3808   0.390   1.777   7.292 -1.1604  1.1772  0.1673
  789SOL    HW2 3809   0.498   1.828   7.199 -0.4952  0.4947  0.5619
  790SOL     OW 3810   7.997   1.063   7.913  0.0778  0.4306  0.5208
  790SOL    HW1 3811   8.069   1.110   7.954  0.6215  0.2008 -0.1597
  790SOL    HW2 3812   8.016   1.066   7.820  0.1010 -1.0808  0.4566
  791SOL     OW 3813   2.098   2.370   8.265 -0.2507 -0.2147  0.0409
  791SOL    HW1 3814   2.187   2.334   8.265  0.0572  0.5087 -0.8284
  791SOL    HW2 3815   2.103   2.446   8.208 -1.8245 -1.1376 -1.4356
  792SOL     OW 3816   3.029   0.681   7.215  0.0111  0.4254 -0.1464
  792SOL    HW1 3817   3.123   0.670   7.228  0.1596 -0.8483 -1.9090
  792SOL    HW2 3818   2.988   0.624   7.281  0.5581 -1.0190 -1.0088
  793SOL     OW 3819   2.086   6.386   8.717 -0.1666  0.2552  0.2437
  793SOL    HW1 3820   2.151   6.455   8.700 -0.3505  0.7037  1.2687
  793SOL    HW2 3821   2.079   6.338   8.635  0.8032  0.7643 -0.1462
  794SOL     OW 3822   6.978   0.960   5.824  0.0209  0.1018 -0.9229
  794SOL    HW1 3823   7.039   0.950   5.897 -1.4941  1.2549  0.5656
  794SOL    HW2 3824   6.963   0.870   5.793  0.3807 -0.4485  0.4429
  795SOL     OW 3825   1.575   0.015   8.480  0.4110  0.0223 -0.4394
  795SOL    HW1 3826   1.618  -0.069   8.469  0.6081  0.3392 -2.4384
  795SOL    HW2 3827   1.640   0.069   8.525  1.7081  0.1296 -2.3292
  796SOL     OW 3828   4.143   7.871   8.142 -0.2988 -0.1943 -0.2475
  796SOL    HW1 3829   4.179   7.848   8.228 -1.0312  0.7193  0.3282
  796SOL    HW2 3830   4.057   7.830   8.141 -0.0218 -0.7792 -0.8446
  797SOL     OW 3831   1.794   7.454   7.851 -0.4998 -0.8838 -0.6830
  797SOL    HW1 3832   1.857   7.409   7.907 -0.7868  0.2207  0.5754
  797SOL    HW2 3833   1.739   7.504   7.911 -0.1102  1.2667 -1.9969
  798SOL     OW 3834   0.569   1.872   8.296  0.2630 -0.5252  0.1624
  798SOL    HW1 3835   0.547   1.931   8.368  3.0932  0.4348  0.3520
  798SOL    HW2 3836   0.530   1.913   8.219 -0.3606 -0.0268  0.7281
  799SOL     OW 3837   0.742   7.927   4.622  0.4888 -0.3344 -0.1599
  799SOL    HW1 3838   0.785   7.929   4.707 -3.5901  0.2187  2.1726
  799SOL    HW2 3839   0.772   8.006   4.577  3.6134 -1.2345  0.1509
  800SOL     OW 3840   1.959   1.234   7.955 -0.3003  0.5173  0.4235
  800SOL    HW1 3841   1.922   1.148   7.979 -0.1828  0.3665  0.0809
  800SOL    HW2 3842   1.927   1.294   8.022 -0.5339  0.2370  0.5647
  801SOL     OW 3843   0.100   0.740   5.222 -0.8382  0.3889  0.2025
  801SOL    HW1 3844   0.039   0.802   5.181 -1.0858 -0.2531 -0.4075
  801SOL    HW2 3845   0.136   0.789   5.296 -0.2405  1.6461 -0.8651
  802SOL     OW 3846   2.765   7.342   7.042 -0.3455  0.0272 -0.0058
  802SOL    HW1 3847   2.762   7.246   7.038 -0.9624 -0.0343  1.2891
  802SOL    HW2 3848   2.835   7.366   6.982  0.1840 -1.2753  0.0435
  803SOL     OW 3849   1.358   1.178   6.045  0.7418 -0.3125 -0.4458
  803SOL    HW1 3850   1.414   1.102   6.031  1.3050 -0.0032  0.0633
  803SOL    HW2 3851   1.407   1.252   6.008  0.6993 -0.0352  0.0338
  804SOL     OW 3852   6.737   1.991   7.207 -0.0746  0.0043  0.3970
  804SOL    HW1 3853   6.647   2.024   7.195  0.1714 -0.0223 -1.7874
  804SOL    HW2 3854   6.731   1.898   7.188  0.6554  0.2653 -1.2326
  805SOL     OW 3855   0.501   1.616   8.045 -0.0065 -0.1544  0.3981
  805SOL    HW1 3856   0.438   1.677   8.084  1.0589 -0.0534  2.0738
  805SOL    HW2 3857   0.564   1.672   8.001  1.2510  0.0581  2.3597
  806SOL     OW 3858   6.929   2.222   9.880 -0.2226 -0.0423 -0.7112
  806SOL    HW1 3859   6.883   2.276   9.816  0.2948  0.1272 -0.9467
  806SOL    HW2 3860   6.860   2.171   9.922 -0.5694 -0.1238 -1.3691
  807SOL     OW 3861   7.898   0.098   4.468 -0.1858  0.0786 -0.3154
  807SOL    HW1 3862   7.866   0.035   4.532 -1.3431  0.0399 -0.9065
  807SOL    HW2 3863   7.958   0.154   4.517 -0.1624 -0.6629  0.5203
  808SOL     OW 3864   0.441   0.261   5.360  0.1559  0.3271 -1.0447
  808SOL    HW1 3865   0.463   0.175   5.325  1.6826  0.8773 -1.5071
  808SOL    HW2 3866   0.422   0.314   5.283 -0.1997  0.5690 -0.7961
  809SOL     OW 3867   7.601   1.609   6.397  0.1871 -0.4428  0.2524
  809SOL    HW1 3868   7.693   1.594   6.418 -0.3845 -1.1924  2.4798
  809SOL    HW2 3869   7.589   1.704   6.406  0.0898 -0.6528  3.2203
  810SOL     OW 3870   1.427   7.557   4.057  0.2574  0.5189  0.1127
  810SOL    HW1 3871   1.468   7.603   4.130 -0.9496  1.1198  0.4466
  810SOL    HW2 3872   1.388   7.627   4.004  0.9777  0.0766 -1.0331
  811SOL     OW 3873   0.831   0.386   3.997 -0.0222 -0.2269  0.2388
  811SOL    HW1 3874   0.862   0.467   3.955 -0.0952 -0.5245 -0.3998
  811SOL    HW2 3875   0.738   0.382   3.974 -0.3258  0.1725  1.3562
  812SOL     OW 3876   0.596   0.343   6.969 -0.1455 -0.1325 -0.0491
  812SOL    HW1 3877   0.612   0.281   7.041  0.7525  0.2964  0.1384
  812SOL    HW2 3878   0.676   0.339   6.916 -0.3823  0.3240 -0.4447
  813SOL     OW 3879   7.950   2.252   6.445 -0.2258  0.2950 -0.4190
  813SOL    HW1 3880   7.961   2.177   6.386  0.5497 -0.1709  0.2802
  813SOL    HW2 3881   7.911   2.320   6.391 -3.0732 -1.2865 -0.5524
  814SOL     OW 3882   2.135   1.442   5.435 -0.2625  0.3264  0.3707
  814SOL    HW1 3883   2.154   1.518   5.381 -2.5488 -0.1053 -1.1874
  814SOL    HW2 3884   2.050   1.410   5.403 -1.1977 -0.6640  3.4480
  815SOL     OW 3885   0.824   0.912   4.936 -0.6375  0.0999  0.5223
  815SOL    HW1 3886   0.813   0.828   4.892 -1.9214  1.3012 -1.6314
  815SOL    HW2 3887   0.785   0.899   5.022 -0.6290 -1.5726  0.3009
  816SOL     OW 3888   0.710   1.034   7.274  0.0099 -0.1527  0.1473
  816SOL    HW1 3889   0.732   0.983   7.197 -1.5088 -0.6572  0.0187
  816SOL    HW2 3890   0.628   0.996   7.306 -1.7374  2.7410 -0.5100
  817SOL     OW 3891   1.469   1.513   6.727  0.5183 -0.1525  0.1412
  817SOL    HW1 3892   1.466   1.578   6.656  1.3285  0.3433  0.5385
  817SOL    HW2 3893   1.446   1.430   6.685  2.0616 -0.0712 -0.9638
  818SOL     OW 3894   7.028   7.095   6.928  0.3655  0.2825  0.2087
  818SOL    HW1 3895   7.031   7.004   6.897 -0.0671  0.1885  0.4400
  818SOL    HW2 3896   6.942   7.104   6.969  0.7805  0.5066  1.0597
  819SOL     OW 3897   5.966   7.923   6.309 -0.3367 -0.0140  0.2785
  819SOL    HW1 3898   5.941   7.960   6.224 -1.2996 -0.4547  0.3559
  819SOL    HW2 3899   5.884   7.886   6.343  0.1442 -0.2414  1.1915
  820SOL     OW 3900   7.749   2.073   7.326 -0.9244 -0.1359  0.3437
  820SOL    HW1 3901   7.701   1.992   7.309  0.4753 -1.5022  2.3481
  820SOL    HW2 3902   7.841   2.046   7.329 -0.5518  1.0885  2.9540
  821SOL     OW 3903   0.045   1.189   7.653  0.2195 -0.4161 -0.2090
  821SOL    HW1 3904   0.110   1.257   7.637 -0.1747  0.0642  0.1783
  821SOL    HW2 3905   0.053   1.130   7.578  1.7213 -0.8729  0.2895
  822SOL     OW 3906   0.850   0.406   7.826  0.2415  0.0197 -0.1257
  822SOL    HW1 3907   0.807   0.450   7.900 -0.8114 -1.4632  0.1938
  822SOL    HW2 3908   0.789   0.417   7.753  0.0012 -0.8180 -0.0590
  823SOL     OW 3909   0.867   0.714   7.915 -0.4422  0.2698  0.3008
  823SOL    HW1 3910   0.932   0.675   7.856 -0.6885 -2.2896  1.6055
  823SOL    HW2 3911   0.901   0.698   8.003 -3.2233 -2.1605  1.0940
  824SOL     OW 3912   0.405   0.187   6.836 -0.3699  0.1495 -0.0661
  824SOL    HW1 3913   0.427   0.172   6.744 -1.6944  2.4386 -0.8222
  824SOL    HW2 3914   0.473   0.246   6.868 -2.0324  2.6268 -0.8067
  825SOL     OW 3915   2.486   0.486   3.235  1.2108  0.1363  0.2536
  825SOL    HW1 3916   2.462   0.532   3.154  2.3964 -0.5067 -0.4954
  825SOL    HW2 3917   2.566   0.530   3.265  1.0541  0.0507  0.8073
  826SOL     OW 3918   0.071   0.107   6.837 -0.2029  0.2896  0.1869
  826SOL    HW1 3919  -0.022   0.125   6.819 -0.0151  1.6212  0.4357
  826SOL    HW2 3920   0.113   0.114   6.751 -0.0068  1.9940  0.3911
  827SOL     OW 3921   7.144   1.385   7.914 -0.8271 -0.5869 -0.1798
  827SOL    HW1 3922   7.234   1.354   7.926 -0.2326  1.0499 -0.0963
  827SOL    HW2 3923   7.091   1.306   7.909  0.5019 -1.5676  0.7435
  828SOL     OW 3924   1.032   0.761   6.381 -0.1125  0.1246 -0.4841
  828SOL    HW1 3925   1.114   0.790   6.421 -0.2953 -0.6066  0.4531
  828SOL    HW2 3926   1.060   0.714   6.302  0.4203 -0.5067  0.0605
  829SOL     OW 3927   1.355   1.087   5.271  0.2324 -0.2246 -0.2187
  829SOL    HW1 3928   1.322   1.010   5.318 -0.2676  0.1920  0.1222
  829SOL    HW2 3929   1.447   1.094   5.297  0.4038 -0.9686 -0.6050
  830SOL     OW 3930   2.209   1.067   5.506 -0.3557 -0.6681 -0.2519
  830SOL    HW1 3931   2.250   1.081   5.592 -0.3341 -1.6606 -0.0898
  830SOL    HW2 3932   2.277   1.087   5.443 -0.9978  2.3551 -0.1636
  831SOL     OW 3933   0.937   3.775   7.219  0.2429 -0.1087  0.1860
  831SOL    HW1 3934   1.030   3.765   7.240  0.1700 -3.1799 -0.5279
  831SOL    HW2 3935   0.934   3.777   7.123 -0.4825 -1.7452  0.1403
  832SOL     OW 3936   0.158   1.046   6.847 -0.7541  0.3085  0.1078
  832SOL    HW1 3937   0.234   1.093   6.882 -0.3699 -0.6993  0.6505
  832SOL    HW2 3938   0.143   1.087   6.761 -1.2623  2.2995  1.0815
  833SOL     OW 3939   7.515   2.895   7.899  0.6423  0.0322 -0.1823
  833SOL    HW1 3940   7.604   2.871   7.925  0.6132  1.0891  0.9642
  833SOL    HW2 3941   7.497   2.976   7.947 -1.2223 -0.5815  0.2186
  834SOL     OW 3942   2.065   0.350   6.004 -0.2634  0.1476  0.0455
  834SOL    HW1 3943   1.984   0.312   5.970 -0.2494 -0.2969  0.4994
  834SOL    HW2 3944   2.036   0.401   6.080 -0.1325  0.1090  0.1204
  835SOL     OW 3945   0.956   2.037   5.982 -0.2895  0.0643  0.1205
  835SOL    HW1 3946   0.977   2.079   6.065 -0.2475  0.7309 -0.2243
  835SOL    HW2 3947   0.860   2.036   5.978 -0.3606  2.8012 -1.1668
  836SOL     OW 3948   6.554   1.075   6.656  0.4419  0.3079 -0.3729
  836SOL    HW1 3949   6.588   1.045   6.572  0.0854 -0.7319 -0.1525
  836SOL    HW2 3950   6.590   1.014   6.720  0.0363  0.5965  0.1403
  837SOL     OW 3951   0.983   7.221   5.081 -0.1658  0.3081 -0.5843
  837SOL    HW1 3952   0.997   7.310   5.049  0.1296  0.6038  0.3276
  837SOL    HW2 3953   1.070   7.181   5.078 -0.3819 -0.1182 -1.4520
  838SOL     OW 3954   0.195   1.698   6.373 -0.0189  0.3180 -0.0155
  838SOL    HW1 3955   0.213   1.611   6.336 -0.3891 -0.1069  0.7846
  838SOL    HW2 3956   0.183   1.754   6.297  0.5311 -0.2714 -0.5454
  839SOL     OW 3957   7.916   0.968   4.123 -0.2738  0.3888  0.4439
  839SOL    HW1 3958   7.852   1.026   4.082  0.8621  0.2085 -1.6917
  839SOL    HW2 3959   7.898   0.976   4.217 -2.0821  1.8809  0.0342
  840SOL     OW 3960   3.520   1.565   6.960  0.8130 -0.0624  0.4589
  840SOL    HW1 3961   3.581   1.492   6.969  1.1061  0.3291  1.8579
  840SOL    HW2 3962   3.567   1.640   6.996  0.2298  0.6751 -0.2539
  841SOL     OW 3963   1.869   1.324   5.346 -0.1141 -0.6219 -0.1996
  841SOL    HW1 3964   1.900   1.353   5.260 -0.0119  1.2634  0.4432
  841SOL    HW2 3965   1.854   1.230   5.335  0.5747 -0.5542 -2.0727
  842SOL     OW 3966   7.575   1.273   8.919  0.0174 -0.4038  0.1318
  842SOL    HW1 3967   7.557   1.218   8.842  2.5553 -0.2128 -0.6875
  842SOL    HW2 3968   7.631   1.343   8.885  3.7694 -1.9463  2.5849
  843SOL     OW 3969   7.724   1.987   4.884  0.1669 -0.4075 -0.3937
  843SOL    HW1 3970   7.789   1.953   4.945 -1.1504 -1.5982  0.4130
  843SOL    HW2 3971   7.747   1.947   4.800  0.0879 -1.3900  0.0368
  844SOL     OW 3972   1.214   1.660   7.367 -0.4000  0.5048  0.4772
  844SOL    HW1 3973   1.219   1.614   7.451  1.0862 -0.1283  0.0627
  844SOL    HW2 3974   1.305   1.675   7.342 -0.8366  1.5331 -0.5814
  845SOL     OW 3975   2.143   0.782   5.565 -0.0922 -0.1042  0.1561
  845SOL    HW1 3976   2.140   0.873   5.595 -3.1977  0.1747 -0.6660
  845SOL    HW2 3977   2.180   0.787   5.477 -4.5373  1.2599 -1.9535
  846SOL     OW 3978   1.647   1.728   5.207  0.1315  0.0088 -0.1032
  846SOL    HW1 3979   1.666   1.667   5.278 -0.3405  0.9935  0.8987
  846SOL    HW2 3980   1.633   1.812   5.250  0.2329  0.7265 -1.4046
  847SOL     OW 3981   0.468   7.765   4.856  0.5569 -0.1867  0.2792
  847SOL    HW1 3982   0.501   7.854   4.845 -0.2657  0.3006  1.5116
  847SOL    HW2 3983   0.510   7.734   4.936 -1.7870  0.4146  1.8372
  848SOL     OW 3984   0.271   7.836   5.278 -0.0896  0.1027  0.2243
  848SOL    HW1 3985   0.200   7.899   5.280  0.3484  0.6271 -0.3764
  848SOL    HW2 3986   0.349   7.886   5.302  0.0209 -0.5758  1.4070
  849SOL     OW 3987   1.187   7.854   6.113 -0.4150 -0.0102 -0.8322
  849SOL    HW1 3988   1.236   7.897   6.043 -1.2156  0.6392 -1.0172
  849SOL    HW2 3989   1.172   7.765   6.081 -1.9098  0.6390 -2.1283
  850SOL     OW 3990   1.669   1.240   6.858 -0.3674 -0.5872  0.0344
  850SOL    HW1 3991   1.754   1.216   6.895 -0.0747  0.7406  0.2548
  850SOL    HW2 3992   1.622   1.280   6.931 -0.9239 -0.6807 -0.2678
  851SOL     OW 3993   0.875   0.628   4.618 -0.0351 -0.0093 -0.4851
  851SOL    HW1 3994   0.906   0.577   4.543  1.4568  0.3161 -0.1339
  851SOL    HW2 3995   0.931   0.705   4.619 -0.0549  0.0167  0.9161
  852SOL     OW 3996   2.065   7.652   6.178  0.2125  0.1314 -0.6523
  852SOL    HW1 3997   2.140   7.704   6.149  0.9880  1.1466  2.6900
  852SOL    HW2 3998   2.104   7.581   6.229 -1.0155 -0.2499 -0.2009
  853SOL     OW 3999   0.174   0.514   5.074 -0.0796 -0.5556 -0.0481
  853SOL    HW1 4000   0.101   0.454   5.086 -1.0414  0.3485 -1.1693
  853SOL    HW2 4001   0.144   0.597   5.112 -0.0149  0.0770 -1.3314
  854SOL     OW 4002   2.310   2.027   7.342  0.0629 -0.1632  0.2290
  854SOL    HW1 4003   2.394   2.001   7.303  0.5428  0.3465  0.8838
  854SOL    HW2 4004   2.270   2.084   7.277 -0.9788 -2.4229 -1.2031
  855SOL     OW 4005   0.714   0.374   5.686 -0.0706 -0.2431  0.0738
  855SOL    HW1 4006   0.626   0.335   5.694 -0.6230  0.3763 -2.3017
  855SOL    HW2 4007   0.713   0.447   5.747 -1.1034 -0.4340  0.3139
  856SOL     OW 4008   6.015   0.016   4.882 -0.3251 -0.0346 -0.6074
  856SOL    HW1 4009   5.965   0.048   4.806 -0.4831  4.3888  1.0211
  856SOL    HW2 4010   5.948  -0.015   4.943 -0.7115  1.1925 -0.3721
  857SOL     OW 4011   1.508   2.583   7.630 -0.2758 -0.7147 -0.2820
  857SOL    HW1 4012   1.564   2.659   7.647 -1.6993  0.1491  0.7599
  857SOL    HW2 4013   1.545   2.544   7.550  1.1718  0.3940 -0.2109
  858SOL     OW 4014   7.709   7.977   5.150 -0.3630 -0.9199  0.2680
  858SOL    HW1 4015   7.678   7.930   5.228 -0.6123 -1.5420 -0.1947
  858SOL    HW2 4016   7.655   8.056   5.147 -0.5195 -1.0118  0.5962
  859SOL     OW 4017   7.645   7.819   5.697 -0.2122  0.1443 -0.3847
  859SOL    HW1 4018   7.720   7.811   5.757 -0.1504 -0.0892 -0.4897
  859SOL    HW2 4019   7.637   7.732   5.658 -2.4933 -0.8294  1.9213
  860SOL     OW 4020   0.554   1.228   8.113  0.2888 -0.2370 -0.2358
  860SOL    HW1 4021   0.613   1.298   8.141 -1.8953  1.3900  0.5800
  860SOL    HW2 4022   0.501   1.267   8.044  0.5330 -1.8607 -1.4061
  861SOL     OW 4023   7.681   1.777   6.977 -0.4015 -0.5006  0.2812
  861SOL    HW1 4024   7.682   1.683   6.995  1.2858 -0.4213  0.7745
  861SOL    HW2 4025   7.657   1.816   7.061  0.2119 -0.4501  0.4398
  862SOL     OW 4026   2.685   1.669   5.286  0.2539  0.1253  0.1503
  862SOL    HW1 4027   2.592   1.685   5.302 -0.3099 -1.3602 -1.3316
  862SOL    HW2 4028   2.726   1.755   5.295 -1.2720  0.8346  0.7203
  863SOL     OW 4029   2.150   0.642   7.195 -0.1329  0.3444  0.2599
  863SOL    HW1 4030   2.064   0.625   7.234 -1.0844 -1.0719 -2.2102
  863SOL    HW2 4031   2.138   0.725   7.148 -0.8264 -0.7160 -1.5763
  864SOL     OW 4032   6.427   1.862   8.791 -0.4317  0.0792  0.2040
  864SOL    HW1 4033   6.366   1.858   8.864 -1.4481  1.5710 -0.5015
  864SOL    HW2 4034   6.377   1.827   8.717 -1.0772  2.7289 -0.7248
  865SOL     OW 4035   0.839   1.526   5.424  0.4547 -0.5732  0.0680
  865SOL    HW1 4036   0.884   1.569   5.351 -0.6903  1.9354  0.7280
  865SOL    HW2 4037   0.756   1.495   5.386  0.7910 -1.2282 -0.1514
  866SOL     OW 4038   2.287   0.599   6.918  0.5674 -1.1517  0.1852
  866SOL    HW1 4039   2.215   0.536   6.919  0.3408 -0.8931  0.0476
  866SOL    HW2 4040   2.357   0.555   6.966  0.1843 -1.2428  0.6670
  867SOL     OW 4041   0.646   0.758   6.099 -0.2094 -0.0221  0.4176
  867SOL    HW1 4042   0.695   0.815   6.040 -1.4866 -0.9173 -1.6021
  867SOL    HW2 4043   0.658   0.797   6.186  2.2156  1.0071 -0.2999
  868SOL     OW 4044   2.427   0.418   6.163 -0.5674  0.0903  0.8148
  868SOL    HW1 4045   2.412   0.431   6.069 -2.5257 -1.7714  0.7907
  868SOL    HW2 4046   2.367   0.480   6.205 -0.2381  0.3894  0.8527
  869SOL     OW 4047   1.622   7.005   6.991 -0.4866  0.1721  0.5544
  869SOL    HW1 4048   1.556   6.976   6.929  1.1651 -0.6514 -0.8972
  869SOL    HW2 4049   1.660   6.924   7.025  1.1735  0.5852 -0.2120
  870SOL     OW 4050   0.756   1.749   6.529  0.5271  0.1353 -0.2689
  870SOL    HW1 4051   0.677   1.764   6.478  0.4045  0.5143  0.0286
  870SOL    HW2 4052   0.768   1.829   6.580 -0.0343 -0.6592  1.1993
  871SOL     OW 4053   6.785   2.597   6.813  0.1686  0.0585 -0.3262
  871SOL    HW1 4054   6.868   2.639   6.790  0.7903 -0.8598  0.2056
  871SOL    HW2 4055   6.800   2.556   6.898 -0.6977 -0.4905 -0.4151
  872SOL     OW 4056   0.798   1.796   5.110 -0.3986  0.5222  0.2158
  872SOL    HW1 4057   0.854   1.866   5.075 -0.0863 -0.2792 -0.9411
  872SOL    HW2 4058   0.836   1.775   5.195 -1.6357  3.0564  1.5117
  873SOL     OW 4059   0.558   0.751   7.625 -0.3222 -0.1174  0.2222
  873SOL    HW1 4060   0.481   0.699   7.649 -1.6778  0.4108 -2.4941
  873SOL    HW2 4061   0.602   0.698   7.558 -0.6352  1.2790 -1.1590
  874SOL     OW 4062   1.131   1.505   6.998 -0.0404  0.2628 -0.2614
  874SOL    HW1 4063   1.225   1.519   7.007 -0.0979 -0.3113  1.6522
  874SOL    HW2 4064   1.123   1.442   6.926  1.0899 -0.1579 -0.0447
  875SOL     OW 4065   7.062   0.003   8.084  0.0977 -0.0814  0.0241
  875SOL    HW1 4066   7.147  -0.039   8.094 -0.6374 -1.8523 -0.7930
  875SOL    HW2 4067   7.073   0.089   8.126  2.5154  0.0968 -0.8216
  876SOL     OW 4068   0.118   0.723   5.801  0.1535 -0.2751 -0.1144
  876SOL    HW1 4069   0.051   0.657   5.822  0.1860 -0.9857 -2.0570
  876SOL    HW2 4070   0.075   0.780   5.737  0.9769  0.0474 -0.3853
  877SOL     OW 4071   0.081   1.498   8.492  0.4901  0.6238 -0.0855
  877SOL    HW1 4072   0.094   1.447   8.572  1.1213 -1.7455 -1.6016
  877SOL    HW2 4073   0.157   1.557   8.489  2.4327 -1.7643 -0.6672
  878SOL     OW 4074   3.227   7.441   7.230 -0.1156  0.5318 -0.2628
  878SOL    HW1 4075   3.251   7.533   7.238  0.6510  0.5549 -2.3204
  878SOL    HW2 4076   3.131   7.441   7.231 -0.1408  1.4900 -1.4405
  879SOL     OW 4077   0.755   0.917   7.767  0.3069 -0.0091 -0.4940
  879SOL    HW1 4078   0.680   0.887   7.716 -0.3823  1.2181 -0.2656
  879SOL    HW2 4079   0.790   0.838   7.807 -0.7387 -0.6482 -0.7891
  880SOL     OW 4080   0.956   0.836   6.070 -0.2032  0.1489  0.3054
  880SOL    HW1 4081   1.039   0.852   6.026 -0.2401 -0.1588  0.1159
  880SOL    HW2 4082   0.894   0.896   6.027 -0.4365 -0.7598 -0.6966
  881SOL     OW 4083   1.197   0.030   6.677  0.1875  0.4850 -0.4500
  881SOL    HW1 4084   1.165   0.036   6.767  2.4205  1.5327  0.3528
  881SOL    HW2 4085   1.285  -0.008   6.685  0.5956  0.9858 -2.1449
  882SOL     OW 4086   1.599   0.292   5.272 -0.1557  0.9404  0.2799
  882SOL    HW1 4087   1.629   0.224   5.332  1.4052  0.7357 -0.6615
  882SOL    HW2 4088   1.606   0.374   5.321  3.3775  1.0901 -0.2413
  883SOL     OW 4089   0.521   7.338   6.548  0.6919  0.1886  0.5573
  883SOL    HW1 4090   0.583   7.378   6.487  1.5422  1.0329  1.9225
  883SOL    HW2 4091   0.561   7.348   6.634 -1.1246  0.3613  1.4461
  884SOL     OW 4092   0.162   1.631   7.715  0.1313 -0.0876  0.6356
  884SOL    HW1 4093   0.104   1.557   7.702  0.0872 -0.0090  0.3937
  884SOL    HW2 4094   0.249   1.592   7.723  0.2822 -0.0698 -0.7892
  885SOL     OW 4095   6.763   0.708   3.962 -0.7695  0.0745 -0.5573
  885SOL    HW1 4096   6.692   0.692   4.024  0.2635 -1.2540  0.3512
  885SOL    HW2 4097   6.843   0.689   4.012  0.2782  2.0460 -1.3805
  886SOL     OW 4098   0.854   2.628   8.544 -0.6102 -0.0081  0.5675
  886SOL    HW1 4099   0.849   2.679   8.462 -2.0677 -1.5611 -0.3830
  886SOL    HW2 4100   0.763   2.602   8.561 -0.0563 -1.3316  1.6386
  887SOL     OW 4101   1.637   6.668   5.490 -0.2358 -0.3297  0.0438
  887SOL    HW1 4102   1.659   6.752   5.451  0.4482 -1.1001 -1.2849
  887SOL    HW2 4103   1.668   6.675   5.581  3.2229 -0.3802 -0.9813
  888SOL     OW 4104   1.423   7.994   4.852 -0.0167 -0.4809 -0.1534
  888SOL    HW1 4105   1.328   7.985   4.845  0.1825 -1.2573 -3.2461
  888SOL    HW2 4106   1.437   8.088   4.863 -1.1274 -0.3801  0.5473
  889SOL     OW 4107   1.725   0.453   5.757 -0.5565 -0.2873  0.0521
  889SOL    HW1 4108   1.819   0.435   5.751 -0.5926 -0.7675  0.7888
  889SOL    HW2 4109   1.686   0.370   5.785 -1.0493  0.2367  0.9647
  890SOL     OW 4110   0.859   0.915   6.545  0.0229  0.3824 -0.1703
  890SOL    HW1 4111   0.808   0.835   6.559 -0.3540  0.5109 -0.7640
  890SOL    HW2 4112   0.929   0.887   6.486 -0.0160  0.4527 -0.2493
  891SOL     OW 4113   0.718   1.450   8.140  0.3782  0.3256  0.0210
  891SOL    HW1 4114   0.788   1.510   8.166  1.1336  0.1169 -1.3772
  891SOL    HW2 4115   0.644   1.507   8.117  0.1346  0.5582  1.3351
  892SOL     OW 4116   7.611   1.858   7.225 -0.2799 -0.1993 -0.0544
  892SOL    HW1 4117   7.549   1.927   7.249 -1.2147 -0.9328 -0.2969
  892SOL    HW2 4118   7.577   1.780   7.269  0.3240 -0.6680 -0.4126
  893SOL     OW 4119   7.553   1.696   9.032 -0.3594 -0.4877  0.1057
  893SOL    HW1 4120   7.582   1.746   9.109 -0.7479  0.3877 -0.3013
  893SOL    HW2 4121   7.478   1.746   8.999  0.2276 -0.4881 -1.2473
  894SOL     OW 4122   0.565   0.981   8.679 -0.2733  0.4250  0.4476
  894SOL    HW1 4123   0.651   1.003   8.716  0.3096 -0.0674 -0.5833
  894SOL    HW2 4124   0.503   1.014   8.744  0.7099 -0.4768  1.9273
  895SOL     OW 4125   2.774   3.069   8.409  0.0870 -0.3537  0.2278
  895SOL    HW1 4126   2.830   3.033   8.341  0.7561 -1.4458  1.3203
  895SOL    HW2 4127   2.759   3.160   8.382  1.8983 -0.2037 -0.4031
  896SOL     OW 4128   1.688   3.121   7.641 -0.2243  0.4593 -0.0204
  896SOL    HW1 4129   1.771   3.145   7.601  0.0493  1.0660  0.8795
  896SOL    HW2 4130   1.693   3.156   7.730 -0.5668 -1.3948  0.7718
  897SOL     OW 4131   0.368   1.880  10.239 -0.0760 -0.1037 -0.7590
  897SOL    HW1 4132   0.436   1.900  10.304  0.5439 -0.5059 -1.2693
  897SOL    HW2 4133   0.393   1.794  10.205 -0.7304 -0.1583 -1.1088
  898SOL     OW 4134   1.946   7.998   6.683  0.0266  0.7195 -0.0982
  898SOL    HW1 4135   2.021   7.962   6.730  0.7362 -0.7185 -2.1785
  898SOL    HW2 4136   1.981   8.075   6.638 -0.2292  1.1215  0.3822
  899SOL     OW 4137   1.467   0.061   8.187  0.0916 -0.4002 -0.1829
  899SOL    HW1 4138   1.472   0.044   8.281  1.4951 -1.9823 -0.4686
  899SOL    HW2 4139   1.557   0.081   8.162 -0.3281  0.3519 -1.1388
  900SOL     OW 4140   1.640   0.322   8.912 -0.3400  0.1803 -0.0588
  900SOL    HW1 4141   1.677   0.285   8.992 -1.1961 -0.4555  0.0578
  900SOL    HW2 4142   1.545   0.310   8.922 -0.4870  0.5762 -0.9272
  901SOL     OW 4143   0.884   2.345   9.276  0.3160 -0.1316 -0.1721
  901SOL    HW1 4144   0.820   2.353   9.205 -1.1846  0.0646  1.1334
  901SOL    HW2 4145   0.916   2.434   9.290  1.6055 -0.3729 -1.4422
  902SOL     OW 4146   1.560   2.372   8.773  0.0833 -0.2378  0.4885
  902SOL    HW1 4147   1.575   2.458   8.733  0.3479 -0.5935 -0.1914
  902SOL    HW2 4148   1.497   2.329   8.715  0.2152 -0.6332  0.6333
  903SOL     OW 4149   7.940   2.146  10.333  0.9630 -0.4443  0.0188
  903SOL    HW1 4150   7.987   2.204  10.394  0.2757 -0.1234  0.2523
  903SOL    HW2 4151   7.994   2.067  10.329  0.8473 -0.6091  1.3046
  904SOL     OW 4152   2.636   1.630   7.741 -0.3110 -0.1627  0.2867
  904SOL    HW1 4153   2.674   1.546   7.768 -0.4393  0.1153  1.3961
  904SOL    HW2 4154   2.547   1.628   7.777 -1.3194 -0.6857 -2.0335
  905SOL     OW 4155   7.937   0.603   9.955 -0.4506  0.0263  0.0474
  905SOL    HW1 4156   7.998   0.579   9.885  0.9344  0.1219  1.1545
  905SOL    HW2 4157   7.966   0.551  10.030 -2.3793 -0.6602  0.3674
  906SOL     OW 4158   0.002   0.677   7.967  0.0419  0.0778 -0.1552
  906SOL    HW1 4159  -0.024   0.610   8.031  1.6440 -1.1893 -0.7474
  906SOL    HW2 4160  -0.058   0.664   7.893  0.7621 -1.2170 -0.5497
  907SOL     OW 4161   1.400   3.179   7.506 -0.5463  0.0552 -0.1044
  907SOL    HW1 4162   1.357   3.200   7.424  2.4362  1.9439 -1.3818
  907SOL    HW2 4163   1.424   3.264   7.543  2.7045 -0.7749  0.0024
  908SOL     OW 4164   2.916   1.476   8.588  0.0753 -0.0581  0.4825
  908SOL    HW1 4165   2.857   1.457   8.515 -0.3181 -2.9537  1.4182
  908SOL    HW2 4166   2.926   1.571   8.587 -1.6695  0.1928 -1.9513
  909SOL     OW 4167   7.925   1.819   9.246 -0.6859 -0.0227  0.1148
  909SOL    HW1 4168   7.994   1.767   9.287 -0.4630 -0.1753 -0.4300
  909SOL    HW2 4169   7.903   1.770   9.167  0.6647  1.4739 -1.2815
  910SOL     OW 4170   7.426   2.031  10.002  0.5856  0.3559 -0.3339
  910SOL    HW1 4171   7.372   2.007   9.927  0.8812  0.9541 -0.7402
  910SOL    HW2 4172   7.516   2.014   9.973  0.7349  1.0687 -0.3003
  911SOL     OW 4173   1.777   3.231   7.904  0.1446  0.0602 -0.0132
  911SOL    HW1 4174   1.696   3.273   7.933 -0.6072 -0.2424 -1.5849
  911SOL    HW2 4175   1.818   3.201   7.984 -1.0698  0.6320  0.8561
  912SOL     OW 4176   3.926   1.227   8.642 -0.1838  0.3842  0.1795
  912SOL    HW1 4177   4.020   1.239   8.648  0.0349 -1.2969  0.7628
  912SOL    HW2 4178   3.894   1.236   8.731 -0.3216 -0.6862  0.2553
  913SOL     OW 4179   1.236   7.794   8.707  0.1081 -0.1152 -0.6583
  913SOL    HW1 4180   1.303   7.851   8.745 -1.2557  1.6275 -0.7580
  913SOL    HW2 4181   1.181   7.852   8.655 -2.4709 -1.1327  0.7354
  914SOL     OW 4182   2.782   3.581   7.452 -0.0370  0.0350  0.0609
  914SOL    HW1 4183   2.803   3.621   7.368  1.0644 -1.5273 -0.4444
  914SOL    HW2 4184   2.865   3.544   7.483 -0.8973 -1.4565  0.6988
  915SOL     OW 4185   6.605   0.433   8.775  0.2039 -0.5782 -0.2654
  915SOL    HW1 4186   6.638   0.519   8.802 -0.9771 -0.3061  0.3828
  915SOL    HW2 4187   6.511   0.436   8.795 -0.1461 -1.4859 -1.6041
  916SOL     OW 4188   2.499   5.693   8.750  0.0236  0.1297  0.0033
  916SOL    HW1 4189   2.490   5.617   8.692  0.0694 -0.7975  1.1689
  916SOL    HW2 4190   2.409   5.719   8.769  0.0013  0.0059  0.0668
  917SOL     OW 4191   2.582   2.438   7.355 -0.5968 -0.3427  0.3340
  917SOL    HW1 4192   2.534   2.423   7.274 -0.8461  0.4757  0.3260
  917SOL    HW2 4193   2.515   2.437   7.424 -0.3517 -1.3377  0.5790
  918SOL     OW 4194   1.208   0.449  10.001  0.3424 -0.1303 -0.0468
  918SOL    HW1 4195   1.202   0.458   9.906 -1.0746  1.2266  0.1324
  918SOL    HW2 4196   1.298   0.476  10.022  0.3464  0.5600 -0.9054
  919SOL     OW 4197   6.585   2.713   7.763 -0.7138 -0.3126 -0.8557
  919SOL    HW1 4198   6.636   2.693   7.684  1.2966  1.2559 -0.0297
  919SOL    HW2 4199   6.565   2.806   7.755 -0.1895 -0.0555  0.6357
  920SOL     OW 4200   3.044   0.784   7.590 -0.2683  0.2952  0.3956
  920SOL    HW1 4201   3.018   0.699   7.553  0.6900  0.3476 -0.4580
  920SOL    HW2 4202   3.032   0.846   7.518 -0.9933  0.9039  1.0241
  921SOL     OW 4203   1.073   6.711   8.713  0.6055  0.5295 -0.0975
  921SOL    HW1 4204   1.036   6.759   8.639  1.5785 -0.0877 -1.0238
  921SOL    HW2 4205   1.125   6.642   8.672 -0.7402 -1.3382  1.1602
  922SOL     OW 4206   0.402   0.591   7.985 -0.7428  0.2523  0.4085
  922SOL    HW1 4207   0.398   0.501   8.017 -1.6139 -0.0223 -0.4411
  922SOL    HW2 4208   0.468   0.633   8.040  1.5109 -1.5540 -0.7299
  923SOL     OW 4209   1.958   1.663  10.725  0.2561  0.5700 -0.7159
  923SOL    HW1 4210   2.053   1.653  10.729  0.2024 -0.1193 -1.0163
  923SOL    HW2 4211   1.936   1.708  10.807  0.8688  1.0290 -0.7934
  924SOL     OW 4212   0.730   1.889   8.931 -0.1857 -0.3330 -0.1519
  924SOL    HW1 4213   0.713   1.799   8.902  0.3169 -0.1270 -1.1160
  924SOL    HW2 4214   0.652   1.938   8.903 -0.8807 -0.6160  1.1793
  925SOL     OW 4215   0.642   0.249   8.069 -0.5795  0.1353 -0.4992
  925SOL    HW1 4216   0.625   0.250   7.975  0.1240  1.6222 -0.6383
  925SOL    HW2 4217   0.691   0.329   8.086 -0.9183  0.0351  1.1864
  926SOL     OW 4218   0.095   1.919  10.335 -0.2039  0.3984  0.6488
  926SOL    HW1 4219   0.189   1.929  10.319 -0.3783  1.7371  0.3037
  926SOL    HW2 4220   0.071   1.840  10.288  0.7411  0.0732  0.6894
  927SOL     OW 4221   0.091   0.184   5.714  0.0058 -0.0507 -0.1194
  927SOL    HW1 4222   0.097   0.279   5.705 -0.2459 -0.1461 -1.4722
  927SOL    HW2 4223   0.171   0.160   5.761 -0.4550  0.9157  1.2380
  928SOL     OW 4224   3.127   2.097   8.918  0.0651  0.3519  0.0365
  928SOL    HW1 4225   3.114   2.035   8.989  1.9687  0.9946  1.0277
  928SOL    HW2 4226   3.144   2.180   8.962  2.0544  0.6138 -1.0837
  929SOL     OW 4227   3.257   2.566   8.046  0.4807 -0.6184 -0.2882
  929SOL    HW1 4228   3.306   2.594   7.969  1.1006  1.7337  0.8372
  929SOL    HW2 4229   3.214   2.647   8.077 -0.5471 -1.7002  1.2564
  930SOL     OW 4230   1.346   1.653   8.334 -0.7191 -0.0134  0.1370
  930SOL    HW1 4231   1.310   1.611   8.412 -1.4124  1.2233  0.5125
  930SOL    HW2 4232   1.283   1.723   8.313  0.5198  1.0186 -0.2750
  931SOL     OW 4233   1.711   7.763   8.476 -0.2802  0.2205 -0.4316
  931SOL    HW1 4234   1.782   7.726   8.423 -0.5818  2.2720 -2.4419
  931SOL    HW2 4235   1.752   7.783   8.560  0.7864 -1.1525 -0.5847
  932SOL     OW 4236   0.921   6.452  10.109 -0.3384 -0.0663 -0.3885
  932SOL    HW1 4237   0.839   6.475  10.152 -0.7266 -2.9981  0.6279
  932SOL    HW2 4238   0.898   6.379  10.051  1.1539  0.5683 -1.8663
  933SOL     OW 4239   7.927   2.426   9.560  0.0431 -0.3092  0.1574
  933SOL    HW1 4240   8.014   2.440   9.599  0.7459 -0.3596 -1.3461
  933SOL    HW2 4241   7.935   2.458   9.471 -1.5456 -0.1904  0.0360
  934SOL     OW 4242   2.603   1.294   8.078 -0.4534  0.3145 -0.6642
  934SOL    HW1 4243   2.574   1.353   8.010  0.5167  0.6355 -0.8186
  934SOL    HW2 4244   2.692   1.323   8.099 -0.3383 -0.4480 -0.0260
  935SOL     OW 4245   0.196   2.402   9.864  0.0127  0.1152  0.2249
  935SOL    HW1 4246   0.104   2.388   9.889  0.9795 -0.9574  3.5930
  935SOL    HW2 4247   0.235   2.448   9.938  2.6009 -0.9511 -0.3725
  936SOL     OW 4248   2.117   3.995   8.618 -0.2731 -0.1778  0.6379
  936SOL    HW1 4249   2.092   4.025   8.531 -1.9367 -0.2238  1.0605
  936SOL    HW2 4250   2.118   4.075   8.672  0.5652 -0.1731  0.6191
  937SOL     OW 4251   0.199   1.307   8.307  0.0825 -0.3416 -0.2190
  937SOL    HW1 4252   0.229   1.394   8.278  1.3995 -0.3269  1.1186
  937SOL    HW2 4253   0.105   1.319   8.323 -0.1594  0.3171 -1.8621
  938SOL     OW 4254   2.495   0.321  10.249  0.2196  0.0074  0.0930
  938SOL    HW1 4255   2.559   0.368  10.194 -0.6822  0.7545 -0.3424
  938SOL    HW2 4256   2.411   0.339  10.208 -0.5388  0.9343  1.9620
  939SOL     OW 4257   0.982   2.168   6.810 -0.3001 -0.1551  0.3580
  939SOL    HW1 4258   1.075   2.173   6.789 -0.1046 -2.7130  0.3544
  939SOL    HW2 4259   0.961   2.255   6.845  1.7418  0.9086 -0.8504
  940SOL     OW 4260   0.937   1.826   9.604  0.1591 -0.7166  0.1926
  940SOL    HW1 4261   0.866   1.888   9.621  0.2255 -1.0968  1.9455
  940SOL    HW2 4262   0.992   1.872   9.540  1.4066  2.0773  3.0187
  941SOL     OW 4263   7.792   1.676  10.368  0.0049  0.2856 -0.0870
  941SOL    HW1 4264   7.823   1.609  10.306 -0.8503 -0.3318  0.1382
  941SOL    HW2 4265   7.858   1.676  10.437 -0.0564 -0.4352 -0.0186
  942SOL     OW 4266   7.690   2.182   8.723 -0.2247  0.2731  0.0910
  942SOL    HW1 4267   7.717   2.152   8.809 -0.7890  1.1169  0.5803
  942SOL    HW2 4268   7.756   2.248   8.699 -1.0044  1.2999  0.6626
  943SOL     OW 4269   1.387   1.210   7.481 -0.2655 -0.0667 -0.1317
  943SOL    HW1 4270   1.303   1.173   7.452 -1.2689  1.9896 -0.0302
  943SOL    HW2 4271   1.372   1.237   7.571 -0.4859  2.8658 -0.9321
  944SOL     OW 4272   0.528   0.576   9.899  0.0678 -0.2402 -0.2123
  944SOL    HW1 4273   0.451   0.551   9.950 -0.0307 -0.8151 -0.6341
  944SOL    HW2 4274   0.602   0.559   9.957 -0.1107  0.2539  0.1724
  945SOL     OW 4275   0.427   7.965   8.347 -0.1694 -0.3497 -0.3092
  945SOL    HW1 4276   0.466   7.895   8.400  0.1825  0.7637  0.9601
  945SOL    HW2 4277   0.335   7.967   8.374 -0.0030  0.1814  0.2217
  946SOL     OW 4278   1.921   2.387   7.869  0.2777  0.2561  0.3170
  946SOL    HW1 4279   1.990   2.327   7.842 -1.0455 -0.7718 -0.9039
  946SOL    HW2 4280   1.882   2.418   7.788 -1.3079  0.0666  0.9624
  947SOL     OW 4281   1.544   1.478   8.815  0.1027  0.4508 -0.0039
  947SOL    HW1 4282   1.610   1.515   8.756 -1.0494  0.1747 -1.5445
  947SOL    HW2 4283   1.504   1.554   8.856  0.1946  0.7175 -0.3941
  948SOL     OW 4284   7.899   2.360   8.690  0.1829 -0.4364 -0.1301
  948SOL    HW1 4285   7.977   2.371   8.745  1.1755 -0.5582 -1.4511
  948SOL    HW2 4286   7.932   2.319   8.609 -1.4517 -1.5973 -0.2593
  949SOL     OW 4287   6.603   0.064   8.050  0.4314  0.6154  0.2359
  949SOL    HW1 4288   6.577   0.111   8.129 -0.9109 -0.4708  0.4692
  949SOL    HW2 4289   6.543   0.096   7.982 -1.1491 -1.3740  0.6135
  950SOL     OW 4290   2.384   0.442   5.141  0.1286 -0.1568 -0.1615
  950SOL    HW1 4291   2.384   0.523   5.091 -0.5978 -0.9005 -1.4292
  950SOL    HW2 4292   2.431   0.380   5.085  1.5766 -0.3875  1.2266
  951SOL     OW 4293   7.669   2.074   7.674 -0.3826  0.1467 -0.0502
  951SOL    HW1 4294   7.631   2.146   7.623 -0.1016 -0.1545 -0.6947
  951SOL    HW2 4295   7.762   2.077   7.654 -0.4366 -0.6936 -0.4606
  952SOL     OW 4296   2.613   1.105   8.296 -0.0645  0.0549  0.2296
  952SOL    HW1 4297   2.650   1.177   8.246  1.1436 -0.0194  0.9782
  952SOL    HW2 4298   2.602   1.034   8.232 -1.6138  0.9840 -0.5870
  953SOL     OW 4299   7.909   2.615  11.399  0.0520  0.5535  0.3315
  953SOL    HW1 4300   7.842   2.559  11.438 -1.1135  0.2580 -1.9347
  953SOL    HW2 4301   7.882   2.704  11.421 -0.6860  0.4015  0.0569
  954SOL     OW 4302   7.233   1.565   9.005 -0.8275 -0.7102 -0.5215
  954SOL    HW1 4303   7.153   1.567   9.058 -0.8276  0.6940 -0.5379
  954SOL    HW2 4304   7.245   1.656   8.976  0.4966 -0.9941 -0.9374
  955SOL     OW 4305   7.824   0.597   7.730  0.2006  0.7949 -0.1112
  955SOL    HW1 4306   7.801   0.544   7.653 -0.2257  0.4101  0.2777
  955SOL    HW2 4307   7.740   0.622   7.768  0.3921 -0.6092  1.3251
  956SOL     OW 4308   1.412   1.787   9.239  0.0121 -0.2488 -0.0074
  956SOL    HW1 4309   1.354   1.730   9.291 -1.3963 -0.1390 -1.3969
  956SOL    HW2 4310   1.363   1.869   9.232  0.7756  0.1710 -0.4079
  957SOL     OW 4311   1.456   1.410   8.551 -0.2936 -0.1990 -0.2206
  957SOL    HW1 4312   1.367   1.445   8.556  0.5028  2.1553 -1.0357
  957SOL    HW2 4313   1.488   1.413   8.641  0.4024  3.3155 -0.4373
  958SOL     OW 4314   1.792   0.812   8.920  0.5101  0.7381 -0.2908
  958SOL    HW1 4315   1.697   0.823   8.916  0.4757  0.0844 -1.7515
  958SOL    HW2 4316   1.808   0.724   8.888  1.4720 -0.1170  2.2386
  959SOL     OW 4317   3.995   1.302   6.973  0.5437  0.0305 -0.7591
  959SOL    HW1 4318   4.015   1.230   7.033 -1.0823 -1.1712 -1.5794
  959SOL    HW2 4319   4.023   1.271   6.887 -0.1509  0.3869 -1.1196
  960SOL     OW 4320   1.936   1.590   9.231  0.3682  0.7633 -0.2488
  960SOL    HW1 4321   1.885   1.654   9.181 -1.2953  0.9015  1.4673
  960SOL    HW2 4322   1.872   1.550   9.290  1.9142 -0.4929  0.6639
  961SOL     OW 4323   1.080   1.930   7.340  0.1739  0.3423 -0.1013
  961SOL    HW1 4324   1.124   1.851   7.371 -1.6986 -0.9439 -0.5594
  961SOL    HW2 4325   1.059   1.911   7.248 -0.7153  1.1733 -0.0869
  962SOL     OW 4326   1.860   1.014   8.060  0.1813 -0.9937 -0.0786
  962SOL    HW1 4327   1.906   0.944   8.105  0.2877 -0.2982  0.9095
  962SOL    HW2 4328   1.768   1.003   8.085  0.3229 -0.2430  0.8312
  963SOL     OW 4329   1.253   0.874   7.034 -0.0117  0.1337 -0.1517
  963SOL    HW1 4330   1.231   0.791   6.992  0.3578  0.8278 -1.8102
  963SOL    HW2 4331   1.349   0.879   7.029 -0.0057  0.5045  0.2527
  964SOL     OW 4332   1.227   1.474   8.064 -0.3734  0.2721  0.4302
  964SOL    HW1 4333   1.308   1.445   8.106 -0.1717 -1.1489 -0.8740
  964SOL    HW2 4334   1.160   1.465   8.132 -0.3675 -3.5139  0.1257
  965SOL     OW 4335   0.840   7.317   8.493 -0.1603  0.2569 -0.0938
  965SOL    HW1 4336   0.933   7.331   8.513 -0.0996  2.5815 -1.5272
  965SOL    HW2 4337   0.839   7.295   8.399 -1.1145  2.0561 -0.5519
  966SOL     OW 4338   1.926   0.547   6.769 -0.0291  0.0123 -0.2797
  966SOL    HW1 4339   2.017   0.527   6.744  0.3641 -1.9250  2.2824
  966SOL    HW2 4340   1.899   0.614   6.706  3.1902  0.7595 -1.0932
  967SOL     OW 4341   2.132   2.304   8.721 -0.0724 -0.2466 -0.2804
  967SOL    HW1 4342   2.063   2.287   8.657 -2.0621  0.9573  1.4044
  967SOL    HW2 4343   2.117   2.239   8.790 -1.7155  1.9819  1.6432
  968SOL     OW 4344   2.532   2.555   6.596 -0.4091 -0.2486 -0.4182
  968SOL    HW1 4345   2.619   2.592   6.611 -0.7708  0.5067 -0.1232
  968SOL    HW2 4346   2.520   2.559   6.501 -0.2484 -0.0684 -0.4315
  969SOL     OW 4347   2.422   3.697   8.867 -0.0029  0.1507  0.0661
  969SOL    HW1 4348   2.501   3.705   8.921  0.3725  2.8880 -0.7319
  969SOL    HW2 4349   2.351   3.687   8.929  0.7099  0.3912  0.9488
  970SOL     OW 4350   0.404   2.834   9.273 -0.0228 -0.1886 -0.4826
  970SOL    HW1 4351   0.471   2.842   9.206  1.1922  0.3314  0.7470
  970SOL    HW2 4352   0.407   2.918   9.320 -0.0875 -0.9134  0.8804
  971SOL     OW 4353   7.014   0.936   7.566 -0.3197 -0.7504  0.0673
  971SOL    HW1 4354   6.967   0.854   7.553  0.4535 -1.1785 -0.0873
  971SOL    HW2 4355   7.105   0.915   7.546  0.1862 -0.2829  1.7348
  972SOL     OW 4356   1.237   0.686   9.620 -0.3284 -0.5071  0.1820
  972SOL    HW1 4357   1.196   0.604   9.646  0.2334 -0.7716  0.2312
  972SOL    HW2 4358   1.169   0.731   9.569 -0.3426 -1.3771 -0.5979
  973SOL     OW 4359   0.465   1.296   8.368 -0.7502 -0.9563  0.4225
  973SOL    HW1 4360   0.371   1.289   8.351 -0.7766  0.3820 -0.1179
  973SOL    HW2 4361   0.506   1.282   8.283 -0.6220  0.9135  0.1282
  974SOL     OW 4362   0.588   1.151   7.794 -0.5380 -0.0547 -0.4559
  974SOL    HW1 4363   0.509   1.123   7.746  1.0923 -1.8098 -2.3401
  974SOL    HW2 4364   0.653   1.084   7.772  1.6125  1.5628  0.6819
  975SOL     OW 4365   2.252   1.601   7.079  0.2188  0.3483 -0.2191
  975SOL    HW1 4366   2.280   1.692   7.072  1.7841 -0.0226  0.8133
  975SOL    HW2 4367   2.277   1.561   6.996  2.8057  0.0504  0.6332
  976SOL     OW 4368   1.879   1.699   7.006 -0.4941 -0.0645  0.4788
  976SOL    HW1 4369   1.889   1.767   7.072 -0.7740  0.3194  0.1271
  976SOL    HW2 4370   1.857   1.620   7.056  1.2694 -0.2482  1.0131
  977SOL     OW 4371   1.906   7.509   8.705 -0.5246  0.1239 -0.3817
  977SOL    HW1 4372   1.990   7.549   8.729 -0.3646  0.4673 -1.4194
  977SOL    HW2 4373   1.843   7.580   8.713 -0.0904  0.9544 -3.1368
  978SOL     OW 4374   2.654   2.054   8.094  0.0194  0.7706  0.3872
  978SOL    HW1 4375   2.619   2.082   8.179  1.8315  1.0871  1.0797
  978SOL    HW2 4376   2.731   2.109   8.081  0.0881  0.3395 -1.2216
  979SOL     OW 4377   1.194   1.501   8.525 -0.1337 -0.2626  0.5669
  979SOL    HW1 4378   1.155   1.585   8.551 -0.0800  0.1645 -0.6562
  979SOL    HW2 4379   1.137   1.470   8.454 -0.1184 -1.2481  0.9635
  980SOL     OW 4380   1.590   2.305   9.497 -0.5731 -0.1751  0.0203
  980SOL    HW1 4381   1.524   2.332   9.561 -0.7142  1.8870 -0.9132
  980SOL    HW2 4382   1.551   2.328   9.412  0.1641 -1.6300 -0.7559
  981SOL     OW 4383   0.734   1.935   7.586  0.4782  0.2760 -0.6501
  981SOL    HW1 4384   0.679   1.958   7.512 -0.2135  0.7358 -0.0114
  981SOL    HW2 4385   0.744   1.840   7.581 -2.1561 -0.1420  0.3886
  982SOL     OW 4386   7.437   0.419   8.373  0.4389  0.5066  0.3445
  982SOL    HW1 4387   7.511   0.479   8.369  0.0659  1.0281  0.9540
  982SOL    HW2 4388   7.473   0.333   8.350  1.1889  0.7830  0.4718
  983SOL     OW 4389   1.868   2.528   8.597 -0.1564 -0.0431 -0.1823
  983SOL    HW1 4390   1.867   2.448   8.546 -0.6723  0.4194 -0.9135
  983SOL    HW2 4391   1.951   2.570   8.574 -0.5088  0.2962 -0.8677
  984SOL     OW 4392   2.158   2.344   9.083 -0.3666  0.0197  0.4386
  984SOL    HW1 4393   2.126   2.413   9.142 -1.8517  0.3695 -0.7002
  984SOL    HW2 4394   2.227   2.386   9.031 -0.0295  0.1179  0.9647
  985SOL     OW 4395   3.154   0.944   9.765 -0.4699  0.2785  0.1271
  985SOL    HW1 4396   3.214   1.008   9.726  0.5244 -0.9971 -0.4893
  985SOL    HW2 4397   3.209   0.868   9.785 -1.7341 -0.6200  0.2994
  986SOL     OW 4398   2.534   0.892   9.051 -0.2273 -0.8897 -0.1512
  986SOL    HW1 4399   2.574   0.906   9.137  0.7656 -0.4764 -0.6757
  986SOL    HW2 4400   2.557   0.970   9.001 -1.4141 -0.7939 -0.5759
  987SOL     OW 4401   2.265   2.262   8.014  0.1427  0.4273  0.3657
  987SOL    HW1 4402   2.215   2.322   7.958  0.5162  0.7302  0.3510
  987SOL    HW2 4403   2.341   2.239   7.962  0.0190 -0.0364  0.3871
  988SOL     OW 4404   1.623   0.028   9.782 -0.4008  0.0984  0.1495
  988SOL    HW1 4405   1.538   0.018   9.826  0.0599 -2.3380  0.6412
  988SOL    HW2 4406   1.602   0.029   9.689 -1.0429  0.2174  0.2944
  989SOL     OW 4407   1.242   7.705   9.308 -0.4693  0.2367  0.2780
  989SOL    HW1 4408   1.256   7.652   9.387 -0.2828 -0.2269 -0.0613
  989SOL    HW2 4409   1.181   7.653   9.255 -0.2984  0.3736 -0.0526
  990SOL     OW 4410   1.507   1.012   9.048 -0.6651 -0.1815 -0.4611
  990SOL    HW1 4411   1.521   1.092   8.997  2.8970  0.6979  1.5524
  990SOL    HW2 4412   1.519   1.039   9.139  0.9145 -3.0154  0.2892
  991SOL     OW 4413   1.468   2.558   8.980  0.5167  0.1316 -0.0072
  991SOL    HW1 4414   1.531   2.505   8.931  0.4454  0.7683 -0.8086
  991SOL    HW2 4415   1.397   2.574   8.917  1.4701  2.8814 -0.4813
  992SOL     OW 4416   7.914   1.129   9.169 -0.2145  0.1484  0.6182
  992SOL    HW1 4417   7.922   1.204   9.111 -1.3710  0.4978  0.8756
  992SOL    HW2 4418   7.953   1.056   9.120 -0.0134  0.7046 -0.0573
  993SOL     OW 4419   0.010   2.536  10.498  0.0937 -0.3944  0.7789
  993SOL    HW1 4420  -0.005   2.551  10.404  2.0233 -0.0700  0.4845
  993SOL    HW2 4421   0.057   2.614  10.527 -0.4628 -0.5108  2.0265
  994SOL     OW 4422   0.820   1.047   8.744  0.2300  0.2938  0.1913
  994SOL    HW1 4423   0.838   1.133   8.782  0.2978  0.8543 -1.0772
  994SOL    HW2 4424   0.906   1.012   8.724  0.2195 -0.2320  1.0217
  995SOL     OW 4425   0.603   0.434   7.697 -0.3149  0.5368 -0.4255
  995SOL    HW1 4426   0.546   0.361   7.722 -1.8319  1.6251 -0.5020
  995SOL    HW2 4427   0.551   0.512   7.718  1.2741  1.5987 -0.2854
  996SOL     OW 4428   1.382   7.866   6.341 -0.5797  0.1680 -0.0779
  996SOL    HW1 4429   1.329   7.883   6.263  1.5470 -0.1916 -1.7145
  996SOL    HW2 4430   1.347   7.785   6.378  0.2061 -1.3826 -2.4800
  997SOL     OW 4431   0.927   1.353   9.002  0.1148 -0.2531  0.2080
  997SOL    HW1 4432   0.941   1.403   8.922 -1.2183 -1.5221 -0.8642
  997SOL    HW2 4433   1.013   1.351   9.044  0.8176  0.5558 -1.1227
  998SOL     OW 4434   2.242   0.406  10.141  0.6700  0.0199 -0.7320
  998SOL    HW1 4435   2.167   0.359  10.178  2.2231 -0.3019  2.2889
  998SOL    HW2 4436   2.210   0.495  10.126  0.3521  0.7922  3.4778
  999SOL     OW 4437   0.669   2.051   9.343 -0.2171  0.2365 -0.1958
  999SOL    HW1 4438   0.644   2.133   9.300  0.1799  0.4317 -0.0591
  999SOL    HW2 4439   0.586   2.014   9.374 -0.1543  2.0191  2.3471
 1000SOL     OW 4440   0.921   3.295   8.993  0.0835  0.4236  0.1003
 1000SOL    HW1 4441   0.958   3.259   8.912  0.4316  0.0685  0.4126
 1000SOL    HW2 4442   0.991   3.349   9.029 -0.5822  1.8029 -0.5876
 1001SOL     OW 4443   4.003   1.737   8.383  0.4981 -0.0789 -0.3215
 1001SOL    HW1 4444   3.991   1.647   8.411  0.3438  0.0790  0.1300
 1001SOL    HW2 4445   4.035   1.731   8.293 -0.6780 -0.5436 -0.7114
 1002SOL     OW 4446   1.620   0.932   8.458 -0.3657 -0.3455 -0.3618
 1002SOL    HW1 4447   1.713   0.955   8.462 -0.6692  0.7278  1.9792
 1002SOL    HW2 4448   1.599   0.933   8.365  1.7966  0.0633 -0.8973
 1003SOL     OW 4449   0.422   7.616   7.136  0.0308  0.4400  0.2443
 1003SOL    HW1 4450   0.503   7.625   7.086  0.2270 -2.8415 -0.2786
 1003SOL    HW2 4451   0.450   7.582   7.221 -0.4983  4.0272  2.0690
 1004SOL     OW 4452   1.622   7.253   8.439  0.1276  0.4523 -0.7554
 1004SOL    HW1 4453   1.593   7.337   8.473 -0.5676 -0.4525  1.0280
 1004SOL    HW2 4454   1.600   7.255   8.346 -1.6951  1.4738 -0.3426
 1005SOL     OW 4455   0.853   1.901   8.135  0.6008 -0.3112 -0.0634
 1005SOL    HW1 4456   0.830   1.955   8.211  1.7136  0.7287 -0.4326
 1005SOL    HW2 4457   0.918   1.953   8.087 -0.5567 -0.6441 -2.1001
 1006SOL     OW 4458   2.343   1.863   7.034  0.2880 -0.0793 -0.0070
 1006SOL    HW1 4459   2.421   1.918   7.029  0.4192 -0.1704  0.8885
 1006SOL    HW2 4460   2.310   1.859   6.944 -0.3374  2.3726  0.0371
 1007SOL     OW 4461   0.766   7.371   9.192 -0.6727 -0.0866 -0.0564
 1007SOL    HW1 4462   0.692   7.390   9.134 -1.3179  2.8266  1.5337
 1007SOL    HW2 4463   0.824   7.447   9.182  0.3787 -0.6622  1.3592
 1008SOL     OW 4464   0.512   1.273   9.577  0.1814  0.3131 -0.7639
 1008SOL    HW1 4465   0.438   1.296   9.520 -0.6403  0.4291  0.3153
 1008SOL    HW2 4466   0.560   1.354   9.588  0.4626  0.2451 -1.4461
 1009SOL     OW 4467   2.237   1.836   6.303 -0.0756 -1.1810  0.4708
 1009SOL    HW1 4468   2.263   1.889   6.228 -2.0795 -1.3809 -0.4293
 1009SOL    HW2 4469   2.269   1.885   6.379  0.5217 -0.1077 -0.4435
 1010SOL     OW 4470   2.182   7.383   9.074  0.1060  0.1238 -0.0432
 1010SOL    HW1 4471   2.178   7.330   9.154  0.6052  0.3059  0.1083
 1010SOL    HW2 4472   2.276   7.396   9.059 -0.0104  1.9204  0.5617
 1011SOL     OW 4473   0.828   0.432   8.435  0.8643 -0.7562  0.4789
 1011SOL    HW1 4474   0.795   0.343   8.442 -0.3396 -0.5501 -1.6688
 1011SOL    HW2 4475   0.896   0.428   8.368  0.1820  0.0404 -0.3005
 1012SOL     OW 4476   2.257   1.187   6.319 -0.3984  0.1092 -1.2650
 1012SOL    HW1 4477   2.177   1.170   6.271 -0.5317 -0.4876 -0.8401
 1012SOL    HW2 4478   2.316   1.116   6.295 -0.1208  0.3403 -1.2877
 1013SOL     OW 4479   2.516   0.938   8.003  0.4404  0.2312 -0.2732
 1013SOL    HW1 4480   2.555   0.868   8.056  0.6643 -0.6944 -1.5985
 1013SOL    HW2 4481   2.468   0.891   7.934  1.2599  1.3761 -1.6657
 1014SOL     OW 4482   1.624   2.022   7.698  0.0351  0.3171  0.4998
 1014SOL    HW1 4483   1.685   1.949   7.682 -0.0018  0.5128 -0.6133
 1014SOL    HW2 4484   1.663   2.070   7.771  0.4104 -0.4408  0.8060
 1015SOL     OW 4485   3.512   2.955   9.369 -0.2140  0.5004 -0.0822
 1015SOL    HW1 4486   3.588   2.960   9.310 -0.7682  0.1056 -0.8498
 1015SOL    HW2 4487   3.496   2.861   9.378 -2.0366  0.5766 -1.8367
 1016SOL     OW 4488   1.580   1.710   7.969 -0.1907 -0.0967  0.3487
 1016SOL    HW1 4489   1.601   1.674   7.883  0.2490  0.4306  0.2343
 1016SOL    HW2 4490   1.524   1.644   8.009 -0.5989 -0.2343 -0.4374
 1017SOL     OW 4491   0.240   1.147   7.168 -0.0137  0.1415 -0.1012
 1017SOL    HW1 4492   0.277   1.182   7.087 -1.1011  1.2120 -0.1678
 1017SOL    HW2 4493   0.297   1.074   7.191  2.1793  1.7109 -0.1744
 1018SOL     OW 4494   7.698   1.190   7.650 -0.1171  0.2335 -0.0516
 1018SOL    HW1 4495   7.649   1.254   7.598 -0.1346 -0.1338 -0.4893
 1018SOL    HW2 4496   7.790   1.211   7.633 -0.1192  0.6284  0.4083
 1019SOL     OW 4497   0.974   1.469   8.759  0.3419 -0.0391  0.1927
 1019SOL    HW1 4498   0.989   1.542   8.698 -1.6376  0.8040  0.6516
 1019SOL    HW2 4499   0.997   1.391   8.708  3.4486  0.8500 -0.0248
 1020SOL     OW 4500   1.124   0.425   7.600 -0.2472 -0.2009 -0.6163
 1020SOL    HW1 4501   1.116   0.345   7.652  1.0807 -0.5733 -0.9315
 1020SOL    HW2 4502   1.038   0.436   7.560 -0.9277 -0.5905  0.6622
 1021SOL     OW 4503   0.827   0.334  10.650  0.0181 -0.1582  0.1835
 1021SOL    HW1 4504   0.812   0.318  10.557 -1.6709 -2.0095  0.6874
 1021SOL    HW2 4505   0.745   0.372  10.681  0.9635  1.5037  0.7315
 1022SOL     OW 4506   1.034   7.826   7.627  0.4600 -0.1218  0.0147
 1022SOL    HW1 4507   0.984   7.822   7.709  1.2460  1.2824  0.5927
 1022SOL    HW2 4508   1.058   7.734   7.610 -1.1760 -0.6585  0.3992
 1023SOL     OW 4509   7.701   0.468   7.500  0.0801  0.2808 -0.3346
 1023SOL    HW1 4510   7.656   0.552   7.486 -0.7595  0.1529  1.3708
 1023SOL    HW2 4511   7.632   0.408   7.529  0.6297 -1.0895 -1.7038
 1024SOL     OW 4512   7.285   1.607   8.401  0.2461 -0.4912  0.3209
 1024SOL    HW1 4513   7.362   1.593   8.345 -0.6225 -2.6979 -0.4528
 1024SOL    HW2 4514   7.245   1.686   8.366 -0.1872 -1.7181 -2.2212
 1025SOL     OW 4515   7.387   0.858   8.849  0.2050  0.4657  0.1981
 1025SOL    HW1 4516   7.295   0.882   8.852 -0.2890 -1.3156 -0.1243
 1025SOL    HW2 4517   7.430   0.936   8.813 -1.3688  0.8042 -1.0928
 1026SOL     OW 4518   7.210   1.003   8.655 -0.1374 -0.7721  0.1718
 1026SOL    HW1 4519   7.215   1.054   8.736  0.0922 -0.4941 -0.0168
 1026SOL    HW2 4520   7.252   1.058   8.589  0.7870 -1.5060  0.1247
 1027SOL     OW 4521   3.899   0.381   7.454 -0.1516  0.1272  0.4743
 1027SOL    HW1 4522   3.829   0.431   7.413  0.6119 -0.1815 -1.3086
 1027SOL    HW2 4523   3.892   0.293   7.417  0.6055 -0.1564  0.9655
 1028SOL     OW 4524   6.964   1.076   8.477  0.1946  0.1923 -0.0295
 1028SOL    HW1 4525   7.004   1.074   8.390  0.7817 -0.9803  0.2485
 1028SOL    HW2 4526   7.027   1.031   8.533 -0.8396 -0.3427  0.7224
 1029SOL     OW 4527   7.702   1.119   9.332 -0.4803  0.4647 -0.2291
 1029SOL    HW1 4528   7.646   1.190   9.301 -0.3506  0.6370 -0.0704
 1029SOL    HW2 4529   7.779   1.123   9.276 -1.0417 -0.3836 -1.0832
 1030SOL     OW 4530   1.906   2.487   9.759  0.4276  0.0295  0.7801
 1030SOL    HW1 4531   1.831   2.545   9.746  0.6597  0.3117  0.6836
 1030SOL    HW2 4532   1.881   2.431   9.833  0.0439 -0.0104  0.6215
 1031SOL     OW 4533   2.377   0.978   7.141 -0.0338 -0.3791 -0.2639
 1031SOL    HW1 4534   2.352   1.051   7.085 -0.1308 -1.3739 -1.5715
 1031SOL    HW2 4535   2.447   0.934   7.094  0.7353 -0.5534  0.9880
 1032SOL     OW 4536   0.250   0.013   7.575 -0.0359 -0.7801 -0.7169
 1032SOL    HW1 4537   0.233   0.107   7.578  0.5651 -0.6854 -0.2788
 1032SOL    HW2 4538   0.296  -0.000   7.492 -1.6220 -0.9479 -1.6112
 1033SOL     OW 4539   1.903   1.422   8.142 -0.7977 -0.8045 -0.1530
 1033SOL    HW1 4540   1.886   1.515   8.126  0.0207 -0.7879 -0.9606
 1033SOL    HW2 4541   1.840   1.399   8.210 -0.2947  0.5925  0.8260
 1034SOL     OW 4542   0.309   7.990   7.873 -0.7279 -0.4682 -0.0245
 1034SOL    HW1 4543   0.299   7.977   7.779  2.8256  0.9025 -0.7398
 1034SOL    HW2 4544   0.353   7.911   7.903  1.0987  0.4166 -0.2255
 1035SOL     OW 4545   0.768   2.031   9.610 -0.3255  0.0301 -0.3770
 1035SOL    HW1 4546   0.711   2.006   9.537 -0.3362 -0.1908 -0.2960
 1035SOL    HW2 4547   0.708   2.063   9.678 -0.2444  1.2155 -0.8404
 1036SOL     OW 4548   2.271   1.224   8.154  0.4204  0.5138 -0.1184
 1036SOL    HW1 4549   2.363   1.202   8.144  0.0492 -0.4752 -1.6604
 1036SOL    HW2 4550   2.256   1.295   8.092  0.1437  0.6963  0.1501
 1037SOL     OW 4551   1.100   2.063  10.264 -0.2425  0.2769 -0.0896
 1037SOL    HW1 4552   1.157   2.131  10.229 -0.7044  0.2387 -0.9334
 1037SOL    HW2 4553   1.141   2.038  10.347  1.2995 -0.1593 -0.9443
 1038SOL     OW 4554   2.418   1.490   7.908  0.5337 -0.3412  0.4739
 1038SOL    HW1 4555   2.417   1.404   7.866  0.8183  0.1983 -0.6677
 1038SOL    HW2 4556   2.329   1.501   7.942  0.4981 -1.0824  0.6489
 1039SOL     OW 4557   2.298   2.202   7.554  0.2676 -0.3305  0.2402
 1039SOL    HW1 4558   2.312   2.151   7.635 -0.9980 -1.4980 -0.2456
 1039SOL    HW2 4559   2.322   2.141   7.484  1.6658  0.7823 -0.2970
 1040SOL     OW 4560   2.353   2.022   7.753 -0.2551  0.2650  0.0087
 1040SOL    HW1 4561   2.433   2.071   7.775 -1.2852  2.3050 -0.5602
 1040SOL    HW2 4562   2.336   1.969   7.831  0.4005  1.5246  1.0444
 1041SOL     OW 4563   0.705   1.752   7.936 -0.3649  0.4874 -0.4964
 1041SOL    HW1 4564   0.749   1.806   8.002 -0.2683  1.0454 -1.0164
 1041SOL    HW2 4565   0.776   1.713   7.885 -0.4553  0.8969 -0.9411
 1042SOL     OW 4566   0.176   2.718  10.739  0.0636  0.3208 -0.3598
 1042SOL    HW1 4567   0.233   2.732  10.815 -1.0216 -0.8628  0.7174
 1042SOL    HW2 4568   0.214   2.643  10.694 -0.2746 -0.0679 -0.0009
 1043SOL     OW 4569   1.383   1.530  10.041  0.0354 -0.0758  0.6922
 1043SOL    HW1 4570   1.322   1.592  10.002  0.2147 -1.6338 -2.3913
 1043SOL    HW2 4571   1.467   1.547   9.997  0.5204 -1.2951  1.0855
 1044SOL     OW 4572   3.916   0.107   7.398 -0.0430 -0.3544 -0.0249
 1044SOL    HW1 4573   3.943   0.122   7.308  2.6048 -3.1336  0.1350
 1044SOL    HW2 4574   3.988   0.141   7.451 -2.1694  2.5587  1.2944
 1045SOL     OW 4575   1.568   1.023   9.756 -0.4214 -0.2760 -0.2254
 1045SOL    HW1 4576   1.582   0.930   9.740 -0.4293 -0.6193  1.6086
 1045SOL    HW2 4577   1.476   1.037   9.735 -0.5483 -0.7894 -0.0335
 1046SOL     OW 4578   7.887   0.476   9.192 -0.4123 -0.5594  0.2868
 1046SOL    HW1 4579   7.899   0.393   9.237 -1.0859 -0.7128  0.2039
 1046SOL    HW2 4580   7.833   0.528   9.252  0.3927 -0.0044  0.5428
 1047SOL     OW 4581   0.892   7.320   6.564  0.5204 -0.2336  0.0831
 1047SOL    HW1 4582   0.854   7.282   6.643  1.5598  1.0735  1.2590
 1047SOL    HW2 4583   0.842   7.281   6.492 -0.3906 -1.5208  1.3615
 1048SOL     OW 4584   0.811   6.883   8.086 -1.0992 -0.6898  0.1922
 1048SOL    HW1 4585   0.868   6.958   8.069  0.2706 -1.7900 -0.2659
 1048SOL    HW2 4586   0.871   6.812   8.107 -2.1098 -2.4745 -2.3941
 1049SOL     OW 4587   7.837   0.782   7.474 -0.7818  0.1449 -1.3822
 1049SOL    HW1 4588   7.914   0.727   7.485 -1.6118 -1.2016 -1.9756
 1049SOL    HW2 4589   7.843   0.814   7.384 -1.1747 -0.4006 -1.6078
 1050SOL     OW 4590   1.068   2.972   8.490 -0.4186 -0.7411  0.1520
 1050SOL    HW1 4591   1.039   2.932   8.408  2.6338  0.6451 -1.8240
 1050SOL    HW2 4592   1.023   3.056   8.493  0.7575 -0.0245 -1.1302
 1051SOL     OW 4593   1.894   7.981   8.942 -0.0648 -0.2280 -0.3117
 1051SOL    HW1 4594   1.965   7.923   8.969 -1.8947 -2.5550 -0.0910
 1051SOL    HW2 4595   1.930   8.069   8.949  3.7222 -1.3312 -3.0619
 1052SOL     OW 4596   0.422   1.784   8.951 -0.3255 -0.1779 -0.4045
 1052SOL    HW1 4597   0.374   1.866   8.964 -2.8180 -1.5104 -0.5135
 1052SOL    HW2 4598   0.458   1.792   8.862  0.1606  1.1078 -0.1067
 1053SOL     OW 4599   2.050   2.106   6.899 -0.6812  0.3376 -0.1281
 1053SOL    HW1 4600   1.977   2.100   6.837 -1.4011  0.2749  0.7150
 1053SOL    HW2 4601   2.011   2.089   6.985  0.6184 -1.4193  0.1721
 1054SOL     OW 4602   1.217   1.066   9.165 -0.1438 -0.4003 -0.1587
 1054SOL    HW1 4603   1.242   1.029   9.250 -2.3110  0.2573  0.8410
 1054SOL    HW2 4604   1.297   1.062   9.113  0.6902 -2.9056  1.1445
 1055SOL     OW 4605   3.310   0.388   9.583 -0.4380  0.2007  0.2572
 1055SOL    HW1 4606   3.274   0.302   9.560  0.0600  0.6278 -2.5019
 1055SOL    HW2 4607   3.240   0.450   9.564 -0.6329  0.4831  1.7869
 1056SOL     OW 4608   2.136   1.385   7.215 -0.3165 -0.3949 -0.4754
 1056SOL    HW1 4609   2.221   1.357   7.250  0.3229  1.6414 -0.3050
 1056SOL    HW2 4610   2.154   1.467   7.170 -2.4277  0.8857  0.8230
 1057SOL     OW 4611   0.057   2.659   8.950 -0.5474  0.5524 -0.5526
 1057SOL    HW1 4612   0.047   2.696   8.862  0.1252  0.3765 -0.7107
 1057SOL    HW2 4613   0.146   2.683   8.975 -0.1028 -0.9280 -0.6423
 1058SOL     OW 4614   2.108   0.977   9.321 -0.0114 -0.7845  0.5208
 1058SOL    HW1 4615   2.075   0.974   9.231 -0.0545 -2.2035  0.5568
 1058SOL    HW2 4616   2.064   0.903   9.364  0.7420 -0.7037  1.4421
 1059SOL     OW 4617   2.533   1.274   8.618 -0.5492 -0.8764 -0.1975
 1059SOL    HW1 4618   2.550   1.195   8.567 -0.1779 -0.8490 -0.1192
 1059SOL    HW2 4619   2.477   1.327   8.562 -0.4153 -0.9914 -0.4424
 1060SOL     OW 4620   1.304   0.852   7.325 -0.0195 -0.1424 -0.4372
 1060SOL    HW1 4621   1.342   0.840   7.238 -1.1841  1.0715 -1.1387
 1060SOL    HW2 4622   1.379   0.876   7.380  1.2894 -3.6788 -0.3507
 1061SOL     OW 4623   1.830   2.823   7.418 -0.0573 -0.4661 -0.4968
 1061SOL    HW1 4624   1.874   2.906   7.397  0.0544 -0.5333 -0.5308
 1061SOL    HW2 4625   1.898   2.770   7.460 -0.9911  0.7646  2.8846
 1062SOL     OW 4626   2.069   2.365   7.441 -0.0287  0.3876 -0.6496
 1062SOL    HW1 4627   1.980   2.330   7.434 -0.1569  0.7372 -0.7909
 1062SOL    HW2 4628   2.121   2.292   7.473 -0.6765  0.6464  1.0654
 1063SOL     OW 4629   2.253   1.620   9.655  0.8124 -0.2884  0.2060
 1063SOL    HW1 4630   2.324   1.664   9.609 -0.0978 -0.0512 -1.0135
 1063SOL    HW2 4631   2.175   1.671   9.634 -0.1121 -1.8808 -0.4687
 1064SOL     OW 4632   0.816   0.869   9.922 -0.2807  0.0006 -0.4422
 1064SOL    HW1 4633   0.815   0.779   9.953 -0.0945  0.9337  2.6230
 1064SOL    HW2 4634   0.730   0.904   9.947 -0.5437  0.5986 -2.0169
 1065SOL     OW 4635   0.528   1.267   9.228 -0.3251 -0.8226  0.5059
 1065SOL    HW1 4636   0.564   1.267   9.139  0.4757 -1.2292  0.8148
 1065SOL    HW2 4637   0.603   1.287   9.284 -1.0485  0.5519  1.0184
 1066SOL     OW 4638   0.401   1.386   7.912  0.2109 -0.4035  0.2653
 1066SOL    HW1 4639   0.444   1.403   7.829 -1.1689 -0.8628 -0.5818
 1066SOL    HW2 4640   0.425   1.460   7.968  0.2844  0.4628 -0.8910
 1067SOL     OW 4641   2.954   1.069   9.174 -0.4113  0.5420 -0.1802
 1067SOL    HW1 4642   2.995   1.085   9.089 -0.7586 -0.9126 -0.6452
 1067SOL    HW2 4643   2.860   1.073   9.155 -0.4910 -0.0788  0.0614
 1068SOL     OW 4644   7.478   0.561   6.296  0.6956  0.1723 -0.2990
 1068SOL    HW1 4645   7.448   0.634   6.241  2.6398  1.1086 -0.2139
 1068SOL    HW2 4646   7.398   0.525   6.334 -0.3765  1.9629 -0.7270
 1069SOL     OW 4647   1.174   1.246   6.260  0.3218 -0.2411  0.3292
 1069SOL    HW1 4648   1.142   1.330   6.226 -1.4918 -0.3976  1.5001
 1069SOL    HW2 4649   1.240   1.218   6.197  0.2939  1.6136 -0.5872
 1070SOL     OW 4650   0.794   0.738   8.736 -0.4449  0.3901  0.4404
 1070SOL    HW1 4651   0.737   0.813   8.751  0.0183  0.6155  1.0982
 1070SOL    HW2 4652   0.869   0.752   8.794  0.8748  0.7243 -1.2629
 1071SOL     OW 4653   2.445   4.347   8.593  0.3193 -0.2358  0.7544
 1071SOL    HW1 4654   2.491   4.390   8.520 -1.4896 -1.0154 -0.9409
 1071SOL    HW2 4655   2.376   4.409   8.616 -1.4564 -1.5434 -0.7919
 1072SOL     OW 4656   1.721   1.380   8.341  0.3147  0.4811  0.1141
 1072SOL    HW1 4657   1.718   1.473   8.321 -0.7779  0.4632  0.1644
 1072SOL    HW2 4658   1.661   1.369   8.414 -1.0359 -0.5509 -1.0981
 1073SOL     OW 4659   3.134   0.535   8.952 -0.0834 -0.4501 -0.1567
 1073SOL    HW1 4660   3.044   0.569   8.958 -0.0030 -0.4732  2.6247
 1073SOL    HW2 4661   3.123   0.448   8.914 -1.1622 -0.1991 -0.4769
 1074SOL     OW 4662   1.248   1.253   8.950 -0.1569  0.1636 -0.2630
 1074SOL    HW1 4663   1.241   1.345   8.976 -1.5769  0.1157 -0.4099
 1074SOL    HW2 4664   1.338   1.244   8.917  0.7472  0.9347  1.8503
 1075SOL     OW 4665   1.489   2.036   8.989  0.2313 -0.3851  0.4936
 1075SOL    HW1 4666   1.423   2.062   9.053  0.4959  1.1399  0.1857
 1075SOL    HW2 4667   1.472   1.943   8.974 -1.6291 -0.1292  0.6884
 1076SOL     OW 4668   0.926   7.811   6.689 -0.0161  0.3611  0.3754
 1076SOL    HW1 4669   0.953   7.902   6.676  2.1542 -0.4554 -1.2543
 1076SOL    HW2 4670   0.842   7.804   6.644 -0.6897  1.7473  1.3303
 1077SOL     OW 4671   0.684   1.761   6.048 -0.5019  0.3016  0.6868
 1077SOL    HW1 4672   0.658   1.773   6.139 -0.7813 -2.0120  0.9832
 1077SOL    HW2 4673   0.779   1.750   6.052 -0.7008 -1.6354  0.9919
 1078SOL     OW 4674   2.584   7.113   7.074  0.2739  0.4662  0.2371
 1078SOL    HW1 4675   2.614   7.189   7.124  1.3375  1.5765 -1.9466
 1078SOL    HW2 4676   2.518   7.149   7.014  1.1644 -0.1998 -1.1892
 1079SOL     OW 4677   1.161   0.085   7.562 -0.2630  0.3093 -0.2594
 1079SOL    HW1 4678   1.141   0.141   7.637  0.0067 -0.3420  0.3116
 1079SOL    HW2 4679   1.115   0.003   7.580 -0.1048  0.1099 -0.7469
 1080SOL     OW 4680   7.916   1.330   8.322  0.4999 -0.2829  0.3249
 1080SOL    HW1 4681   7.943   1.410   8.367  2.0145  0.3527 -1.5666
 1080SOL    HW2 4682   7.826   1.316   8.351  0.7996  1.0623  2.1067
 1081SOL     OW 4683   3.293   0.860   9.380 -0.1659 -0.2409 -0.1207
 1081SOL    HW1 4684   3.365   0.884   9.438  0.1069  1.2590 -1.0137
 1081SOL    HW2 4685   3.334   0.853   9.294 -1.2190  1.6418 -0.8193
 1082SOL     OW 4686   1.849   2.336   6.638  0.3554  0.6675 -0.0448
 1082SOL    HW1 4687   1.932   2.344   6.686  1.0068  0.0079 -1.0093
 1082SOL    HW2 4688   1.825   2.244   6.646 -1.0565  1.1231  1.4131
 1083SOL     OW 4689   1.435   2.692   6.677 -0.0916  0.0476 -0.2862
 1083SOL    HW1 4690   1.469   2.602   6.673  1.2158  0.4875  0.2311
 1083SOL    HW2 4691   1.431   2.711   6.771  0.9379  0.9897 -0.4193
 1084SOL     OW 4692   2.462   1.477   8.445 -0.3795 -0.2849 -0.3408
 1084SOL    HW1 4693   2.429   1.513   8.363 -0.0654  0.2854 -0.2221
 1084SOL    HW2 4694   2.513   1.548   8.484  1.8000 -1.3958 -0.9770
 1085SOL     OW 4695   0.601   2.994   9.462 -0.4829  0.6786  0.3623
 1085SOL    HW1 4696   0.535   2.971   9.528  0.1374  1.5409  1.3112
 1085SOL    HW2 4697   0.646   2.911   9.444 -1.4122  0.2063  0.1503
 1086SOL     OW 4698   7.560   1.324   9.198  0.6600  0.2979 -0.0321
 1086SOL    HW1 4699   7.622   1.394   9.175  0.8893  0.4866  1.0984
 1086SOL    HW2 4700   7.571   1.259   9.129 -0.1505  1.7294 -1.5919
 1087SOL     OW 4701   1.619   0.890   8.175 -0.2038 -0.5255  0.3242
 1087SOL    HW1 4702   1.530   0.894   8.142  0.1093  1.1456 -0.4146
 1087SOL    HW2 4703   1.641   0.796   8.173 -0.9027 -0.7168 -2.3896
 1088SOL     OW 4704   0.245   6.821   5.743  0.2144  0.3183 -0.3496
 1088SOL    HW1 4705   0.242   6.734   5.783  1.8023  1.3658  2.3653
 1088SOL    HW2 4706   0.322   6.819   5.687  0.2526 -0.0461 -0.2847
 1089SOL     OW 4707   7.658   1.500   8.815 -0.1169  0.0329  0.2239
 1089SOL    HW1 4708   7.711   1.517   8.737  1.6501 -1.3766  1.0257
 1089SOL    HW2 4709   7.637   1.587   8.849 -1.2297  0.6834 -1.9748
 1090SOL     OW 4710   1.967   1.537   8.563  0.3771 -0.2576  0.4206
 1090SOL    HW1 4711   1.990   1.628   8.582  1.6251 -0.0538 -1.7469
 1090SOL    HW2 4712   2.038   1.505   8.508 -1.3694 -1.6890 -1.1541
 1091SOL     OW 4713   1.759   7.164   9.611 -0.2868  0.6405 -0.7377
 1091SOL    HW1 4714   1.759   7.256   9.585 -1.6599  1.2427  1.1482
 1091SOL    HW2 4715   1.851   7.139   9.615  0.3353  2.8823  1.6321
 1092SOL     OW 4716   1.364   1.324   8.255 -0.3106  0.3514 -0.3736
 1092SOL    HW1 4717   1.355   1.368   8.339 -1.9608 -1.3716  0.4188
 1092SOL    HW2 4718   1.362   1.231   8.276  0.0952 -0.1278 -2.2575
 1093SOL     OW 4719   2.000   0.853   8.266 -0.2215  0.0511  0.2155
 1093SOL    HW1 4720   2.085   0.859   8.222  0.2094  1.5298  1.1487
 1093SOL    HW2 4721   1.959   0.775   8.229  1.2593 -0.3205 -0.7480
 1094SOL     OW 4722   1.700   0.131   8.056 -0.2607  0.2626 -0.1571
 1094SOL    HW1 4723   1.694   0.077   7.977  0.1179 -0.3352  0.2219
 1094SOL    HW2 4724   1.731   0.216   8.024  0.0634 -0.0284 -0.6307
 1095SOL     OW 4725   7.093   2.400   8.245  0.0694  0.6230  0.0390
 1095SOL    HW1 4726   7.047   2.343   8.307  0.4740  0.5021  0.2325
 1095SOL    HW2 4727   7.065   2.369   8.159  0.0788  0.3092  0.1476
 1096SOL     OW 4728   0.871   0.797   9.074  0.4227 -0.0020  0.0827
 1096SOL    HW1 4729   0.937   0.759   9.132  0.4495  0.9398  0.6853
 1096SOL    HW2 4730   0.914   0.873   9.035 -0.3778  0.8265  0.7452
 1097SOL     OW 4731   3.315   0.803   6.242 -0.0187 -0.0999  0.2867
 1097SOL    HW1 4732   3.264   0.822   6.164 -0.6991  1.4154  1.0442
 1097SOL    HW2 4733   3.385   0.868   6.242 -0.2617  0.1825  1.1247
 1098SOL     OW 4734   0.829   0.217   7.213 -0.0388 -0.0194 -0.2029
 1098SOL    HW1 4735   0.911   0.204   7.261 -0.1504  0.3210  0.0894
 1098SOL    HW2 4736   0.846   0.294   7.159 -0.7338  1.1402  1.1704
 1099SOL     OW 4737   2.371   6.173  10.497  0.0120 -0.0815  0.3711
 1099SOL    HW1 4738   2.448   6.218  10.463  0.7795 -0.6160  1.3321
 1099SOL    HW2 4739   2.313   6.243  10.526 -0.5724  0.3831 -1.7505
 1100SOL     OW 4740   7.435   1.237   6.121  0.1926  0.1313 -0.2427
 1100SOL    HW1 4741   7.342   1.216   6.109 -0.4891  2.2984  0.6617
 1100SOL    HW2 4742   7.451   1.224   6.214  1.1686 -1.3823 -0.5885
 1101SOL     OW 4743   1.995   2.011   9.357 -0.7248 -0.4113 -0.1254
 1101SOL    HW1 4744   1.914   1.960   9.352 -0.7746 -0.2421 -1.1960
 1101SOL    HW2 4745   1.968   2.095   9.394 -0.8041 -0.8027  0.7401
 1102SOL     OW 4746   7.649   0.560   9.956 -0.0589  0.3441 -0.3463
 1102SOL    HW1 4747   7.735   0.595   9.933 -0.2216  1.6771  0.9713
 1102SOL    HW2 4748   7.667   0.471   9.987  0.5425 -0.2373 -2.2088
 1103SOL     OW 4749   0.245   0.836  11.032 -0.8244 -0.6126  0.0174
 1103SOL    HW1 4750   0.302   0.857  10.959 -1.8183 -1.1788 -0.9527
 1103SOL    HW2 4751   0.272   0.748  11.060 -0.0083 -0.1365  0.7897
 1104SOL     OW 4752   1.033   7.920   9.718  0.2423 -0.2632  0.0697
 1104SOL    HW1 4753   1.026   7.844   9.777 -1.6312  0.4863  0.9111
 1104SOL    HW2 4754   1.092   7.891   9.648 -1.4517 -2.9928 -0.3776
 1105SOL     OW 4755   1.611   0.441   8.542  0.4714 -0.6860  0.3096
 1105SOL    HW1 4756   1.555   0.417   8.467  0.3468 -0.8972  0.4703
 1105SOL    HW2 4757   1.598   0.535   8.551 -2.2594 -1.1252  2.2441
 1106SOL     OW 4758   0.745   1.092   9.671  0.5673 -1.0288  0.0504
 1106SOL    HW1 4759   0.785   1.091   9.758 -0.1031 -1.1477  0.3667
 1106SOL    HW2 4760   0.814   1.123   9.612  0.7066  0.0673  0.7838
 1107SOL     OW 4761   2.014   0.464  10.813 -0.0021 -0.2976 -0.5505
 1107SOL    HW1 4762   1.919   0.452  10.824 -0.3882  2.1988 -0.5158
 1107SOL    HW2 4763   2.044   0.494  10.899  0.5213  0.3809 -0.9597
 1108SOL     OW 4764   2.226   1.572   9.108 -0.0025 -0.2121  0.4908
 1108SOL    HW1 4765   2.286   1.559   9.182 -0.7497  0.9380  1.3259
 1108SOL    HW2 4766   2.269   1.638   9.054  0.2692 -0.6265  0.1959
 1109SOL     OW 4767   0.864   0.598  10.257 -0.2383 -1.0976 -0.8011
 1109SOL    HW1 4768   0.899   0.686  10.271  1.7239 -2.0321  0.6528
 1109SOL    HW2 4769   0.882   0.579  10.165 -1.4486  0.2904 -1.3650
 1110SOL     OW 4770   2.402   7.896  10.297  0.2470 -0.1445 -0.1763
 1110SOL    HW1 4771   2.309   7.880  10.286  0.2890 -0.1166 -0.5967
 1110SOL    HW2 4772   2.442   7.861  10.217  0.8160 -1.9577  0.8704
 1111SOL     OW 4773   2.323   1.866   7.983  0.1447  0.2173 -0.1569
 1111SOL    HW1 4774   2.253   1.808   8.010  0.1698  0.1527 -0.2304
 1111SOL    HW2 4775   2.389   1.859   8.052  0.8491 -1.0410 -0.9259
 1112SOL     OW 4776   1.350   5.886   9.657  0.2606  0.1693  0.6950
 1112SOL    HW1 4777   1.423   5.888   9.595 -0.5868 -1.1152 -0.4102
 1112SOL    HW2 4778   1.368   5.810   9.713 -0.6000 -0.6238 -0.0852
 1113SOL     OW 4779   0.262   0.577  10.311  0.2537 -0.0678 -0.6726
 1113SOL    HW1 4780   0.185   0.579  10.368  0.5209  0.0666 -0.3176
 1113SOL    HW2 4781   0.305   0.494  10.332 -0.1175 -0.4266 -1.3020
 1114SOL     OW 4782   2.749   0.983  10.981 -0.2188  0.2382  0.2363
 1114SOL    HW1 4783   2.719   0.909  11.033  0.1281  0.5129  0.8339
 1114SOL    HW2 4784   2.688   1.054  11.001 -0.2535  0.2640  0.0466
 1115SOL     OW 4785   7.000   7.679  12.354 -0.0816  0.0591  0.2513
 1115SOL    HW1 4786   6.987   7.693  12.261 -0.7962  0.0572  0.3448
 1115SOL    HW2 4787   7.023   7.766  12.388  0.6962 -0.0402 -0.0000
 1116SOL     OW 4788   3.750   7.485  10.586  0.5967  0.2433  0.0522
 1116SOL    HW1 4789   3.739   7.430  10.664 -1.7243  3.1767  1.9985
 1116SOL    HW2 4790   3.710   7.434  10.515 -2.5735 -0.2022  1.9808
 1117SOL     OW 4791   1.224   1.524   7.603 -0.8198  0.2909 -0.2742
 1117SOL    HW1 4792   1.228   1.577   7.683 -0.5814 -0.1664  0.0244
 1117SOL    HW2 4793   1.275   1.445   7.624  0.5897  0.8614 -1.3954
 1118SOL     OW 4794   7.856   0.674  11.949 -0.4195  0.2301 -0.2936
 1118SOL    HW1 4795   7.947   0.645  11.954 -0.7670 -0.7225  1.6492
 1118SOL    HW2 4796   7.805   0.596  11.971 -1.6637  0.9336 -0.6021
 1119SOL     OW 4797   1.326   2.242   9.654 -0.3148 -0.7141 -0.0100
 1119SOL    HW1 4798   1.352   2.185   9.727  2.3865  0.6353  0.2279
 1119SOL    HW2 4799   1.234   2.261   9.670 -0.1642 -1.5609  2.3037
 1120SOL     OW 4800   1.494   2.219  10.609  0.0992 -0.3069 -0.2042
 1120SOL    HW1 4801   1.554   2.255  10.674 -2.2396 -0.9698  2.4804
 1120SOL    HW2 4802   1.552   2.174  10.546  2.4862  0.5826  1.2226
 1121SOL     OW 4803   1.006   2.016  11.073  0.2705  0.1448 -0.3773
 1121SOL    HW1 4804   0.981   2.104  11.100  0.0687  0.3312 -1.1518
 1121SOL    HW2 4805   1.097   2.024  11.044  0.1672  0.1529 -0.6999
 1122SOL     OW 4806   1.168   1.889  10.791 -0.5049 -0.1077  0.1334
 1122SOL    HW1 4807   1.203   1.923  10.873  0.8769 -0.2688 -0.3623
 1122SOL    HW2 4808   1.121   1.810  10.816  1.1256 -0.9636  0.6450
 1123SOL     OW 4809   1.639   2.888  10.962 -0.0554  0.5303 -0.5628
 1123SOL    HW1 4810   1.734   2.901  10.962 -0.1070  1.1278  1.3378
 1123SOL    HW2 4811   1.605   2.958  11.018 -1.5838  0.0326 -0.8239
 1124SOL     OW 4812   0.765   1.041  10.193  1.1120  0.0270 -0.0156
 1124SOL    HW1 4813   0.682   1.053  10.148  1.4677  0.4428 -0.5832
 1124SOL    HW2 4814   0.822   1.110  10.157  1.3790  0.4393  1.1565
 1125SOL     OW 4815   7.978   2.256   8.447 -0.4174  0.2069  0.2907
 1125SOL    HW1 4816   8.063   2.224   8.418 -0.7024  0.8478 -1.4079
 1125SOL    HW2 4817   7.916   2.217   8.385 -1.5242 -1.1000  2.1233
 1126SOL     OW 4818   0.780   0.319  10.011  0.1684  0.5636  0.0293
 1126SOL    HW1 4819   0.703   0.262  10.021 -1.3871  2.2146 -1.7285
 1126SOL    HW2 4820   0.844   0.265   9.964 -0.5614 -0.2996 -0.0058
 1127SOL     OW 4821   2.385   1.648   7.322 -0.2498  0.4466  0.2146
 1127SOL    HW1 4822   2.335   1.704   7.381  0.8314  1.6786  0.0192
 1127SOL    HW2 4823   2.329   1.637   7.246 -0.5145  1.2261  0.2862
 1128SOL     OW 4824   1.334   0.824  11.414 -0.0978  0.1862 -0.2900
 1128SOL    HW1 4825   1.242   0.851  11.416 -0.1635  0.1831 -1.8611
 1128SOL    HW2 4826   1.342   0.772  11.334  1.1124 -0.4484  0.2157
 1129SOL     OW 4827   0.869   0.341  10.363  0.3739  0.2933 -0.0618
 1129SOL    HW1 4828   0.871   0.434  10.338  0.1411 -0.0529 -1.4024
 1129SOL    HW2 4829   0.950   0.305  10.330  0.5220  0.0274  0.5718
 1130SOL     OW 4830   2.424   0.669  10.696  0.1758  0.1139 -0.5427
 1130SOL    HW1 4831   2.419   0.615  10.775 -1.6316  0.6212 -0.2623
 1130SOL    HW2 4832   2.481   0.742  10.721  1.7428 -1.0374 -0.5810
 1131SOL     OW 4833   1.863   7.774   8.709  0.4673  0.4642 -0.1244
 1131SOL    HW1 4834   1.829   7.823   8.783 -0.2694 -0.1726 -0.0255
 1131SOL    HW2 4835   1.942   7.821   8.682  1.2331  0.2131  1.5989
 1132SOL     OW 4836   7.188   0.386   9.553 -1.2491  0.5349  0.1834
 1132SOL    HW1 4837   7.191   0.405   9.459 -1.2431 -0.4924 -0.0398
 1132SOL    HW2 4838   7.162   0.469   9.593 -2.9174  0.5940 -0.8796
 1133SOL     OW 4839   3.651   1.042   9.802 -0.0162 -0.0233 -0.5041
 1133SOL    HW1 4840   3.655   1.090   9.719 -0.6008 -0.8423 -1.0260
 1133SOL    HW2 4841   3.571   1.075   9.844  0.2992  0.4175 -0.2434
 1134SOL     OW 4842   1.336   2.583  11.288 -0.3161  0.4190  0.3322
 1134SOL    HW1 4843   1.381   2.586  11.203  0.5034  0.2084  0.7452
 1134SOL    HW2 4844   1.244   2.571  11.266  0.1019 -1.8150 -0.4954
 1135SOL     OW 4845   2.096   6.514  12.147 -0.1320  0.3149 -0.0030
 1135SOL    HW1 4846   2.053   6.462  12.215 -1.8358  1.5798 -0.0300
 1135SOL    HW2 4847   2.054   6.600  12.153  1.9035  1.4083 -0.5877
 1136SOL     OW 4848   2.147   4.050  12.408  0.0208  0.3942 -0.0014
 1136SOL    HW1 4849   2.159   4.099  12.490  1.0443 -2.9059  2.0381
 1136SOL    HW2 4850   2.230   4.061  12.361  0.3305  0.4759  0.5519
 1137SOL     OW 4851   2.003   0.152  11.090 -0.4621 -0.5130  0.0897
 1137SOL    HW1 4852   1.983   0.100  11.168  0.1714  1.5933  1.7626
 1137SOL    HW2 4853   1.946   0.229  11.097  0.9356  0.6252 -0.5016
 1138SOL     OW 4854   0.261   0.614  11.743 -0.6008  0.2164  0.1303
 1138SOL    HW1 4855   0.236   0.570  11.661 -0.4469  2.1787 -1.0396
 1138SOL    HW2 4856   0.336   0.564  11.775 -0.6960 -0.6336 -0.9034
 1139SOL     OW 4857   3.052   2.946   8.882 -0.2038 -0.7510  0.0782
 1139SOL    HW1 4858   3.062   2.945   8.977  3.8451 -0.6234 -0.1829
 1139SOL    HW2 4859   3.013   3.031   8.862 -1.1605 -0.8069  1.5792
 1140SOL     OW 4860   1.299   1.991   8.655 -0.0497 -0.2897 -0.1575
 1140SOL    HW1 4861   1.311   2.056   8.586  1.4681 -0.0177  0.3350
 1140SOL    HW2 4862   1.250   2.037   8.723  0.8385  0.2816  0.1003
 1141SOL     OW 4863   1.870   6.870   9.786 -0.5729  0.3885 -0.1438
 1141SOL    HW1 4864   1.808   6.800   9.805 -0.9756  0.2487 -1.8573
 1141SOL    HW2 4865   1.886   6.911   9.871 -1.4736 -0.8254  0.6437
 1142SOL     OW 4866   0.536   1.068  11.889 -0.3749 -0.0573 -0.9162
 1142SOL    HW1 4867   0.509   0.981  11.918  1.8666 -1.4377 -2.6287
 1142SOL    HW2 4868   0.574   1.110  11.966 -0.2113 -1.1616 -0.3863
 1143SOL     OW 4869   0.164   1.756  10.793 -0.0271 -0.0334 -0.2805
 1143SOL    HW1 4870   0.253   1.743  10.758 -0.0439  1.1018 -0.8013
 1143SOL    HW2 4871   0.113   1.684  10.756  0.8167 -1.1379  0.6191
 1144SOL     OW 4872   0.761   7.117  10.889 -0.0531 -0.1958  0.1148
 1144SOL    HW1 4873   0.754   7.037  10.941 -0.4774 -0.1899  0.0718
 1144SOL    HW2 4874   0.815   7.175  10.941 -0.1062 -0.3541  0.3482
 1145SOL     OW 4875   2.896   1.269  10.738  0.1465 -0.7022  0.5099
 1145SOL    HW1 4876   2.876   1.175  10.738  1.7081 -1.0951  2.5071
 1145SOL    HW2 4877   2.991   1.273  10.722  0.3411  0.4375  1.7884
 1146SOL     OW 4878   7.991   1.689  10.557  0.0980 -0.6443  0.0284
 1146SOL    HW1 4879   8.075   1.667  10.515  0.9176 -1.9572  2.1966
 1146SOL    HW2 4880   7.968   1.611  10.608 -1.5932  0.3232  0.8299
 1147SOL     OW 4881   0.500   2.455  11.842 -0.1046 -0.2264  0.1844
 1147SOL    HW1 4882   0.436   2.494  11.900 -1.3706  0.9207 -1.8788
 1147SOL    HW2 4883   0.522   2.524  11.780  2.2514 -0.9654  0.0931
 1148SOL     OW 4884   2.829   1.848   7.866 -0.2632  0.2830 -0.3569
 1148SOL    HW1 4885   2.819   1.942   7.854 -0.6372  0.2371 -0.4393
 1148SOL    HW2 4886   2.757   1.810   7.816 -0.0466 -0.0523 -0.4184
 1149SOL     OW 4887   0.427   1.917   9.750 -0.3189  0.3998 -0.0911
 1149SOL    HW1 4888   0.423   1.919   9.655  0.3902  1.7273 -0.1217
 1149SOL    HW2 4889   0.353   1.970   9.779 -0.1792  0.5118  0.0686
 1150SOL     OW 4890   2.071   1.574  10.238  0.3312  0.8923  0.4784
 1150SOL    HW1 4891   2.066   1.587  10.333  0.7763  1.8076  0.3826
 1150SOL    HW2 4892   2.152   1.524  10.225  0.0686  0.4231  0.6026
 1151SOL     OW 4893   1.207   0.864  10.238 -0.0771  0.2031  0.0800
 1151SOL    HW1 4894   1.210   0.960  10.241  1.6097  0.1692  1.2713
 1151SOL    HW2 4895   1.127   0.843  10.190  1.0529  2.2312 -2.9239
 1152SOL     OW 4896   2.338   1.427  10.209  0.8859  0.0676 -0.2017
 1152SOL    HW1 4897   2.402   1.477  10.159  0.9041  0.3368  0.0830
 1152SOL    HW2 4898   2.358   1.336  10.189  1.2582  0.1548 -0.2402
 1153SOL     OW 4899   1.101   1.764  11.662  0.5754 -0.0441 -0.0038
 1153SOL    HW1 4900   1.028   1.826  11.656 -0.6980 -1.4839 -0.0065
 1153SOL    HW2 4901   1.115   1.735  11.572  1.5889  0.6824 -0.0927
 1154SOL     OW 4902   0.483   7.867   9.650  0.3379 -0.2007  0.7292
 1154SOL    HW1 4903   0.576   7.889   9.652 -0.0291  1.8528 -0.5326
 1154SOL    HW2 4904   0.469   7.831   9.562 -0.0043 -0.7877  1.0206
 1155SOL     OW 4905   1.726   1.678   9.563  0.0567 -0.3541 -0.4678
 1155SOL    HW1 4906   1.754   1.625   9.638  0.8945  0.6521 -0.0418
 1155SOL    HW2 4907   1.700   1.614   9.497  0.5221 -1.2870  0.2196
 1156SOL     OW 4908   0.450   0.356   8.940 -0.5139  0.1893  0.2529
 1156SOL    HW1 4909   0.461   0.440   8.895  2.1384 -0.7495 -1.0752
 1156SOL    HW2 4910   0.531   0.345   8.989 -0.0841 -2.2883 -0.8970
 1157SOL     OW 4911   1.883   0.596  10.031 -0.4221  0.2859 -0.3192
 1157SOL    HW1 4912   1.856   0.505  10.043 -0.6156  0.3914  0.0734
 1157SOL    HW2 4913   1.976   0.596  10.050 -0.6419  0.3711  0.8223
 1158SOL     OW 4914   2.244   0.308   0.005  0.3878 -0.1508  0.0653
 1158SOL    HW1 4915   2.187   0.233  -0.005 -0.1921  0.4597 -1.5813
 1158SOL    HW2 4916   2.186   0.384   0.001  1.2705  0.5027 -1.9653
 1159SOL     OW 4917   2.358   1.861   8.524 -0.2487 -0.0186  0.1193
 1159SOL    HW1 4918   2.331   1.951   8.540  1.5043  0.4367  0.7659
 1159SOL    HW2 4919   2.325   1.812   8.600  0.3535  0.4433  0.6906
 1160SOL     OW 4920   1.074   7.724   9.932  0.4667 -0.0056  0.2710
 1160SOL    HW1 4921   1.036   7.733  10.020 -0.7829  0.2910 -0.2738
 1160SOL    HW2 4922   1.134   7.650   9.940  1.2962  0.7822  1.6693
 1161SOL     OW 4923   2.569   3.377   8.150  0.5197 -0.2423 -0.4953
 1161SOL    HW1 4924   2.547   3.458   8.104 -1.6651 -0.5624 -0.1298
 1161SOL    HW2 4925   2.654   3.395   8.191  0.5024  1.5417 -1.1373
 1162SOL     OW 4926   2.430   1.883   8.240  0.2937 -0.1825 -0.2216
 1162SOL    HW1 4927   2.403   1.850   8.326 -0.5576  1.4314  0.1781
 1162SOL    HW2 4928   2.490   1.955   8.260  0.9121 -0.4656 -1.0142
 1163SOL     OW 4929   1.349   0.031   9.834 -0.2130  1.1346 -0.1243
 1163SOL    HW1 4930   1.283  -0.003   9.773  1.3425 -0.2080 -1.1325
 1163SOL    HW2 4931   1.299   0.087   9.894 -1.9488  1.8335 -2.0789
 1164SOL     OW 4932   6.380   1.223  10.748  0.1376 -0.2861  0.5795
 1164SOL    HW1 4933   6.438   1.297  10.762  0.5935 -0.5463  0.0958
 1164SOL    HW2 4934   6.392   1.168  10.825  0.0600 -0.0323  0.7748
 1165SOL     OW 4935   2.868   3.166   9.240 -0.0975 -0.4150 -0.0310
 1165SOL    HW1 4936   2.858   3.249   9.195  1.7676 -0.1995 -0.1138
 1165SOL    HW2 4937   2.891   3.190   9.330  1.7452 -0.7975 -0.3693
 1166SOL     OW 4938   0.838   7.650   9.841 -0.1126  0.3485 -0.3067
 1166SOL    HW1 4939   0.783   7.721   9.873  0.2910  0.3978  0.2955
 1166SOL    HW2 4940   0.927   7.681   9.853  0.1206 -0.8058  1.3228
 1167SOL     OW 4941   1.964   7.969  11.292  0.3900  0.1142  0.3581
 1167SOL    HW1 4942   2.019   7.999  11.365  0.7295 -0.2590  0.2589
 1167SOL    HW2 4943   1.949   7.876  11.310 -0.7010  0.3376  0.6928
 1168SOL     OW 4944   2.194   6.771   8.476  0.1272 -0.1735 -0.0882
 1168SOL    HW1 4945   2.201   6.775   8.380  0.0128  1.3501 -0.0589
 1168SOL    HW2 4946   2.237   6.851   8.506  0.5544 -0.8578  1.1650
 1169SOL     OW 4947   0.890   6.890  11.563  0.1520  0.6186  0.1308
 1169SOL    HW1 4948   0.937   6.808  11.578 -1.4809 -0.4698 -0.4886
 1169SOL    HW2 4949   0.944   6.956  11.608  1.0347 -0.8979  1.4436
 1170SOL     OW 4950   1.816   0.344  11.105 -0.3227  0.2909  0.5788
 1170SOL    HW1 4951   1.776   0.304  11.182  0.6666 -0.9562  0.4694
 1170SOL    HW2 4952   1.840   0.433  11.133 -3.1329  1.1369  0.6325
 1171SOL     OW 4953   0.969   0.166   9.859 -0.0111 -0.5204  0.2842
 1171SOL    HW1 4954   0.965   0.071   9.844  1.2875 -0.3853 -1.1443
 1171SOL    HW2 4955   1.047   0.178   9.914  0.9331 -0.1345 -1.1080
 1172SOL     OW 4956   2.008   0.275  10.214  0.1304  0.2175 -0.0612
 1172SOL    HW1 4957   1.975   0.274  10.304  0.6938 -0.8611  0.1552
 1172SOL    HW2 4958   1.930   0.289  10.161 -0.5243 -1.0082  0.5121
 1173SOL     OW 4959   0.229   1.584  10.411  0.3557 -0.3645 -0.5320
 1173SOL    HW1 4960   0.270   1.606  10.494 -0.8936  1.2069 -0.2864
 1173SOL    HW2 4961   0.290   1.616  10.344  0.8644 -0.6871 -0.2277
 1174SOL     OW 4962   7.592   2.881  10.946 -0.4401 -0.4019 -0.3533
 1174SOL    HW1 4963   7.601   2.956  10.887  0.7998 -0.3905 -0.1771
 1174SOL    HW2 4964   7.572   2.920  11.031  1.2440 -0.1641 -0.0284
 1175SOL     OW 4965   0.989   2.177   9.483  0.7192 -0.3516 -0.3850
 1175SOL    HW1 4966   0.918   2.118   9.507  1.7517 -1.7305 -0.6017
 1175SOL    HW2 4967   0.949   2.240   9.423 -0.3476 -1.0348 -0.4100
 1176SOL     OW 4968   7.561   1.140   9.707 -0.0686  0.0368 -0.3133
 1176SOL    HW1 4969   7.554   1.094   9.623 -0.9771  1.8797 -1.3179
 1176SOL    HW2 4970   7.655   1.144   9.724  0.0482 -2.0422 -0.2227
 1177SOL     OW 4971   1.162   0.690  10.475 -0.4075 -0.7541 -0.5757
 1177SOL    HW1 4972   1.072   0.658  10.475 -0.1530 -1.5250 -1.4270
 1177SOL    HW2 4973   1.173   0.728  10.388 -0.3211  0.5915 -0.0020
 1178SOL     OW 4974   0.586   1.240   9.847  0.2453  0.4031 -0.2825
 1178SOL    HW1 4975   0.521   1.172   9.865 -0.0899  0.4051 -1.4324
 1178SOL    HW2 4976   0.599   1.236   9.753  1.8462  0.4845 -0.0828
 1179SOL     OW 4977   0.747   2.394  10.677 -0.3198 -0.4062 -0.5556
 1179SOL    HW1 4978   0.795   2.330  10.730  0.4797  0.0636 -0.6981
 1179SOL    HW2 4979   0.814   2.454  10.645 -0.9099 -0.1733 -1.3860
 1180SOL     OW 4980   1.168   1.125  10.223 -0.0279  0.2904 -0.1438
 1180SOL    HW1 4981   1.239   1.183  10.251  0.8585 -0.5029 -0.6981
 1180SOL    HW2 4982   1.150   1.151  10.133 -1.5862  1.5691  0.4768
 1181SOL     OW 4983   1.825   2.085   9.575 -0.0583 -0.4748  0.3939
 1181SOL    HW1 4984   1.897   2.028   9.603 -0.6876 -1.4229  0.1423
 1181SOL    HW2 4985   1.796   2.128   9.656 -0.3175 -1.3982  0.8127
 1182SOL     OW 4986   1.482   0.347   8.335  0.6202  0.3199 -0.5408
 1182SOL    HW1 4987   1.481   0.254   8.315  2.4605 -0.4030  2.2115
 1182SOL    HW2 4988   1.487   0.390   8.249  0.4931 -2.1221 -1.8443
 1183SOL     OW 4989   7.920   7.861  11.277  0.3400 -0.4307  0.3556
 1183SOL    HW1 4990   7.989   7.799  11.254  0.3051 -0.1043 -0.6787
 1183SOL    HW2 4991   7.965   7.929  11.328  1.0609  0.4102 -1.3288
 1184SOL     OW 4992   0.597   0.585   9.441 -0.6040  0.2088  0.0886
 1184SOL    HW1 4993   0.521   0.608   9.387 -1.5763 -0.6550  1.0337
 1184SOL    HW2 4994   0.644   0.520   9.390 -0.3005  0.9933 -0.6521
 1185SOL     OW 4995   0.987   1.901   8.852  0.1689  0.1566 -0.9463
 1185SOL    HW1 4996   0.981   1.926   8.760  0.0320  1.6242 -0.5767
 1185SOL    HW2 4997   0.897   1.901   8.883  0.2944  0.9758 -0.5241
 1186SOL     OW 4998   1.806   1.362   8.996 -0.5533  0.2275  0.5669
 1186SOL    HW1 4999   1.806   1.286   8.938 -1.9532  0.8261 -0.2716
 1186SOL    HW2 5000   1.714   1.373   9.023 -0.4957  1.8969  0.2469
 1187SOL     OW 5001   2.645   1.569  10.826 -0.1049 -0.1599  0.2009
 1187SOL    HW1 5002   2.622   1.658  10.800  1.2689  0.5340  1.2493
 1187SOL    HW2 5003   2.604   1.557  10.912  0.3259 -0.2716  0.3926
 1188SOL     OW 5004   3.207   0.545  10.621  0.0133 -0.4988 -0.2099
 1188SOL    HW1 5005   3.294   0.550  10.581  0.4433  1.8337  0.8615
 1188SOL    HW2 5006   3.219   0.490  10.699  0.8068  0.5769  0.4608
 1189SOL     OW 5007   7.578   2.663   9.194  0.1518 -0.7870 -0.1664
 1189SOL    HW1 5008   7.584   2.599   9.264 -0.4331 -0.7558 -0.0763
 1189SOL    HW2 5009   7.667   2.693   9.180  0.2578 -0.7388  0.6110
 1190SOL     OW 5010   2.228   1.633  10.797  0.0296 -0.0159 -0.1892
 1190SOL    HW1 5011   2.258   1.723  10.812 -1.1205  0.2196  0.8901
 1190SOL    HW2 5012   2.225   1.594  10.885  0.3378 -1.0519 -0.6311
 1191SOL     OW 5013   2.682   1.017   7.218 -0.4241 -0.4453 -0.7684
 1191SOL    HW1 5014   2.710   1.108   7.212 -0.5441 -0.3989 -0.6321
 1191SOL    HW2 5015   2.655   0.994   7.130 -0.3946 -0.3486 -0.8026
 1192SOL     OW 5016   1.564   0.424  10.257  0.5164 -0.0669 -0.2271
 1192SOL    HW1 5017   1.531   0.496  10.203  1.3771 -0.2393 -1.0300
 1192SOL    HW2 5018   1.486   0.386  10.297  0.1080  1.9668  1.1070
 1193SOL     OW 5019   7.066   1.378  11.416 -0.2252  0.0296 -0.5688
 1193SOL    HW1 5020   7.141   1.438  11.414 -0.6547  0.5850 -0.2513
 1193SOL    HW2 5021   7.058   1.347  11.326 -1.1076  1.8682 -1.1729
 1194SOL     OW 5022   1.604   2.915  10.006 -0.1491 -0.1119 -0.1146
 1194SOL    HW1 5023   1.663   2.977   9.964 -1.3210  1.5779  0.5921
 1194SOL    HW2 5024   1.654   2.834  10.014  1.6829  0.9549 -0.4643
 1195SOL     OW 5025   2.953   1.631  11.184 -0.2803 -0.1871  0.0262
 1195SOL    HW1 5026   2.922   1.554  11.136 -0.7702  0.4528 -0.7367
 1195SOL    HW2 5027   2.879   1.693  11.178  0.5716  0.8187 -0.5278
 1196SOL     OW 5028   2.653   2.196  10.492  0.4483 -0.1638  0.2832
 1196SOL    HW1 5029   2.706   2.216  10.414 -0.3749  2.4257  0.2980
 1196SOL    HW2 5030   2.644   2.279  10.537 -2.8393 -0.6347  0.7763
 1197SOL     OW 5031   2.742   2.862  11.429  0.1836 -0.2780  0.4509
 1197SOL    HW1 5032   2.659   2.908  11.414  0.0321 -0.6711  0.0496
 1197SOL    HW2 5033   2.771   2.892  11.515 -1.0339 -1.0946  1.1788
 1198SOL     OW 5034   1.991   6.807   8.679  0.6547  0.4210  0.1757
 1198SOL    HW1 5035   2.038   6.815   8.596  1.7271  1.5129  0.8657
 1198SOL    HW2 5036   2.059   6.787   8.743  0.0109  0.8406  1.0033
 1199SOL     OW 5037   1.275   2.025  10.986 -0.0246 -0.3450  0.2971
 1199SOL    HW1 5038   1.342   1.960  11.006 -0.1650 -1.0644 -1.4255
 1199SOL    HW2 5039   1.324   2.101  10.954  0.0231 -1.4730 -2.6464
 1200SOL     OW 5040   2.057   1.400   9.699  0.5252 -0.0881 -0.0016
 1200SOL    HW1 5041   2.142   1.440   9.682  1.0191  0.0388  2.3973
 1200SOL    HW2 5042   2.073   1.343   9.774 -1.4289 -0.3812  0.2265
 1201SOL     OW 5043   0.252   1.700   9.730  0.0993 -0.4006  0.2914
 1201SOL    HW1 5044   0.277   1.786   9.763  0.2256  0.0188 -0.8729
 1201SOL    HW2 5045   0.325   1.673   9.674 -0.6529 -0.5365 -0.6499
 1202SOL     OW 5046   7.677   1.917  11.149  0.2481 -0.3828 -0.0946
 1202SOL    HW1 5047   7.681   1.982  11.079  0.5377 -0.3511 -0.0523
 1202SOL    HW2 5048   7.693   1.967  11.229 -0.5208 -0.3459  0.0438
 1203SOL     OW 5049   1.362   1.338  10.233  0.2683  0.2121 -0.6940
 1203SOL    HW1 5050   1.376   1.397  10.158 -1.6912 -0.2935 -1.5202
 1203SOL    HW2 5051   1.279   1.366  10.271 -0.1871 -1.3313 -0.4712
 1204SOL     OW 5052   1.667   1.269   9.833 -0.0218 -0.1801 -0.0671
 1204SOL    HW1 5053   1.710   1.244   9.914 -1.0223 -0.5094  0.3835
 1204SOL    HW2 5054   1.640   1.186   9.792 -0.8602  0.0283  0.0324
 1205SOL     OW 5055   0.442   2.785  10.124 -0.0425  0.1146 -0.0426
 1205SOL    HW1 5056   0.397   2.774  10.040  0.2622  0.1503 -0.2138
 1205SOL    HW2 5057   0.535   2.790  10.100 -0.0791  2.5091  0.0414
 1206SOL     OW 5058   7.458   1.109  10.342  0.0180 -0.0603  0.3321
 1206SOL    HW1 5059   7.408   1.055  10.281  1.3366 -0.6929 -0.2248
 1206SOL    HW2 5060   7.401   1.117  10.418 -1.0537 -0.5005 -0.3941
 1207SOL     OW 5061   2.310   2.021   9.972 -0.1354  0.0865  0.4313
 1207SOL    HW1 5062   2.333   2.014   9.879  0.1953  0.0024  0.5165
 1207SOL    HW2 5063   2.215   2.016   9.974 -0.0872 -1.2621  0.2111
 1208SOL     OW 5064   2.505   6.528  10.487  0.5178 -0.5975  0.3184
 1208SOL    HW1 5065   2.556   6.453  10.454  0.8276 -0.4961  0.5556
 1208SOL    HW2 5066   2.414   6.505  10.468  0.5318 -1.4464  1.1845
 1209SOL     OW 5067   1.747   0.752  10.579 -0.3672  0.0838  0.2373
 1209SOL    HW1 5068   1.738   0.658  10.565 -2.2924  0.0201  1.6415
 1209SOL    HW2 5069   1.835   0.762  10.616  0.9967 -0.7700 -2.4299
 1210SOL     OW 5070   1.665   0.169  10.358 -0.1927  0.0492  0.0576
 1210SOL    HW1 5071   1.653   0.264  10.360  0.0051  0.0768 -0.0095
 1210SOL    HW2 5072   1.631   0.141  10.274  1.0740  0.2529 -0.5548
 1211SOL     OW 5073   3.223   2.034  10.525  0.5396  0.0440  0.5258
 1211SOL    HW1 5074   3.155   1.986  10.572  1.8226 -2.0522  0.3794
 1211SOL    HW2 5075   3.197   2.030  10.433  1.7085 -2.4829  0.2028
 1212SOL     OW 5076   1.028   7.919  10.750  0.5225  0.0741 -0.1709
 1212SOL    HW1 5077   0.947   7.873  10.731  0.3036  0.9520 -1.5356
 1212SOL    HW2 5078   1.001   7.998  10.796  0.8675 -0.8991  1.8217
 1213SOL     OW 5079   1.536   6.734  12.065  0.1153  0.3299  0.3834
 1213SOL    HW1 5080   1.631   6.745  12.064 -0.0173  2.3976  2.5603
 1213SOL    HW2 5081   1.503   6.801  12.005 -0.0078 -0.1426 -0.0868
 1214SOL     OW 5082   0.478   6.296   9.409 -0.2671  0.1893 -0.0020
 1214SOL    HW1 5083   0.543   6.231   9.382 -0.7782  0.6975 -2.6799
 1214SOL    HW2 5084   0.529   6.374   9.428  0.0955 -0.1205  0.3258
 1215SOL     OW 5085   1.152   0.565  11.030  0.1928  0.1052 -0.0064
 1215SOL    HW1 5086   1.072   0.570  10.977 -1.1771  0.2322  1.9800
 1215SOL    HW2 5087   1.178   0.473  11.025  0.3138  0.1836 -1.1645
 1216SOL     OW 5088   2.597   7.707   9.784 -0.3407  0.3811 -0.7533
 1216SOL    HW1 5089   2.579   7.771   9.714  0.0860 -0.2890 -1.4854
 1216SOL    HW2 5090   2.514   7.662   9.797 -0.7641  1.3621  0.0695
 1217SOL     OW 5091   0.919   7.727  10.501  0.0954 -0.3975 -0.4298
 1217SOL    HW1 5092   0.837   7.719  10.453 -0.2022  0.1188 -0.0169
 1217SOL    HW2 5093   0.927   7.644  10.550  0.0560 -0.6349 -0.8257
 1218SOL     OW 5094   7.007   2.021  10.754 -0.5486 -0.8966  0.2629
 1218SOL    HW1 5095   7.100   2.046  10.756 -1.0039  1.5281 -2.5101
 1218SOL    HW2 5096   6.968   2.070  10.826 -0.4785  2.5751 -1.8467
 1219SOL     OW 5097   1.477   0.751   9.470  0.1538  0.0036  0.1020
 1219SOL    HW1 5098   1.424   0.734   9.392  0.4815 -3.5918  0.4858
 1219SOL    HW2 5099   1.416   0.739   9.544  0.1840  1.9717  0.5250
 1220SOL     OW 5100   1.099   1.421  10.449 -0.3836 -0.3382  0.4792
 1220SOL    HW1 5101   1.012   1.388  10.427 -0.0966 -0.7569 -0.0583
 1220SOL    HW2 5102   1.104   1.506  10.405  0.6255 -1.6695 -2.2366
 1221SOL     OW 5103   0.318   1.399   9.840  0.1541  0.3220  0.0017
 1221SOL    HW1 5104   0.345   1.443   9.760 -2.9851  0.3986 -1.1524
 1221SOL    HW2 5105   0.396   1.355   9.871  1.6527  0.8804 -2.7075
 1222SOL     OW 5106   2.514   1.333   9.325 -0.1531  0.0086  0.1179
 1222SOL    HW1 5107   2.459   1.255   9.331 -2.5501  1.4851 -1.0707
 1222SOL    HW2 5108   2.580   1.311   9.260 -0.3493 -1.2500  0.3162
 1223SOL     OW 5109   1.193   3.333  11.819  0.4326  0.4259 -0.1096
 1223SOL    HW1 5110   1.182   3.240  11.840  0.4216  0.6501  0.9343
 1223SOL    HW2 5111   1.174   3.338  11.726  1.9479 -0.8627 -0.5234
 1224SOL     OW 5112   7.079   7.136  10.865 -0.0623  0.4310 -0.5559
 1224SOL    HW1 5113   6.985   7.155  10.871 -0.5903 -2.0949  0.6197
 1224SOL    HW2 5114   7.098   7.082  10.942  2.5661  1.5331 -0.3278
 1225SOL     OW 5115   3.984   0.511   9.142 -0.3536  0.2591  0.0887
 1225SOL    HW1 5116   3.893   0.520   9.167 -0.7950 -0.9878 -0.9670
 1225SOL    HW2 5117   4.024   0.459   9.212 -0.6744  0.0425  0.1107
 1226SOL     OW 5118   0.507   1.412  10.693  0.1320 -0.4171  0.4576
 1226SOL    HW1 5119   0.601   1.426  10.678 -0.0035 -0.1558 -0.1915
 1226SOL    HW2 5120   0.475   1.374  10.611 -0.5084  0.3922  0.3179
 1227SOL     OW 5121   2.290   7.039   8.258 -0.5355 -0.5183 -0.3021
 1227SOL    HW1 5122   2.378   7.040   8.297 -0.9403  0.6512  0.6489
 1227SOL    HW2 5123   2.271   6.946   8.244  1.1097 -0.7678 -1.1748
 1228SOL     OW 5124   2.701   0.804   8.165 -0.0102  0.9614 -0.2280
 1228SOL    HW1 5125   2.740   0.722   8.135 -2.4477 -0.4115  0.1470
 1228SOL    HW2 5126   2.633   0.778   8.226  0.3228  3.3884  1.3117
 1229SOL     OW 5127   1.792   1.482   9.725  0.2724 -0.4202 -0.0688
 1229SOL    HW1 5128   1.886   1.462   9.727  0.0115 -2.4284 -2.7937
 1229SOL    HW2 5129   1.749   1.399   9.747 -0.8892  0.3073  0.4935
 1230SOL     OW 5130   1.366   1.562   9.641  0.1768  0.0633 -0.1334
 1230SOL    HW1 5131   1.373   1.472   9.671  0.8185  0.0945 -0.1873
 1230SOL    HW2 5132   1.358   1.555   9.546 -3.2002 -0.1141  0.0456
 1231SOL     OW 5133   6.652   3.583   9.823  0.3505 -0.8132 -0.1676
 1231SOL    HW1 5134   6.608   3.628   9.750  3.4246  1.1329 -0.9854
 1231SOL    HW2 5135   6.643   3.644   9.897  2.1682 -0.0284 -0.5442
 1232SOL     OW 5136   0.698   0.428  11.248 -0.0766 -0.3871  0.0802
 1232SOL    HW1 5137   0.628   0.383  11.200 -0.5872 -0.9626  1.3324
 1232SOL    HW2 5138   0.666   0.433  11.338 -0.4944  3.3242 -0.1269
 1233SOL     OW 5139   2.867   7.918   9.988  0.0630  0.3012 -0.2075
 1233SOL    HW1 5140   2.959   7.909  10.013  0.5425 -0.0025 -1.9572
 1233SOL    HW2 5141   2.837   7.997  10.033  1.5988  1.2286 -0.7544
 1234SOL     OW 5142   6.951   2.213  10.555 -0.3264 -0.0010  0.4234
 1234SOL    HW1 5143   6.966   2.150  10.484  1.7057 -0.3309  1.1021
 1234SOL    HW2 5144   6.960   2.163  10.635 -0.2428  0.8520  0.9640
 1235SOL     OW 5145   1.031   1.004   9.795  0.4191 -0.6522 -0.4947
 1235SOL    HW1 5146   0.993   0.996   9.707 -0.0215 -1.0259 -0.2754
 1235SOL    HW2 5147   0.979   0.944   9.849  2.4577 -2.6173 -0.5562
 1236SOL     OW 5148   0.121   2.348  10.808  0.0615  0.0931 -0.5750
 1236SOL    HW1 5149   0.038   2.394  10.800  1.6440  2.8643 -2.8704
 1236SOL    HW2 5150   0.183   2.415  10.836  2.0859 -1.1380 -1.8143
 1237SOL     OW 5151   1.637   7.704  12.153  0.4914  0.0396  0.3055
 1237SOL    HW1 5152   1.679   7.706  12.067 -1.0430  2.7527 -0.5106
 1237SOL    HW2 5153   1.598   7.617  12.159  0.5168 -0.1587 -1.8326
 1238SOL     OW 5154   0.766   0.045  11.223  0.1366 -0.2995 -0.4751
 1238SOL    HW1 5155   0.861   0.038  11.225  0.3012  1.3301  1.7277
 1238SOL    HW2 5156   0.747   0.087  11.139  1.2698 -1.1828 -1.2041
 1239SOL     OW 5157   1.325   2.495  10.979  0.4319  0.3854  0.3157
 1239SOL    HW1 5158   1.230   2.500  10.990  0.5642  0.4343  1.5023
 1239SOL    HW2 5159   1.343   2.550  10.902 -0.4917  0.4053  0.1048
 1240SOL     OW 5160   2.556   0.530  11.559  0.4452  0.8802 -0.0313
 1240SOL    HW1 5161   2.554   0.579  11.641 -1.2676 -1.1306  1.2411
 1240SOL    HW2 5162   2.639   0.482  11.562  0.5034  1.0012  0.4221
 1241SOL     OW 5163   6.967   0.746  10.286 -0.1440 -0.4740  0.2486
 1241SOL    HW1 5164   7.051   0.727  10.327  0.4689 -0.4138 -0.9321
 1241SOL    HW2 5165   6.970   0.699  10.202 -2.0430 -1.9951  0.9770
 1242SOL     OW 5166   2.048   0.858  10.974  0.2251 -0.2797  0.4906
 1242SOL    HW1 5167   2.063   0.947  10.943  1.0778 -0.8515 -0.8320
 1242SOL    HW2 5168   2.040   0.806  10.894  0.7324 -1.5549  1.2413
 1243SOL     OW 5169   7.796   0.218  11.339 -0.0381  0.1918 -0.4756
 1243SOL    HW1 5170   7.717   0.165  11.337  0.7557 -1.0120 -1.2256
 1243SOL    HW2 5171   7.857   0.169  11.394  1.1843 -0.4440 -2.2838
 1244SOL     OW 5172   2.796   1.427   9.915  0.5468 -0.2629  0.2941
 1244SOL    HW1 5173   2.889   1.444   9.932  0.6531  0.6206 -1.0051
 1244SOL    HW2 5174   2.772   1.359   9.978  2.2474 -1.0108  0.1861
 1245SOL     OW 5175   7.328   1.105  10.885 -0.1625 -0.9855  0.1071
 1245SOL    HW1 5176   7.400   1.055  10.924 -1.6252 -1.5343  2.3200
 1245SOL    HW2 5177   7.251   1.051  10.900 -1.5179  1.0265  0.8654
 1246SOL     OW 5178   0.929   0.061  10.181  0.5406 -0.3437 -0.4197
 1246SOL    HW1 5179   0.950  -0.020  10.135  2.7556  1.2676 -2.4839
 1246SOL    HW2 5180   1.004   0.076  10.238 -0.9461 -0.8835  1.8156
 1247SOL     OW 5181   0.653   1.183  11.113 -0.0119  0.2073 -0.6233
 1247SOL    HW1 5182   0.580   1.147  11.164 -1.5463 -0.0087 -2.8147
 1247SOL    HW2 5183   0.720   1.114  11.115  0.6985  0.8470  2.3386
 1248SOL     OW 5184   7.291   2.675  11.289 -0.0509 -0.3051  0.0225
 1248SOL    HW1 5185   7.269   2.761  11.326 -0.6829 -0.5927  0.3369
 1248SOL    HW2 5186   7.271   2.613  11.360  1.7225 -0.6062  0.3078
 1249SOL     OW 5187   2.715   2.516   9.984 -0.1926 -0.1994 -0.2985
 1249SOL    HW1 5188   2.668   2.442   9.944 -0.8193  0.5869 -1.0698
 1249SOL    HW2 5189   2.806   2.487   9.989 -0.2699 -0.7040 -1.4217
 1250SOL     OW 5190   3.625   1.738   9.040  0.0786 -0.1726  0.2919
 1250SOL    HW1 5191   3.595   1.668   8.982  0.4027  0.1329 -0.2597
 1250SOL    HW2 5192   3.648   1.810   8.980 -1.1657  0.7661  0.8806
 1251SOL     OW 5193   0.799   1.910   9.964 -0.3819 -0.1197 -0.1319
 1251SOL    HW1 5194   0.886   1.935   9.934 -1.3915  1.3891 -2.0461
 1251SOL    HW2 5195   0.749   1.991   9.963 -1.9112 -1.0047  0.6175
 1252SOL     OW 5196   1.927   7.707  12.149  0.1059 -0.1434  0.0304
 1252SOL    HW1 5197   1.990   7.757  12.201 -0.4004  0.8454 -0.2796
 1252SOL    HW2 5198   1.966   7.621  12.140  1.7997  0.6785 -0.8263
 1253SOL     OW 5199   0.437   2.572  10.349 -0.0333 -0.0942 -0.1153
 1253SOL    HW1 5200   0.392   2.653  10.327  2.1196  0.7174 -1.9733
 1253SOL    HW2 5201   0.504   2.597  10.413 -0.2649 -0.6819  0.3676
 1254SOL     OW 5202   2.666   0.886  10.209 -0.9959 -0.1907 -0.5381
 1254SOL    HW1 5203   2.704   0.921  10.290 -3.1488 -0.4980  0.6901
 1254SOL    HW2 5204   2.572   0.889  10.224 -1.4575 -0.2777 -3.0711
 1255SOL     OW 5205   2.128   1.387  10.708 -0.6021 -0.4985  0.2182
 1255SOL    HW1 5206   2.086   1.373  10.623  1.8183 -1.2400 -0.9623
 1255SOL    HW2 5207   2.186   1.462  10.694  0.8422 -1.4707  0.7514
 1256SOL     OW 5208   7.881   3.428  10.230  0.0803 -0.2834  0.4426
 1256SOL    HW1 5209   7.852   3.469  10.148  0.1306  1.9538  1.4707
 1256SOL    HW2 5210   7.801   3.414  10.279  0.0976 -1.1331  0.2365
 1257SOL     OW 5211   0.090   3.613  10.875  0.1012 -0.0303  0.1608
 1257SOL    HW1 5212   0.150   3.680  10.843  0.0965 -0.2532 -0.3359
 1257SOL    HW2 5213   0.116   3.534  10.827  0.7193 -0.6209  1.4118
 1258SOL     OW 5214   1.311   0.812   9.877 -0.2731 -0.3922  0.1877
 1258SOL    HW1 5215   1.338   0.894   9.836  1.2476 -0.8463  0.2226
 1258SOL    HW2 5216   1.281   0.758   9.803  4.2667 -1.9397 -0.8853
 1259SOL     OW 5217   0.023   1.290  10.381  0.4242 -0.7524  0.0159
 1259SOL    HW1 5218   0.059   1.373  10.412 -0.2420 -0.1678 -0.7459
 1259SOL    HW2 5219  -0.063   1.312  10.346 -0.5827 -2.0681  1.4956
 1260SOL     OW 5220   0.437   1.616  10.208 -0.0107  0.3529 -0.8316
 1260SOL    HW1 5221   0.366   1.584  10.153  1.1809 -1.2847 -1.4964
 1260SOL    HW2 5222   0.515   1.573  10.174  0.7297 -1.1988  2.4427
 1261SOL     OW 5223   2.250   0.890  11.569  0.2612  0.2816 -0.4963
 1261SOL    HW1 5224   2.339   0.891  11.535  1.5464 -1.0521  2.3813
 1261SOL    HW2 5225   2.207   0.820  11.520  0.8902  0.7052 -1.6950
 1262SOL     OW 5226   7.487   0.099   8.843 -0.0099  0.3196  0.7395
 1262SOL    HW1 5227   7.540   0.126   8.768  0.8801  0.9671  1.5669
 1262SOL    HW2 5228   7.411   0.157   8.841  0.5995  1.1558  1.0011
 1263SOL     OW 5229   3.015   0.844   7.862 -0.4380  0.4106 -0.3301
 1263SOL    HW1 5230   3.034   0.751   7.874  1.5168  0.9082  0.7900
 1263SOL    HW2 5231   3.021   0.858   7.767 -1.4157 -0.7036 -0.5795
 1264SOL     OW 5232   2.103   1.190  10.191 -0.3454 -0.3303 -0.4004
 1264SOL    HW1 5233   2.129   1.269  10.238  0.6021 -1.2418  0.6599
 1264SOL    HW2 5234   2.018   1.167  10.229  0.1172 -0.7021  0.4267
 1265SOL     OW 5235   2.188   1.082   9.609  0.4586 -0.0221  0.0907
 1265SOL    HW1 5236   2.196   1.168   9.650  1.1116 -0.5770  1.1748
 1265SOL    HW2 5237   2.115   1.041   9.656 -0.6479  0.3459 -1.2252
 1266SOL     OW 5238   2.820   2.701   9.541  0.0687  0.2971  0.1444
 1266SOL    HW1 5239   2.727   2.679   9.535  0.0396  0.3410  0.4165
 1266SOL    HW2 5240   2.862   2.621   9.572  0.3708 -0.2718 -1.6160
 1267SOL     OW 5241   1.375   7.850  10.139  0.5607 -0.2017 -0.0557
 1267SOL    HW1 5242   1.440   7.794  10.182  0.2253  0.8682  1.9836
 1267SOL    HW2 5243   1.291   7.820  10.175  0.2580  0.6593 -0.0232
 1268SOL     OW 5244   1.353   0.967  10.507 -0.2479 -1.2769  0.2224
 1268SOL    HW1 5245   1.262   0.980  10.482 -0.1063 -3.1020 -1.5022
 1268SOL    HW2 5246   1.381   0.891  10.456  1.9296 -1.4309  1.5212
 1269SOL     OW 5247   3.418   2.216  11.399 -0.2573 -0.3592 -0.7353
 1269SOL    HW1 5248   3.326   2.191  11.408 -0.0217 -0.8909  0.3173
 1269SOL    HW2 5249   3.447   2.172  11.320 -0.4417 -1.6575 -0.1087
 1270SOL     OW 5250   0.039   1.719  10.054  0.4703  0.1102 -0.3915
 1270SOL    HW1 5251   0.060   1.765   9.973  0.1356 -0.6221 -0.9097
 1270SOL    HW2 5252   0.114   1.661  10.069  0.7208  0.5471  0.0528
 1271SOL     OW 5253   0.038   2.750  10.098  0.6513 -0.7928  0.5113
 1271SOL    HW1 5254   0.127   2.747  10.063  0.0094 -0.0943 -1.3050
 1271SOL    HW2 5255   0.043   2.814  10.169  1.7799 -1.4830  1.0873
 1272SOL     OW 5256   3.134   0.616   9.794  0.0688  0.1339 -0.0630
 1272SOL    HW1 5257   3.131   0.629   9.699  2.5498 -0.9827 -0.3819
 1272SOL    HW2 5258   3.078   0.540   9.809 -0.5347  0.4683 -0.5949
 1273SOL     OW 5259   1.194   2.674  11.766 -0.1034  0.4512  0.2398
 1273SOL    HW1 5260   1.248   2.671  11.845 -0.0982  2.5723  0.3750
 1273SOL    HW2 5261   1.257   2.680  11.694 -0.1066 -1.5331  0.0352
 1274SOL     OW 5262   1.461   7.679  10.326  0.2161  0.1771 -0.3027
 1274SOL    HW1 5263   1.377   7.655  10.365  0.1706 -0.3319 -0.7131
 1274SOL    HW2 5264   1.523   7.615  10.360  0.2459 -0.0503 -0.7819
 1275SOL     OW 5265   7.403   0.868   9.764  0.3164 -0.1573  0.4705
 1275SOL    HW1 5266   7.462   0.890   9.692 -1.1544 -0.6519 -0.9580
 1275SOL    HW2 5267   7.340   0.940   9.767  1.0224  0.4130  2.0303
 1276SOL     OW 5268   1.207   1.294  10.643 -0.0211  0.0787 -0.4368
 1276SOL    HW1 5269   1.290   1.283  10.597  0.3521  2.1995 -0.3782
 1276SOL    HW2 5270   1.154   1.347  10.583 -1.5652 -1.6701 -0.7015
 1277SOL     OW 5271   0.869   0.420   8.875  0.0475 -0.3866  0.6616
 1277SOL    HW1 5272   0.858   0.484   8.804 -2.4415 -0.9151  0.5108
 1277SOL    HW2 5273   0.931   0.356   8.840  1.2841  1.0054  0.1857
 1278SOL     OW 5274   3.098   2.212   9.759  0.2436 -0.1986  0.5309
 1278SOL    HW1 5275   3.145   2.287   9.724 -0.6005 -0.1982 -0.6496
 1278SOL    HW2 5276   3.151   2.136   9.733 -0.9218 -0.2911 -1.8214
 1279SOL     OW 5277   0.166   2.808  11.401  0.3245 -0.8397 -0.3370
 1279SOL    HW1 5278   0.192   2.855  11.321 -0.6757  0.4301  0.0568
 1279SOL    HW2 5279   0.180   2.716  11.380  1.1272 -0.4594 -1.5897
 1280SOL     OW 5280   1.407   1.785  10.672 -0.3978 -0.4070 -0.3161
 1280SOL    HW1 5281   1.406   1.691  10.690  0.2536 -1.0171 -3.0218
 1280SOL    HW2 5282   1.331   1.819  10.720 -1.8614 -2.6596 -0.8597
 1281SOL     OW 5283   2.118   0.574  11.030 -0.1298 -0.5184 -0.3123
 1281SOL    HW1 5284   2.096   0.662  11.059  1.8826  0.1052 -0.5707
 1281SOL    HW2 5285   2.132   0.525  11.111 -1.1242 -0.5935 -0.1719
 1282SOL     OW 5286   0.992   1.011  10.760 -0.4841 -0.3367 -0.0958
 1282SOL    HW1 5287   1.043   0.931  10.769 -0.7896 -0.6397 -0.9824
 1282SOL    HW2 5288   1.001   1.035  10.668 -2.8465 -1.0335 -0.5719
 1283SOL     OW 5289   1.550   0.492   9.820  0.0231  0.2785  0.5045
 1283SOL    HW1 5290   1.624   0.436   9.845 -0.0583 -0.3941 -0.7129
 1283SOL    HW2 5291   1.492   0.435   9.769 -0.7118  1.1289  0.3630
 1284SOL     OW 5292   2.256   7.769   9.983 -0.3171 -0.6272  0.6683
 1284SOL    HW1 5293   2.345   7.806   9.983 -1.1406  1.7400 -1.9859
 1284SOL    HW2 5294   2.255   7.710   9.907 -1.6250  1.4239 -1.0335
 1285SOL     OW 5295   1.171   0.153  10.309 -0.3794 -0.3085  0.1300
 1285SOL    HW1 5296   1.190   0.067  10.347 -1.3219  0.4426  2.5169
 1285SOL    HW2 5297   1.246   0.207  10.335 -0.8893  0.1464  0.6767
 1286SOL     OW 5298   0.237   0.403  10.844  0.8079 -0.9302 -0.5437
 1286SOL    HW1 5299   0.172   0.343  10.880  0.1872  1.4012  2.6444
 1286SOL    HW2 5300   0.314   0.390  10.899  0.6995  1.0186  0.1238
 1287SOL     OW 5301   2.041   1.879   9.887 -0.3374  0.2547  0.3268
 1287SOL    HW1 5302   1.953   1.913   9.899  0.0803  1.1575  0.9333
 1287SOL    HW2 5303   2.046   1.855   9.795 -0.8346  1.3108  0.0184
 1288SOL     OW 5304   3.448   2.966  10.637  0.0703 -0.2458  0.4539
 1288SOL    HW1 5305   3.489   3.018  10.568 -0.3372  0.5528  0.8062
 1288SOL    HW2 5306   3.365   2.936  10.599 -0.1817  0.2437  0.6071
 1289SOL     OW 5307   0.776   7.771  10.787  0.2056  0.4340  0.0987
 1289SOL    HW1 5308   0.747   7.705  10.724 -2.0381  0.8142  0.6212
 1289SOL    HW2 5309   0.825   7.722  10.853  0.2132 -0.3942 -0.5058
 1290SOL     OW 5310   2.564   1.715  10.402  0.7014  0.0889  0.1755
 1290SOL    HW1 5311   2.639   1.748  10.351  1.4197 -0.3001  0.9619
 1290SOL    HW2 5312   2.591   1.627  10.429 -0.2524 -0.2493  0.0598
 1291SOL     OW 5313   0.879   7.871   9.301 -0.1194 -0.4567 -0.5724
 1291SOL    HW1 5314   0.804   7.825   9.341  0.1243 -1.3396 -1.0958
 1291SOL    HW2 5315   0.914   7.808   9.238  2.4447 -0.9806  1.2219
 1292SOL     OW 5316   1.735   7.343  10.905  0.2258 -0.8367 -0.3616
 1292SOL    HW1 5317   1.708   7.254  10.883  0.5096 -1.1824  0.6155
 1292SOL    HW2 5318   1.811   7.331  10.962 -0.1369  0.0047  0.3202
 1293SOL     OW 5319   2.221   1.947  11.206 -0.1928 -0.5654  0.6894
 1293SOL    HW1 5320   2.282   1.892  11.156 -1.9913 -2.5637  0.5619
 1293SOL    HW2 5321   2.277   1.996  11.265  1.7030 -0.8416 -0.7696
 1294SOL     OW 5322   7.953   0.770  10.860  0.2122  0.1669  0.5982
 1294SOL    HW1 5323   7.934   0.677  10.861 -0.6752  0.3325  1.9886
 1294SOL    HW2 5324   7.912   0.802  10.780  0.2708 -0.5940  0.2599
 1295SOL     OW 5325   6.818   1.060  10.020  0.4401 -0.1178 -0.3418
 1295SOL    HW1 5326   6.905   1.020  10.012 -0.0349 -1.0895 -0.7825
 1295SOL    HW2 5327   6.765   1.015   9.954 -0.3707  0.5471 -0.1508
 1296SOL     OW 5328   1.523   2.580  11.723 -0.8838 -0.0960  0.0523
 1296SOL    HW1 5329   1.504   2.637  11.648 -1.8325 -0.0977  0.2778
 1296SOL    HW2 5330   1.619   2.571  11.723 -0.8605  0.0404 -1.0491
 1297SOL     OW 5331   1.738   0.729  12.144 -0.2500  0.1026  0.0437
 1297SOL    HW1 5332   1.666   0.748  12.083  2.9797  3.0608 -3.3542
 1297SOL    HW2 5333   1.751   0.810  12.193  1.8644  0.3552 -0.8246
 1298SOL     OW 5334   1.863   1.785  10.474 -0.1379 -0.0715  0.6071
 1298SOL    HW1 5335   1.894   1.875  10.461 -0.4551 -0.1885 -1.1178
 1298SOL    HW2 5336   1.911   1.755  10.552  1.6709  0.8262 -0.0975
 1299SOL     OW 5337   2.568   3.014  11.093 -0.5585  0.4955 -0.0472
 1299SOL    HW1 5338   2.591   2.931  11.051 -1.4980 -0.2165  0.8017
 1299SOL    HW2 5339   2.641   3.073  11.071 -0.3828 -0.2266 -1.5345
 1300SOL     OW 5340   1.032   1.993   9.845 -0.4812  0.5400  0.4437
 1300SOL    HW1 5341   1.033   2.082   9.808 -0.6159  0.1904 -0.4326
 1300SOL    HW2 5342   1.031   1.936   9.769 -1.0084 -0.2105  1.0007
 1301SOL     OW 5343   0.169   0.983   9.917  0.4508  0.0398  0.1982
 1301SOL    HW1 5344   0.150   1.050   9.851  2.1163 -1.0498 -1.5007
 1301SOL    HW2 5345   0.154   0.900   9.871 -1.6243 -0.8227  2.2582
 1302SOL     OW 5346   0.655   1.301   8.717 -0.2024  0.0317 -0.4054
 1302SOL    HW1 5347   0.681   1.230   8.658 -2.4668 -2.4181  1.3493
 1302SOL    HW2 5348   0.607   1.362   8.661  0.3756 -0.6233 -1.6564
 1303SOL     OW 5349   1.678   7.982   9.464  0.3901 -0.4286 -0.0404
 1303SOL    HW1 5350   1.698   7.892   9.492  0.3546 -0.5151 -0.2942
 1303SOL    HW2 5351   1.722   7.991   9.380  1.4873  0.2280  0.5917
 1304SOL     OW 5352   1.637   2.165   9.880 -0.3717  0.3027 -0.5414
 1304SOL    HW1 5353   1.554   2.116   9.884  0.3496 -0.9072  2.4608
 1304SOL    HW2 5354   1.620   2.245   9.930  0.1841  0.1511 -0.0966
 1305SOL     OW 5355   0.892   3.821  12.255  0.4022  0.0361  0.1901
 1305SOL    HW1 5356   0.929   3.856  12.336 -2.3008  1.5810  0.8824
 1305SOL    HW2 5357   0.851   3.897  12.213  1.5107 -0.7742 -2.5558
 1306SOL     OW 5358   1.299   1.190   8.003 -0.2959  0.2615 -0.3737
 1306SOL    HW1 5359   1.328   1.107   8.042 -0.4496  0.3298 -0.1153
 1306SOL    HW2 5360   1.318   1.256   8.069 -2.4697  0.1248  0.4878
 1307SOL     OW 5361   0.069   1.043   9.402 -0.3830  0.2497  0.0599
 1307SOL    HW1 5362   0.029   1.072   9.320 -0.8918  0.9335  0.5451
 1307SOL    HW2 5363   0.012   0.972   9.433 -0.2280  0.0367 -0.1322
 1308SOL     OW 5364   1.645   1.921  10.598 -0.3173  0.2832 -0.0927
 1308SOL    HW1 5365   1.703   1.869  10.543  0.3505  1.8204 -0.9033
 1308SOL    HW2 5366   1.558   1.884  10.583 -0.1129  0.4917 -1.9982
 1309SOL     OW 5367   1.290   0.048   8.433  0.0230 -0.1022  0.2964
 1309SOL    HW1 5368   1.381   0.035   8.458  0.0122  0.3594  0.5868
 1309SOL    HW2 5369   1.244  -0.026   8.471  0.1373  0.1539  0.9470
 1310SOL     OW 5370   0.688   0.355   9.093 -0.3216  0.5477  0.7257
 1310SOL    HW1 5371   0.747   0.381   9.163 -0.7422 -1.8933  2.0742
 1310SOL    HW2 5372   0.742   0.361   9.014  1.5083 -0.7597  1.7927
 1311SOL     OW 5373   6.850   0.212  11.316 -0.2257 -0.1014 -0.0528
 1311SOL    HW1 5374   6.906   0.165  11.377 -0.5156  0.3682  0.5852
 1311SOL    HW2 5375   6.910   0.259  11.259  0.0384  0.3557  0.5892
 1312SOL     OW 5376   6.781   2.336  12.334  0.5772 -0.2748 -0.0213
 1312SOL    HW1 5377   6.849   2.277  12.367  0.7803 -0.7155 -1.1760
 1312SOL    HW2 5378   6.722   2.278  12.285  0.0726  0.2980 -0.0927
 1313SOL     OW 5379   7.087   4.229  10.138 -0.3607 -0.5876 -0.5171
 1313SOL    HW1 5380   7.001   4.266  10.157  0.3949  0.8397  0.3949
 1313SOL    HW2 5381   7.138   4.245  10.217  1.2768  0.3379 -1.6807
 1314SOL     OW 5382   7.204   0.681  11.083 -0.1375  0.4044  0.1321
 1314SOL    HW1 5383   7.211   0.707  11.175 -2.1430 -0.8748  0.7121
 1314SOL    HW2 5384   7.207   0.585  11.086 -3.4107  0.1641 -0.6993
 1315SOL     OW 5385   2.414   1.074  12.361  0.4257 -0.2720  0.3790
 1315SOL    HW1 5386   2.422   1.008  12.292 -0.4323 -0.6341  0.6166
 1315SOL    HW2 5387   2.403   1.157  12.313  0.9814 -0.3610  0.0848
 1316SOL     OW 5388   1.490   7.312   0.428 -0.8244  0.2153  0.1988
 1316SOL    HW1 5389   1.431   7.296   0.355  1.0397 -2.2608 -0.9174
 1316SOL    HW2 5390   1.507   7.225   0.465 -0.7694  1.2677  2.8608
 1317SOL     OW 5391   1.445   1.538  10.786 -0.0305 -0.4363 -0.3598
 1317SOL    HW1 5392   1.442   1.444  10.771 -0.3564 -0.6336  0.8887
 1317SOL    HW2 5393   1.536   1.557  10.805  0.2035 -0.3374 -1.4702
 1318SOL     OW 5394   0.221   6.753  11.210 -0.3955  0.2472 -0.3247
 1318SOL    HW1 5395   0.296   6.801  11.242 -0.4881  1.0675 -1.2806
 1318SOL    HW2 5396   0.238   6.662  11.233  0.1100  0.6381  0.8966
 1319SOL     OW 5397   6.121   1.517  11.365  0.4024 -0.4360 -0.2107
 1319SOL    HW1 5398   6.176   1.524  11.287  1.2358 -0.1885  0.3828
 1319SOL    HW2 5399   6.066   1.596  11.363  0.2093 -0.5795 -0.6976
 1320SOL     OW 5400   1.025   0.824  11.126 -0.3920 -0.5206 -0.4286
 1320SOL    HW1 5401   1.056   0.733  11.123  0.9948 -0.1404  1.0252
 1320SOL    HW2 5402   1.080   0.871  11.063 -0.1796 -0.4340 -0.1782
 1321SOL     OW 5403   0.183   7.144   0.200 -0.5095 -0.2493 -0.4736
 1321SOL    HW1 5404   0.277   7.163   0.196 -0.1723 -1.6397  0.0866
 1321SOL    HW2 5405   0.141   7.229   0.199  0.8035  0.4367  0.2227
 1322SOL     OW 5406   2.399   3.896  11.496  0.2968  0.5991 -0.0830
 1322SOL    HW1 5407   2.317   3.945  11.500  0.6003  1.0178  1.6277
 1322SOL    HW2 5408   2.397   3.839  11.574  1.9709  1.1922  0.4365
 1323SOL     OW 5409   2.100   2.885  10.731 -0.4835  0.2576 -0.4452
 1323SOL    HW1 5410   2.038   2.904  10.801  1.3073  1.5873  0.8620
 1323SOL    HW2 5411   2.086   2.956  10.668  0.4270  1.1965  0.3820
 1324SOL     OW 5412   7.963   2.683   0.926 -0.5982  0.2299  0.5324
 1324SOL    HW1 5413   7.934   2.604   0.882  0.2968  0.2084 -0.0468
 1324SOL    HW2 5414   7.974   2.657   1.017 -0.5112 -0.2563  0.3854
 1325SOL     OW 5415   2.642   7.436  10.068  0.5114 -0.2486 -0.1097
 1325SOL    HW1 5416   2.711   7.494  10.034 -0.3199 -0.2548 -1.9362
 1325SOL    HW2 5417   2.656   7.353  10.022  0.0935 -0.6685  0.5164
 1326SOL     OW 5418   7.381   0.606  10.686 -0.5676  0.0425 -0.4543
 1326SOL    HW1 5419   7.417   0.527  10.647 -2.7572 -2.1741  1.6274
 1326SOL    HW2 5420   7.289   0.606  10.660 -1.3318  0.1798  1.9589
 1327SOL     OW 5421   3.266   1.463  12.361  0.7205 -0.2472  0.1826
 1327SOL    HW1 5422   3.336   1.476  12.426 -0.1269  0.3535  0.9976
 1327SOL    HW2 5423   3.241   1.552  12.335  1.5371 -0.4724 -1.5434
 1328SOL     OW 5424   0.664   1.667  10.923 -0.1415  0.8360  0.2773
 1328SOL    HW1 5425   0.647   1.588  10.974 -1.0945 -0.1961 -1.5465
 1328SOL    HW2 5426   0.616   1.654  10.841  1.0520  2.5608 -0.7653
 1329SOL     OW 5427   3.400   7.523  11.559 -0.4839  0.1500 -0.4072
 1329SOL    HW1 5428   3.480   7.483  11.593 -0.5362  0.3869  0.0075
 1329SOL    HW2 5429   3.413   7.528  11.465 -1.0088 -2.0669 -0.6626
 1330SOL     OW 5430   2.874   0.182  10.439 -0.5423 -0.2409 -0.6322
 1330SOL    HW1 5431   2.884   0.267  10.397 -1.7125  0.6341  0.7567
 1330SOL    HW2 5432   2.781   0.175  10.458 -0.3232 -1.4047  0.1324
 1331SOL     OW 5433   0.565   1.647   0.518 -0.2879 -0.0258 -0.5535
 1331SOL    HW1 5434   0.474   1.642   0.547 -1.0956 -1.7121 -3.0444
 1331SOL    HW2 5435   0.609   1.574   0.561 -0.2975  0.2727 -0.0243
 1332SOL     OW 5436   0.553   1.981   1.719 -0.1942  0.5795 -0.1823
 1332SOL    HW1 5437   0.550   2.077   1.727  2.6201  0.6360  2.0293
 1332SOL    HW2 5438   0.642   1.963   1.688 -0.0097 -1.3636  1.2943
 1333SOL     OW 5439   7.745   6.933   1.148 -1.1327 -0.0388  0.2347
 1333SOL    HW1 5440   7.804   6.947   1.073 -0.4685 -1.8865  0.3738
 1333SOL    HW2 5441   7.659   6.958   1.115 -0.7030  0.1195 -0.8288
 1334SOL     OW 5442   0.510   2.215  11.757 -0.1173  0.1053 -0.5982
 1334SOL    HW1 5443   0.561   2.214  11.676  0.8890 -0.2524  0.0248
 1334SOL    HW2 5444   0.512   2.307  11.785 -1.6147  0.4933 -1.6643
 1335SOL     OW 5445   1.852   1.536  11.867 -0.4520 -0.0502  0.6144
 1335SOL    HW1 5446   1.835   1.442  11.865  0.4483 -0.2877  2.4206
 1335SOL    HW2 5447   1.787   1.571  11.929 -0.6016  0.4950  0.1666
 1336SOL     OW 5448   1.518   0.510  12.187 -0.0731  0.1335 -0.1055
 1336SOL    HW1 5449   1.600   0.544  12.224 -0.6238 -0.1891  1.4797
 1336SOL    HW2 5450   1.506   0.425  12.230 -0.9169 -0.1294 -0.8262
 1337SOL     OW 5451   0.731   2.324  12.026 -0.0062  0.3303  0.5227
 1337SOL    HW1 5452   0.755   2.267  11.953 -2.1553 -0.9821  0.7524
 1337SOL    HW2 5453   0.751   2.413  11.995  0.6878 -0.3272 -0.9861
 1338SOL     OW 5454   0.960   7.659  11.892  0.5528 -0.2291  0.3954
 1338SOL    HW1 5455   1.048   7.669  11.855  0.7244 -0.1113  0.8349
 1338SOL    HW2 5456   0.965   7.699  11.979  0.3505 -1.1503  0.8431
 1339SOL     OW 5457   0.281   7.454  11.434  0.2003 -0.0719 -0.1249
 1339SOL    HW1 5458   0.213   7.463  11.367 -0.3241 -0.0192  0.4084
 1339SOL    HW2 5459   0.350   7.515  11.406  0.0951 -0.2272 -0.7417
 1340SOL     OW 5460   1.936   2.031  10.460 -0.1743 -0.0108 -0.4252
 1340SOL    HW1 5461   1.984   2.051  10.380  1.2084 -0.5018  0.2369
 1340SOL    HW2 5462   1.950   2.107  10.516  0.6213 -0.5409  0.1129
 1341SOL     OW 5463   1.269   1.094   2.455 -0.1094 -0.4416  0.2347
 1341SOL    HW1 5464   1.195   1.151   2.473 -0.3796 -0.6649 -0.1293
 1341SOL    HW2 5465   1.334   1.115   2.522  0.2388  1.0566 -0.5523
 1342SOL     OW 5466   0.607   7.930  11.433 -0.3492  0.4334 -0.5188
 1342SOL    HW1 5467   0.650   7.969  11.357 -0.9243  2.4302  0.1267
 1342SOL    HW2 5468   0.515   7.925  11.409 -0.3965  0.1962 -0.2885
 1343SOL     OW 5469   7.019   2.200  12.386 -0.0741 -0.2374  0.1970
 1343SOL    HW1 5470   7.023   2.105  12.400 -2.9677 -0.6618 -1.1771
 1343SOL    HW2 5471   7.057   2.213  12.299  1.8595  0.1430  1.0527
 1344SOL     OW 5472   0.912   0.582  11.263 -0.1449 -0.1063  0.0791
 1344SOL    HW1 5473   0.955   0.558  11.345 -0.8111 -0.1949  0.4121
 1344SOL    HW2 5474   0.827   0.540  11.268 -0.7902  1.1290  0.0300
 1345SOL     OW 5475   1.458   1.365  11.242  0.0303 -0.5715 -0.4591
 1345SOL    HW1 5476   1.489   1.303  11.176  0.1367  0.7823 -1.7464
 1345SOL    HW2 5477   1.536   1.417  11.265 -0.7688  1.6288 -2.3407
 1346SOL     OW 5478   0.728   1.084   0.777  0.1870 -0.3652 -0.4265
 1346SOL    HW1 5479   0.637   1.079   0.806 -0.3686  0.6248 -1.8769
 1346SOL    HW2 5480   0.765   0.998   0.796 -0.4432 -0.1687  2.0496
 1347SOL     OW 5481   2.259   2.654  12.397 -0.0608 -0.0259 -0.1010
 1347SOL    HW1 5482   2.278   2.560  12.394  2.1572  0.3897 -0.6358
 1347SOL    HW2 5483   2.278   2.685  12.309 -0.0820  1.0418  0.2621
 1348SOL     OW 5484   0.497   2.696  12.442 -0.0913  0.1635 -0.4270
 1348SOL    HW1 5485   0.531   2.627  12.499 -1.7867 -0.2801  0.1344
 1348SOL    HW2 5486   0.523   2.670  12.354  1.7668  0.3560  0.0360
 1349SOL     OW 5487   2.317   7.936  11.183 -0.3833 -0.1657  0.0213
 1349SOL    HW1 5488   2.385   7.876  11.214  2.0162  2.6728  0.6850
 1349SOL    HW2 5489   2.335   7.948  11.090 -0.6561 -0.1780 -0.0367
 1350SOL     OW 5490   1.942   7.394  10.707  0.3864  0.0230  0.0224
 1350SOL    HW1 5491   1.959   7.414  10.799 -0.3795  0.0863  0.1563
 1350SOL    HW2 5492   1.890   7.314  10.710  0.2920  0.0708 -0.3533
 1351SOL     OW 5493   0.185   6.546   0.967  0.1655 -0.1127  0.4470
 1351SOL    HW1 5494   0.144   6.493   1.036  0.5089  0.3489  1.0191
 1351SOL    HW2 5495   0.278   6.520   0.970  0.3782  0.6793  0.8896
 1352SOL     OW 5496   2.145   1.810  10.117  0.1409  0.1432 -0.4887
 1352SOL    HW1 5497   2.108   1.819  10.029 -2.6913 -0.0411  0.5854
 1352SOL    HW2 5498   2.128   1.719  10.141 -1.0997  0.7476  1.0366
 1353SOL     OW 5499   1.985   1.100  12.129 -0.1909 -0.1055  0.0417
 1353SOL    HW1 5500   2.037   1.025  12.158  0.9395  1.1275  1.3740
 1353SOL    HW2 5501   1.911   1.103  12.191  1.0068  1.1837  1.4999
 1354SOL     OW 5502   0.401   1.791  11.589 -0.4435  0.1474 -0.3025
 1354SOL    HW1 5503   0.313   1.829  11.587 -0.6795 -0.3858 -0.1680
 1354SOL    HW2 5504   0.416   1.769  11.681  0.1860  1.0424 -0.1761
 1355SOL     OW 5505   0.598   0.568  10.961 -0.0058  0.3340 -0.2175
 1355SOL    HW1 5506   0.528   0.627  10.990 -0.8432 -0.6614 -0.1857
 1355SOL    HW2 5507   0.590   0.491  11.016  1.4949  0.4207  0.1749
 1356SOL     OW 5508   1.358   2.687  11.531  0.0079 -0.3906 -0.0074
 1356SOL    HW1 5509   1.388   2.776  11.515 -0.1604 -0.4446 -0.6432
 1356SOL    HW2 5510   1.356   2.646  11.444 -1.2844 -0.5736  0.0882
 1357SOL     OW 5511   0.160   0.330   0.426 -0.6593  0.4107  0.0535
 1357SOL    HW1 5512   0.234   0.313   0.485 -0.2723 -0.2577 -0.6019
 1357SOL    HW2 5513   0.101   0.255   0.439 -0.5406  0.2278 -0.4418
 1358SOL     OW 5514   1.980   6.750  10.321  0.2100 -0.6199 -0.1902
 1358SOL    HW1 5515   1.912   6.692  10.287  1.5224 -1.8936 -0.7419
 1358SOL    HW2 5516   1.934   6.808  10.382 -1.4885 -0.9225 -1.1233
 1359SOL     OW 5517   1.426   7.282  11.160  0.5238  0.1115 -0.4503
 1359SOL    HW1 5518   1.451   7.227  11.234 -0.2828  0.3836  0.0381
 1359SOL    HW2 5519   1.454   7.370  11.186 -0.7660  0.3913  0.0338
 1360SOL     OW 5520   7.428   1.287   0.534 -0.3140 -0.2144  0.6408
 1360SOL    HW1 5521   7.411   1.211   0.590 -0.3557 -0.9403 -0.3437
 1360SOL    HW2 5522   7.408   1.257   0.446  0.8084  0.5818  0.0966
 1361SOL     OW 5523   7.152   6.797  11.308  0.0991 -0.0020 -0.2597
 1361SOL    HW1 5524   7.181   6.715  11.268 -2.5402 -1.0101 -0.3424
 1361SOL    HW2 5525   7.215   6.813  11.378  0.0904 -2.7721  0.5132
 1362SOL     OW 5526   2.520   0.105   9.887  0.0549 -0.3893  0.2061
 1362SOL    HW1 5527   2.590   0.170   9.882 -0.5000  0.1432 -1.5903
 1362SOL    HW2 5528   2.439   0.156   9.893 -0.3295 -0.9017 -0.4103
 1363SOL     OW 5529   0.542   0.702  10.209  0.1788  0.1586  0.0014
 1363SOL    HW1 5530   0.618   0.729  10.260 -0.1892 -0.4306  0.8981
 1363SOL    HW2 5531   0.547   0.607  10.206 -0.7363  0.0769  0.4543
 1364SOL     OW 5532   2.394   6.986  10.989  0.3349  0.1892  0.4334
 1364SOL    HW1 5533   2.457   7.056  10.969 -1.4374  1.5546 -0.6448
 1364SOL    HW2 5534   2.446   6.906  10.981  1.8677  1.2173 -0.8312
 1365SOL     OW 5535   1.714   6.827   0.299 -0.0867  0.7183  0.2605
 1365SOL    HW1 5536   1.782   6.875   0.251  0.0750  0.5784  0.3480
 1365SOL    HW2 5537   1.758   6.797   0.379  0.0829 -0.3792 -0.2209
 1366SOL     OW 5538   0.523   1.486  11.796 -0.3927  0.1286  0.6306
 1366SOL    HW1 5539   0.509   1.579  11.810 -0.9036  0.2713 -0.6790
 1366SOL    HW2 5540   0.437   1.452  11.771 -0.3290 -0.8049  1.6331
 1367SOL     OW 5541   0.905   0.443   1.564 -0.0102 -0.0619 -0.0165
 1367SOL    HW1 5542   0.988   0.465   1.521 -0.1060 -0.3294 -0.3413
 1367SOL    HW2 5543   0.852   0.522   1.555  0.3107  0.2131  0.4487
 1368SOL     OW 5544   0.730   2.739  12.215 -0.9129  0.1670 -0.7914
 1368SOL    HW1 5545   0.780   2.713  12.138  0.2374 -0.1673  0.0418
 1368SOL    HW2 5546   0.645   2.696  12.204 -0.5469 -0.3836 -1.5677
 1369SOL     OW 5547   1.153   7.910  11.006 -0.4283  0.2076  0.0699
 1369SOL    HW1 5548   1.127   7.909  10.913  0.4101  0.9438 -0.1815
 1369SOL    HW2 5549   1.245   7.885  11.005  0.3336  2.7019  0.4212
 1370SOL     OW 5550   1.266   7.602   1.002  0.7339 -0.1380  0.0802
 1370SOL    HW1 5551   1.344   7.655   1.022  1.8027 -1.5810 -0.0923
 1370SOL    HW2 5552   1.220   7.653   0.935  1.0911  1.1261  0.7518
 1371SOL     OW 5553   1.363   7.951  10.730 -0.2459 -0.1274  0.6053
 1371SOL    HW1 5554   1.428   7.920  10.667  0.3445  1.4567  0.3833
 1371SOL    HW2 5555   1.279   7.925  10.693  0.0773  0.8664 -0.9339
 1372SOL     OW 5556   2.369   0.289  12.028 -0.0127  0.7365  0.2205
 1372SOL    HW1 5557   2.336   0.301  11.939  2.4689  0.5870 -0.8293
 1372SOL    HW2 5558   2.432   0.361  12.039  1.4754 -0.6034  0.8930
 1373SOL     OW 5559   1.375   1.201  10.861  0.2080  0.1523 -0.0591
 1373SOL    HW1 5560   1.394   1.112  10.830  0.3912  0.0669  0.3013
 1373SOL    HW2 5561   1.300   1.228  10.808  0.1480 -0.2181 -0.1697
 1374SOL     OW 5562   0.409   0.265   0.582  0.2990 -0.2743 -0.5666
 1374SOL    HW1 5563   0.364   0.198   0.633 -0.6931  0.9675  0.2696
 1374SOL    HW2 5564   0.502   0.254   0.604 -0.0680  0.1127  1.4699
 1375SOL     OW 5565   0.394   1.005  10.593  0.1615  0.1812  0.7006
 1375SOL    HW1 5566   0.465   1.049  10.546  0.3579 -0.3154  0.5359
 1375SOL    HW2 5567   0.437   0.961  10.666  0.1040 -0.6261  0.2517
 1376SOL     OW 5568   0.247   1.531  10.056 -0.0974  0.5895 -0.1717
 1376SOL    HW1 5569   0.271   1.504   9.967  1.1869  1.9984 -0.2930
 1376SOL    HW2 5570   0.214   1.451  10.097  1.4252 -0.6375 -1.2147
 1377SOL     OW 5571   2.894   4.674  11.164  0.6047 -0.1425  0.5007
 1377SOL    HW1 5572   2.888   4.614  11.239 -0.1017 -0.7290 -0.0129
 1377SOL    HW2 5573   2.814   4.659  11.114  0.3437  1.3519  0.4263
 1378SOL     OW 5574   1.153   0.822   0.137  0.2399  0.0467  0.1212
 1378SOL    HW1 5575   1.104   0.844   0.058  0.3476  0.2477  0.1104
 1378SOL    HW2 5576   1.159   0.726   0.135  2.3953  0.1414 -1.4233
 1379SOL     OW 5577   0.580   7.465  10.519 -0.4238 -0.2815  0.2758
 1379SOL    HW1 5578   0.663   7.494  10.557 -0.0512 -0.8292 -0.1109
 1379SOL    HW2 5579   0.603   7.437  10.430 -1.1492  0.2551 -0.0928
 1380SOL     OW 5580   1.584   1.963  10.855  0.4549  0.0672  0.0489
 1380SOL    HW1 5581   1.625   2.046  10.831 -2.0238  1.0171 -1.2284
 1380SOL    HW2 5582   1.610   1.902  10.786  0.4570  0.4063 -0.2505
 1381SOL     OW 5583   0.859   1.309   0.119  0.0461 -0.0217 -0.7126
 1381SOL    HW1 5584   0.922   1.286   0.188  1.9357  1.6942 -1.7593
 1381SOL    HW2 5585   0.813   1.227   0.101  2.0361 -1.3875  0.0549
 1382SOL     OW 5586   0.932   1.715  10.893  0.0405 -0.4911  0.3935
 1382SOL    HW1 5587   0.840   1.689  10.882  0.0223 -0.4842  0.5312
 1382SOL    HW2 5588   0.981   1.633  10.883 -0.0861 -0.7527  1.8069
 1383SOL     OW 5589   0.539   0.476   0.022  0.5901  0.0269  0.1635
 1383SOL    HW1 5590   0.594   0.477  -0.056 -0.0258 -1.3555 -0.3102
 1383SOL    HW2 5591   0.464   0.530  -0.001  0.6048 -0.0459 -0.0616
 1384SOL     OW 5592   2.225   6.419  11.302  0.2030 -0.4162  0.1393
 1384SOL    HW1 5593   2.152   6.428  11.364  1.3871 -0.2151  1.5502
 1384SOL    HW2 5594   2.221   6.328  11.273 -1.9647  0.1236 -1.6184
 1385SOL     OW 5595   0.905   1.658  10.589  0.4076  0.4574  0.6250
 1385SOL    HW1 5596   0.904   1.752  10.607  0.9500  0.4546  0.6840
 1385SOL    HW2 5597   0.973   1.648  10.522 -1.1533  0.3947 -1.0275
 1386SOL     OW 5598   1.046   6.886  11.001 -0.2108 -0.1423 -0.0513
 1386SOL    HW1 5599   0.982   6.831  10.955 -0.5924  0.7701 -0.6465
 1386SOL    HW2 5600   1.086   6.828  11.065 -1.0047 -0.9664 -0.2787
 1387SOL     OW 5601   0.494   1.970  11.188 -0.5402  0.5594  0.0670
 1387SOL    HW1 5602   0.532   2.057  11.181 -1.7358  1.1624  0.8119
 1387SOL    HW2 5603   0.427   1.967  11.120 -1.4476  0.7337  0.9389
 1388SOL     OW 5604   2.005   1.384  11.436 -0.1262 -0.1044  0.0174
 1388SOL    HW1 5605   2.027   1.293  11.454 -0.6172 -0.4379 -0.9348
 1388SOL    HW2 5606   2.001   1.389  11.340 -3.2048  0.1142  0.0646
 1389SOL     OW 5607   1.086   0.386   0.215  0.0734 -1.0246  0.2805
 1389SOL    HW1 5608   1.034   0.453   0.260  1.3384  0.3033 -0.1476
 1389SOL    HW2 5609   1.171   0.388   0.259  0.9705 -0.4773 -1.4001
 1390SOL     OW 5610   7.353   2.879  11.673 -0.8967  0.7053  0.0465
 1390SOL    HW1 5611   7.306   2.850  11.595 -1.5774 -0.5640  0.8941
 1390SOL    HW2 5612   7.312   2.962  11.697 -3.2608 -0.6942  1.1708
 1391SOL     OW 5613   1.234   0.782  12.080 -0.2698  0.6160  0.1354
 1391SOL    HW1 5614   1.294   0.732  12.025  0.3868  0.7830  0.6805
 1391SOL    HW2 5615   1.289   0.849  12.121 -0.6359  0.2268  1.3190
 1392SOL     OW 5616   0.990   1.305  10.855  0.2970  0.2753  0.4396
 1392SOL    HW1 5617   1.061   1.368  10.855 -0.6024  1.3265  0.9876
 1392SOL    HW2 5618   1.030   1.224  10.823  1.2256  1.3786 -1.3795
 1393SOL     OW 5619   2.330   7.297  11.748 -0.0628  0.2990 -0.0455
 1393SOL    HW1 5620   2.347   7.266  11.837 -1.6256  1.2523  0.6196
 1393SOL    HW2 5621   2.403   7.357  11.730 -0.9159  1.8809  1.5139
 1394SOL     OW 5622   0.035   1.072  11.698  0.5101  0.3679 -0.0738
 1394SOL    HW1 5623   0.098   1.132  11.737 -1.1196  2.3041 -0.2169
 1394SOL    HW2 5624  -0.018   1.042  11.771  0.7532 -0.1923 -0.1240
 1395SOL     OW 5625   0.185   3.028  12.044  0.0995  0.5564 -0.2278
 1395SOL    HW1 5626   0.274   3.011  12.014  1.0820  2.2643  1.5137
 1395SOL    HW2 5627   0.194   3.098  12.108 -2.3621 -0.0323  0.8898
 1396SOL     OW 5628   2.748   5.896  11.247 -0.0741 -0.0245  0.4094
 1396SOL    HW1 5629   2.837   5.882  11.282 -0.4780 -1.6665  0.8781
 1396SOL    HW2 5630   2.709   5.959  11.308 -0.1556 -1.4735  1.9354
 1397SOL     OW 5631   1.158   7.528  11.095  0.7127 -0.6069 -0.3921
 1397SOL    HW1 5632   1.214   7.593  11.053  1.1744 -1.7341 -1.6054
 1397SOL    HW2 5633   1.175   7.447  11.046 -0.8238 -1.3333  0.2159
 1398SOL     OW 5634   0.551   0.692  12.225 -0.0913  0.2626  0.2647
 1398SOL    HW1 5635   0.616   0.627  12.250  0.6207  0.8773  0.0503
 1398SOL    HW2 5636   0.474   0.641  12.200 -0.1943 -0.4270  1.8931
 1399SOL     OW 5637   0.984   1.346  11.692 -0.3623  0.6177  0.4823
 1399SOL    HW1 5638   0.946   1.293  11.622  0.0502  0.9218  0.0193
 1399SOL    HW2 5639   0.915   1.350  11.759 -0.6045 -0.0186  0.2743
 1400SOL     OW 5640   2.149   1.734   0.294 -0.2664  0.2395 -0.2827
 1400SOL    HW1 5641   2.223   1.775   0.250 -0.2490 -0.9991 -1.4672
 1400SOL    HW2 5642   2.073   1.760   0.241 -1.2409  3.9177  2.4948
 1401SOL     OW 5643   1.236   0.207  12.191  0.0752 -0.1689 -0.1765
 1401SOL    HW1 5644   1.238   0.123  12.145 -0.4073 -1.2590  1.6746
 1401SOL    HW2 5645   1.328   0.234  12.197  0.2852 -0.8354 -0.3290
 1402SOL     OW 5646   7.414   1.640   0.517  0.1886  0.2734 -0.1622
 1402SOL    HW1 5647   7.344   1.699   0.489  1.2901  1.4557 -0.5106
 1402SOL    HW2 5648   7.475   1.639   0.444  0.2189 -1.3018 -0.1532
 1403SOL     OW 5649   0.604   7.703  11.585  0.4913 -0.1782 -0.1808
 1403SOL    HW1 5650   0.648   7.788  11.594  0.6506 -0.2993  0.2077
 1403SOL    HW2 5651   0.519   7.724  11.547  0.1401  0.2685  0.8280
 1404SOL     OW 5652   7.525   1.396  11.646  0.6126 -0.2833  0.3476
 1404SOL    HW1 5653   7.461   1.378  11.715 -1.8860  1.0201 -1.4783
 1404SOL    HW2 5654   7.536   1.312  11.601 -2.0296 -0.0347 -0.9748
 1405SOL     OW 5655   2.078   1.984   1.449  0.2477 -0.4178 -0.0451
 1405SOL    HW1 5656   2.146   1.938   1.500 -1.4758 -2.9847  0.1128
 1405SOL    HW2 5657   2.027   1.914   1.409 -0.8809  1.4849 -2.1328
 1406SOL     OW 5658   0.196   0.851  11.942 -0.0180 -0.5901  0.0224
 1406SOL    HW1 5659   0.287   0.834  11.967  0.2670  0.4666 -0.2144
 1406SOL    HW2 5660   0.183   0.800  11.862  0.4700 -0.5025 -0.1180
 1407SOL     OW 5661   0.274   3.175  12.254  0.0453 -0.1276  0.2998
 1407SOL    HW1 5662   0.330   3.108  12.292  1.0042  0.4297 -0.1092
 1407SOL    HW2 5663   0.324   3.256  12.262  0.1707  0.0703 -1.8286
 1408SOL     OW 5664   0.188   1.884  11.977 -0.0899 -0.1392 -0.2051
 1408SOL    HW1 5665   0.211   1.938  11.901  0.6157 -0.3873 -0.1763
 1408SOL    HW2 5666   0.146   1.945  12.038  0.1244  0.2405 -0.4321
 1409SOL     OW 5667   0.480   0.487  11.853  0.1037 -0.0634 -0.0499
 1409SOL    HW1 5668   0.574   0.505  11.862  0.1283 -0.1266 -0.1794
 1409SOL    HW2 5669   0.474   0.392  11.853  0.2908 -0.1434 -2.4299
 1410SOL     OW 5670   0.097   0.163   0.670 -0.2157  0.2216 -0.1918
 1410SOL    HW1 5671   0.098   0.162   0.766 -0.9376 -1.0064 -0.1780
 1410SOL    HW2 5672   0.066   0.076   0.645 -2.0230  1.1775 -1.4978
 1411SOL     OW 5673   7.925   0.390  11.621  0.5891  0.0683  0.0621
 1411SOL    HW1 5674   7.875   0.311  11.600  0.8122 -0.1636  0.4079
 1411SOL    HW2 5675   7.862   0.461  11.608 -0.2571 -0.3106  1.8007
 1412SOL     OW 5676   0.228   7.607   1.173 -0.2117 -1.0947  0.2532
 1412SOL    HW1 5677   0.253   7.614   1.265  1.6794 -1.9978 -0.1521
 1412SOL    HW2 5678   0.230   7.513   1.155  2.1727 -0.8149 -1.3720
 1413SOL     OW 5679   1.350   0.521  11.955 -0.2408  0.0059  0.2435
 1413SOL    HW1 5680   1.378   0.482  11.872  0.1688 -2.6989  1.5252
 1413SOL    HW2 5681   1.430   0.523  12.008 -0.3714  2.2443  0.4353
 1414SOL     OW 5682   0.353   1.204  11.734  0.1527  0.5070 -0.0111
 1414SOL    HW1 5683   0.380   1.153  11.658  0.1763  0.8771 -0.2526
 1414SOL    HW2 5684   0.413   1.177  11.804 -0.4407 -0.5116  0.1361
 1415SOL     OW 5685   7.245   0.255  11.943 -0.0972 -0.8398  0.1621
 1415SOL    HW1 5686   7.191   0.284  12.016 -0.4873 -1.6498  0.2051
 1415SOL    HW2 5687   7.185   0.211  11.884  0.1861 -0.0265 -0.7505
 1416SOL     OW 5688   0.847   1.788   0.137 -0.2010 -0.2182  0.3069
 1416SOL    HW1 5689   0.898   1.708   0.122  0.9946  0.6010 -0.1802
 1416SOL    HW2 5690   0.772   1.759   0.189 -1.1469 -2.0924 -1.9225
 1417SOL     OW 5691   2.273   7.274  10.770 -0.3842 -0.2473 -0.4173
 1417SOL    HW1 5692   2.242   7.184  10.779 -0.2025 -0.1674  1.2985
 1417SOL    HW2 5693   2.249   7.298  10.681 -1.7908 -1.4784 -0.4232
 1418SOL     OW 5694   0.709   2.653  11.681 -0.3860  0.2149 -0.0983
 1418SOL    HW1 5695   0.703   2.612  11.594  1.0700  2.8808 -1.5711
 1418SOL    HW2 5696   0.766   2.595  11.731 -1.7904 -1.7245 -0.6107
 1419SOL     OW 5697   1.473   1.987  11.594  0.2205 -0.1447 -0.3023
 1419SOL    HW1 5698   1.548   2.024  11.548  0.4602  0.4682  0.5489
 1419SOL    HW2 5699   1.510   1.941  11.668 -0.1893 -0.7290 -0.4545
 1420SOL     OW 5700   6.926   7.180  11.265 -0.1495 -0.2203  0.0856
 1420SOL    HW1 5701   6.909   7.253  11.205 -1.0014  0.1731  0.7812
 1420SOL    HW2 5702   6.839   7.144  11.285  0.1345 -0.4927  0.8855
 1421SOL     OW 5703   1.769   7.809  10.161 -0.5820 -0.5169  0.3094
 1421SOL    HW1 5704   1.713   7.885  10.144 -0.7833 -0.5381  0.8834
 1421SOL    HW2 5705   1.850   7.829  10.115 -0.3129  0.4453  1.1683
 1422SOL     OW 5706   2.594   1.630  11.317 -0.0260 -0.4116  0.7775
 1422SOL    HW1 5707   2.636   1.672  11.393  0.5617 -0.8686  0.7129
 1422SOL    HW2 5708   2.601   1.536  11.335  2.1920 -0.6394 -0.8873
 1423SOL     OW 5709   2.534   7.968   0.034 -0.1766 -0.6004 -0.0902
 1423SOL    HW1 5710   2.545   7.966  -0.061 -0.0480 -0.8615 -0.0721
 1423SOL    HW2 5711   2.613   7.925   0.068 -1.5628 -3.2899  0.0308
 1424SOL     OW 5712   1.865   1.607  11.576 -0.2303  0.6894  0.2210
 1424SOL    HW1 5713   1.918   1.544  11.528  0.1352 -0.1197  1.6425
 1424SOL    HW2 5714   1.883   1.590  11.668 -0.1571  2.8420  0.6663
 1425SOL     OW 5715   2.403   1.193  11.431  0.9208 -0.0503  0.0612
 1425SOL    HW1 5716   2.426   1.215  11.522  0.8941  0.5594 -0.0755
 1425SOL    HW2 5717   2.447   1.110  11.415  2.5509  0.7851  0.0090
 1426SOL     OW 5718   1.958   1.157   0.486  0.1954  0.2839  0.2961
 1426SOL    HW1 5719   1.917   1.125   0.406  0.2755 -0.8808  0.6951
 1426SOL    HW2 5720   2.052   1.155   0.468  0.1814  0.6622  0.1882
 1427SOL     OW 5721   7.500   0.993   9.476 -0.0592 -0.3755 -0.2829
 1427SOL    HW1 5722   7.420   0.994   9.424  0.6455  1.0503 -1.3990
 1427SOL    HW2 5723   7.568   1.023   9.416  0.7866  1.3895  1.4475
 1428SOL     OW 5724   0.926   0.185  10.864 -0.0796 -0.8671  0.2755
 1428SOL    HW1 5725   0.899   0.239  10.790 -0.9409 -1.5615  0.0666
 1428SOL    HW2 5726   0.844   0.166  10.910  0.5047  0.0362  1.7502
 1429SOL     OW 5727   1.434   0.281  11.773  0.5585  0.0989 -0.3167
 1429SOL    HW1 5728   1.480   0.197  11.766  1.8775  0.6758  0.9749
 1429SOL    HW2 5729   1.413   0.289  11.866 -3.0913 -0.5498 -0.9032
 1430SOL     OW 5730   7.995   7.343   0.179  0.1076  0.2071 -0.5302
 1430SOL    HW1 5731   7.912   7.303   0.155 -1.0083  2.1395 -0.1519
 1430SOL    HW2 5732   7.999   7.422   0.125  1.5072  0.3539 -0.2441
 1431SOL     OW 5733   1.758   3.942  10.613  1.0557 -0.8422 -0.6893
 1431SOL    HW1 5734   1.767   3.944  10.708 -1.7152 -0.3638 -0.3410
 1431SOL    HW2 5735   1.724   3.855  10.594 -0.2801 -0.3045 -0.9448
 1432SOL     OW 5736   0.036   1.158   0.654  0.4206  0.0574  0.2726
 1432SOL    HW1 5737   0.024   1.132   0.563 -1.0299  0.6783  0.2653
 1432SOL    HW2 5738   0.102   1.227   0.651 -0.9963  1.4538 -0.5841
 1433SOL     OW 5739   1.972   0.056   0.322 -0.1124  0.5275  0.3414
 1433SOL    HW1 5740   1.990   0.009   0.404  2.4628 -0.3646 -0.6188
 1433SOL    HW2 5741   1.978   0.148   0.346 -1.2392  0.3199  1.4976
 1434SOL     OW 5742   7.866   1.853  10.758 -0.9230  0.1019 -0.2476
 1434SOL    HW1 5743   7.870   1.949  10.759 -0.0472  0.0795  0.6975
 1434SOL    HW2 5744   7.951   1.826  10.723 -0.8597 -0.3318  0.2340
 1435SOL     OW 5745   1.032   1.080  10.477  0.3343 -0.2097 -0.0334
 1435SOL    HW1 5746   1.059   1.091  10.386 -0.0800 -0.6481 -0.2137
 1435SOL    HW2 5747   0.991   1.163  10.501 -0.2686 -0.3638 -0.5015
 1436SOL     OW 5748   7.553   7.998  11.426  0.2420 -0.5562  0.2676
 1436SOL    HW1 5749   7.579   7.910  11.455  0.2201 -0.0506  1.9463
 1436SOL    HW2 5750   7.523   8.041  11.506  0.2305  0.9747 -0.5334
 1437SOL     OW 5751   0.685   5.412   9.873  0.7787 -0.5544 -0.6449
 1437SOL    HW1 5752   0.723   5.490   9.913 -1.5060  1.1457 -1.5154
 1437SOL    HW2 5753   0.622   5.380   9.939  0.2210 -0.3931 -1.0859
 1438SOL     OW 5754   0.950   0.321  11.133  0.3297 -0.5973 -0.4374
 1438SOL    HW1 5755   0.973   0.413  11.144 -1.2212 -0.1087 -1.0271
 1438SOL    HW2 5756   0.855   0.321  11.127  0.3672 -2.0949 -1.6854
 1439SOL     OW 5757   7.612   2.424  11.681  0.1919  0.0962 -0.1921
 1439SOL    HW1 5758   7.578   2.502  11.725 -0.8089  0.1002 -0.9378
 1439SOL    HW2 5759   7.566   2.351  11.723  1.2247 -0.1320  0.5981
 1440SOL     OW 5760   1.934   0.627  11.538  0.5070  0.5273  0.1490
 1440SOL    HW1 5761   1.903   0.540  11.513  0.7018  0.8416 -1.3073
 1440SOL    HW2 5762   2.025   0.629  11.509  1.0925  0.5798  1.8760
 1441SOL     OW 5763   0.701   0.995  11.689 -0.0191 -0.0841  0.8506
 1441SOL    HW1 5764   0.657   1.016  11.771  0.6788 -2.0522  1.7886
 1441SOL    HW2 5765   0.631   0.984  11.625 -0.5960  0.9667  1.2775
 1442SOL     OW 5766   1.563   1.144  10.210 -0.1003  0.0508  0.0290
 1442SOL    HW1 5767   1.522   1.084  10.272 -0.0576 -0.6263 -0.5860
 1442SOL    HW2 5768   1.510   1.224  10.214 -0.4970 -0.2316  0.4331
 1443SOL     OW 5769   7.561   1.839  12.463 -0.3799  0.2703 -0.4562
 1443SOL    HW1 5770   7.534   1.767  12.520  0.3361  0.5853  0.3118
 1443SOL    HW2 5771   7.614   1.798  12.395  0.3635  0.1113  0.2094
 1444SOL     OW 5772   0.774   1.692  11.958  0.0715  0.7955  0.1027
 1444SOL    HW1 5773   0.735   1.604  11.960  0.3509  0.6061 -1.2877
 1444SOL    HW2 5774   0.848   1.683  11.898  0.4905  1.8429  0.4415
 1445SOL     OW 5775   0.949   1.483  11.222  0.2439 -0.0280  0.3386
 1445SOL    HW1 5776   1.022   1.427  11.194  0.7127  0.4226  0.6324
 1445SOL    HW2 5777   0.992   1.562  11.255 -0.4138  0.5558 -0.1865
 1446SOL     OW 5778   0.138   1.587   0.399  0.4003 -0.2204 -0.2325
 1446SOL    HW1 5779   0.198   1.523   0.362 -0.2820  0.3651 -2.4791
 1446SOL    HW2 5780   0.192   1.640   0.458  1.5676 -1.1127 -0.4710
 1447SOL     OW 5781   1.980   0.739   0.401  0.0331  0.0450 -0.0274
 1447SOL    HW1 5782   1.887   0.739   0.423  0.1889 -0.3227  0.6738
 1447SOL    HW2 5783   1.982   0.725   0.306 -0.6458  0.9311 -0.1867
 1448SOL     OW 5784   0.410   2.235  10.909 -0.7827 -0.6172  0.1673
 1448SOL    HW1 5785   0.374   2.147  10.915  1.3971 -1.7042 -1.3893
 1448SOL    HW2 5786   0.339   2.287  10.870 -1.6590 -1.9514 -0.0819
 1449SOL     OW 5787   1.934   1.014   0.923  0.1062 -0.1891  0.0462
 1449SOL    HW1 5788   1.839   1.023   0.928  0.0916 -0.5391  0.4705
 1449SOL    HW2 5789   1.963   1.092   0.876 -0.1801  1.0542  1.8345
 1450SOL     OW 5790   2.646   8.000  11.528 -0.0146 -0.2743  0.0136
 1450SOL    HW1 5791   2.592   8.079  11.529  0.2339 -0.0798 -1.0836
 1450SOL    HW2 5792   2.731   8.029  11.496  0.1135 -0.9587 -0.2808
 1451SOL     OW 5793   1.790   6.895  11.372  0.2441 -0.9541 -0.1426
 1451SOL    HW1 5794   1.781   6.902  11.277  2.4222 -2.1621 -0.4933
 1451SOL    HW2 5795   1.808   6.984  11.401  2.3339 -0.9565 -1.2591
 1452SOL     OW 5796   2.619   1.313   0.005 -0.0335 -0.1450  0.2075
 1452SOL    HW1 5797   2.591   1.404   0.012  0.3797  0.1569 -1.6405
 1452SOL    HW2 5798   2.554   1.272  -0.052 -0.4743 -1.1566  1.3841
 1453SOL     OW 5799   0.083   1.963   0.368  0.7437  0.0424 -0.4348
 1453SOL    HW1 5800   0.127   1.960   0.283  0.7077 -1.5051 -0.4174
 1453SOL    HW2 5801   0.034   1.881   0.373 -0.5723  0.8404  0.3979
 1454SOL     OW 5802   0.924   2.213  11.285 -0.0930  0.4655  0.3366
 1454SOL    HW1 5803   0.991   2.265  11.330 -0.4302  0.3310  1.0223
 1454SOL    HW2 5804   0.921   2.131  11.335  0.0097  0.0271 -0.3681
 1455SOL     OW 5805   1.854   7.434  10.170  0.2180  0.3000  0.0105
 1455SOL    HW1 5806   1.802   7.514  10.167  0.0031  0.2202  1.2302
 1455SOL    HW2 5807   1.846   7.403  10.260  1.1711 -0.5175 -0.1662
 1456SOL     OW 5808   2.804   0.456  11.585 -0.2631 -0.3915  0.0744
 1456SOL    HW1 5809   2.899   0.451  11.590 -0.0537  2.2011  0.3311
 1456SOL    HW2 5810   2.773   0.420  11.668  0.7278  1.4427  1.3239
 1457SOL     OW 5811   2.759   5.833  10.046 -0.0552  0.5911 -0.2248
 1457SOL    HW1 5812   2.726   5.868  10.129 -1.5867 -1.6073  0.1758
 1457SOL    HW2 5813   2.854   5.829  10.059 -0.1684  1.2992  1.0072
 1458SOL     OW 5814   0.472   7.233   0.165  0.0528 -0.0691 -0.2902
 1458SOL    HW1 5815   0.482   7.324   0.139  0.7085 -0.3404 -1.0542
 1458SOL    HW2 5816   0.500   7.231   0.256 -2.1551  0.8826  0.4632
 1459SOL     OW 5817   1.454   7.475  12.183 -0.0872  0.0415  0.7389
 1459SOL    HW1 5818   1.366   7.511  12.187 -1.2607 -2.2632 -1.6106
 1459SOL    HW2 5819   1.450   7.394  12.234 -0.5290 -2.0254 -2.3094
 1460SOL     OW 5820   1.578   6.571  10.744  0.0373 -0.4998  0.3479
 1460SOL    HW1 5821   1.567   6.508  10.674  2.0418 -1.2298  0.6170
 1460SOL    HW2 5822   1.588   6.518  10.823 -0.0425  0.2267  0.8582
 1461SOL     OW 5823   1.320   0.288   0.362  0.2874 -0.0980 -0.1685
 1461SOL    HW1 5824   1.302   0.195   0.353 -0.7026  0.1622 -1.2023
 1461SOL    HW2 5825   1.401   0.293   0.412 -0.4428 -1.4806  1.2305
 1462SOL     OW 5826   0.302   1.395   0.288 -0.0262 -0.1623  0.3874
 1462SOL    HW1 5827   0.343   1.460   0.231 -0.7587 -0.2903 -0.3185
 1462SOL    HW2 5828   0.375   1.354   0.334  0.5584  0.2115 -0.1851
 1463SOL     OW 5829   6.426   2.742   0.151 -0.4278  0.3669  0.5879
 1463SOL    HW1 5830   6.370   2.727   0.227 -0.4470 -1.7769  0.2113
 1463SOL    HW2 5831   6.515   2.734   0.185 -0.4374 -1.1146  0.3531
 1464SOL     OW 5832   0.549   3.618  11.156  0.3337  0.8532 -0.3007
 1464SOL    HW1 5833   0.559   3.523  11.151 -1.4246  0.4170  2.3148
 1464SOL    HW2 5834   0.636   3.650  11.179  0.3086 -0.5765  2.1698
 1465SOL     OW 5835   6.312   2.071   0.051  0.1429 -0.0519 -0.0462
 1465SOL    HW1 5836   6.289   2.053  -0.040  2.5878 -1.4671 -0.4897
 1465SOL    HW2 5837   6.359   2.154   0.048 -1.2014  0.7432  0.2212
 1466SOL     OW 5838   1.549   3.044  10.727 -0.4599 -0.9306 -0.5146
 1466SOL    HW1 5839   1.583   2.984  10.660  0.5800 -0.7853 -0.1340
 1466SOL    HW2 5840   1.547   2.992  10.807  3.1118  0.1887  0.4868
 1467SOL     OW 5841   1.098   2.160  12.124  0.5974 -0.1146  0.2609
 1467SOL    HW1 5842   1.017   2.141  12.172 -0.0964  0.0266 -0.8085
 1467SOL    HW2 5843   1.070   2.166  12.033  1.9583 -0.8442 -0.2245
 1468SOL     OW 5844   2.036   3.052  11.605  0.0086 -0.3773  0.2264
 1468SOL    HW1 5845   2.043   3.018  11.516 -0.0554 -0.3836  0.2229
 1468SOL    HW2 5846   2.039   2.974  11.660  0.3905 -0.3478  0.2495
 1469SOL     OW 5847   0.501   3.787  11.800  0.2252  0.4814 -0.1160
 1469SOL    HW1 5848   0.445   3.838  11.741 -0.5856  0.6657  0.7826
 1469SOL    HW2 5849   0.495   3.697  11.767 -3.1398 -0.1320  1.6818
 1470SOL     OW 5850   1.486   0.605   0.952 -0.1253  0.2463 -0.1615
 1470SOL    HW1 5851   1.492   0.696   0.921  3.4437  0.1371 -0.1462
 1470SOL    HW2 5852   1.475   0.553   0.872  2.3269  0.4389 -0.6783
 1471SOL     OW 5853   1.234   1.114   0.163 -0.6320  0.1310  0.0286
 1471SOL    HW1 5854   1.247   1.130   0.070 -1.0322  1.0084  0.1176
 1471SOL    HW2 5855   1.227   1.018   0.170  3.7304 -0.3916 -0.2675
 1472SOL     OW 5856   7.495   3.516   3.881 -0.0448 -0.2394 -0.1646
 1472SOL    HW1 5857   7.543   3.480   3.955 -3.0199  0.6916  2.4410
 1472SOL    HW2 5858   7.452   3.441   3.841 -1.4901 -0.3890  1.5491
 1473SOL     OW 5859   1.322   3.880   1.081 -0.1924  0.1524  0.0053
 1473SOL    HW1 5860   1.279   3.817   1.022 -0.6660  0.2883  0.2003
 1473SOL    HW2 5861   1.253   3.908   1.140 -0.3145  1.8034 -0.8495
 1474SOL     OW 5862   0.642   4.326   1.787 -0.1844 -0.2218 -0.3644
 1474SOL    HW1 5863   0.633   4.392   1.856 -1.1613 -2.0670  1.4040
 1474SOL    HW2 5864   0.576   4.348   1.722 -0.6781  0.3861  0.3328
 1475SOL     OW 5865   0.521   1.498   1.686 -0.0042 -0.0819  0.3761
 1475SOL    HW1 5866   0.579   1.546   1.746  0.9472 -0.4695 -0.2014
 1475SOL    HW2 5867   0.434   1.504   1.726  0.6615 -0.6604  1.9941
 1476SOL     OW 5868   2.636   1.527   1.383  0.0847 -0.1279  0.3840
 1476SOL    HW1 5869   2.637   1.462   1.453  1.7707 -0.8812 -0.2790
 1476SOL    HW2 5870   2.697   1.492   1.317  0.1601  1.5731 -0.5061
 1477SOL     OW 5871   0.739   3.490   4.676  0.6622 -0.3624  0.3410
 1477SOL    HW1 5872   0.811   3.434   4.705  0.4220  0.1875  2.1070
 1477SOL    HW2 5873   0.690   3.511   4.756 -1.1539 -0.2652 -0.7215
 1478SOL     OW 5874   0.968   4.934   2.350  0.3505 -0.0323 -0.1795
 1478SOL    HW1 5875   0.942   5.008   2.405  2.2509  1.7668 -1.5763
 1478SOL    HW2 5876   0.907   4.937   2.276 -0.0327 -0.3409  0.1177
 1479SOL     OW 5877   0.152   4.995  11.406 -0.2726  0.1700 -0.4751
 1479SOL    HW1 5878   0.090   5.051  11.452  0.1065  0.4587 -0.3016
 1479SOL    HW2 5879   0.215   5.056  11.366  0.8978 -0.1491  0.7964
 1480SOL     OW 5880   1.390   3.142   0.853  0.3243 -0.0788  0.3947
 1480SOL    HW1 5881   1.375   3.077   0.922 -0.3518 -0.7649 -0.3753
 1480SOL    HW2 5882   1.307   3.147   0.806  0.9655 -0.1074 -0.7773
 1481SOL     OW 5883   1.184   3.347   1.014 -0.2715 -0.1083  0.1221
 1481SOL    HW1 5884   1.273   3.316   0.998 -0.1232  0.4350 -0.1490
 1481SOL    HW2 5885   1.142   3.343   0.928 -0.3997 -0.0237  0.1806
 1482SOL     OW 5886   2.467   2.113  10.990 -0.4046  0.6614  0.1586
 1482SOL    HW1 5887   2.452   2.151  11.077 -1.3353  1.9980 -0.5472
 1482SOL    HW2 5888   2.551   2.067  10.998 -0.6705  0.4140  1.8660
 1483SOL     OW 5889   3.447   1.278   2.109 -0.2825 -0.2907  0.1567
 1483SOL    HW1 5890   3.506   1.353   2.106  1.2582 -1.4074  0.7079
 1483SOL    HW2 5891   3.400   1.286   2.192  0.8453 -0.5905  0.8477
 1484SOL     OW 5892   0.841   3.201   1.917 -0.2845 -0.0842 -0.0376
 1484SOL    HW1 5893   0.812   3.292   1.905  0.7755  0.4442  1.1794
 1484SOL    HW2 5894   0.936   3.206   1.918 -0.2000 -0.8808  2.0936
 1485SOL     OW 5895   3.425   3.886  11.846 -0.2419  0.0370  0.0747
 1485SOL    HW1 5896   3.417   3.849  11.758  0.1315  0.2437 -0.0463
 1485SOL    HW2 5897   3.414   3.811  11.904 -0.1570 -0.1535 -0.1534
 1486SOL     OW 5898   0.234   3.973   1.415  0.5668  0.1209 -0.5072
 1486SOL    HW1 5899   0.160   3.989   1.474  1.2757 -2.2112  1.1696
 1486SOL    HW2 5900   0.208   3.897   1.364  1.4195 -0.1504 -0.5524
 1487SOL     OW 5901   1.838   2.057   0.235  0.1746 -0.6377  0.3637
 1487SOL    HW1 5902   1.752   2.032   0.270  0.3251 -3.4684 -0.9826
 1487SOL    HW2 5903   1.870   1.977   0.192  2.7079  0.8532 -0.7232
 1488SOL     OW 5904   1.625   4.039   0.360 -0.0959 -0.1041 -0.1310
 1488SOL    HW1 5905   1.591   4.108   0.416 -0.5245  0.5114 -1.1275
 1488SOL    HW2 5906   1.555   3.974   0.357 -0.3900  0.2250 -0.5624
 1489SOL     OW 5907   6.883   1.912   2.637  0.6332 -0.5027  0.0537
 1489SOL    HW1 5908   6.865   1.887   2.728  1.1998  0.1478  0.3552
 1489SOL    HW2 5909   6.866   2.006   2.634  1.2365 -0.3975 -0.3477
 1490SOL     OW 5910   7.919   2.742   0.654 -0.0609 -0.0792 -0.3773
 1490SOL    HW1 5911   7.903   2.655   0.617 -1.1389 -0.8660  1.8084
 1490SOL    HW2 5912   7.993   2.729   0.714 -0.8099  0.2991  0.6334
 1491SOL     OW 5913   1.758   3.869   0.216  0.1120 -0.5796  0.0003
 1491SOL    HW1 5914   1.752   3.909   0.129 -0.7517  0.6222  0.5892
 1491SOL    HW2 5915   1.711   3.929   0.274 -1.1623 -2.3827  0.9518
 1492SOL     OW 5916   1.589   1.290  10.999  0.3444  0.2080 -0.2264
 1492SOL    HW1 5917   1.514   1.254  10.952  1.7229  1.1255 -3.4661
 1492SOL    HW2 5918   1.650   1.217  11.007  0.5830  0.3020 -1.0504
 1493SOL     OW 5919   0.240   3.273   1.479  0.1722  0.5431 -0.0172
 1493SOL    HW1 5920   0.196   3.323   1.548 -3.1089  0.5063 -1.8790
 1493SOL    HW2 5921   0.249   3.185   1.515 -0.0672  0.8861  0.9218
 1494SOL     OW 5922   0.383   1.746  11.008 -0.3613 -0.0094  0.0716
 1494SOL    HW1 5923   0.410   1.684  11.076  1.5095  0.8948  0.2223
 1494SOL    HW2 5924   0.290   1.729  10.995  0.0984 -2.9230  0.0273
 1495SOL     OW 5925   3.071   1.867   0.217 -0.1416  0.2143 -0.0188
 1495SOL    HW1 5926   3.155   1.827   0.238 -0.7568 -0.3106  1.5364
 1495SOL    HW2 5927   3.052   1.836   0.128  1.3483  0.4595 -0.4681
 1496SOL     OW 5928   0.070   2.469   1.616 -0.8208  0.1808 -0.0881
 1496SOL    HW1 5929   0.078   2.534   1.686  1.9116 -1.7359  1.5520
 1496SOL    HW2 5930   0.092   2.517   1.536  1.9442  1.1933  1.1819
 1497SOL     OW 5931   0.176   0.713   0.939  0.8439 -0.1389 -0.6612
 1497SOL    HW1 5932   0.234   0.675   0.874  0.2197 -2.2178 -0.1030
 1497SOL    HW2 5933   0.191   0.660   1.018 -0.1472  0.7421  0.1544
 1498SOL     OW 5934   3.349   3.010  12.071  0.0366 -0.1987  0.0174
 1498SOL    HW1 5935   3.356   3.039  12.161  1.5900  0.0349 -0.1528
 1498SOL    HW2 5936   3.415   2.941  12.062 -0.3295 -0.4574 -0.8431
 1499SOL     OW 5937   6.894   1.874  11.861  0.0601 -0.2314 -0.1604
 1499SOL    HW1 5938   6.989   1.866  11.854  0.0238 -0.7812 -0.0539
 1499SOL    HW2 5939   6.879   1.966  11.879  0.6369 -0.3389  0.9105
 1500SOL     OW 5940   0.431   2.390   2.450 -0.2388  0.3920 -0.0068
 1500SOL    HW1 5941   0.355   2.338   2.424 -0.1311 -0.1141  0.6825
 1500SOL    HW2 5942   0.461   2.429   2.368 -0.2940 -0.6660 -0.5462
 1501SOL     OW 5943   7.887   1.286  11.243  0.1901 -0.2710 -0.0541
 1501SOL    HW1 5944   7.921   1.350  11.181 -1.6205 -2.6513 -3.8420
 1501SOL    HW2 5945   7.811   1.329  11.282 -0.3655  0.3217 -1.7084
 1502SOL     OW 5946   0.809   1.890   1.630  0.0228  0.2670 -0.3400
 1502SOL    HW1 5947   0.793   1.832   1.705  0.0286  0.8481  0.1133
 1502SOL    HW2 5948   0.882   1.945   1.657  0.3357  0.1580 -0.9611
 1503SOL     OW 5949   0.517   3.036   0.857  0.0103  0.2669 -0.2211
 1503SOL    HW1 5950   0.490   2.983   0.932  0.2208  1.1414  0.4928
 1503SOL    HW2 5951   0.606   3.008   0.838  0.0239  0.1765 -0.0204
 1504SOL     OW 5952   0.033   4.255   0.428 -0.4922 -0.5696  0.6647
 1504SOL    HW1 5953   0.036   4.192   0.500  1.8671  1.5027  2.5422
 1504SOL    HW2 5954   0.002   4.336   0.468 -1.4636  0.0704 -1.2505
 1505SOL     OW 5955   0.125   4.602   0.548  0.1327 -0.1210  0.0825
 1505SOL    HW1 5956   0.043   4.554   0.540  0.9859 -1.5655 -0.2954
 1505SOL    HW2 5957   0.182   4.564   0.481  0.9067  1.3196 -0.1322
 1506SOL     OW 5958   1.371   2.641  12.001  0.3292 -1.0052 -0.2074
 1506SOL    HW1 5959   1.362   2.730  11.968 -1.3730 -0.4316  1.6632
 1506SOL    HW2 5960   1.416   2.651  12.085 -0.5431 -1.8262  0.3724
 1507SOL     OW 5961   7.364   2.555   1.717 -0.0742  0.0152 -0.7912
 1507SOL    HW1 5962   7.271   2.550   1.694  0.2527 -1.5885 -1.9764
 1507SOL    HW2 5963   7.410   2.530   1.636  1.3179 -0.9034  0.2330
 1508SOL     OW 5964   0.018   4.656   3.235 -0.1101 -0.3722  0.1191
 1508SOL    HW1 5965  -0.044   4.592   3.201  0.1665 -0.2393 -0.6440
 1508SOL    HW2 5966  -0.032   4.705   3.300 -0.4940 -0.9602  0.2807
 1509SOL     OW 5967   7.369   2.559   0.784  0.4636  0.1066 -1.1566
 1509SOL    HW1 5968   7.313   2.603   0.849 -0.1407 -1.3734 -0.6329
 1509SOL    HW2 5969   7.456   2.559   0.824  0.2592 -0.0717 -0.7050
 1510SOL     OW 5970   3.803   1.493   3.655  0.1645 -0.2627 -0.0662
 1510SOL    HW1 5971   3.805   1.577   3.611  1.7160 -1.1565 -1.8364
 1510SOL    HW2 5972   3.819   1.429   3.586  1.1701 -1.8690  1.5528
 1511SOL     OW 5973   0.430   6.895  11.354  0.2123  0.2997 -0.0988
 1511SOL    HW1 5974   0.403   6.983  11.330 -0.3381  0.0571 -0.3709
 1511SOL    HW2 5975   0.489   6.908  11.429  0.6368  0.9366 -0.5300
 1512SOL     OW 5976   1.445   2.161   0.848 -0.0191  0.9267  0.0206
 1512SOL    HW1 5977   1.530   2.205   0.842 -0.5309  2.1467  1.3791
 1512SOL    HW2 5978   1.456   2.097   0.919  0.0061  0.4730 -0.3827
 1513SOL     OW 5979   1.045   3.917   2.738 -0.1497 -0.1965 -0.6923
 1513SOL    HW1 5980   1.011   3.956   2.657  0.5189  2.2266  0.0953
 1513SOL    HW2 5981   0.968   3.912   2.796 -0.7282 -2.3792 -1.5665
 1514SOL     OW 5982   1.795   2.715  11.159 -0.4280 -0.2465 -0.2097
 1514SOL    HW1 5983   1.755   2.631  11.182 -0.8610  0.2093  0.7503
 1514SOL    HW2 5984   1.741   2.749  11.088  0.1871 -1.1072 -1.1077
 1515SOL     OW 5985   2.331   2.094  11.402 -0.0533 -0.2493 -0.0711
 1515SOL    HW1 5986   2.369   2.028  11.461 -4.2995 -3.2258 -0.2382
 1515SOL    HW2 5987   2.269   2.143  11.457  0.4826  1.2822 -0.7711
 1516SOL     OW 5988   1.711   3.363   0.764  0.3498  0.3901  0.2151
 1516SOL    HW1 5989   1.806   3.375   0.765  0.3008  0.8263  1.2315
 1516SOL    HW2 5990   1.699   3.272   0.737  1.0474  0.4145 -0.1864
 1517SOL     OW 5991   0.239   3.635   2.237  0.3196  0.0520 -0.0989
 1517SOL    HW1 5992   0.186   3.584   2.298 -0.2198 -0.7237 -1.1626
 1517SOL    HW2 5993   0.244   3.722   2.276 -0.0575 -0.3996  0.9986
 1518SOL     OW 5994   0.913   3.422   2.191 -0.0740  0.8453 -0.0116
 1518SOL    HW1 5995   0.952   3.347   2.237  0.6510  1.1549 -0.1102
 1518SOL    HW2 5996   0.926   3.403   2.098  1.2953  1.6910 -0.0195
 1519SOL     OW 5997   0.982   2.580   1.839  0.3142 -0.3975  0.3153
 1519SOL    HW1 5998   0.944   2.539   1.917  1.3901 -0.1538  0.9939
 1519SOL    HW2 5999   1.070   2.606   1.867  0.7568 -0.4007 -1.0158
 1520SOL     OW 6000   2.046   1.966   0.461 -0.6536  0.0922 -0.3460
 1520SOL    HW1 6001   1.980   1.956   0.529 -3.2591  0.1493 -2.6585
 1520SOL    HW2 6002   2.062   1.877   0.430  0.2343  0.0991  0.0869
 1521SOL     OW 6003   7.677   3.425  12.045 -0.0465  0.1675 -0.1159
 1521SOL    HW1 6004   7.592   3.422  12.088  0.5307  1.0515  1.1523
 1521SOL    HW2 6005   7.721   3.344  12.073 -0.5984 -0.4992 -1.1121
 1522SOL     OW 6006   3.145   1.394   0.134  0.9236  0.3811 -0.4121
 1522SOL    HW1 6007   3.103   1.429   0.212  0.1030 -0.7399 -0.3374
 1522SOL    HW2 6008   3.227   1.443   0.127  1.1818  0.2513  1.3533
 1523SOL     OW 6009   0.127   3.604   0.735  0.0505  0.0996  0.1806
 1523SOL    HW1 6010   0.191   3.532   0.729  0.1240 -0.0968  2.3060
 1523SOL    HW2 6011   0.139   3.637   0.824  0.0243  2.7930 -0.7501
 1524SOL     OW 6012   7.819   2.456  12.083 -0.0460  0.5843  0.5641
 1524SOL    HW1 6013   7.854   2.465  11.995  1.9521 -0.2796  1.2146
 1524SOL    HW2 6014   7.802   2.546  12.111  2.8432  1.2054  0.6075
 1525SOL     OW 6015   0.917   4.047   1.899  0.0086 -0.4563  0.1403
 1525SOL    HW1 6016   0.951   3.991   1.970  0.2382 -1.7664 -0.9612
 1525SOL    HW2 6017   0.839   4.001   1.869  0.3426 -0.3328 -0.9523
 1526SOL     OW 6018   1.807   4.905   1.969  0.0502  0.1733 -0.0346
 1526SOL    HW1 6019   1.825   4.941   1.882  0.1333 -0.9226 -0.4910
 1526SOL    HW2 6020   1.712   4.899   1.973  0.0852 -0.9345 -0.5565
 1527SOL     OW 6021   7.248   3.214   1.064 -0.3938 -0.4077 -0.3346
 1527SOL    HW1 6022   7.317   3.280   1.062 -0.3887 -0.4299 -1.3338
 1527SOL    HW2 6023   7.212   3.220   1.152  0.3690  0.1363 -0.0507
 1528SOL     OW 6024   2.082   1.289   1.815  0.0637  0.7905  0.3356
 1528SOL    HW1 6025   2.131   1.324   1.740  0.7585 -0.4433  0.1780
 1528SOL    HW2 6026   2.112   1.198   1.822 -1.0906  0.4578  1.2053
 1529SOL     OW 6027   7.977   3.293   0.816 -0.6195 -0.0929 -0.4327
 1529SOL    HW1 6028   7.984   3.322   0.907  0.5465  0.1369 -0.5737
 1529SOL    HW2 6029   7.947   3.371   0.769 -0.3838  0.0369 -0.3699
 1530SOL     OW 6030   7.156   2.575   1.288 -0.1542  0.1840  0.1969
 1530SOL    HW1 6031   7.242   2.617   1.293 -0.2791  0.2923  3.3923
 1530SOL    HW2 6032   7.094   2.648   1.298 -0.5987 -0.0512 -0.7593
 1531SOL     OW 6033   6.763   3.543   2.325 -0.3323  0.0470 -0.1270
 1531SOL    HW1 6034   6.727   3.476   2.265 -1.6159  1.0135 -0.4861
 1531SOL    HW2 6035   6.751   3.505   2.412 -0.4342 -0.4783 -0.3633
 1532SOL     OW 6036   2.015   3.060   1.674  0.1075  0.1513  0.6702
 1532SOL    HW1 6037   2.058   3.041   1.757  1.3612 -0.2937 -0.0598
 1532SOL    HW2 6038   1.943   2.997   1.670  0.6102 -0.4512  0.9930
 1533SOL     OW 6039   0.774   3.485   0.464 -0.4866 -0.0061  0.2479
 1533SOL    HW1 6040   0.699   3.541   0.444 -0.1449 -0.5226 -2.9940
 1533SOL    HW2 6041   0.738   3.396   0.468 -0.5075  0.0345  2.1662
 1534SOL     OW 6042   1.397   2.445   1.577 -0.1086  0.8410  0.4022
 1534SOL    HW1 6043   1.422   2.372   1.633 -0.9476  0.7925  0.7264
 1534SOL    HW2 6044   1.462   2.445   1.507 -0.9403 -1.1201 -0.4277
 1535SOL     OW 6045   0.260   1.459  11.914 -0.0973 -0.2242 -0.2941
 1535SOL    HW1 6046   0.202   1.500  11.850  0.2265 -0.2903 -0.6356
 1535SOL    HW2 6047   0.223   1.372  11.929  0.4101 -0.6079 -1.1939
 1536SOL     OW 6048   2.000   3.541  12.224 -0.0000  0.6747 -0.3069
 1536SOL    HW1 6049   2.055   3.617  12.209 -0.2081  0.6345 -1.3503
 1536SOL    HW2 6050   1.962   3.521  12.139 -1.7483  0.7871  0.3920
 1537SOL     OW 6051   1.112   2.987   1.128 -0.3160 -0.4424  0.4925
 1537SOL    HW1 6052   1.058   2.909   1.118 -1.2865  0.2982 -0.3211
 1537SOL    HW2 6053   1.049   3.057   1.149  0.5181  0.1457  1.0968
 1538SOL     OW 6054   1.287   1.632  12.471  0.3216 -0.5863 -0.1343
 1538SOL    HW1 6055   1.320   1.713  12.509 -0.9748  0.5245 -1.2852
 1538SOL    HW2 6056   1.360   1.571  12.478  1.5481  0.8658  0.1707
 1539SOL     OW 6057   7.657   2.561   0.878 -0.1916  0.2546  0.3887
 1539SOL    HW1 6058   7.670   2.635   0.937 -2.1158  0.2368  0.9102
 1539SOL    HW2 6059   7.686   2.485   0.929 -0.0084  0.4459  0.5727
 1540SOL     OW 6060   0.760   3.289  11.943  0.1014 -0.3737  0.3819
 1540SOL    HW1 6061   0.671   3.301  11.911  0.3203  0.3506  0.0037
 1540SOL    HW2 6062   0.750   3.249  12.029 -0.5958 -0.1581  0.4065
 1541SOL     OW 6063   1.792   2.888   1.682  0.3830 -0.4847 -0.0916
 1541SOL    HW1 6064   1.706   2.848   1.682  0.5038 -0.7435  0.0265
 1541SOL    HW2 6065   1.844   2.834   1.741  0.8133 -0.7337 -0.6834
 1542SOL     OW 6066   1.606   3.745   0.553 -0.3563 -0.2260 -0.1454
 1542SOL    HW1 6067   1.681   3.754   0.612 -0.9407 -3.8678  1.4689
 1542SOL    HW2 6068   1.530   3.749   0.611 -1.2439  0.3335 -1.3193
 1543SOL     OW 6069   0.294   1.990  10.871 -0.2894 -0.2891  0.1787
 1543SOL    HW1 6070   0.216   1.983  10.816  0.0729 -0.1612 -0.3591
 1543SOL    HW2 6071   0.315   1.900  10.893 -0.7910 -0.3056  0.6215
 1544SOL     OW 6072   0.820   3.500   3.088  0.0471  0.1299 -0.3148
 1544SOL    HW1 6073   0.913   3.503   3.066 -0.0220  3.9030 -0.6025
 1544SOL    HW2 6074   0.818   3.466   3.178  1.5462 -1.0825 -0.6913
 1545SOL     OW 6075   1.686   0.496  12.416 -0.2787 -0.2665 -0.2458
 1545SOL    HW1 6076   1.735   0.566  12.460  0.6207  0.1532 -1.8398
 1545SOL    HW2 6077   1.595   0.514  12.438 -0.1389  1.8414 -1.1273
 1546SOL     OW 6078   1.216   4.279   2.010  0.3757  0.9527  0.4147
 1546SOL    HW1 6079   1.285   4.214   1.995  1.8884  2.5610  0.0953
 1546SOL    HW2 6080   1.174   4.250   2.091  0.2027 -1.0648 -0.3401
 1547SOL     OW 6081   0.360   2.499   0.214  0.2015  0.8552 -0.8436
 1547SOL    HW1 6082   0.349   2.466   0.303  3.9513  1.2583 -0.0616
 1547SOL    HW2 6083   0.350   2.594   0.222 -0.3121  0.8204 -1.0420
 1548SOL     OW 6084   1.274   1.135   0.761  0.2943  0.3996  0.0024
 1548SOL    HW1 6085   1.291   1.193   0.835  0.1511 -1.0996  1.2551
 1548SOL    HW2 6086   1.209   1.182   0.708 -0.3294  1.0852  1.3229
 1549SOL     OW 6087   1.202   4.199   1.540  0.3339 -0.7621  0.1435
 1549SOL    HW1 6088   1.180   4.283   1.580  0.5532 -0.2123 -0.8654
 1549SOL    HW2 6089   1.192   4.135   1.611  0.8470  0.1954  1.1010
 1550SOL     OW 6090   2.496   2.149  11.751 -0.6455  0.1680 -0.1939
 1550SOL    HW1 6091   2.511   2.135  11.845 -1.3163 -1.7289 -0.3224
 1550SOL    HW2 6092   2.452   2.234  11.747 -0.5651  0.3104  1.2063
 1551SOL     OW 6093   2.486   4.139   0.081  0.2593 -0.4385  0.3083
 1551SOL    HW1 6094   2.484   4.081   0.157  1.3693 -1.2553 -0.2600
 1551SOL    HW2 6095   2.483   4.079   0.006  0.8649  0.2708 -0.2924
 1552SOL     OW 6096   2.951   2.388   0.972 -0.1840  0.2396  0.5580
 1552SOL    HW1 6097   2.973   2.295   0.972  0.9815  0.4944  0.0261
 1552SOL    HW2 6098   3.021   2.429   0.921 -2.9251  0.8617 -3.1166
 1553SOL     OW 6099   0.533   1.560  11.469  0.3878  0.1365  0.3462
 1553SOL    HW1 6100   0.626   1.548  11.485  0.4113  0.6594  0.6495
 1553SOL    HW2 6101   0.509   1.636  11.523 -0.4647 -0.7112  1.2242
 1554SOL     OW 6102   1.788   2.887  11.424  0.5328  0.0451 -0.4008
 1554SOL    HW1 6103   1.748   2.908  11.340  1.9798  1.6048 -0.7535
 1554SOL    HW2 6104   1.882   2.884  11.406  0.8651  0.4003  1.1347
 1555SOL     OW 6105   1.603   3.119   0.660 -0.6294 -0.2975 -0.2792
 1555SOL    HW1 6106   1.526   3.126   0.715 -1.3235  0.7811 -1.3471
 1555SOL    HW2 6107   1.570   3.086   0.576  0.3236 -1.4018 -0.2512
 1556SOL     OW 6108   7.999   2.375  11.867 -0.4348 -0.3271 -0.2399
 1556SOL    HW1 6109   8.071   2.343  11.921  0.0812  2.7886  1.1029
 1556SOL    HW2 6110   8.038   2.443  11.812 -2.2011  1.0106  0.0797
 1557SOL     OW 6111   1.726   3.917   2.997 -0.1979 -0.0305 -0.0345
 1557SOL    HW1 6112   1.706   4.003   2.959  0.5146  1.0357  1.8775
 1557SOL    HW2 6113   1.641   3.883   3.025 -0.4722  0.0664 -0.7102
 1558SOL     OW 6114   6.833   3.346   0.030 -0.2806 -0.0652  0.3744
 1558SOL    HW1 6115   6.761   3.377  -0.025  1.1657  1.2182 -0.9096
 1558SOL    HW2 6116   6.892   3.421   0.036  1.5079 -1.4054  0.4177
 1559SOL     OW 6117   7.594   1.614   0.850 -0.4044  0.4992 -0.4849
 1559SOL    HW1 6118   7.550   1.691   0.886  0.6658  1.3950 -1.0613
 1559SOL    HW2 6119   7.620   1.564   0.927 -2.0562  0.1297 -0.1151
 1560SOL     OW 6120   1.283   1.613  12.190 -0.1235 -0.1276 -0.3731
 1560SOL    HW1 6121   1.286   1.624  12.286 -0.5652 -0.9489 -0.2583
 1560SOL    HW2 6122   1.270   1.701  12.156  1.2062  0.3417  0.2654
 1561SOL     OW 6123   2.398   3.822   1.411  0.1162  0.1011 -0.2276
 1561SOL    HW1 6124   2.418   3.897   1.467  0.3982  1.3903 -1.9745
 1561SOL    HW2 6125   2.304   3.808   1.423  0.0361  0.8240  0.0100
 1562SOL     OW 6126   7.646   3.967   0.935  0.0943 -0.5414  0.4492
 1562SOL    HW1 6127   7.596   4.032   0.985  1.3647  3.4852 -2.9563
 1562SOL    HW2 6128   7.723   3.948   0.989  0.2568  1.7619  1.1061
 1563SOL     OW 6129   6.808   3.704   1.554  0.2830  0.1865  0.3094
 1563SOL    HW1 6130   6.879   3.768   1.556 -0.7234  1.3585  2.3417
 1563SOL    HW2 6131   6.728   3.758   1.559 -0.6706 -1.1781  0.1961
 1564SOL     OW 6132   1.566   0.434   3.107  0.5174  0.8893  0.0468
 1564SOL    HW1 6133   1.569   0.414   3.014  0.0208  1.2534 -0.0509
 1564SOL    HW2 6134   1.557   0.349   3.149 -0.2367  0.7976 -0.2924
 1565SOL     OW 6135   6.449   2.219   1.415  0.2686  0.2126  0.0928
 1565SOL    HW1 6136   6.477   2.145   1.360  0.8653  0.1850  0.4238
 1565SOL    HW2 6137   6.485   2.199   1.502 -0.4373  0.3880  0.4341
 1566SOL     OW 6138   2.345   1.917  11.611  0.2268 -0.1600 -0.2346
 1566SOL    HW1 6139   2.292   1.842  11.584 -0.5715  0.4040 -0.2696
 1566SOL    HW2 6140   2.308   1.943  11.695  2.0986 -1.3311  1.0338
 1567SOL     OW 6141   0.645   1.905   0.593  0.1392  0.0053 -0.2297
 1567SOL    HW1 6142   0.713   1.924   0.528 -0.5094  0.4748 -0.7705
 1567SOL    HW2 6143   0.609   1.821   0.566 -1.4476  1.0765 -1.6289
 1568SOL     OW 6144   3.568   3.490   0.358 -0.3246  0.3849 -0.2081
 1568SOL    HW1 6145   3.620   3.540   0.421 -1.6741  1.0944  0.3707
 1568SOL    HW2 6146   3.566   3.401   0.393  1.5579  0.0199 -0.9126
 1569SOL     OW 6147   7.431   4.513   0.605  0.0439  0.4036  0.2342
 1569SOL    HW1 6148   7.377   4.485   0.678  1.7547 -0.7890  1.1072
 1569SOL    HW2 6149   7.425   4.441   0.542 -0.6280  0.9850 -0.3887
 1570SOL     OW 6150   0.062   1.577  11.753 -0.8018  0.2879 -0.5155
 1570SOL    HW1 6151   0.093   1.570  11.662  1.6995  2.1870  0.0790
 1570SOL    HW2 6152   0.040   1.669  11.763 -0.4244  0.2380  0.9687
 1571SOL     OW 6153   0.636   3.316   3.617 -0.0027 -0.8358  0.1384
 1571SOL    HW1 6154   0.601   3.399   3.584 -1.5415 -1.8263 -0.8234
 1571SOL    HW2 6155   0.611   3.315   3.710  1.6958  0.5767  0.6878
 1572SOL     OW 6156   2.019   2.738  12.494  0.0730  0.2403  0.2235
 1572SOL    HW1 6157   2.013   2.814  12.436  2.0090  0.8227  0.7318
 1572SOL    HW2 6158   2.105   2.700  12.475 -1.3134 -2.6511 -0.9473
 1573SOL     OW 6159   7.441   2.015   0.527 -0.2835 -0.3871 -0.1941
 1573SOL    HW1 6160   7.511   2.059   0.576  1.1226 -2.4042 -0.2470
 1573SOL    HW2 6161   7.447   2.052   0.439  2.4185 -2.0847 -0.8844
 1574SOL     OW 6162   7.643   2.191   0.539  0.3626 -0.2541 -0.3060
 1574SOL    HW1 6163   7.734   2.165   0.552  1.4297  2.6643 -1.1695
 1574SOL    HW2 6164   7.648   2.273   0.489 -2.7948 -0.7179 -1.6507
 1575SOL     OW 6165   0.010   2.960   0.459 -0.0587  0.5760 -0.1634
 1575SOL    HW1 6166   0.035   2.922   0.375  0.2440  1.5449 -0.5309
 1575SOL    HW2 6167  -0.000   2.885   0.518  2.5093  0.0222 -0.3032
 1576SOL     OW 6168   7.627   1.786   0.352  0.4889 -0.0087  0.3725
 1576SOL    HW1 6169   7.722   1.780   0.362  0.4910 -0.2640  0.1955
 1576SOL    HW2 6170   7.608   1.878   0.370  0.6936 -0.0813  1.0187
 1577SOL     OW 6171   2.390   3.743  11.710  0.3418 -0.6132  0.0915
 1577SOL    HW1 6172   2.359   3.737  11.800 -0.0311 -0.3576 -0.0156
 1577SOL    HW2 6173   2.383   3.653  11.677  0.0373 -0.6234  0.1760
 1578SOL     OW 6174   1.106   2.531   2.288 -0.0486  0.5214 -0.1179
 1578SOL    HW1 6175   1.112   2.455   2.346  1.4866  0.3011 -0.5206
 1578SOL    HW2 6176   1.060   2.597   2.340 -0.1422 -0.2011  0.7456
 1579SOL     OW 6177   5.676   3.380   1.705  0.1313 -0.0088  0.5098
 1579SOL    HW1 6178   5.647   3.289   1.710 -0.6112  0.2784  1.9050
 1579SOL    HW2 6179   5.766   3.378   1.737  0.6036 -0.4244 -0.7650
 1580SOL     OW 6180   0.710   3.707   2.063 -0.0938  0.1509 -0.4895
 1580SOL    HW1 6181   0.683   3.621   2.030  2.1948 -0.2250 -1.5926
 1580SOL    HW2 6182   0.716   3.762   1.984  0.0975  0.8491  0.0018
 1581SOL     OW 6183   1.354   1.670  11.756  0.6040  0.2950 -0.6206
 1581SOL    HW1 6184   1.399   1.734  11.810  1.1924 -1.2156  0.7526
 1581SOL    HW2 6185   1.261   1.694  11.762  0.6853  0.3099  0.8778
 1582SOL     OW 6186   0.223   1.358   0.587 -0.5326  0.3238 -0.5344
 1582SOL    HW1 6187   0.196   1.391   0.501  1.1859  0.5651 -1.0147
 1582SOL    HW2 6188   0.305   1.404   0.605  1.3370 -2.7038 -0.6526
 1583SOL     OW 6189   7.650   2.772   1.139 -0.5701 -0.9558  0.5911
 1583SOL    HW1 6190   7.743   2.748   1.144 -0.0239  1.1216  1.7709
 1583SOL    HW2 6191   7.650   2.868   1.144 -2.8767 -0.9816  2.6756
 1584SOL     OW 6192   0.464   3.241   1.339 -0.4687 -0.1228  0.5580
 1584SOL    HW1 6193   0.379   3.257   1.379  0.1096 -0.7404  2.0775
 1584SOL    HW2 6194   0.527   3.252   1.410  0.5093 -2.1837  0.0788
 1585SOL     OW 6195   0.379   5.935   0.587 -0.0917  0.3136  0.4082
 1585SOL    HW1 6196   0.369   5.920   0.493 -1.1568  0.6748  0.4591
 1585SOL    HW2 6197   0.453   5.880   0.612 -0.0381 -0.0733 -0.5682
 1586SOL     OW 6198   0.124   0.643   0.440  0.1027  1.0964  0.1197
 1586SOL    HW1 6199   0.119   0.562   0.491 -1.5383 -0.5261 -2.4251
 1586SOL    HW2 6200   0.211   0.678   0.460 -0.2008  0.3104  3.4827
 1587SOL     OW 6201   1.434   1.395   0.918  0.2754 -0.5851  0.2494
 1587SOL    HW1 6202   1.422   1.333   0.990  1.3186  0.8398  1.7327
 1587SOL    HW2 6203   1.514   1.443   0.941  1.0540 -0.5656 -2.2449
 1588SOL     OW 6204   0.015   1.773   1.247  0.1064 -0.5310 -0.7176
 1588SOL    HW1 6205  -0.026   1.771   1.334  0.9162 -0.6602 -0.3294
 1588SOL    HW2 6206   0.109   1.782   1.265  0.1369  1.4102 -1.6303
 1589SOL     OW 6207   0.640   4.387  12.144  0.1755 -0.5971  0.1741
 1589SOL    HW1 6208   0.634   4.480  12.166  1.6553 -0.7445  1.3010
 1589SOL    HW2 6209   0.729   4.376  12.111 -0.7480 -1.1687 -2.3106
 1590SOL     OW 6210   0.912   1.555   0.655 -0.0675  0.2911 -0.1709
 1590SOL    HW1 6211   0.951   1.535   0.740 -0.7668  1.1444  0.3607
 1590SOL    HW2 6212   0.933   1.647   0.640  0.5552 -0.0079 -1.2016
 1591SOL     OW 6213   0.327   2.966   1.401 -0.5183 -0.1964 -0.0141
 1591SOL    HW1 6214   0.376   3.030   1.350 -0.0762 -0.4249  0.1134
 1591SOL    HW2 6215   0.377   2.955   1.481 -0.6888 -0.5564  0.0489
 1592SOL     OW 6216   1.668   7.591   2.463  0.1852  0.0331  0.4841
 1592SOL    HW1 6217   1.628   7.542   2.392  0.7006 -0.4047  0.4917
 1592SOL    HW2 6218   1.608   7.580   2.537  0.9405 -1.7022  0.8755
 1593SOL     OW 6219   2.189   1.124   2.432 -0.1624 -0.0629 -0.2834
 1593SOL    HW1 6220   2.187   1.065   2.356 -1.6908 -1.2046  0.5693
 1593SOL    HW2 6221   2.175   1.211   2.395 -1.6079 -0.6758 -1.2927
 1594SOL     OW 6222   7.885   2.315   0.765 -0.0638  0.2915  0.1804
 1594SOL    HW1 6223   7.862   2.231   0.725  2.1850  0.0946 -0.9027
 1594SOL    HW2 6224   7.957   2.293   0.824 -1.0885  1.1241  1.7915
 1595SOL     OW 6225   7.982   4.215   1.932 -0.2950  0.2890 -0.3202
 1595SOL    HW1 6226   8.073   4.216   1.903 -0.2462  1.3879 -0.1673
 1595SOL    HW2 6227   7.986   4.230   2.027 -0.6836  2.5096 -0.5794
 1596SOL     OW 6228   0.723   3.977   1.021  0.5217 -0.3130  0.5583
 1596SOL    HW1 6229   0.814   3.946   1.017  0.3464 -0.7165 -1.2673
 1596SOL    HW2 6230   0.670   3.897   1.025  0.1933 -0.1986 -0.8384
 1597SOL     OW 6231   1.956   2.174  11.959 -0.6473  0.7401 -0.3410
 1597SOL    HW1 6232   1.960   2.267  11.981 -1.5366  1.2585 -2.1754
 1597SOL    HW2 6233   1.863   2.159  11.939 -0.1186  0.1280 -2.6152
 1598SOL     OW 6234   1.739   4.284   1.768  0.5761  0.1262 -0.3389
 1598SOL    HW1 6235   1.655   4.242   1.750 -0.0229  0.9400  0.4688
 1598SOL    HW2 6236   1.783   4.288   1.683 -1.1209  1.6594 -1.2061
 1599SOL     OW 6237   1.038   1.232   0.302  0.8443  0.0288 -0.7512
 1599SOL    HW1 6238   1.120   1.195   0.270  1.0068 -1.4653  1.2022
 1599SOL    HW2 6239   1.064   1.311   0.349  1.2088 -0.4362 -0.1448
 1600SOL     OW 6240   0.262   2.993   4.169  0.5352 -0.4322 -0.1017
 1600SOL    HW1 6241   0.246   2.944   4.250 -1.1612  2.6302  1.5942
 1600SOL    HW2 6242   0.333   3.053   4.191  2.0428 -1.4318 -1.8939
 1601SOL     OW 6243   0.371   3.136   0.282 -0.1155 -0.6807  0.3101
 1601SOL    HW1 6244   0.353   3.095   0.198 -2.5302 -0.4459  0.6629
 1601SOL    HW2 6245   0.380   3.063   0.343  0.3449 -0.8045  0.1003
 1602SOL     OW 6246   2.255   3.156  11.938 -0.4419  0.0486 -0.0962
 1602SOL    HW1 6247   2.339   3.197  11.953 -0.4571  1.2025 -2.6474
 1602SOL    HW2 6248   2.276   3.067  11.909 -0.0411  0.4060 -0.9515
 1603SOL     OW 6249   1.829   2.294   1.505 -0.4687 -0.3503  0.4562
 1603SOL    HW1 6250   1.923   2.276   1.510 -0.3037 -0.4667 -1.9377
 1603SOL    HW2 6251   1.788   2.214   1.537  0.2881 -1.5276 -1.3414
 1604SOL     OW 6252   1.220   3.425   2.466  0.3174  0.2181  0.1429
 1604SOL    HW1 6253   1.231   3.344   2.516  0.5616  0.4590  0.4789
 1604SOL    HW2 6254   1.165   3.480   2.522 -1.2660 -0.3309 -0.7838
 1605SOL     OW 6255   7.962   3.326   3.529  0.2512  0.3827 -0.1682
 1605SOL    HW1 6256   7.896   3.332   3.599 -0.2102  0.5223 -0.6143
 1605SOL    HW2 6257   7.934   3.390   3.464 -0.1802 -0.7944 -1.1961
 1606SOL     OW 6258   0.288   2.323  12.458 -0.1117 -0.1807 -0.1687
 1606SOL    HW1 6259   0.325   2.369  12.534  2.0825 -0.6959 -0.8798
 1606SOL    HW2 6260   0.193   2.335  12.468  0.1552  0.6122  2.1065
 1607SOL     OW 6261   7.226   3.795   1.319 -0.6143  0.4853  0.2563
 1607SOL    HW1 6262   7.251   3.742   1.395  1.7170  0.2360 -0.5844
 1607SOL    HW2 6263   7.226   3.734   1.246 -1.7926  0.9189 -0.1228
 1608SOL     OW 6264   7.849   3.248   2.447  0.3163  0.0374 -0.6719
 1608SOL    HW1 6265   7.827   3.340   2.463 -1.2284 -0.2920 -0.6942
 1608SOL    HW2 6266   7.790   3.199   2.504 -0.1174 -0.9739 -1.9436
 1609SOL     OW 6267   0.219   2.843   0.852 -0.3703  0.0763 -0.7327
 1609SOL    HW1 6268   0.205   2.928   0.811 -2.0576  0.5716  0.7019
 1609SOL    HW2 6269   0.131   2.813   0.874  0.2989 -1.3213  0.1813
 1610SOL     OW 6270   7.685   2.441   2.526  0.0223  0.2105  0.3523
 1610SOL    HW1 6271   7.738   2.477   2.455 -0.9745  1.1378  0.0462
 1610SOL    HW2 6272   7.646   2.361   2.490  2.0476 -1.1122  0.9483
 1611SOL     OW 6273   1.410   5.382   1.044 -0.2186  0.3978  0.2282
 1611SOL    HW1 6274   1.359   5.301   1.038  0.0689  0.1334  1.1922
 1611SOL    HW2 6275   1.445   5.382   1.133 -0.2245  1.5956  0.2474
 1612SOL     OW 6276   0.526   2.007   1.254  0.7318  0.1070  0.6831
 1612SOL    HW1 6277   0.574   2.056   1.321 -1.2632  0.1536  2.1793
 1612SOL    HW2 6278   0.547   1.916   1.270 -0.3696  0.0489  1.9797
 1613SOL     OW 6279   0.429   3.197   4.320  0.2160  0.2238  0.6773
 1613SOL    HW1 6280   0.344   3.176   4.360 -0.6810  1.5788 -0.3940
 1613SOL    HW2 6281   0.489   3.206   4.394 -1.0989  1.4389  1.6482
 1614SOL     OW 6282   1.012   1.983  11.409  0.4978  0.5805  0.2001
 1614SOL    HW1 6283   1.086   2.043  11.406  0.2260  0.9998  1.5745
 1614SOL    HW2 6284   0.984   1.982  11.500 -1.4562  0.7499 -0.3441
 1615SOL     OW 6285   4.068   2.378  11.674 -0.2718 -0.1862  0.0960
 1615SOL    HW1 6286   3.978   2.376  11.644 -0.2680  0.9744 -0.0607
 1615SOL    HW2 6287   4.069   2.327  11.754 -1.7740  2.3290  1.8538
 1616SOL     OW 6288   2.703   3.447   0.646  0.3331  0.4152 -0.1910
 1616SOL    HW1 6289   2.629   3.398   0.682 -0.2412  1.4290  0.0441
 1616SOL    HW2 6290   2.669   3.535   0.633  2.1990  1.6177  2.3386
 1617SOL     OW 6291   1.278   3.211   3.825 -0.0172  0.1968  0.4038
 1617SOL    HW1 6292   1.317   3.125   3.808 -0.5010 -0.1925  1.1905
 1617SOL    HW2 6293   1.187   3.192   3.848 -0.1342  0.9219  0.5700
 1618SOL     OW 6294   0.852   3.506   0.036 -0.7080  0.4488  0.0911
 1618SOL    HW1 6295   0.807   3.590   0.034  0.0692  0.8817  0.2727
 1618SOL    HW2 6296   0.871   3.492   0.129 -0.0464  0.5057 -0.0337
 1619SOL     OW 6297   0.880   2.184   1.475 -0.2627 -0.1089  0.2571
 1619SOL    HW1 6298   0.962   2.233   1.472 -0.5506  0.3310 -0.6031
 1619SOL    HW2 6299   0.873   2.156   1.566  1.8490 -1.9031 -0.0397
 1620SOL     OW 6300   1.564   3.886   1.194 -0.5552 -0.0179 -0.3967
 1620SOL    HW1 6301   1.481   3.909   1.152 -0.9745  1.0937  0.9570
 1620SOL    HW2 6302   1.578   3.956   1.258  0.0090 -1.6763  1.3569
 1621SOL     OW 6303   0.643   2.049   2.093 -0.0618 -0.3034  0.8022
 1621SOL    HW1 6304   0.690   1.978   2.047  0.6868  0.3470  0.5364
 1621SOL    HW2 6305   0.553   2.017   2.099 -0.0884 -0.6257 -0.7127
 1622SOL     OW 6306   0.231   0.158   0.147 -0.3658  0.7751 -0.3083
 1622SOL    HW1 6307   0.249   0.107   0.226 -1.0754 -0.3185 -0.8223
 1622SOL    HW2 6308   0.318   0.177   0.111 -0.0446  1.2071  0.6777
 1623SOL     OW 6309   0.756   3.383  11.270  0.0453 -0.6042  0.4241
 1623SOL    HW1 6310   0.767   3.358  11.361  0.9953 -1.3611  0.1254
 1623SOL    HW2 6311   0.845   3.382  11.234 -0.4450 -1.6286 -0.8363
 1624SOL     OW 6312   0.924   2.841   0.518  0.1774 -0.6190  0.3296
 1624SOL    HW1 6313   0.884   2.806   0.438 -0.4500  0.7035  0.0423
 1624SOL    HW2 6314   0.987   2.906   0.487 -1.8546  1.7601  0.9131
 1625SOL     OW 6315   3.192   2.338  11.164 -0.1126  0.5400 -0.4055
 1625SOL    HW1 6316   3.224   2.338  11.074 -0.0067 -0.2698 -0.3753
 1625SOL    HW2 6317   3.188   2.246  11.188 -0.6687  0.7211  0.2338
 1626SOL     OW 6318   3.513   4.027   0.173 -0.0904 -0.0519  0.4927
 1626SOL    HW1 6319   3.548   3.938   0.176 -1.6079 -0.7374 -0.7967
 1626SOL    HW2 6320   3.447   4.030   0.242 -0.0809  0.0709  0.4974
 1627SOL     OW 6321   7.200   3.821   0.446 -0.5899 -0.2878  0.2780
 1627SOL    HW1 6322   7.148   3.743   0.465 -2.6670  0.3488 -2.2812
 1627SOL    HW2 6323   7.164   3.889   0.502 -3.1280  0.2927 -1.8463
 1628SOL     OW 6324   2.378   3.510   0.991 -0.2526  0.3573  0.4949
 1628SOL    HW1 6325   2.435   3.433   0.994 -0.0309  0.5223  0.5374
 1628SOL    HW2 6326   2.369   3.537   1.082  0.4750  0.9687  0.3951
 1629SOL     OW 6327   1.413   4.037   2.038  0.0457 -0.1037 -0.0355
 1629SOL    HW1 6328   1.442   3.965   1.982 -0.3624 -1.8636  1.9220
 1629SOL    HW2 6329   1.335   4.004   2.082 -0.2971  1.6352  0.7319
 1630SOL     OW 6330   1.891   1.833   0.735 -0.3186 -0.1522 -0.0547
 1630SOL    HW1 6331   1.852   1.843   0.822 -0.0302 -1.8962  0.3237
 1630SOL    HW2 6332   1.985   1.828   0.751 -0.2066  0.3036 -0.5538
 1631SOL     OW 6333   5.986   3.452   0.215 -0.6813 -0.3977 -0.2294
 1631SOL    HW1 6334   6.015   3.541   0.237 -1.6358 -0.4129  1.2752
 1631SOL    HW2 6335   6.052   3.396   0.254 -0.9973 -0.3581  0.3917
 1632SOL     OW 6336   1.086   0.197   0.999  0.3852 -1.2653  0.3024
 1632SOL    HW1 6337   1.106   0.114   1.042  3.4647 -0.5038  0.5688
 1632SOL    HW2 6338   1.116   0.185   0.909  1.8916 -0.1432  0.6197
 1633SOL     OW 6339   6.986   3.361   1.202  0.2887  0.0269 -0.1096
 1633SOL    HW1 6340   6.932   3.430   1.242  0.5104  0.2441 -0.1794
 1633SOL    HW2 6341   7.028   3.318   1.276  0.3130  0.1036 -0.0788
 1634SOL     OW 6342   0.669   2.344   1.448  0.5677  0.0097  0.2694
 1634SOL    HW1 6343   0.621   2.317   1.526  0.7444 -2.3011 -0.3459
 1634SOL    HW2 6344   0.742   2.283   1.442  0.6963  0.2681 -1.5743
 1635SOL     OW 6345   1.893   3.580   0.354 -0.4038  0.0813 -0.1527
 1635SOL    HW1 6346   1.909   3.506   0.412 -2.2768 -0.3355 -0.0841
 1635SOL    HW2 6347   1.867   3.540   0.270 -0.6128  0.6501 -0.3662
 1636SOL     OW 6348   6.406   2.365   0.824  0.1461 -0.7273  0.0418
 1636SOL    HW1 6349   6.391   2.425   0.897  0.8476  0.6790 -0.9235
 1636SOL    HW2 6350   6.319   2.332   0.801 -0.2995  0.1828  0.3886
 1637SOL     OW 6351   7.481   3.228   1.460 -0.1705  0.3786 -0.1649
 1637SOL    HW1 6352   7.559   3.172   1.465 -0.1629  0.3520 -0.5635
 1637SOL    HW2 6353   7.410   3.173   1.491 -0.3403 -0.1940 -1.5258
 1638SOL     OW 6354   0.539   2.921  11.470 -0.5981 -0.2262 -0.0294
 1638SOL    HW1 6355   0.623   2.924  11.424 -0.4385  1.2764  0.2975
 1638SOL    HW2 6356   0.493   2.999  11.439 -0.3817  0.9958  2.5095
 1639SOL     OW 6357   1.966   3.125  10.883 -0.1684 -0.2683  0.0611
 1639SOL    HW1 6358   2.030   3.196  10.879 -1.1766  0.6232 -0.5585
 1639SOL    HW2 6359   1.914   3.134  10.803 -0.3007 -1.7316 -0.0538
 1640SOL     OW 6360   0.747   3.695   2.348  0.0175 -0.3462 -0.5956
 1640SOL    HW1 6361   0.759   3.692   2.253 -0.0353 -0.9233 -0.5867
 1640SOL    HW2 6362   0.760   3.788   2.370 -0.2065 -0.1656 -1.1906
 1641SOL     OW 6363   0.988   4.866   1.483  0.2432  0.1971 -0.3772
 1641SOL    HW1 6364   0.893   4.861   1.495  0.0842  1.9538 -0.6390
 1641SOL    HW2 6365   0.999   4.912   1.400  1.2796  1.8134  0.5878
 1642SOL     OW 6366   1.151   3.661   2.240  0.1701 -0.4691 -0.3428
 1642SOL    HW1 6367   1.112   3.590   2.189 -0.9520  0.2597 -0.5355
 1642SOL    HW2 6368   1.104   3.658   2.324  1.0057 -0.7459  0.1333
 1643SOL     OW 6369   0.870   5.497   1.959 -0.4433  0.5691  0.3865
 1643SOL    HW1 6370   0.820   5.572   1.993  0.3514  1.1412  0.3209
 1643SOL    HW2 6371   0.939   5.537   1.906 -0.6601 -0.2641 -0.5412
 1644SOL     OW 6372   1.604   3.069   1.108 -0.2745  0.1579 -0.3283
 1644SOL    HW1 6373   1.650   3.013   1.045  1.2882  0.3075  0.6197
 1644SOL    HW2 6374   1.515   3.034   1.112 -0.2643 -0.1743 -2.1982
 1645SOL     OW 6375   2.018   2.769   2.640  0.6050  0.4375 -0.2262
 1645SOL    HW1 6376   2.072   2.785   2.717  0.1985 -0.8868  0.3680
 1645SOL    HW2 6377   2.064   2.813   2.568  1.0117  1.6538  0.7410
 1646SOL     OW 6378   1.094   2.571   0.850  0.2311  0.0753 -0.3549
 1646SOL    HW1 6379   0.999   2.560   0.856  0.0908 -0.0686 -2.1057
 1646SOL    HW2 6380   1.130   2.514   0.918 -0.9520  1.0210  1.1140
 1647SOL     OW 6381   1.858   2.223  11.239 -0.3964 -0.2201 -0.1581
 1647SOL    HW1 6382   1.875   2.142  11.190  2.0472  0.6682 -0.9885
 1647SOL    HW2 6383   1.891   2.292  11.182  0.6711  1.0610  1.8760
 1648SOL     OW 6384   2.436   1.812   0.268  0.1113  0.2507  0.1055
 1648SOL    HW1 6385   2.488   1.745   0.225  0.5054  1.5194 -1.4979
 1648SOL    HW2 6386   2.494   1.848   0.336  0.8903  0.7802 -0.8194
 1649SOL     OW 6387   0.480   2.902   1.894 -0.3975  0.2336 -0.2287
 1649SOL    HW1 6388   0.559   2.927   1.941 -1.0246  1.7677  0.0850
 1649SOL    HW2 6389   0.500   2.921   1.802 -0.1344 -0.1578 -0.2571
 1650SOL     OW 6390   0.354   2.446  11.252  0.0286  0.0613  0.3234
 1650SOL    HW1 6391   0.306   2.471  11.173 -1.6817  0.4264  1.4122
 1650SOL    HW2 6392   0.438   2.491  11.245  0.6558 -1.3009 -2.0822
 1651SOL     OW 6393   7.110   4.047  11.507  0.3863 -0.0564  0.6487
 1651SOL    HW1 6394   7.020   4.017  11.493  0.5990 -0.6097  0.4220
 1651SOL    HW2 6395   7.102   4.122  11.565 -0.3925  1.1625 -0.9378
 1652SOL     OW 6396   2.016   3.391   0.517 -0.7498  0.1401 -0.1521
 1652SOL    HW1 6397   2.039   3.322   0.455 -0.9781  0.5585 -0.7054
 1652SOL    HW2 6398   2.088   3.391   0.580 -0.4595 -0.2080 -0.4763
 1653SOL     OW 6399   7.482   3.735   0.791  0.3588  0.0468 -0.1228
 1653SOL    HW1 6400   7.464   3.654   0.744  2.3746 -0.0343 -0.8365
 1653SOL    HW2 6401   7.470   3.804   0.725 -0.6569  0.3036  0.3030
 1654SOL     OW 6402   2.398   4.166   2.162 -0.3067 -0.2164 -0.4584
 1654SOL    HW1 6403   2.436   4.196   2.079 -0.1605  0.3386 -0.1965
 1654SOL    HW2 6404   2.464   4.107   2.198 -0.9776 -1.5790 -1.3959
 1655SOL     OW 6405   2.148   1.373  12.427  0.4774  0.4305  0.1808
 1655SOL    HW1 6406   2.127   1.400  12.337 -1.8524 -0.2412  0.4627
 1655SOL    HW2 6407   2.112   1.442  12.482  2.6063  1.2517  0.6514
 1656SOL     OW 6408   0.228   4.340   2.308 -0.1043  0.1696 -0.3385
 1656SOL    HW1 6409   0.282   4.279   2.259 -1.3800 -0.8320 -0.5516
 1656SOL    HW2 6410   0.139   4.306   2.299 -0.5714  0.8584  1.3574
 1657SOL     OW 6411   0.879   2.991   0.871  0.0665  0.0776  0.6237
 1657SOL    HW1 6412   0.907   3.053   0.805 -0.0553  0.2367  0.7215
 1657SOL    HW2 6413   0.856   3.045   0.947  1.0755 -0.1575  1.1134
 1658SOL     OW 6414   2.013   3.173   2.841  0.3975  0.0228  0.2170
 1658SOL    HW1 6415   2.055   3.124   2.770  0.8105  0.8009 -0.0860
 1658SOL    HW2 6416   2.039   3.126   2.921  0.1876 -0.6719 -0.1130
 1659SOL     OW 6417   6.718   3.795   2.193 -0.1171  0.3854 -0.2711
 1659SOL    HW1 6418   6.731   3.712   2.239 -3.1839  0.3565  0.7789
 1659SOL    HW2 6419   6.750   3.779   2.105  0.2305 -1.5968  0.1715
 1660SOL     OW 6420   0.487   4.045   1.381  0.0356  0.2957  0.4576
 1660SOL    HW1 6421   0.401   4.005   1.390  0.5203 -0.4734  1.9014
 1660SOL    HW2 6422   0.470   4.139   1.385 -0.7500  0.1542  0.5138
 1661SOL     OW 6423   0.486   2.044   2.495 -0.4825 -0.4818 -0.0799
 1661SOL    HW1 6424   0.520   1.956   2.512 -0.4207 -0.4159  0.1402
 1661SOL    HW2 6425   0.407   2.029   2.442  0.1011 -0.6117 -0.9202
 1662SOL     OW 6426   1.573   2.813   0.200  0.2803  0.2359  0.6784
 1662SOL    HW1 6427   1.612   2.727   0.183  0.0052  0.1867  0.2932
 1662SOL    HW2 6428   1.647   2.869   0.224  0.5130 -0.0010  0.5148
 1663SOL     OW 6429   2.409   2.943   0.420 -0.3205 -0.1056 -0.3881
 1663SOL    HW1 6430   2.465   3.014   0.450  0.6336 -0.4913 -1.2149
 1663SOL    HW2 6431   2.467   2.867   0.413 -1.0608 -0.6568 -0.7386
 1664SOL     OW 6432   0.614   2.624   1.508  0.0127  0.2023  0.2481
 1664SOL    HW1 6433   0.664   2.542   1.504 -2.3592 -1.4486  1.2559
 1664SOL    HW2 6434   0.669   2.684   1.556  1.3113 -1.2684  0.6772
 1665SOL     OW 6435   0.971   2.352   0.112  0.7025  0.6254 -0.5931
 1665SOL    HW1 6436   0.917   2.315   0.182  1.9906 -2.6568 -1.1797
 1665SOL    HW2 6437   0.921   2.337   0.032  0.3903  2.0027 -0.6786
 1666SOL     OW 6438   1.136   4.766   2.871  0.3378 -0.4781  0.0585
 1666SOL    HW1 6439   1.211   4.791   2.817  1.4482 -1.1565  1.2579
 1666SOL    HW2 6440   1.092   4.849   2.890  1.5632  0.1006  0.4583
 1667SOL     OW 6441   7.358   1.691  12.224  0.5045 -0.1692 -0.2706
 1667SOL    HW1 6442   7.448   1.690  12.258  0.4284  1.2294  0.0313
 1667SOL    HW2 6443   7.351   1.775  12.179 -0.9765  0.2002  0.6059
 1668SOL     OW 6444   3.224   1.761  12.468 -0.2299 -0.4529 -0.2160
 1668SOL    HW1 6445   3.264   1.741  12.383  0.8909 -0.3738  0.2784
 1668SOL    HW2 6446   3.237   1.855  12.479 -1.7705 -0.1717 -0.6504
 1669SOL     OW 6447   1.316   0.414   1.277 -0.3756 -0.1102  0.4004
 1669SOL    HW1 6448   1.236   0.362   1.272 -1.2789  1.2343  0.2166
 1669SOL    HW2 6449   1.305   0.467   1.355  0.1129  0.4381  0.1049
 1670SOL     OW 6450   1.086   1.211  11.159 -0.2413  0.3824 -0.2245
 1670SOL    HW1 6451   1.138   1.254  11.091 -0.5770 -0.6899 -1.1928
 1670SOL    HW2 6452   1.148   1.198  11.231 -0.0439  2.1320 -0.0333
 1671SOL     OW 6453   1.032   3.894  12.483  0.1436 -0.0796 -0.6004
 1671SOL    HW1 6454   1.063   3.819  12.533  1.8859  1.0080  0.0415
 1671SOL    HW2 6455   1.103   3.913  12.422  1.2444  2.9799  1.4260
 1672SOL     OW 6456   7.518   1.607   0.159 -0.3769 -0.8039 -0.1841
 1672SOL    HW1 6457   7.569   1.534   0.192  0.8261  0.3433  0.5778
 1672SOL    HW2 6458   7.554   1.684   0.203 -1.7382  0.2341 -0.8052
 1673SOL     OW 6459   0.341   3.501   3.028 -0.4904 -0.3020  0.4823
 1673SOL    HW1 6460   0.305   3.414   3.013 -1.1990 -0.0021  0.3842
 1673SOL    HW2 6461   0.359   3.534   2.940 -1.0328 -0.0230  0.4711
 1674SOL     OW 6462   7.233   2.781   0.924  0.0382 -0.0361 -0.0804
 1674SOL    HW1 6463   7.235   2.780   0.829  0.2358  0.4166 -0.0795
 1674SOL    HW2 6464   7.140   2.794   0.946  0.1253  0.8210 -0.2147
 1675SOL     OW 6465   2.985   3.361   3.070 -0.1314  0.1507 -0.3194
 1675SOL    HW1 6466   2.961   3.310   3.147  1.6334  0.4993  0.4945
 1675SOL    HW2 6467   2.997   3.450   3.102  0.2176  0.3915 -1.0825
 1676SOL     OW 6468   2.567   3.956   2.249  0.0527  0.9745 -0.1305
 1676SOL    HW1 6469   2.609   3.930   2.331 -0.3191  0.7224 -0.0128
 1676SOL    HW2 6470   2.630   3.934   2.181  0.7135  1.9697  0.1447
 1677SOL     OW 6471   0.795   3.034   1.346  0.3160  0.1407  0.2762
 1677SOL    HW1 6472   0.864   2.973   1.371 -1.2392 -1.5242  0.6308
 1677SOL    HW2 6473   0.736   2.983   1.291 -0.3586  1.6890 -0.4959
 1678SOL     OW 6474   3.016   3.029   0.575 -0.4320 -0.7445 -0.1834
 1678SOL    HW1 6475   2.986   3.059   0.661  1.4309  1.7241 -0.2668
 1678SOL    HW2 6476   3.099   2.985   0.592  0.1857  0.1789 -0.7286
 1679SOL     OW 6477   1.410   3.051   3.450  0.0890  0.2128 -0.0821
 1679SOL    HW1 6478   1.419   2.958   3.430 -1.4079  0.4695 -2.2308
 1679SOL    HW2 6479   1.494   3.090   3.425  0.0209 -0.2823 -1.1130
 1680SOL     OW 6480   1.714   2.961   2.899 -0.2453 -0.1761  0.3643
 1680SOL    HW1 6481   1.621   2.938   2.902 -0.1877 -0.4582  0.0445
 1680SOL    HW2 6482   1.756   2.898   2.958 -0.0667 -1.0142 -0.6317
 1681SOL     OW 6483   1.737   2.297   0.110 -0.2212  0.0420 -0.6717
 1681SOL    HW1 6484   1.792   2.358   0.160  0.1506 -0.4853 -0.4254
 1681SOL    HW2 6485   1.774   2.211   0.129 -0.7129 -0.2573 -1.0541
 1682SOL     OW 6486   1.003   4.041   4.075  0.7795  0.0521  0.2316
 1682SOL    HW1 6487   0.983   3.987   3.998 -1.5690  2.0112 -0.6661
 1682SOL    HW2 6488   1.086   4.084   4.053 -0.3685  1.4077 -1.7809
 1683SOL     OW 6489   0.907   2.807   1.068 -0.1830 -0.2635 -0.1610
 1683SOL    HW1 6490   0.872   2.726   1.031  0.3648 -0.1072 -1.0533
 1683SOL    HW2 6491   0.900   2.871   0.997  0.0988  0.2674  0.2821
 1684SOL     OW 6492   1.523   4.051   3.161  0.3982 -0.2189 -0.6376
 1684SOL    HW1 6493   1.471   3.971   3.154  0.7719 -0.5669  0.3302
 1684SOL    HW2 6494   1.534   4.081   3.071 -1.6926  0.0144 -0.8596
 1685SOL     OW 6495   7.300   2.932   2.580  0.6433  0.4087 -0.0324
 1685SOL    HW1 6496   7.369   2.870   2.606  0.6581  0.4121 -0.0640
 1685SOL    HW2 6497   7.299   2.997   2.649  1.7770  1.3093 -0.8145
 1686SOL     OW 6498   0.721   1.356   4.366  0.0776  0.0701 -0.0575
 1686SOL    HW1 6499   0.697   1.370   4.458 -1.4674 -0.9595 -0.2627
 1686SOL    HW2 6500   0.711   1.441   4.326  0.5971  0.4972  0.6886
 1687SOL     OW 6501   6.856   3.324   2.511 -0.3498  0.0477  0.3780
 1687SOL    HW1 6502   6.909   3.384   2.563  0.9014 -0.0002 -0.7925
 1687SOL    HW2 6503   6.895   3.238   2.527 -0.3826 -0.0589 -0.1008
 1688SOL     OW 6504   0.641   3.590   4.180 -0.1408  0.2120 -0.3873
 1688SOL    HW1 6505   0.548   3.573   4.194 -0.1708 -0.7063 -1.5000
 1688SOL    HW2 6506   0.682   3.503   4.186  0.8360  0.7268  1.2145
 1689SOL     OW 6507   0.651   3.442   2.237  0.2454 -0.0928 -0.6573
 1689SOL    HW1 6508   0.677   3.523   2.280 -0.0143 -0.3349 -0.0310
 1689SOL    HW2 6509   0.733   3.402   2.209  0.4338 -0.0099 -0.2340
 1690SOL     OW 6510   2.222   4.448   3.848  0.0431 -0.4749 -0.4443
 1690SOL    HW1 6511   2.245   4.406   3.765  2.2590  0.1325 -0.2253
 1690SOL    HW2 6512   2.127   4.456   3.846 -0.2763 -3.4100 -1.4589
 1691SOL     OW 6513   0.229   4.503   1.179  0.1813  0.8400  0.0052
 1691SOL    HW1 6514   0.262   4.518   1.091  0.4747 -0.6882 -0.1626
 1691SOL    HW2 6515   0.136   4.484   1.168  0.5388 -0.9523 -0.1724
 1692SOL     OW 6516   1.108   2.263   0.954  0.2271  0.5342 -0.1710
 1692SOL    HW1 6517   1.030   2.208   0.957 -1.1472  2.3690 -0.3213
 1692SOL    HW2 6518   1.178   2.208   0.989 -1.0888 -1.2118 -0.1379
 1693SOL     OW 6519   2.756   1.960   1.648 -0.2047 -0.1833 -0.2602
 1693SOL    HW1 6520   2.775   2.019   1.721  0.4205  1.1682 -1.4750
 1693SOL    HW2 6521   2.686   1.903   1.681  1.3495 -0.8872  2.0404
 1694SOL     OW 6522   7.713   3.168   1.730  0.0329  1.0976 -0.0742
 1694SOL    HW1 6523   7.646   3.235   1.721 -1.3568 -0.2425 -0.1173
 1694SOL    HW2 6524   7.689   3.121   1.809  0.3377 -0.0214 -0.6278
 1695SOL     OW 6525   3.170   1.513   0.794  0.1436 -0.4352  0.0745
 1695SOL    HW1 6526   3.218   1.544   0.717 -0.9015 -2.2143 -1.3856
 1695SOL    HW2 6527   3.093   1.570   0.798  0.0022 -0.5767 -0.4657
 1696SOL     OW 6528   1.589   4.131   1.332  0.3981 -0.6168 -0.9942
 1696SOL    HW1 6529   1.604   4.203   1.271 -0.7508 -0.8425 -1.5809
 1696SOL    HW2 6530   1.640   4.155   1.410  1.8241 -0.2884 -1.9876
 1697SOL     OW 6531   1.809   4.177   3.213  0.1466  0.0187 -0.2618
 1697SOL    HW1 6532   1.848   4.132   3.138  0.3315 -0.7757  0.3008
 1697SOL    HW2 6533   1.830   4.269   3.198 -0.6081  0.0069 -1.6554
 1698SOL     OW 6534   0.752   3.278   2.921 -0.6811  0.1786 -0.4198
 1698SOL    HW1 6535   0.738   3.342   2.990  1.8131  2.9567 -2.2654
 1698SOL    HW2 6536   0.670   3.275   2.874 -2.0027 -0.8168  1.7601
 1699SOL     OW 6537   7.447   2.808   5.493  0.3142  0.0387 -0.1630
 1699SOL    HW1 6538   7.431   2.866   5.567  0.0179 -1.0839  0.6943
 1699SOL    HW2 6539   7.522   2.846   5.448 -0.4318  1.5714 -0.1697
 1700SOL     OW 6540   1.183   2.861   2.338  0.4097 -0.1698  0.1183
 1700SOL    HW1 6541   1.090   2.849   2.355 -0.1094 -0.3028 -2.3225
 1700SOL    HW2 6542   1.220   2.891   2.420 -2.1061  1.6334  0.6946
 1701SOL     OW 6543   1.119   4.254   3.905 -0.1733 -0.1043  0.0176
 1701SOL    HW1 6544   1.146   4.321   3.843  0.6743  0.5615  1.0601
 1701SOL    HW2 6545   1.031   4.229   3.877  0.7221 -0.9325 -2.3139
 1702SOL     OW 6546   0.932   1.247   0.754 -0.3568  0.3418  0.5935
 1702SOL    HW1 6547   0.929   1.290   0.840  1.2226 -0.2774  1.0027
 1702SOL    HW2 6548   0.874   1.172   0.763 -1.3901  1.1271  0.6074
 1703SOL     OW 6549   1.911   2.931   3.430 -0.0049 -0.2292 -0.2216
 1703SOL    HW1 6550   2.004   2.910   3.422 -0.0451 -1.9502  2.5181
 1703SOL    HW2 6551   1.910   3.022   3.460  1.0071 -0.8121  1.8315
 1704SOL     OW 6552   2.578   3.118   0.529  0.1543 -0.1443 -0.0274
 1704SOL    HW1 6553   2.668   3.119   0.497  0.0968  0.6106 -0.1887
 1704SOL    HW2 6554   2.580   3.172   0.608 -0.4988  1.4235 -1.0356
 1705SOL     OW 6555   2.480   4.717   2.545 -0.3900 -0.2411  0.2192
 1705SOL    HW1 6556   2.481   4.776   2.620 -2.3570 -0.1636  0.2434
 1705SOL    HW2 6557   2.571   4.691   2.533  0.1549  0.8376  1.7552
 1706SOL     OW 6558   0.629   2.964   3.738  0.5227 -0.3562 -0.3064
 1706SOL    HW1 6559   0.552   2.970   3.682  0.2508  0.3128  0.1231
 1706SOL    HW2 6560   0.691   2.910   3.689  0.0451 -0.3212 -0.9561
 1707SOL     OW 6561   1.946   4.451   3.837 -0.1203 -0.2937  0.3146
 1707SOL    HW1 6562   1.929   4.368   3.882 -1.5514  1.5420  3.5336
 1707SOL    HW2 6563   1.862   4.475   3.799  0.0442  0.0871  0.1876
 1708SOL     OW 6564   1.869   3.898   1.227 -0.4957  0.0257 -0.1392
 1708SOL    HW1 6565   1.777   3.876   1.242 -0.1750 -0.6704  0.8921
 1708SOL    HW2 6566   1.916   3.815   1.234  0.1459  0.2393 -1.4539
 1709SOL     OW 6567   0.787   4.236   1.509 -0.0050  0.5646  0.2588
 1709SOL    HW1 6568   0.753   4.287   1.582 -2.0636 -0.0618 -0.1988
 1709SOL    HW2 6569   0.779   4.294   1.433 -1.1604  0.0496 -0.0397
 1710SOL     OW 6570   7.895   1.613   3.656  0.5639  0.0412  0.4302
 1710SOL    HW1 6571   7.820   1.560   3.682 -0.1089  0.9707  0.4548
 1710SOL    HW2 6572   7.958   1.604   3.728  0.1651 -0.1699  0.7545
 1711SOL     OW 6573   0.702   3.986   1.580 -0.3308  0.5643  0.3615
 1711SOL    HW1 6574   0.630   3.978   1.517  0.5742  1.2559 -0.8018
 1711SOL    HW2 6575   0.731   4.077   1.572  1.2471  0.0732  0.1493
 1712SOL     OW 6576   0.868   2.988   4.774  0.2962  0.0475 -0.5401
 1712SOL    HW1 6577   0.936   2.988   4.842 -0.3470  0.4169  0.1220
 1712SOL    HW2 6578   0.848   2.895   4.761  0.0399 -0.0091  0.1806
 1713SOL     OW 6579   2.640   2.089   4.221  0.0562 -0.0793  0.0175
 1713SOL    HW1 6580   2.657   2.143   4.299  0.4424  0.7642 -0.6433
 1713SOL    HW2 6581   2.576   2.139   4.170 -0.1252 -0.5887 -0.2617
 1714SOL     OW 6582   2.358   2.166   2.804  0.0954  0.3782 -0.1067
 1714SOL    HW1 6583   2.305   2.244   2.820 -1.0501 -0.4355  0.2024
 1714SOL    HW2 6584   2.446   2.200   2.786 -0.6960  1.8302 -1.5725
 1715SOL     OW 6585   1.531   3.094   2.637  0.2975 -0.2044  0.2068
 1715SOL    HW1 6586   1.615   3.048   2.645  1.6732  2.1838  0.7252
 1715SOL    HW2 6587   1.540   3.145   2.556  0.5909  2.2337  1.6778
 1716SOL     OW 6588   1.408   1.884  12.355 -0.6056  0.0809 -0.7224
 1716SOL    HW1 6589   1.389   1.903  12.447 -1.0398  1.1264 -1.0136
 1716SOL    HW2 6590   1.324   1.859  12.317  0.0150 -3.1823 -0.2415
 1717SOL     OW 6591   7.601   2.121   2.893  0.6539  0.0057  0.3139
 1717SOL    HW1 6592   7.632   2.056   2.956 -0.6953  0.3970  1.4332
 1717SOL    HW2 6593   7.589   2.200   2.944  1.3931  0.9021 -0.8503
 1718SOL     OW 6594   0.039   3.809   4.437  0.2372  0.6587  0.4625
 1718SOL    HW1 6595   0.131   3.806   4.413  0.0048 -0.9344 -0.3234
 1718SOL    HW2 6596  -0.008   3.776   4.361 -1.0628  2.0288  0.6119
 1719SOL     OW 6597   1.145   1.129   2.749 -0.3134 -0.2896  0.1458
 1719SOL    HW1 6598   1.226   1.083   2.769  0.6164  0.8603 -0.7874
 1719SOL    HW2 6599   1.157   1.216   2.786 -1.1661 -0.1266  0.0759
 1720SOL     OW 6600   1.867   2.750   3.024  0.0293 -0.5214 -0.0587
 1720SOL    HW1 6601   1.824   2.664   3.015  1.2105 -1.2154  0.6385
 1720SOL    HW2 6602   1.952   2.738   2.983  0.3989  0.1759  0.4971
 1721SOL     OW 6603   0.459   4.226   2.230  0.3787  0.5982 -0.2776
 1721SOL    HW1 6604   0.511   4.298   2.265  2.6213 -0.5638 -1.0265
 1721SOL    HW2 6605   0.483   4.221   2.137 -1.3837  0.2324 -0.7591
 1722SOL     OW 6606   0.967   1.815   0.652 -0.1409 -0.4835  0.9809
 1722SOL    HW1 6607   0.935   1.903   0.634 -1.1265 -1.5517 -3.5302
 1722SOL    HW2 6608   1.058   1.827   0.679  0.5462  1.8626 -1.9664
 1723SOL     OW 6609   0.391   3.410   1.128 -0.1117  0.2080  0.3226
 1723SOL    HW1 6610   0.415   3.406   1.035  3.2548  1.1314  1.0290
 1723SOL    HW2 6611   0.442   3.340   1.169  1.4015  2.1263  1.9160
 1724SOL     OW 6612   1.189   4.148   2.871 -0.9243  0.7021  0.2019
 1724SOL    HW1 6613   1.173   4.054   2.876 -0.5625  0.6833  1.2095
 1724SOL    HW2 6614   1.119   4.187   2.923 -1.8013  1.0917 -1.2109
 1725SOL     OW 6615   1.825   4.345   1.505 -0.5578 -0.2033 -0.7688
 1725SOL    HW1 6616   1.918   4.365   1.494 -0.1512 -0.3145  1.9583
 1725SOL    HW2 6617   1.784   4.376   1.423  1.6743  0.9650 -1.5136
 1726SOL     OW 6618   0.909   3.290   2.677  0.0878 -0.1055  0.0931
 1726SOL    HW1 6619   0.839   3.311   2.615  1.1936  2.5218 -0.3956
 1726SOL    HW2 6620   0.865   3.286   2.762 -1.0773 -1.4663 -0.5231
 1727SOL     OW 6621   7.792   2.017  12.276 -0.2176  0.3267 -0.0446
 1727SOL    HW1 6622   7.787   2.110  12.297  1.0361  1.1441 -2.8389
 1727SOL    HW2 6623   7.703   1.994  12.248 -0.6194  0.5346  0.9997
 1728SOL     OW 6624   1.569   4.510   1.614 -0.5971 -0.7556 -0.4816
 1728SOL    HW1 6625   1.524   4.527   1.531 -0.9218  2.5355  0.2293
 1728SOL    HW2 6626   1.643   4.454   1.590  0.5780  1.7708 -3.4178
 1729SOL     OW 6627   1.140   2.307   1.485  0.0795  0.1754 -0.3923
 1729SOL    HW1 6628   1.229   2.310   1.521 -0.0130 -0.7090 -0.0571
 1729SOL    HW2 6629   1.112   2.398   1.482 -0.0016  0.2799  2.0250
 1730SOL     OW 6630   1.467   2.754   2.245 -0.4496 -0.0894  0.0121
 1730SOL    HW1 6631   1.445   2.665   2.218 -0.3758  0.5938 -2.5527
 1730SOL    HW2 6632   1.382   2.797   2.256 -0.5113 -0.6116  2.0242
 1731SOL     OW 6633   0.274   2.219   3.291  0.0453 -0.1203  0.2501
 1731SOL    HW1 6634   0.263   2.314   3.297 -2.2377 -0.3125 -0.0631
 1731SOL    HW2 6635   0.274   2.201   3.197 -0.2266 -0.4974  0.3226
 1732SOL     OW 6636   7.217   4.114   1.792  0.3419  0.2326  0.0155
 1732SOL    HW1 6637   7.170   4.145   1.870  1.6402 -0.4450  1.0987
 1732SOL    HW2 6638   7.253   4.194   1.753 -0.2641  0.5714  0.1312
 1733SOL     OW 6639   6.883   3.435   0.737 -0.6329 -0.0389  0.1566
 1733SOL    HW1 6640   6.872   3.369   0.805  0.6091 -0.8204 -0.3782
 1733SOL    HW2 6641   6.883   3.386   0.655  0.3042  0.6023 -0.2498
 1734SOL     OW 6642   1.675   1.865   2.302  0.3258 -0.2717  0.1757
 1734SOL    HW1 6643   1.745   1.927   2.280 -0.4740  0.6065  0.0125
 1734SOL    HW2 6644   1.715   1.803   2.362  1.0698  0.6041  0.5976
 1735SOL     OW 6645   0.651   3.913   3.439 -0.0979  0.4757 -0.3897
 1735SOL    HW1 6646   0.633   3.884   3.350 -1.8940 -1.0229  0.4055
 1735SOL    HW2 6647   0.707   3.845   3.476  0.0597  0.7366 -0.1403
 1736SOL     OW 6648   1.527   4.355   3.220  0.5111 -0.1623 -0.4746
 1736SOL    HW1 6649   1.556   4.264   3.209  1.4413  0.1958 -1.1023
 1736SOL    HW2 6650   1.508   4.385   3.132 -0.2388  0.1229 -0.2245
 1737SOL     OW 6651   0.088   3.176   1.796 -0.3847  0.2150  0.0700
 1737SOL    HW1 6652   0.043   3.095   1.773 -0.4716  0.4720 -0.6877
 1737SOL    HW2 6653   0.177   3.165   1.765 -0.5355  0.6134 -0.5239
 1738SOL     OW 6654   1.730   2.340   4.668  0.1967  0.7183 -0.0675
 1738SOL    HW1 6655   1.790   2.288   4.722 -1.6994 -0.2342  1.2578
 1738SOL    HW2 6656   1.718   2.421   4.717 -0.3687  0.4719  0.2165
 1739SOL     OW 6657   1.519   2.030   2.714 -0.2086  0.8600 -0.2373
 1739SOL    HW1 6658   1.534   2.124   2.710  0.6475  0.7275 -3.7899
 1739SOL    HW2 6659   1.445   2.015   2.656  0.5726 -0.7714 -0.8813
 1740SOL     OW 6660   0.811   1.761   2.471  0.2646 -0.3835 -0.1096
 1740SOL    HW1 6661   0.820   1.797   2.382  0.4081  0.2716  0.1586
 1740SOL    HW2 6662   0.750   1.689   2.462 -2.4254  1.7404 -0.2149
 1741SOL     OW 6663   0.834   2.762   3.664 -0.7877 -0.3948 -0.8336
 1741SOL    HW1 6664   0.929   2.766   3.666 -0.8291  0.7072 -0.7663
 1741SOL    HW2 6665   0.812   2.752   3.571 -0.6769  1.9733 -1.1567
 1742SOL     OW 6666   0.684   2.216   2.519 -0.2291  0.3961 -0.5318
 1742SOL    HW1 6667   0.614   2.164   2.480 -0.2218  0.3973 -0.5465
 1742SOL    HW2 6668   0.730   2.154   2.576 -0.7622  0.6043  0.1347
 1743SOL     OW 6669   1.050   3.183   2.258  0.4016 -0.4011  0.0249
 1743SOL    HW1 6670   1.075   3.163   2.348  2.1300 -2.2186 -0.7950
 1743SOL    HW2 6671   1.132   3.201   2.213 -0.4369  0.5546 -1.2015
 1744SOL     OW 6672   1.175   2.302   2.467 -0.0900 -0.0282 -0.0632
 1744SOL    HW1 6673   1.140   2.242   2.533  1.3180 -0.0428  0.6967
 1744SOL    HW2 6674   1.218   2.371   2.518 -0.9209  1.1760 -0.9427
 1745SOL     OW 6675   7.133   2.438   2.786  0.0679 -0.1718 -0.3200
 1745SOL    HW1 6676   7.097   2.468   2.703 -0.1822  0.3706 -0.0262
 1745SOL    HW2 6677   7.063   2.385   2.825  0.9696 -2.2604 -1.4078
 1746SOL     OW 6678   7.558   3.529   2.274  0.1187 -0.0730 -0.1354
 1746SOL    HW1 6679   7.511   3.606   2.306  0.2499  0.7561 -1.8014
 1746SOL    HW2 6680   7.612   3.502   2.347 -0.3263  1.1091  0.6656
 1747SOL     OW 6681   0.633   1.802   0.313  0.1312 -0.3538  0.3682
 1747SOL    HW1 6682   0.553   1.807   0.260 -0.8103 -1.1662  1.6298
 1747SOL    HW2 6683   0.612   1.738   0.381  1.9587 -0.7654  0.6013
 1748SOL     OW 6684   1.188   1.740   1.033 -0.3098  0.1000  0.0336
 1748SOL    HW1 6685   1.192   1.793   0.953  1.8418  1.7031  1.0970
 1748SOL    HW2 6686   1.190   1.805   1.104 -0.0830 -1.3423  1.3966
 1749SOL     OW 6687   1.706   2.479   3.443 -0.1110 -0.1079 -0.0334
 1749SOL    HW1 6688   1.724   2.462   3.351 -1.8065  1.2159 -0.6758
 1749SOL    HW2 6689   1.626   2.429   3.461  0.4406 -0.6938  0.8522
 1750SOL     OW 6690   1.823   5.261   0.514 -0.1587 -0.1187 -0.0738
 1750SOL    HW1 6691   1.842   5.249   0.421  0.7706 -1.0878  0.2186
 1750SOL    HW2 6692   1.790   5.176   0.543  0.4456 -0.1128  0.6758
 1751SOL     OW 6693   0.500   2.822   1.042 -0.1728  0.4112  0.2905
 1751SOL    HW1 6694   0.499   2.782   1.129  0.9233  1.9743  1.0608
 1751SOL    HW2 6695   0.426   2.782   0.997  0.5040 -2.0427  1.1817
 1752SOL     OW 6696   1.739   4.626   4.934 -0.0122  0.5484  0.4726
 1752SOL    HW1 6697   1.709   4.627   4.843  0.7855 -0.4927  0.1839
 1752SOL    HW2 6698   1.801   4.700   4.939  0.7408 -0.0223 -0.1296
 1753SOL     OW 6699   1.113   2.620   0.586 -0.5819  0.2605 -0.4299
 1753SOL    HW1 6700   1.087   2.599   0.676  0.5408  1.3380  0.1890
 1753SOL    HW2 6701   1.092   2.713   0.577 -0.1006  0.3104 -1.0656
 1754SOL     OW 6702   6.513   2.119   3.305  0.5204  0.2797 -0.1652
 1754SOL    HW1 6703   6.427   2.120   3.347  0.1940 -0.2305 -0.8238
 1754SOL    HW2 6704   6.512   2.195   3.247  0.1161 -0.3162 -0.9558
 1755SOL     OW 6705   0.788   2.796   1.603  0.8664 -0.0146  0.6040
 1755SOL    HW1 6706   0.817   2.874   1.650 -0.0013  2.8204 -3.0610
 1755SOL    HW2 6707   0.846   2.791   1.527 -0.0757 -2.0957 -0.0609
 1756SOL     OW 6708   1.046   7.916   1.467  0.5572 -0.2217 -0.1558
 1756SOL    HW1 6709   1.121   7.957   1.510 -0.6281  0.0594  1.7987
 1756SOL    HW2 6710   0.980   7.986   1.464  0.1779 -0.6077 -1.3749
 1757SOL     OW 6711   1.838   2.554   1.667  0.6436  0.0980 -0.5524
 1757SOL    HW1 6712   1.830   2.484   1.603  1.2882 -0.0601 -0.4579
 1757SOL    HW2 6713   1.928   2.549   1.698  0.7400  1.0685 -0.6599
 1758SOL     OW 6714   1.163   3.139   1.408 -0.0991 -0.4063 -0.5464
 1758SOL    HW1 6715   1.184   3.162   1.317  0.5192  0.5028 -0.1871
 1758SOL    HW2 6716   1.101   3.207   1.436  1.1061  0.3936  0.2679
 1759SOL     OW 6717   1.960   2.764   1.876  0.1093 -0.6281 -0.6499
 1759SOL    HW1 6718   2.028   2.716   1.829 -0.3924 -0.2195 -1.8356
 1759SOL    HW2 6719   1.906   2.697   1.916  0.2649 -1.0038 -1.0623
 1760SOL     OW 6720   0.524   1.361   3.857 -0.2963 -0.2027 -0.4489
 1760SOL    HW1 6721   0.545   1.269   3.876  1.8687  0.4861  0.8633
 1760SOL    HW2 6722   0.609   1.405   3.856 -1.4224  2.2745  1.8309
 1761SOL     OW 6723   1.427   2.232   1.745  0.3075 -0.0956  0.7354
 1761SOL    HW1 6724   1.335   2.249   1.768  0.2275  2.9979 -1.2649
 1761SOL    HW2 6725   1.458   2.172   1.813 -3.0648 -0.9686  1.6976
 1762SOL     OW 6726   1.974   2.985   5.370  0.8096 -0.3431 -0.3066
 1762SOL    HW1 6727   2.021   3.035   5.304 -1.4444  1.1688 -0.8755
 1762SOL    HW2 6728   1.955   2.901   5.328 -0.0974  0.3897 -1.4212
 1763SOL     OW 6729   2.426   1.642   1.640  0.3394 -0.0239 -0.1715
 1763SOL    HW1 6730   2.510   1.602   1.663 -0.0313 -0.2102  0.8667
 1763SOL    HW2 6731   2.360   1.583   1.675 -0.2427  0.0633 -1.0851
 1764SOL     OW 6732   0.412   3.173   0.639 -0.2536 -0.2328 -0.4050
 1764SOL    HW1 6733   0.471   3.140   0.707 -0.5503 -0.9904 -0.5150
 1764SOL    HW2 6734   0.324   3.150   0.668 -0.3907 -0.4998 -1.0103
 1765SOL     OW 6735   2.247   2.627   0.297  0.8063 -0.3350 -0.0353
 1765SOL    HW1 6736   2.341   2.619   0.314  0.6357 -0.6453  0.7887
 1765SOL    HW2 6737   2.210   2.543   0.324  0.4754 -0.7939 -1.7709
 1766SOL     OW 6738   0.275   4.892   4.327 -0.3149 -0.5849  0.2846
 1766SOL    HW1 6739   0.311   4.837   4.258 -1.4034 -1.2976  0.2723
 1766SOL    HW2 6740   0.219   4.834   4.378  0.4312 -0.0630  1.7584
 1767SOL     OW 6741   2.005   2.481   4.441 -0.4158  0.3860 -0.3659
 1767SOL    HW1 6742   1.910   2.483   4.446 -0.3990  1.4641 -0.2012
 1767SOL    HW2 6743   2.024   2.444   4.355 -1.0367  2.0269 -1.2555
 1768SOL     OW 6744   1.173   2.911   1.557  0.1225  0.6162  0.1578
 1768SOL    HW1 6745   1.210   2.829   1.525 -0.8938  0.4943 -0.7796
 1768SOL    HW2 6746   1.208   2.977   1.497 -0.5035  0.6099 -0.2216
 1769SOL     OW 6747   0.703   3.508   1.731  0.1526  0.1340 -0.1196
 1769SOL    HW1 6748   0.616   3.493   1.768  0.5909 -1.2520  0.4102
 1769SOL    HW2 6749   0.687   3.528   1.638 -0.7683  0.6599  0.1481
 1770SOL     OW 6750   1.838   2.369   2.069 -0.6842 -0.1167 -0.2094
 1770SOL    HW1 6751   1.746   2.350   2.050 -0.3402 -1.2336 -0.8906
 1770SOL    HW2 6752   1.882   2.363   1.984  0.1239 -0.2817  0.2064
 1771SOL     OW 6753   1.012   4.312   3.191  0.1055  0.0977 -0.3790
 1771SOL    HW1 6754   1.053   4.389   3.153 -0.5249  1.0326  0.7794
 1771SOL    HW2 6755   0.921   4.338   3.207  0.0478 -0.6592  0.6243
 1772SOL     OW 6756   1.539   2.473   0.867 -0.5675 -0.1194  0.1164
 1772SOL    HW1 6757   1.509   2.397   0.817 -1.0880  1.6893 -2.5972
 1772SOL    HW2 6758   1.464   2.532   0.869 -0.5737 -0.0719  3.2190
 1773SOL     OW 6759   7.608   2.836   2.552  0.6318 -0.2611  0.5488
 1773SOL    HW1 6760   7.616   2.840   2.457 -0.6669 -1.8799  0.3430
 1773SOL    HW2 6761   7.650   2.917   2.582  1.1688  0.2336 -1.3694
 1774SOL     OW 6762   3.609   1.400   3.821  0.5449 -0.2967  0.0342
 1774SOL    HW1 6763   3.635   1.400   3.913  0.3680  0.4960  0.0841
 1774SOL    HW2 6764   3.683   1.439   3.775 -0.7821  2.6976  0.2614
 1775SOL     OW 6765   1.969   4.299   3.519 -0.2272  0.4663  0.1968
 1775SOL    HW1 6766   2.004   4.216   3.548 -0.7469 -0.2497 -1.1166
 1775SOL    HW2 6767   1.917   4.331   3.593 -0.0539 -0.3881  0.6939
 1776SOL     OW 6768   7.422   3.183   1.960 -0.1199  0.8532  0.1415
 1776SOL    HW1 6769   7.368   3.232   1.899 -0.1808  1.2846  0.5287
 1776SOL    HW2 6770   7.364   3.117   1.997 -0.3298  1.1830  0.4058
 1777SOL     OW 6771   1.306   3.321   2.235  0.7215 -0.4021 -0.7407
 1777SOL    HW1 6772   1.271   3.369   2.310  0.6132 -0.0328 -1.0207
 1777SOL    HW2 6773   1.375   3.266   2.271 -0.4014 -1.4292 -0.1171
 1778SOL     OW 6774   6.074   2.422   0.221 -0.0601 -0.4447 -0.0301
 1778SOL    HW1 6775   5.978   2.429   0.215 -0.1066 -1.2263 -0.2884
 1778SOL    HW2 6776   6.097   2.482   0.292 -0.7555 -0.3496  0.1288
 1779SOL     OW 6777   2.453   4.794   3.262 -0.0760  0.2476  0.4497
 1779SOL    HW1 6778   2.477   4.781   3.170 -1.7587  1.0787 -0.1521
 1779SOL    HW2 6779   2.443   4.705   3.296 -2.3870 -0.1897 -1.0587
 1780SOL     OW 6780   0.931   0.423   1.237  0.2985 -0.5369  0.0693
 1780SOL    HW1 6781   0.995   0.356   1.260 -1.9307 -1.9206  2.8525
 1780SOL    HW2 6782   0.962   0.502   1.283  1.1659 -0.5519 -0.4709
 1781SOL     OW 6783   2.248   5.063   2.853 -0.1987  0.0091 -0.0167
 1781SOL    HW1 6784   2.201   5.118   2.915  0.3335 -0.3558  0.7200
 1781SOL    HW2 6785   2.229   5.103   2.767 -0.0899  1.1300  0.4624
 1782SOL     OW 6786   7.566   1.165   2.769 -0.1395 -0.1315  0.0808
 1782SOL    HW1 6787   7.496   1.108   2.799 -1.5102  1.5207  0.1478
 1782SOL    HW2 6788   7.592   1.129   2.684 -1.1955 -0.6576 -0.0347
 1783SOL     OW 6789   2.148   7.872   3.600 -0.3745  0.0150  0.1260
 1783SOL    HW1 6790   2.199   7.879   3.520  1.5328  1.2468  1.3607
 1783SOL    HW2 6791   2.072   7.929   3.585  0.1758  0.5517 -0.6656
 1784SOL     OW 6792   7.862   1.987   3.281 -0.5709  0.4112  0.6791
 1784SOL    HW1 6793   7.844   1.954   3.369 -0.4204 -0.7956  0.2732
 1784SOL    HW2 6794   7.957   1.984   3.273 -0.6561 -1.8491 -0.3567
 1785SOL     OW 6795   1.458   3.465   3.314  0.0655 -0.5732 -0.4466
 1785SOL    HW1 6796   1.524   3.533   3.302 -0.6999  0.1401 -0.6866
 1785SOL    HW2 6797   1.473   3.433   3.403  0.1576  0.2228 -0.1671
 1786SOL     OW 6798   1.173   2.278   1.939  0.4413  0.3668  0.1018
 1786SOL    HW1 6799   1.147   2.205   1.996 -1.5727  0.5414 -0.5333
 1786SOL    HW2 6800   1.122   2.352   1.970  1.2181  1.1023 -0.3363
 1787SOL     OW 6801   1.093   3.229   1.778 -0.7570  0.0565 -0.0848
 1787SOL    HW1 6802   1.091   3.256   1.686 -2.4462  1.9901  0.4586
 1787SOL    HW2 6803   1.186   3.226   1.799 -0.2272 -2.0024 -2.2289
 1788SOL     OW 6804   1.372   2.509   2.201 -0.2028  0.1147 -0.0158
 1788SOL    HW1 6805   1.278   2.493   2.203 -0.2083 -0.1904 -1.4740
 1788SOL    HW2 6806   1.406   2.465   2.278 -1.2078 -0.0990  0.3134
 1789SOL     OW 6807   0.105   1.197   2.430  0.5774 -0.1052  0.3408
 1789SOL    HW1 6808   0.030   1.139   2.447 -0.0386  1.1366  2.2160
 1789SOL    HW2 6809   0.082   1.279   2.475  2.0138  1.1369 -1.0842
 1790SOL     OW 6810   2.295   3.525   3.016  0.4409 -0.0254  0.1125
 1790SOL    HW1 6811   2.215   3.479   3.044 -0.7093  1.3982 -0.6658
 1790SOL    HW2 6812   2.320   3.578   3.092  0.1822  0.0982  0.1152
 1791SOL     OW 6813   2.808   3.237   2.885  0.6809 -0.0279  0.0844
 1791SOL    HW1 6814   2.768   3.264   2.968 -0.5063 -2.5457  0.4101
 1791SOL    HW2 6815   2.901   3.226   2.907  0.3801 -0.6898  1.1264
 1792SOL     OW 6816   0.013   4.512   4.220  0.0303 -0.1030 -0.3738
 1792SOL    HW1 6817  -0.012   4.507   4.128  0.3979  1.0906 -0.5565
 1792SOL    HW2 6818   0.108   4.504   4.219  0.1646  1.1758 -0.2451
 1793SOL     OW 6819   1.490   2.001   2.174  0.5298 -0.5484  0.1662
 1793SOL    HW1 6820   1.561   1.975   2.232  1.2239 -1.4684 -1.0540
 1793SOL    HW2 6821   1.424   2.039   2.233  0.4445 -2.9879  1.7877
 1794SOL     OW 6822   1.130   2.127   0.007 -0.2780  0.2154 -0.2528
 1794SOL    HW1 6823   1.133   2.222  -0.004 -0.9218  0.1907 -0.7689
 1794SOL    HW2 6824   1.036   2.107   0.010 -0.1874 -0.5899 -1.9543
 1795SOL     OW 6825   2.979   2.020   1.539 -0.3401  0.4142 -0.4971
 1795SOL    HW1 6826   2.900   1.986   1.583  0.0606 -0.5289 -0.4811
 1795SOL    HW2 6827   2.955   2.027   1.447 -1.1157  2.1880 -0.2079
 1796SOL     OW 6828   7.868   3.942   5.401  0.5048 -0.0738 -0.1953
 1796SOL    HW1 6829   7.831   3.996   5.471 -0.9879 -0.4454 -0.6751
 1796SOL    HW2 6830   7.890   3.859   5.444  0.1268 -0.0953 -0.0351
 1797SOL     OW 6831   2.747   3.662   1.966 -0.4775  0.1399  0.1728
 1797SOL    HW1 6832   2.843   3.663   1.970 -0.3368 -1.9230 -1.1594
 1797SOL    HW2 6833   2.718   3.643   2.055  0.2571  2.0034  0.8561
 1798SOL     OW 6834   1.226   2.148   4.083 -0.4513 -0.1241 -0.1859
 1798SOL    HW1 6835   1.154   2.096   4.117  0.2479  0.0825  1.7312
 1798SOL    HW2 6836   1.187   2.233   4.063 -0.8802 -0.2545  0.0971
 1799SOL     OW 6837   1.288   2.266   3.001  0.0878 -0.4465 -0.1248
 1799SOL    HW1 6838   1.269   2.357   3.021  2.2537 -0.3631  1.9173
 1799SOL    HW2 6839   1.201   2.226   2.990 -0.9411  1.5842  0.1003
 1800SOL     OW 6840   0.502   3.863   2.180 -0.5457 -0.7648 -0.3621
 1800SOL    HW1 6841   0.509   3.958   2.176 -0.3684 -0.7113  0.8062
 1800SOL    HW2 6842   0.569   3.831   2.121  1.3277 -0.1598  1.3098
 1801SOL     OW 6843   1.398   2.956   3.746  0.1661 -0.7172  0.3547
 1801SOL    HW1 6844   1.411   2.992   3.658  1.8104  1.0804  1.2420
 1801SOL    HW2 6845   1.459   2.883   3.751  1.8814  0.6647  0.7252
 1802SOL     OW 6846   0.945   2.396   2.121 -0.0036  0.6535 -0.1840
 1802SOL    HW1 6847   1.011   2.451   2.163 -0.8792  0.8703  0.9681
 1802SOL    HW2 6848   0.904   2.348   2.193 -0.6134 -0.0130 -0.9545
 1803SOL     OW 6849   1.426   2.740   2.806  0.3702 -0.2108  0.0643
 1803SOL    HW1 6850   1.510   2.700   2.781 -0.3145 -1.2870 -0.6012
 1803SOL    HW2 6851   1.448   2.798   2.879  1.7875 -0.0180 -0.4804
 1804SOL     OW 6852   1.871   2.797   3.889 -0.0557  0.3498 -0.6360
 1804SOL    HW1 6853   1.837   2.764   3.806 -1.6678  0.5074 -0.0617
 1804SOL    HW2 6854   1.955   2.751   3.900 -0.8478 -1.3302 -1.2911
 1805SOL     OW 6855   1.485   2.219   4.175 -0.0991 -0.1491 -0.1644
 1805SOL    HW1 6856   1.468   2.257   4.261 -0.2213  1.3357 -0.8070
 1805SOL    HW2 6857   1.409   2.165   4.156 -0.7354  0.6368  0.0825
 1806SOL     OW 6858   0.807   2.861   3.051  0.2940  0.2406  0.2576
 1806SOL    HW1 6859   0.844   2.949   3.055  0.5465  0.0895  2.3288
 1806SOL    HW2 6860   0.723   2.868   3.096 -1.4256  0.1521 -2.7054
 1807SOL     OW 6861   5.778   2.697   1.791  0.5665 -0.1678 -0.0637
 1807SOL    HW1 6862   5.860   2.654   1.813  1.2168  1.7484  1.6003
 1807SOL    HW2 6863   5.764   2.677   1.698  1.5727 -2.5887  0.2410
 1808SOL     OW 6864   1.354   4.570   4.182 -0.1291 -0.4884  0.0168
 1808SOL    HW1 6865   1.365   4.619   4.100  0.5462 -0.8302 -0.1057
 1808SOL    HW2 6866   1.444   4.556   4.213 -0.3789 -0.4055  0.7930
 1809SOL     OW 6867   1.413   3.857   2.501 -0.2101  0.4753 -0.2329
 1809SOL    HW1 6868   1.409   3.777   2.448  0.1639  0.3773 -0.1156
 1809SOL    HW2 6869   1.440   3.925   2.440 -0.4746  0.5042 -0.3208
 1810SOL     OW 6870   7.149   1.671   2.058 -0.0738  0.0841  0.1019
 1810SOL    HW1 6871   7.103   1.735   2.113 -0.5954  0.0010 -0.2320
 1810SOL    HW2 6872   7.238   1.705   2.051 -0.1663  0.4181  0.4912
 1811SOL     OW 6873   7.907   2.985   4.656  0.3129  0.2379 -0.0460
 1811SOL    HW1 6874   7.829   3.019   4.613 -0.4009  0.1794  1.1667
 1811SOL    HW2 6875   7.979   3.037   4.619 -0.4824  1.4414  0.0205
 1812SOL     OW 6876   2.103   1.932   3.685 -0.4125  0.3303  0.1757
 1812SOL    HW1 6877   2.165   1.881   3.632 -0.3148 -0.3487  0.9266
 1812SOL    HW2 6878   2.100   2.017   3.642  1.6836  0.6723  0.6009
 1813SOL     OW 6879   2.457   0.014   1.877  0.1630  0.2891  0.2733
 1813SOL    HW1 6880   2.455   0.105   1.905 -0.3238  0.2314  0.4300
 1813SOL    HW2 6881   2.545   0.002   1.841 -0.0030  1.0149 -0.4135
 1814SOL     OW 6882   2.056   2.066   5.526  0.3606  0.2105  0.1070
 1814SOL    HW1 6883   2.047   1.972   5.516 -1.0641  0.4231 -1.0215
 1814SOL    HW2 6884   2.129   2.078   5.586  0.5711 -1.6022  0.2436
 1815SOL     OW 6885   0.563   2.361   3.161 -0.4348 -0.2308 -0.2846
 1815SOL    HW1 6886   0.566   2.268   3.139 -0.7885 -0.6823  1.4209
 1815SOL    HW2 6887   0.654   2.383   3.182 -0.5458 -0.5390  0.5627
 1816SOL     OW 6888   0.739   3.693   2.903  0.8024  0.4149 -0.1701
 1816SOL    HW1 6889   0.756   3.672   2.811 -0.7792 -1.3756 -0.1243
 1816SOL    HW2 6890   0.751   3.610   2.949  0.5417  1.0497  1.0823
 1817SOL     OW 6891   2.098   2.240   1.584  0.0841 -0.3052  0.2607
 1817SOL    HW1 6892   2.096   2.146   1.567 -0.3098  0.1419 -2.7465
 1817SOL    HW2 6893   2.190   2.264   1.573 -0.0057 -0.1727 -0.2300
 1818SOL     OW 6894   7.193   2.957   4.385 -1.0750  0.0396 -0.0342
 1818SOL    HW1 6895   7.247   2.899   4.439  0.3175 -1.1196 -2.4955
 1818SOL    HW2 6896   7.111   2.965   4.433  0.2715 -0.4019  2.5072
 1819SOL     OW 6897   7.294   4.211   2.634 -0.5160  0.3496 -0.1933
 1819SOL    HW1 6898   7.287   4.275   2.704  0.3626  2.9630 -2.3524
 1819SOL    HW2 6899   7.371   4.158   2.657  0.7505  2.2235  0.0350
 1820SOL     OW 6900   7.058   4.401   0.905 -0.5176  0.1208  0.1877
 1820SOL    HW1 6901   7.035   4.425   0.995  0.9846  0.9640  0.3791
 1820SOL    HW2 6902   6.987   4.343   0.877 -1.3720  0.3939  1.6682
 1821SOL     OW 6903   1.712   3.609   5.153 -0.1802  0.6272  0.4025
 1821SOL    HW1 6904   1.798   3.648   5.139 -0.4155  0.8058 -0.6204
 1821SOL    HW2 6905   1.726   3.515   5.141 -0.0538  0.6208  0.6029
 1822SOL     OW 6906   2.074   2.437   1.218 -0.2184 -0.2706  0.0768
 1822SOL    HW1 6907   2.119   2.353   1.223  1.8250  0.8106  1.4571
 1822SOL    HW2 6908   2.094   2.470   1.131  1.4164 -0.0050  0.5117
 1823SOL     OW 6909   2.387   3.075   2.949  0.0660 -0.1036 -0.5873
 1823SOL    HW1 6910   2.346   3.114   3.026  0.8386  1.9151 -1.1305
 1823SOL    HW2 6911   2.446   3.009   2.984  0.2946  0.6730  0.5543
 1824SOL     OW 6912   0.795   3.681   3.538  0.0861  0.4445 -0.1017
 1824SOL    HW1 6913   0.726   3.620   3.513  1.6008 -0.4695 -2.4049
 1824SOL    HW2 6914   0.821   3.654   3.626 -0.0401 -1.5452 -0.6324
 1825SOL     OW 6915   0.675   1.410   0.640 -0.0869  0.3437 -0.0795
 1825SOL    HW1 6916   0.660   1.420   0.734 -0.5523 -0.4789 -0.0527
 1825SOL    HW2 6917   0.764   1.441   0.626  0.2946 -0.3321  0.7806
 1826SOL     OW 6918   1.840   2.228   0.539 -0.1675  0.7109  0.2703
 1826SOL    HW1 6919   1.874   2.185   0.460 -0.2120 -0.1350  0.6998
 1826SOL    HW2 6920   1.802   2.310   0.507 -0.5829  0.1781 -0.6538
 1827SOL     OW 6921   0.360   4.118   2.527 -0.3089  0.1400  0.4101
 1827SOL    HW1 6922   0.349   4.192   2.468  0.6406  0.2781  0.3847
 1827SOL    HW2 6923   0.337   4.041   2.474  3.3404 -0.0546 -1.1782
 1828SOL     OW 6924   1.371   2.966   1.102 -0.5218  0.1708  0.6246
 1828SOL    HW1 6925   1.368   2.878   1.140 -0.2374  0.4384  1.2871
 1828SOL    HW2 6926   1.280   2.996   1.105 -0.5051  0.1917  1.1176
 1829SOL     OW 6927   1.851   4.009   4.073  0.2270  0.5456  0.4466
 1829SOL    HW1 6928   1.788   3.950   4.032 -0.8369  1.9331 -0.0228
 1829SOL    HW2 6929   1.817   4.024   4.161 -0.3734  1.6162  0.0571
 1830SOL     OW 6930   0.737   3.274   0.705  0.7945  0.6507 -0.0408
 1830SOL    HW1 6931   0.709   3.267   0.614 -2.1346  1.5983  0.6749
 1830SOL    HW2 6932   0.822   3.230   0.707  0.4286 -0.4379 -2.9730
 1831SOL     OW 6933   2.374   4.871   2.732  0.5860  0.3234 -0.1039
 1831SOL    HW1 6934   2.310   4.803   2.710  0.5525  0.2520  0.2196
 1831SOL    HW2 6935   2.332   4.922   2.802 -0.0879  1.6684 -1.4142
 1832SOL     OW 6936   1.495   1.227   1.552 -0.3929  0.2622 -0.1418
 1832SOL    HW1 6937   1.578   1.265   1.521  0.0413 -0.6989 -0.2083
 1832SOL    HW2 6938   1.510   1.209   1.645 -1.0588  1.4424  0.2180
 1833SOL     OW 6939   0.712   2.585   2.730  0.2677  0.5014  0.5974
 1833SOL    HW1 6940   0.777   2.540   2.784  0.9502  0.3367 -0.3338
 1833SOL    HW2 6941   0.630   2.536   2.745  0.7248 -0.3082  0.5323
 1834SOL     OW 6942   2.023   3.814   0.238 -0.1225 -0.4113  0.2555
 1834SOL    HW1 6943   2.021   3.720   0.259  0.2654 -0.1685  1.4407
 1834SOL    HW2 6944   1.933   3.834   0.212 -0.4310 -0.9103  0.9110
 1835SOL     OW 6945   2.152   2.403   3.756 -0.2709 -0.7270 -0.0987
 1835SOL    HW1 6946   2.166   2.322   3.804  1.9410 -1.0143 -1.1336
 1835SOL    HW2 6947   2.079   2.384   3.697 -0.4559 -1.5998  0.3993
 1836SOL     OW 6948   0.461   4.440   3.119 -0.0813 -0.0600 -0.0567
 1836SOL    HW1 6949   0.452   4.528   3.154 -1.0550 -0.5915  1.1113
 1836SOL    HW2 6950   0.410   4.385   3.179 -0.2830 -1.2750 -1.2847
 1837SOL     OW 6951   1.926   3.821   1.805  0.1599  0.1705  0.0629
 1837SOL    HW1 6952   1.884   3.895   1.760  0.8077  0.9216  0.6502
 1837SOL    HW2 6953   2.017   3.849   1.817  0.3588 -0.6392  0.4913
 1838SOL     OW 6954   1.873   1.687   2.629 -0.1332  0.5830 -0.0712
 1838SOL    HW1 6955   1.945   1.625   2.613  0.6525  1.6046 -0.5833
 1838SOL    HW2 6956   1.833   1.656   2.710  1.3364  0.3932  0.6147
 1839SOL     OW 6957   2.694   3.847   2.482 -0.3384  0.2244  0.3195
 1839SOL    HW1 6958   2.701   3.885   2.570  2.1916 -0.3202  0.4241
 1839SOL    HW2 6959   2.725   3.757   2.493 -2.1115 -0.5570 -0.7461
 1840SOL     OW 6960   2.176   2.214   2.437 -0.2466 -0.0547  0.2746
 1840SOL    HW1 6961   2.259   2.240   2.476  0.7280 -1.3237 -0.8595
 1840SOL    HW2 6962   2.152   2.286   2.379  0.1588  0.2319  0.4633
 1841SOL     OW 6963   1.415   2.169  11.936  0.1464 -0.0270  0.3651
 1841SOL    HW1 6964   1.370   2.239  11.889  0.7195  0.5194  0.6117
 1841SOL    HW2 6965   1.358   2.148  12.009  0.8248  1.5150  1.3879
 1842SOL     OW 6966   2.310   2.606   0.753  0.0320 -0.1546 -0.1291
 1842SOL    HW1 6967   2.232   2.620   0.699  0.5419  0.8654 -0.6195
 1842SOL    HW2 6968   2.378   2.581   0.691  0.9001  2.0656 -0.1593
 1843SOL     OW 6969   2.999   2.050   2.291  0.0835  0.5224 -0.2438
 1843SOL    HW1 6970   2.997   2.019   2.381  1.0336 -0.9249 -0.6813
 1843SOL    HW2 6971   3.089   2.081   2.279  0.0883  0.2892 -0.8200
 1844SOL     OW 6972   7.546   2.854   2.020 -0.4393 -0.4013 -0.3109
 1844SOL    HW1 6973   7.536   2.812   1.934 -2.9505  1.7719 -1.1949
 1844SOL    HW2 6974   7.622   2.911   2.010  2.4223 -3.7043  0.6123
 1845SOL     OW 6975   1.026   3.446   3.438  0.4628  0.4319 -0.4173
 1845SOL    HW1 6976   1.082   3.520   3.460  1.0945  0.1380 -0.9697
 1845SOL    HW2 6977   1.004   3.406   3.522  0.5204  0.9504 -0.1505
 1846SOL     OW 6978   2.553   2.700   2.127 -0.1586  0.2250 -0.2331
 1846SOL    HW1 6979   2.508   2.662   2.052  1.1924  0.5865 -1.2794
 1846SOL    HW2 6980   2.526   2.646   2.201  0.7393 -2.0541 -1.4476
 1847SOL     OW 6981   1.138   1.849   2.289  0.2770 -0.1889  0.0584
 1847SOL    HW1 6982   1.234   1.844   2.290  0.3590  1.1344 -0.0558
 1847SOL    HW2 6983   1.113   1.848   2.382  0.5871  2.0041  0.2194
 1848SOL     OW 6984   0.892   4.479   2.621  0.3781 -0.0948 -0.5725
 1848SOL    HW1 6985   0.978   4.473   2.663 -0.2105  2.0416  1.1737
 1848SOL    HW2 6986   0.830   4.470   2.693 -0.8006  0.0887 -1.5377
 1849SOL     OW 6987   0.769   2.239   1.942 -0.5434  0.4455  0.1828
 1849SOL    HW1 6988   0.829   2.294   1.993  0.3637  0.1640 -0.5675
 1849SOL    HW2 6989   0.721   2.189   2.008 -0.0968  0.8142  0.8018
 1850SOL     OW 6990   7.657   2.908   2.284 -0.7967 -0.2749 -0.7114
 1850SOL    HW1 6991   7.611   2.897   2.200 -0.0696 -1.5009 -0.9649
 1850SOL    HW2 6992   7.721   2.838   2.286  0.2919  0.7054  0.1706
 1851SOL     OW 6993   2.728   2.835   2.573 -0.1426  0.1173  0.3351
 1851SOL    HW1 6994   2.674   2.787   2.635  0.1527 -1.0180 -0.2599
 1851SOL    HW2 6995   2.772   2.767   2.522  1.7266  0.9871  0.6916
 1852SOL     OW 6996   1.892   3.863   2.793 -0.3077 -0.0218  0.4320
 1852SOL    HW1 6997   1.957   3.793   2.790 -0.4295 -0.1191 -1.4385
 1852SOL    HW2 6998   1.864   3.867   2.884 -1.3674 -3.3622  0.3819
 1853SOL     OW 6999   2.456   1.197   3.186  0.3477  0.1194 -0.4228
 1853SOL    HW1 7000   2.518   1.125   3.179  0.6652  0.2308  0.9814
 1853SOL    HW2 7001   2.499   1.261   3.243 -0.0051  1.3532 -1.4762
 1854SOL     OW 7002   1.166   4.428   4.326  0.4130  0.2808 -0.0911
 1854SOL    HW1 7003   1.193   4.378   4.403  0.1858  0.0377 -0.1695
 1854SOL    HW2 7004   1.247   4.468   4.294  0.5659  0.1023  0.0712
 1855SOL     OW 7005   7.355   3.392   4.680 -0.0201 -0.1627  0.6539
 1855SOL    HW1 7006   7.384   3.467   4.628  0.0782 -0.0543  0.8683
 1855SOL    HW2 7007   7.425   3.377   4.743  1.0697 -1.8694 -0.8550
 1856SOL     OW 7008   1.316   0.797   3.263  0.5724  0.3294 -0.0018
 1856SOL    HW1 7009   1.225   0.825   3.273  0.6490  0.2769  0.9877
 1856SOL    HW2 7010   1.312   0.720   3.206  0.1975  1.3661 -1.4329
 1857SOL     OW 7011   7.780   0.867   1.528 -0.2846  0.2542 -0.5203
 1857SOL    HW1 7012   7.788   0.802   1.458 -1.2400 -1.3248  0.7728
 1857SOL    HW2 7013   7.766   0.950   1.482  0.7358 -0.4587 -2.2153
 1858SOL     OW 7014   0.915   1.393   0.991  0.3984 -0.3951 -0.3643
 1858SOL    HW1 7015   0.930   1.348   1.073  0.2422 -0.5936 -0.4453
 1858SOL    HW2 7016   0.998   1.438   0.973  0.2332  0.1541  0.2102
 1859SOL     OW 7017   3.431   1.905   1.888  0.4502 -0.1590 -0.2818
 1859SOL    HW1 7018   3.455   1.948   1.970  1.0175  1.6303 -1.3182
 1859SOL    HW2 7019   3.341   1.931   1.872  0.7101  0.4783 -0.7791
 1860SOL     OW 7020   2.085   3.183   0.026  0.3539 -0.0305 -0.3026
 1860SOL    HW1 7021   2.106   3.091   0.014 -0.6986 -0.4356  0.7781
 1860SOL    HW2 7022   2.031   3.205  -0.051  0.1371 -0.4706 -0.2781
 1861SOL     OW 7023   0.428   3.788   2.565  0.2514 -0.2528 -0.3801
 1861SOL    HW1 7024   0.521   3.796   2.546  0.2968  0.2938  0.0449
 1861SOL    HW2 7025   0.384   3.817   2.484  0.4108  4.0738  0.8473
 1862SOL     OW 7026   7.612   3.907   3.135 -0.2418 -0.1939 -0.1182
 1862SOL    HW1 7027   7.572   3.843   3.193 -1.3057  1.5805  1.1894
 1862SOL    HW2 7028   7.544   3.973   3.120  0.9164  0.8339 -1.1183
 1863SOL     OW 7029   1.364   4.368   3.747  0.0320 -0.5973 -0.1971
 1863SOL    HW1 7030   1.277   4.401   3.727  0.2900  0.1471 -0.1514
 1863SOL    HW2 7031   1.404   4.350   3.662  0.7768  1.6259 -0.3892
 1864SOL     OW 7032   0.868   3.126   3.143  0.0680 -0.1348 -0.3350
 1864SOL    HW1 7033   0.865   3.168   3.229  0.7158 -0.3994 -0.1751
 1864SOL    HW2 7034   0.863   3.198   3.080 -1.2646  0.0056 -0.0940
 1865SOL     OW 7035   7.434   4.538   2.051 -0.3706 -0.0893 -0.3444
 1865SOL    HW1 7036   7.479   4.483   2.115  0.2781  0.9155  0.0860
 1865SOL    HW2 7037   7.371   4.589   2.102 -1.7300 -1.1463 -0.8782
 1866SOL     OW 7038   1.534   2.878   3.989 -0.3783  0.2495 -0.1564
 1866SOL    HW1 7039   1.595   2.940   4.029 -0.2257  2.0828 -2.9547
 1866SOL    HW2 7040   1.590   2.809   3.954 -0.3163 -0.2128  0.8342
 1867SOL     OW 7041   0.610   2.736   2.218  0.1292  0.2258 -0.0294
 1867SOL    HW1 7042   0.555   2.659   2.229  2.5272 -1.6798 -0.5979
 1867SOL    HW2 7043   0.619   2.746   2.123  1.7291 -0.2854  0.0385
 1868SOL     OW 7044   1.024   4.648   2.411 -0.0260  0.1559  0.4551
 1868SOL    HW1 7045   0.993   4.578   2.469 -0.6293 -0.8611 -1.0281
 1868SOL    HW2 7046   1.003   4.729   2.457 -1.5602 -0.5972  1.1437
 1869SOL     OW 7047   1.863   2.294   2.480  0.2768  0.5449  0.1749
 1869SOL    HW1 7048   1.888   2.348   2.555 -0.2932 -0.6066  1.2292
 1869SOL    HW2 7049   1.776   2.325   2.456  0.4604  0.9161 -0.0147
 1870SOL     OW 7050   0.559   1.873   4.488  0.5153  0.8020 -0.0033
 1870SOL    HW1 7051   0.539   1.937   4.556  0.6659  0.2190  0.5971
 1870SOL    HW2 7052   0.499   1.895   4.416 -0.8894  0.3445  0.9838
 1871SOL     OW 7053   1.899   3.158   1.283 -0.0646 -0.6580  0.3143
 1871SOL    HW1 7054   1.867   3.078   1.323 -0.3989 -0.4408  0.4834
 1871SOL    HW2 7055   1.825   3.191   1.232 -0.4261  0.3252  1.4299
 1872SOL     OW 7056   2.119   1.966   2.602  0.4234  0.1483 -0.3535
 1872SOL    HW1 7057   2.215   1.966   2.600  0.4815 -2.0141 -0.7886
 1872SOL    HW2 7058   2.096   1.988   2.692  1.3787 -0.2273 -0.0038
 1873SOL     OW 7059   7.810   3.069   0.947  0.2015  0.5689 -0.0343
 1873SOL    HW1 7060   7.892   3.032   0.978  0.1575  0.8062  0.3773
 1873SOL    HW2 7061   7.824   3.164   0.950  0.7520  0.6141 -2.2365
 1874SOL     OW 7062   1.886   0.352   3.542 -0.3247 -0.2025 -0.5142
 1874SOL    HW1 7063   1.791   0.344   3.533 -0.5141  1.0627  0.2138
 1874SOL    HW2 7064   1.900   0.440   3.576  1.0691 -0.6130  0.0526
 1875SOL     OW 7065   1.962   2.348   0.869  0.5353  0.2211  0.0868
 1875SOL    HW1 7066   2.054   2.373   0.880 -0.1356  2.8031  0.4530
 1875SOL    HW2 7067   1.919   2.428   0.841 -1.3108 -1.4049 -2.0628
 1876SOL     OW 7068   0.589   3.824   3.170 -0.4550  0.1009  0.3295
 1876SOL    HW1 7069   0.524   3.776   3.222 -0.1483 -0.7192 -0.0224
 1876SOL    HW2 7070   0.587   3.782   3.084  2.0338 -1.4306  0.8881
 1877SOL     OW 7071   1.142   3.403   2.784  0.1694  0.1302  0.1353
 1877SOL    HW1 7072   1.064   3.363   2.744 -1.0406  1.6006  0.9258
 1877SOL    HW2 7073   1.211   3.337   2.773 -0.5435 -0.2540 -2.7252
 1878SOL     OW 7074   1.287   1.266   1.129  0.1037 -0.0443  0.1937
 1878SOL    HW1 7075   1.241   1.185   1.151  0.1181  0.2572  1.3739
 1878SOL    HW2 7076   1.264   1.327   1.199  1.0247  0.6185 -0.0641
 1879SOL     OW 7077   1.530   2.774   1.643  0.5936 -0.1240 -0.4548
 1879SOL    HW1 7078   1.503   2.864   1.625  1.1700  0.1111 -0.1859
 1879SOL    HW2 7079   1.463   2.720   1.602 -1.3772  0.4051  1.8004
 1880SOL     OW 7080   3.211   2.235   2.974  0.3027  0.4240  0.0852
 1880SOL    HW1 7081   3.226   2.140   2.975  0.1345  0.3613 -1.2468
 1880SOL    HW2 7082   3.165   2.253   3.055 -0.9977 -0.8868 -0.3186
 1881SOL     OW 7083   0.890   0.146   1.513  0.0146 -0.0412 -0.1898
 1881SOL    HW1 7084   0.864   0.233   1.541  0.6470  0.6784 -1.6952
 1881SOL    HW2 7085   0.850   0.087   1.576 -0.0802  1.3549  1.1068
 1882SOL     OW 7086   1.464   3.460   2.962 -0.5238 -0.3804  0.2619
 1882SOL    HW1 7087   1.456   3.429   3.052 -1.1692  0.7350  0.6136
 1882SOL    HW2 7088   1.398   3.410   2.913  0.6000 -1.8196  0.1368
 1883SOL     OW 7089   0.281   2.555   4.853 -0.7307  0.2204  0.0795
 1883SOL    HW1 7090   0.248   2.635   4.812  0.3458  2.4007  3.1748
 1883SOL    HW2 7091   0.360   2.581   4.898 -1.0201 -2.2919  2.2854
 1884SOL     OW 7092   0.607   1.256   6.058 -0.1342  0.4402 -0.1621
 1884SOL    HW1 7093   0.561   1.219   6.133 -0.1946 -0.2855 -0.5516
 1884SOL    HW2 7094   0.683   1.300   6.096 -0.9054  1.2998  0.4511
 1885SOL     OW 7095   5.939   1.746   5.083 -0.4906  0.1130  0.1641
 1885SOL    HW1 7096   5.844   1.745   5.094 -0.6271  0.4259 -0.8538
 1885SOL    HW2 7097   5.969   1.664   5.122 -1.3809 -0.8560 -1.1053
 1886SOL     OW 7098   0.211   3.356   3.623  0.1766  0.7955 -0.8648
 1886SOL    HW1 7099   0.128   3.391   3.593 -0.0564 -0.1336 -1.3351
 1886SOL    HW2 7100   0.265   3.351   3.544  0.3063  0.3906 -0.7557
 1887SOL     OW 7101   2.849   2.055   2.647 -0.2912 -0.1049  0.2307
 1887SOL    HW1 7102   2.931   2.009   2.628 -0.5010  0.3241 -1.9206
 1887SOL    HW2 7103   2.788   1.986   2.670  0.1104 -0.6298 -0.2579
 1888SOL     OW 7104   0.944   1.305   3.087 -0.7777 -0.4498 -0.5352
 1888SOL    HW1 7105   0.866   1.353   3.060 -1.1892 -0.7459  0.1184
 1888SOL    HW2 7106   0.915   1.214   3.093 -0.1863 -0.6853 -1.0443
 1889SOL     OW 7107   2.455   2.307   2.497 -0.0032 -0.1083 -0.4467
 1889SOL    HW1 7108   2.491   2.291   2.584  0.0378 -0.8346 -0.5885
 1889SOL    HW2 7109   2.525   2.282   2.437 -0.1495  0.0731 -0.6974
 1890SOL     OW 7110   1.577   2.318   2.654 -0.1530 -0.2083  0.1168
 1890SOL    HW1 7111   1.498   2.351   2.697  0.2253  0.6895  0.1411
 1890SOL    HW2 7112   1.572   2.352   2.565  0.8248  0.9432  0.4728
 1891SOL     OW 7113   1.104   0.470   4.923 -0.1527 -0.1106 -0.0119
 1891SOL    HW1 7114   1.118   0.491   5.016 -0.7968 -0.3785  0.1525
 1891SOL    HW2 7115   1.102   0.555   4.879 -1.4516  0.1272  0.4610
 1892SOL     OW 7116   1.466   1.255   2.566  0.0586 -0.4047 -0.1114
 1892SOL    HW1 7117   1.506   1.324   2.513  0.0808 -0.4577 -0.1642
 1892SOL    HW2 7118   1.474   1.285   2.656  0.4803 -0.5501 -0.0981
 1893SOL     OW 7119   1.404   2.050   4.731 -0.6138 -0.0264  0.1525
 1893SOL    HW1 7120   1.496   2.057   4.708 -1.2573  0.0922 -2.8003
 1893SOL    HW2 7121   1.388   2.123   4.791  1.0615  0.3120  0.2183
 1894SOL     OW 7122   0.860   3.258   5.031 -0.3620 -0.3399  0.1088
 1894SOL    HW1 7123   0.886   3.244   4.940 -0.5195  1.1596 -0.1903
 1894SOL    HW2 7124   0.858   3.353   5.041  1.0851 -0.4528  2.0986
 1895SOL     OW 7125   0.558   4.248   6.553 -0.1884  0.0262 -0.0320
 1895SOL    HW1 7126   0.540   4.246   6.459  1.2684  0.7597 -0.3659
 1895SOL    HW2 7127   0.508   4.323   6.586  1.4910  1.5651 -0.7928
 1896SOL     OW 7128   1.514   1.734   6.369 -0.4217  0.6511  0.1490
 1896SOL    HW1 7129   1.532   1.669   6.301 -1.4146 -0.4812  0.9346
 1896SOL    HW2 7130   1.596   1.742   6.417 -0.7567 -1.3465  1.1219
 1897SOL     OW 7131   2.395   0.697   4.965  0.1889 -0.2506 -0.0492
 1897SOL    HW1 7132   2.447   0.751   5.025 -2.1236  1.0701  0.8815
 1897SOL    HW2 7133   2.404   0.741   4.880 -0.8491  1.0821  0.4928
 1898SOL     OW 7134   7.704   3.551   2.937  0.3587 -0.2642 -0.4026
 1898SOL    HW1 7135   7.753   3.623   2.899 -1.3244 -0.4616 -3.1728
 1898SOL    HW2 7136   7.616   3.586   2.950 -0.0012 -1.2864 -0.0038
 1899SOL     OW 7137   2.072   2.526   3.188 -0.5059  0.1421 -0.7128
 1899SOL    HW1 7138   2.121   2.534   3.270 -2.7696  0.8642  0.6567
 1899SOL    HW2 7139   2.086   2.610   3.144  0.3284 -0.0705 -0.8790
 1900SOL     OW 7140   1.784   2.228   4.917 -0.4376  0.4657 -0.0671
 1900SOL    HW1 7141   1.851   2.295   4.902  0.1606  0.0570  0.7027
 1900SOL    HW2 7142   1.708   2.277   4.946  0.2513  0.7675  1.3080
 1901SOL     OW 7143   2.455   2.138   3.853  0.1883 -0.2920  0.3064
 1901SOL    HW1 7144   2.457   2.194   3.775  2.2512  0.2879  0.7238
 1901SOL    HW2 7145   2.389   2.180   3.909 -0.3978  0.0218 -0.5900
 1902SOL     OW 7146   7.719   5.011   5.328  0.8750 -0.2931  0.3151
 1902SOL    HW1 7147   7.688   4.924   5.356  0.8129 -0.3366  0.1120
 1902SOL    HW2 7148   7.755   4.997   5.241 -2.1408  0.4590 -1.1958
 1903SOL     OW 7149   1.446   1.588   3.316  0.3896 -0.2906  0.5661
 1903SOL    HW1 7150   1.482   1.518   3.370  0.5546 -0.1795  0.6027
 1903SOL    HW2 7151   1.417   1.654   3.380 -0.4203 -0.6380  0.5594
 1904SOL     OW 7152   1.661   0.960   5.147  0.4202 -0.0454 -0.5979
 1904SOL    HW1 7153   1.688   0.868   5.143 -1.2448 -0.5474 -1.5100
 1904SOL    HW2 7154   1.618   0.976   5.063  1.1210  1.7316 -0.6551
 1905SOL     OW 7155   0.494   2.473   3.418 -0.4721 -0.2293 -0.0860
 1905SOL    HW1 7156   0.514   2.441   3.330 -1.0528 -1.5618  0.2460
 1905SOL    HW2 7157   0.456   2.398   3.463 -1.0573  0.6935  1.0189
 1906SOL     OW 7158   3.137   2.888   4.452  0.5042 -0.1443  0.4801
 1906SOL    HW1 7159   3.190   2.863   4.528  1.2356 -0.2974 -0.0724
 1906SOL    HW2 7160   3.193   2.946   4.401  0.1533 -0.3214 -0.1228
 1907SOL     OW 7161   0.184   3.597   4.943  0.6816  0.7495  0.4032
 1907SOL    HW1 7162   0.147   3.649   5.014 -0.0114 -0.4966  0.9820
 1907SOL    HW2 7163   0.274   3.581   4.971  0.1047 -0.6633  1.5776
 1908SOL     OW 7164   1.630   3.138   3.624 -0.3917 -0.6825 -0.7846
 1908SOL    HW1 7165   1.725   3.134   3.612 -0.3618 -0.6909 -0.5446
 1908SOL    HW2 7166   1.617   3.126   3.718 -0.6011 -0.2152 -0.7497
 1909SOL     OW 7167   0.587   2.603   1.968 -0.1619 -0.4293  0.0721
 1909SOL    HW1 7168   0.541   2.532   1.923 -0.9338  1.1810 -1.7920
 1909SOL    HW2 7169   0.555   2.683   1.926  3.3495  0.8786 -0.4212
 1910SOL     OW 7170   0.797   2.965   5.491  0.1595 -0.1935 -0.1683
 1910SOL    HW1 7171   0.756   2.895   5.540  1.4715 -0.2498  0.9127
 1910SOL    HW2 7172   0.725   3.011   5.449 -0.9531 -0.5974  1.2355
 1911SOL     OW 7173   0.632   2.817   5.102  0.3357 -0.2486 -0.3975
 1911SOL    HW1 7174   0.631   2.913   5.095  0.1450 -0.0842  1.3404
 1911SOL    HW2 7175   0.542   2.791   5.083 -0.3499  0.2238  1.8159
 1912SOL     OW 7176   1.307   2.802   5.403 -0.4865 -0.6357  0.2382
 1912SOL    HW1 7177   1.385   2.761   5.442 -0.5625 -2.2459 -1.1870
 1912SOL    HW2 7178   1.300   2.886   5.448  2.2103 -0.3133  0.2522
 1913SOL     OW 7179   2.384   2.519   1.899 -0.0683  0.1096 -0.7014
 1913SOL    HW1 7180   2.410   2.427   1.902  2.0795  0.6736  0.7787
 1913SOL    HW2 7181   2.321   2.528   1.971  0.2470 -0.0767 -0.3967
 1914SOL     OW 7182   6.141   1.455   4.225 -0.0342  0.4573 -0.1165
 1914SOL    HW1 7183   6.056   1.498   4.219 -0.5169 -0.5481 -0.6180
 1914SOL    HW2 7184   6.204   1.527   4.224 -0.7804  1.1315 -1.7966
 1915SOL     OW 7185   3.587   3.173   4.451 -0.0322  0.2039  0.1200
 1915SOL    HW1 7186   3.602   3.191   4.358  1.9349 -3.2433 -0.4122
 1915SOL    HW2 7187   3.666   3.208   4.494  1.6944 -2.7519 -0.3578
 1916SOL     OW 7188   7.621   3.854   5.868 -0.3096  0.2975  0.1385
 1916SOL    HW1 7189   7.546   3.798   5.889  0.6488 -0.8227  0.6569
 1916SOL    HW2 7190   7.628   3.915   5.941 -1.5762  1.3920 -0.5957
 1917SOL     OW 7191   7.357   1.850   7.549 -0.3484  0.2659 -0.8051
 1917SOL    HW1 7192   7.376   1.772   7.602  0.9157  0.8043 -0.4339
 1917SOL    HW2 7193   7.291   1.820   7.486  0.8667 -1.4001 -1.3596
 1918SOL     OW 7194   2.279   2.086   3.381  0.0932 -0.3154  1.1608
 1918SOL    HW1 7195   2.338   2.157   3.358  0.0156 -0.4005  0.6962
 1918SOL    HW2 7196   2.333   2.024   3.430  0.2660 -0.1528  1.1766
 1919SOL     OW 7197   0.594   4.020   2.679  0.1436 -0.6761  0.6325
 1919SOL    HW1 7198   0.531   4.046   2.611 -0.7905 -1.7439  1.0460
 1919SOL    HW2 7199   0.629   4.103   2.713  0.2347 -0.1163 -0.7774
 1920SOL     OW 7200   7.516   3.108   2.396  0.4389  0.0113  0.0305
 1920SOL    HW1 7201   7.425   3.098   2.367  0.5745  2.9912 -1.8349
 1920SOL    HW2 7202   7.557   3.025   2.373 -1.9093 -1.7167  1.6329
 1921SOL     OW 7203   0.670   2.156   5.844  0.2806  0.2304  0.0810
 1921SOL    HW1 7204   0.714   2.082   5.803  0.9858  0.0119  1.1987
 1921SOL    HW2 7205   0.683   2.229   5.783  2.3386  0.2067  0.4172
 1922SOL     OW 7206   1.186   2.347   5.103  0.7022  0.3211 -0.0821
 1922SOL    HW1 7207   1.109   2.308   5.144 -0.0871  0.5991 -1.2787
 1922SOL    HW2 7208   1.202   2.426   5.155 -0.8171  1.1437 -0.8010
 1923SOL     OW 7209   0.035   1.515   4.630 -0.0665 -0.2554  0.3034
 1923SOL    HW1 7210  -0.018   1.551   4.559 -0.2013  0.5206  0.7951
 1923SOL    HW2 7211   0.114   1.570   4.632  0.6236 -1.1785 -0.1881
 1924SOL     OW 7212   1.248   1.346   4.714 -0.1173  0.2377 -0.6489
 1924SOL    HW1 7213   1.245   1.428   4.665 -0.9458  1.0975  0.7686
 1924SOL    HW2 7214   1.307   1.363   4.787 -1.1761 -0.0264  0.3057
 1925SOL     OW 7215   0.711   2.337   4.443  0.4916 -0.0069 -0.7738
 1925SOL    HW1 7216   0.757   2.399   4.387  0.4925  0.9808  0.2937
 1925SOL    HW2 7217   0.739   2.358   4.532 -2.9884  1.6350  0.1196
 1926SOL     OW 7218   1.144   1.336   4.342 -0.3511  0.6443 -0.4398
 1926SOL    HW1 7219   1.235   1.323   4.368 -0.2412  0.4128 -0.9346
 1926SOL    HW2 7220   1.144   1.420   4.296 -0.6281  1.2779  0.6731
 1927SOL     OW 7221   1.564   2.271   3.008 -0.3674  0.1703  0.3363
 1927SOL    HW1 7222   1.572   2.321   2.927  1.0565  0.2460  0.4984
 1927SOL    HW2 7223   1.471   2.248   3.013 -0.5692  0.5982 -1.0457
 1928SOL     OW 7224   1.418   1.021   3.862  0.1793 -0.3795 -0.0358
 1928SOL    HW1 7225   1.325   1.019   3.883 -0.3878 -0.6727 -2.3110
 1928SOL    HW2 7226   1.443   0.930   3.853  0.1004 -0.2805 -1.5710
 1929SOL     OW 7227   0.521   1.267   5.120 -0.3599  0.5341 -0.3455
 1929SOL    HW1 7228   0.520   1.333   5.190 -1.6043 -0.5665  0.7159
 1929SOL    HW2 7229   0.613   1.263   5.093  0.3450  0.3719  1.8521
 1930SOL     OW 7230   0.237   3.333   4.064 -0.0259  0.4241  0.6946
 1930SOL    HW1 7231   0.299   3.388   4.113  2.3556 -1.8484  0.4867
 1930SOL    HW2 7232   0.242   3.366   3.974  2.5416 -0.8535  0.2495
 1931SOL     OW 7233   1.329   2.282   6.921 -0.1555 -0.2075 -0.1788
 1931SOL    HW1 7234   1.287   2.333   6.991 -0.7317 -1.5897  0.5030
 1931SOL    HW2 7235   1.282   2.308   6.842 -0.6823  0.0682  0.2117
 1932SOL     OW 7236   1.708   2.378   5.370 -0.6536 -0.1752 -0.0636
 1932SOL    HW1 7237   1.750   2.293   5.384 -0.7023 -0.3683 -1.0249
 1932SOL    HW2 7238   1.633   2.378   5.430  0.9393  0.3810  2.0452
 1933SOL     OW 7239   0.417   1.823   1.533 -0.2961 -0.2863 -0.0319
 1933SOL    HW1 7240   0.500   1.815   1.486  0.6158  0.3052  1.4111
 1933SOL    HW2 7241   0.442   1.845   1.623 -2.0431  0.7047  0.2611
 1934SOL     OW 7242   2.815   5.521   3.349 -0.2767  0.0453 -0.6218
 1934SOL    HW1 7243   2.773   5.471   3.419  1.2707  0.5988  0.7726
 1934SOL    HW2 7244   2.906   5.490   3.349 -0.0590  0.6322 -1.8512
 1935SOL     OW 7245   1.567   2.363   5.121  0.5534 -0.4374 -0.1335
 1935SOL    HW1 7246   1.622   2.439   5.102  0.6809 -0.6700 -0.6916
 1935SOL    HW2 7247   1.584   2.344   5.213  0.4950  0.2310  0.0257
 1936SOL     OW 7248   3.455   1.701   4.047 -0.2454 -0.3886 -0.1696
 1936SOL    HW1 7249   3.380   1.739   4.094 -0.2015  1.1732 -1.2698
 1936SOL    HW2 7250   3.415   1.639   3.985 -0.4566 -1.0205  0.5884
 1937SOL     OW 7251   1.056   3.027   4.999  0.4984  0.3158 -0.3059
 1937SOL    HW1 7252   1.139   2.992   5.031  0.7650  1.9157  0.8830
 1937SOL    HW2 7253   1.007   3.051   5.078 -0.2571  1.2167 -1.0143
 1938SOL     OW 7254   0.075   3.554   5.784  0.3340  0.0098  0.2626
 1938SOL    HW1 7255   0.124   3.542   5.865 -2.8293 -0.7685  2.2279
 1938SOL    HW2 7256  -0.005   3.598   5.810 -1.7464 -2.0787 -2.0490
 1939SOL     OW 7257   0.984   3.279   3.673 -0.5006  0.4773  0.1676
 1939SOL    HW1 7258   1.030   3.225   3.608  0.3938  1.3958  0.0015
 1939SOL    HW2 7259   0.950   3.217   3.737  2.5613 -0.2264  1.3028
 1940SOL     OW 7260   0.009   2.086   6.234  0.9500  0.1910  0.5451
 1940SOL    HW1 7261   0.077   2.140   6.192  0.3858  1.6225  1.3977
 1940SOL    HW2 7262  -0.052   2.065   6.163  1.1884  0.6728  0.1875
 1941SOL     OW 7263   2.050   3.027   3.110  0.7012 -0.3065 -0.1888
 1941SOL    HW1 7264   2.064   2.936   3.134 -2.0961 -0.7886 -0.0653
 1941SOL    HW2 7265   2.083   3.077   3.184  1.3052 -1.2486  0.1929
 1942SOL     OW 7266   0.648   3.071   6.073 -0.6739 -0.3878 -0.9133
 1942SOL    HW1 7267   0.667   3.095   6.164 -1.6093  0.0311 -0.8177
 1942SOL    HW2 7268   0.732   3.041   6.039 -0.4229 -1.0884  0.2543
 1943SOL     OW 7269   0.857   3.116   3.855  0.0319 -0.3025 -0.5036
 1943SOL    HW1 7270   0.780   3.077   3.814 -1.1405  0.3440  0.9626
 1943SOL    HW2 7271   0.822   3.184   3.912  1.2961 -2.2443  2.9269
 1944SOL     OW 7272   2.630   3.826   4.943 -0.4841  0.1915  0.7192
 1944SOL    HW1 7273   2.570   3.764   4.903  1.6988 -0.4097 -1.9624
 1944SOL    HW2 7274   2.717   3.793   4.921  0.8837  1.7083  3.2744
 1945SOL     OW 7275   1.826   2.215   3.798 -0.2550  0.2865  0.5783
 1945SOL    HW1 7276   1.897   2.221   3.734 -0.1274 -0.2829  0.6588
 1945SOL    HW2 7277   1.861   2.257   3.876 -0.6015  1.4511  0.1198
 1946SOL     OW 7278   6.494   4.092   4.491 -0.5956 -0.1231  0.1162
 1946SOL    HW1 7279   6.465   4.182   4.483 -1.8566 -0.5383 -0.1670
 1946SOL    HW2 7280   6.532   4.086   4.578 -0.7475  0.6073  0.2386
 1947SOL     OW 7281   7.958   3.205   2.851 -0.3660 -0.0159 -0.1292
 1947SOL    HW1 7282   7.945   3.113   2.876 -0.4041 -0.2687 -1.0235
 1947SOL    HW2 7283   7.871   3.238   2.834 -0.3619  0.2282  0.3250
 1948SOL     OW 7284   7.156   2.188   4.065  0.0877 -0.1601 -0.4651
 1948SOL    HW1 7285   7.082   2.228   4.019  0.4591  0.5588 -0.4528
 1948SOL    HW2 7286   7.140   2.094   4.058 -0.7205 -0.0212 -0.6368
 1949SOL     OW 7287   1.254   1.526   6.132 -0.2765  0.0136  0.4580
 1949SOL    HW1 7288   1.310   1.509   6.207 -0.2281 -1.0092  0.2000
 1949SOL    HW2 7289   1.314   1.547   6.061 -0.3501  1.9232  0.8994
 1950SOL     OW 7290   7.833   2.119   2.398  0.5148  0.8801  0.1759
 1950SOL    HW1 7291   7.755   2.072   2.427 -0.6320  2.7739  0.3246
 1950SOL    HW2 7292   7.884   2.053   2.350 -0.3033 -0.8447  1.5472
 1951SOL     OW 7293   1.083   2.203   5.353  0.5391 -0.4982 -0.3392
 1951SOL    HW1 7294   1.103   2.291   5.384 -0.5456 -0.5644  0.5838
 1951SOL    HW2 7295   1.118   2.145   5.421  1.5132 -0.8246 -1.0797
 1952SOL     OW 7296   0.022   2.202   5.486 -0.5807 -0.2617 -0.2151
 1952SOL    HW1 7297  -0.020   2.286   5.502  0.1636 -0.0437  0.7486
 1952SOL    HW2 7298   0.093   2.199   5.550 -0.0521 -1.2453 -0.8235
 1953SOL     OW 7299   0.089   3.178   5.676 -0.5814  0.2341 -0.0736
 1953SOL    HW1 7300   0.098   3.192   5.582 -2.0606  0.8867 -0.1430
 1953SOL    HW2 7301   0.083   3.083   5.686  0.0457  0.1344 -0.5768
 1954SOL     OW 7302   0.776   1.025   4.373 -0.1965 -0.5366  0.7084
 1954SOL    HW1 7303   0.767   0.941   4.330  1.9933  0.6215 -2.3499
 1954SOL    HW2 7304   0.687   1.049   4.398 -1.4169 -2.0677 -1.7713
 1955SOL     OW 7305   0.739   2.192   3.748  0.0622 -0.2481  0.4886
 1955SOL    HW1 7306   0.829   2.165   3.732  0.1336  0.6855 -0.8859
 1955SOL    HW2 7307   0.708   2.223   3.662 -1.7434 -1.0616  0.8065
 1956SOL     OW 7308   1.052   0.879   4.579 -0.6039 -0.4178 -0.5729
 1956SOL    HW1 7309   1.032   0.897   4.487  0.1099  1.2073 -0.4335
 1956SOL    HW2 7310   1.072   0.964   4.617  0.6089 -1.2326  0.7351
 1957SOL     OW 7311   1.807   2.290   4.089 -0.0921 -0.0193  0.1165
 1957SOL    HW1 7312   1.821   2.228   4.162 -2.4216 -1.9362 -0.9251
 1957SOL    HW2 7313   1.714   2.314   4.096 -0.4752 -0.5290 -2.3669
 1958SOL     OW 7314   1.739   1.544   3.304 -0.3188  0.4095  0.0185
 1958SOL    HW1 7315   1.826   1.518   3.334 -0.6021 -0.9158 -0.2235
 1958SOL    HW2 7316   1.681   1.523   3.378 -0.9187 -2.1981 -1.0875
 1959SOL     OW 7317   1.697   2.082   3.443  0.3872 -0.6016  0.1484
 1959SOL    HW1 7318   1.674   2.034   3.363 -0.6373 -2.2613  1.3605
 1959SOL    HW2 7319   1.786   2.113   3.428  0.6151 -1.8007 -1.2341
 1960SOL     OW 7320   0.201   1.529   6.811  0.6704 -0.4269  0.5971
 1960SOL    HW1 7321   0.268   1.480   6.763  0.4856 -0.6873  0.6026
 1960SOL    HW2 7322   0.250   1.592   6.863  0.9209 -0.7094  0.7062
 1961SOL     OW 7323   2.416   3.243   4.923  0.2696 -0.4852 -0.2037
 1961SOL    HW1 7324   2.401   3.173   4.860  1.3351  0.1732 -1.2297
 1961SOL    HW2 7325   2.492   3.214   4.974  1.6429  0.5139 -1.5964
 1962SOL     OW 7326   0.664   2.203   5.203 -0.1540 -0.5653  0.1768
 1962SOL    HW1 7327   0.709   2.146   5.266 -1.4326 -0.6999  1.0038
 1962SOL    HW2 7328   0.652   2.148   5.125 -1.1527 -1.3859  0.8788
 1963SOL     OW 7329   1.059   3.774   3.019  0.2590  1.0482  0.5748
 1963SOL    HW1 7330   1.004   3.753   3.094 -1.6064 -0.3770 -1.0741
 1963SOL    HW2 7331   1.082   3.689   2.981 -0.0996  1.7340 -1.2920
 1964SOL     OW 7332   0.822   2.456   3.215 -0.1144  0.5111  0.0207
 1964SOL    HW1 7333   0.838   2.543   3.252  1.3961 -0.3659  1.5926
 1964SOL    HW2 7334   0.908   2.413   3.218 -0.7354 -0.8928 -1.1420
 1965SOL     OW 7335   0.354   1.934   3.566 -0.8274  0.1381  0.6236
 1965SOL    HW1 7336   0.264   1.936   3.598 -1.0929  0.9291 -0.1082
 1965SOL    HW2 7337   0.404   1.893   3.636 -1.7119 -0.0393  1.1653
 1966SOL     OW 7338   0.691   2.505   5.152  0.2585 -0.2188  0.0652
 1966SOL    HW1 7339   0.601   2.537   5.151  0.1292 -0.5662  0.2844
 1966SOL    HW2 7340   0.682   2.410   5.163  0.5293 -0.6854 -2.8875
 1967SOL     OW 7341   2.774   2.847   4.267  0.2737 -0.5033 -0.0035
 1967SOL    HW1 7342   2.782   2.783   4.338 -0.4636 -0.1347  0.4241
 1967SOL    HW2 7343   2.803   2.930   4.306 -1.3121 -0.0380  0.2847
 1968SOL     OW 7344   1.612   0.602   5.938  0.0379  0.3313  0.0373
 1968SOL    HW1 7345   1.633   0.695   5.933  2.1569 -0.1243 -0.6706
 1968SOL    HW2 7346   1.668   0.561   5.872 -0.9535 -1.4451  0.2208
 1969SOL     OW 7347   1.636   3.070   4.706 -0.3750  0.2880  0.3387
 1969SOL    HW1 7348   1.682   3.154   4.697  1.5210 -0.6175  1.1113
 1969SOL    HW2 7349   1.704   3.004   4.693 -1.5904 -1.1392  0.9699
 1970SOL     OW 7350   0.892   2.565   5.331  0.2044 -0.0079  0.1496
 1970SOL    HW1 7351   0.955   2.496   5.353  1.0307  0.8375  0.5257
 1970SOL    HW2 7352   0.834   2.570   5.408  0.4582  0.0608  0.3377
 1971SOL     OW 7353   2.844   2.414   2.485  0.4094 -0.6882  0.0357
 1971SOL    HW1 7354   2.803   2.423   2.571 -1.0193 -0.2639 -0.6740
 1971SOL    HW2 7355   2.829   2.498   2.442 -0.0629 -1.3420 -1.1138
 1972SOL     OW 7356   0.819   2.446   2.940  0.4619  0.1591 -0.5618
 1972SOL    HW1 7357   0.786   2.436   3.029 -0.0604 -1.4644 -0.8948
 1972SOL    HW2 7358   0.807   2.359   2.900  1.8924  0.4779 -1.8021
 1973SOL     OW 7359   2.526   2.760   2.763 -0.3638 -0.3360 -0.1430
 1973SOL    HW1 7360   2.579   2.814   2.821 -0.0672  1.0313 -1.6040
 1973SOL    HW2 7361   2.571   2.676   2.760  0.9507  0.3449 -0.2367
 1974SOL     OW 7362   0.568   3.889   4.526  0.0501 -0.4199 -0.1484
 1974SOL    HW1 7363   0.645   3.942   4.506  0.1721  0.0104  1.3486
 1974SOL    HW2 7364   0.590   3.802   4.495 -0.1366  0.3247 -2.6306
 1975SOL     OW 7365   2.031   3.936   2.297  0.2222  0.7203 -0.3087
 1975SOL    HW1 7366   2.056   4.027   2.308  0.8777  0.2798  3.3984
 1975SOL    HW2 7367   1.968   3.920   2.368  0.7199 -1.8687 -0.3417
 1976SOL     OW 7368   1.157   2.078   3.508  0.1494  0.0837  0.2382
 1976SOL    HW1 7369   1.243   2.115   3.528 -0.3470  1.4876 -0.0914
 1976SOL    HW2 7370   1.130   2.121   3.427 -0.4109 -1.1413 -0.2464
 1977SOL     OW 7371   2.923   2.060   2.946  0.4393  0.7558  0.0581
 1977SOL    HW1 7372   2.906   2.061   2.852 -1.0314 -2.1741  0.1941
 1977SOL    HW2 7373   2.896   2.147   2.976 -1.7884  0.8179 -1.8278
 1978SOL     OW 7374   0.669   2.365   4.039 -0.6213 -0.0932 -0.1478
 1978SOL    HW1 7375   0.665   2.435   3.973 -0.1186  0.0624 -0.0110
 1978SOL    HW2 7376   0.680   2.285   3.988  0.5666  0.1050 -0.2237
 1979SOL     OW 7377   2.668   4.069   5.882  0.3817  0.4741 -0.2225
 1979SOL    HW1 7378   2.604   4.100   5.946 -0.0434 -0.1052 -0.3549
 1979SOL    HW2 7379   2.752   4.100   5.915  0.4449 -1.5568  1.7446
 1980SOL     OW 7380   1.000   1.324   5.485 -0.2780 -0.0294  0.1288
 1980SOL    HW1 7381   0.959   1.239   5.472 -0.1446  0.0179 -0.6885
 1980SOL    HW2 7382   0.928   1.383   5.506 -0.1458 -0.7411  2.9687
 1981SOL     OW 7383   1.083   2.403   3.257 -0.9905  0.5125 -0.2755
 1981SOL    HW1 7384   1.171   2.440   3.256  0.0608 -1.5591  2.3966
 1981SOL    HW2 7385   1.046   2.431   3.341 -2.2304 -0.0481 -0.6104
 1982SOL     OW 7386   0.121   0.563   6.345 -0.6555  0.3422 -0.0708
 1982SOL    HW1 7387   0.080   0.513   6.274 -0.3091 -1.0340  0.6664
 1982SOL    HW2 7388   0.215   0.552   6.331 -0.5666  1.1911 -0.1698
 1983SOL     OW 7389   2.329   1.883   4.662  0.1355 -0.0328  0.1822
 1983SOL    HW1 7390   2.247   1.894   4.710  0.3010 -0.0458  0.4698
 1983SOL    HW2 7391   2.353   1.792   4.675 -0.2111 -0.2421 -0.5634
 1984SOL     OW 7392   1.803   2.747   5.476  0.3460 -0.2587  0.5176
 1984SOL    HW1 7393   1.847   2.808   5.535  1.0174  0.8297 -1.0537
 1984SOL    HW2 7394   1.859   2.669   5.477 -0.2492 -0.7107  2.1372
 1985SOL     OW 7395   0.821   2.803   4.150  0.8016  0.7402  0.4973
 1985SOL    HW1 7396   0.834   2.896   4.166 -0.0331  0.7500  1.1637
 1985SOL    HW2 7397   0.754   2.799   4.081 -0.5599  0.6356  1.7821
 1986SOL     OW 7398   1.793   3.311   2.513 -0.3018  0.3468 -0.1288
 1986SOL    HW1 7399   1.869   3.286   2.565 -1.8505 -1.6666  1.3564
 1986SOL    HW2 7400   1.727   3.337   2.577 -0.9590  1.8383 -1.3521
 1987SOL     OW 7401   1.780   4.272   2.602 -0.0394 -0.4266  0.1955
 1987SOL    HW1 7402   1.757   4.338   2.667 -0.4635 -0.4519  0.0738
 1987SOL    HW2 7403   1.802   4.323   2.524 -1.5386 -0.4406 -0.2786
 1988SOL     OW 7404   0.702   2.845   5.764  0.2607  0.5523 -0.1465
 1988SOL    HW1 7405   0.652   2.918   5.726  1.2972  0.7173 -1.2422
 1988SOL    HW2 7406   0.770   2.888   5.816  0.9045  0.3895 -0.8356
 1989SOL     OW 7407   2.260   1.792   3.526  0.5671  0.0795 -0.4415
 1989SOL    HW1 7408   2.351   1.805   3.500  0.4188  0.7045 -0.6695
 1989SOL    HW2 7409   2.258   1.704   3.563  1.0645 -0.3196 -1.3216
 1990SOL     OW 7410   1.454   2.215   3.497 -0.7796  0.0529  0.1254
 1990SOL    HW1 7411   1.548   2.200   3.500 -1.1302 -2.5462  2.8766
 1990SOL    HW2 7412   1.423   2.154   3.430 -0.6756 -0.6529  0.7051
 1991SOL     OW 7413   0.907   1.898   5.558 -0.2729  1.1118 -0.3298
 1991SOL    HW1 7414   0.923   1.985   5.594  0.0376  0.6595  0.6852
 1991SOL    HW2 7415   0.816   1.878   5.582  0.3447  0.2625  1.4776
 1992SOL     OW 7416   1.158   0.319   5.699  0.2913 -0.0408  0.4988
 1992SOL    HW1 7417   1.070   0.296   5.670 -0.7468  2.7086  1.1594
 1992SOL    HW2 7418   1.159   0.297   5.792  0.2054  0.1400  0.5436
 1993SOL     OW 7419   1.854   1.487   6.141  0.2011 -0.0430  0.3922
 1993SOL    HW1 7420   1.797   1.502   6.216 -0.9374 -0.8687 -0.2701
 1993SOL    HW2 7421   1.921   1.555   6.147 -0.2685  0.3245  1.7564
 1994SOL     OW 7422   7.725   2.578   6.428  0.2422 -0.1730 -0.3019
 1994SOL    HW1 7423   7.811   2.559   6.392  0.7862  1.2484  0.1660
 1994SOL    HW2 7424   7.731   2.670   6.456 -1.1188 -0.3364  0.6069
 1995SOL     OW 7425   0.326   1.852   3.099  1.1230  0.6532 -0.3106
 1995SOL    HW1 7426   0.359   1.893   3.020 -0.2941  1.1226 -0.6929
 1995SOL    HW2 7427   0.324   1.758   3.079 -1.5030  0.9172 -1.8167
 1996SOL     OW 7428   1.376   3.600   4.515  0.2355  0.0697  0.0083
 1996SOL    HW1 7429   1.355   3.689   4.544 -0.6007 -0.2054  0.2835
 1996SOL    HW2 7430   1.317   3.584   4.441 -1.0544 -0.9542  1.1980
 1997SOL     OW 7431   3.042   2.651   2.709  0.1419  0.3987 -0.2266
 1997SOL    HW1 7432   3.071   2.740   2.729  0.5062  0.8704 -2.5767
 1997SOL    HW2 7433   2.957   2.643   2.753  1.2338  0.9387  2.1523
 1998SOL     OW 7434   1.433   1.434   4.928  0.1477  0.0117  0.1764
 1998SOL    HW1 7435   1.504   1.388   4.883  0.4446  0.8235 -0.1949
 1998SOL    HW2 7436   1.465   1.524   4.939 -1.0858  0.5689 -0.5819
 1999SOL     OW 7437   7.375   2.831   6.529  0.1674 -0.2453  0.0620
 1999SOL    HW1 7438   7.390   2.900   6.463  0.1912  1.1080  1.4170
 1999SOL    HW2 7439   7.457   2.781   6.530  0.2078 -0.2198 -0.8398
 2000SOL     OW 7440   0.144   2.191   3.712  0.2042 -0.2735  0.1694
 2000SOL    HW1 7441   0.153   2.255   3.641  0.1246 -1.7738 -1.2443
 2000SOL    HW2 7442   0.231   2.186   3.751  0.4665 -0.0480 -0.3717
 2001SOL     OW 7443   2.670   3.212   6.698  0.5503 -0.1902 -0.5508
 2001SOL    HW1 7444   2.580   3.238   6.682 -0.1596 -0.9868  1.6821
 2001SOL    HW2 7445   2.719   3.294   6.704 -0.5850  0.4177  0.9553
 2002SOL     OW 7446   0.133   1.772   2.784  0.2071 -0.2852 -0.5516
 2002SOL    HW1 7447   0.170   1.692   2.746  0.3165  0.2512 -1.6165
 2002SOL    HW2 7448   0.091   1.816   2.710 -0.2403  0.4238  0.1153
 2003SOL     OW 7449   2.556   2.088   1.467 -0.0059  0.0298 -0.4185
 2003SOL    HW1 7450   2.631   2.032   1.488  0.4232  0.5650 -0.5134
 2003SOL    HW2 7451   2.501   2.033   1.411  0.0487 -0.5495  0.0826
 2004SOL     OW 7452   1.816   1.412   4.718 -0.3358 -0.1053 -0.0896
 2004SOL    HW1 7453   1.892   1.376   4.673  0.1159  0.3845  0.2644
 2004SOL    HW2 7454   1.748   1.345   4.709 -0.0696 -0.2659 -0.9707
 2005SOL     OW 7455   0.193   2.171   6.980 -0.6118 -0.3794 -0.5092
 2005SOL    HW1 7456   0.101   2.167   7.008 -0.2056  0.5371  1.0783
 2005SOL    HW2 7457   0.217   2.079   6.967 -0.6914 -1.0426  2.9532
 2006SOL     OW 7458   2.946   2.819   5.683  0.1588 -0.3965  1.0016
 2006SOL    HW1 7459   2.997   2.766   5.622  0.8307  0.1133  1.1194
 2006SOL    HW2 7460   3.011   2.860   5.740 -0.3799  0.2842  1.1306
 2007SOL     OW 7461   2.654   3.060   4.734 -0.5449 -0.3271  0.0835
 2007SOL    HW1 7462   2.745   3.086   4.725 -0.0931 -1.8237  0.0530
 2007SOL    HW2 7463   2.617   3.068   4.646 -1.0619  2.3011  0.4638
 2008SOL     OW 7464   0.436   2.203   3.503  0.3565  0.0303  0.3632
 2008SOL    HW1 7465   0.366   2.205   3.438  1.0341 -0.5424 -0.3920
 2008SOL    HW2 7466   0.412   2.132   3.562  0.0758  0.1280  0.3681
 2009SOL     OW 7467   2.162   2.582   4.670  0.1486  0.1026  0.0302
 2009SOL    HW1 7468   2.221   2.652   4.644 -0.7182  0.6506 -0.5044
 2009SOL    HW2 7469   2.097   2.578   4.600 -0.9154  0.0583  0.9927
 2010SOL     OW 7470   0.130   4.121   5.011  0.2601 -0.4598  0.1849
 2010SOL    HW1 7471   0.078   4.119   5.091 -1.7219  1.2149 -0.9599
 2010SOL    HW2 7472   0.155   4.212   5.000  3.7317 -1.2129  0.7444
 2011SOL     OW 7473   1.165   0.528   3.872  0.5719 -0.1527  0.1991
 2011SOL    HW1 7474   1.114   0.602   3.840  1.4049  0.4175  0.1514
 2011SOL    HW2 7475   1.138   0.519   3.964 -0.4373 -0.5873 -0.1339
 2012SOL     OW 7476   7.825   2.235   4.627 -0.0359 -0.2102 -0.0130
 2012SOL    HW1 7477   7.761   2.254   4.696  0.0461 -1.8085  0.5401
 2012SOL    HW2 7478   7.791   2.281   4.550 -0.6762  0.7645  0.8130
 2013SOL     OW 7479   7.840   3.080   6.424 -0.1502 -0.1663  0.3193
 2013SOL    HW1 7480   7.858   3.099   6.332 -0.5052 -1.2780  0.0036
 2013SOL    HW2 7481   7.745   3.078   6.430 -0.1251 -0.5683  0.6109
 2014SOL     OW 7482   3.221   0.290   4.414  0.9100 -0.0698  0.1077
 2014SOL    HW1 7483   3.288   0.315   4.477 -0.8475  1.6230  1.4381
 2014SOL    HW2 7484   3.268   0.278   4.332  2.6021  3.4116  0.3994
 2015SOL     OW 7485   0.464   2.614   3.090  0.3872 -0.5147  0.1292
 2015SOL    HW1 7486   0.401   2.615   3.018  0.9077 -0.0361 -0.3306
 2015SOL    HW2 7487   0.496   2.524   3.093 -0.3684 -0.7833  0.4227
 2016SOL     OW 7488   7.003   1.436   5.456  0.2693  0.5097  0.2269
 2016SOL    HW1 7489   7.080   1.466   5.505  0.9653 -0.8325 -0.0015
 2016SOL    HW2 7490   7.012   1.478   5.371 -0.4331  2.0766  0.8727
 2017SOL     OW 7491   7.489   2.583   3.350  0.4205 -0.6360  0.4087
 2017SOL    HW1 7492   7.480   2.490   3.372 -2.0488 -0.5465  0.0684
 2017SOL    HW2 7493   7.528   2.622   3.428 -2.2823 -1.3466  2.2398
 2018SOL     OW 7494   0.101   5.247   6.794 -0.7465 -0.9927  0.3363
 2018SOL    HW1 7495   0.078   5.277   6.882 -0.5652 -1.8462  0.6897
 2018SOL    HW2 7496   0.133   5.158   6.807  2.9034  0.0952 -0.0780
 2019SOL     OW 7497   7.725   1.916   3.057  0.1354 -0.1873 -0.0609
 2019SOL    HW1 7498   7.689   1.827   3.064  1.8147 -0.7732  2.0286
 2019SOL    HW2 7499   7.763   1.934   3.143  0.6880  2.2037 -0.7310
 2020SOL     OW 7500   1.547   3.257   4.235  0.0337 -0.4223  0.0560
 2020SOL    HW1 7501   1.621   3.291   4.186  0.9162 -1.4745  0.6272
 2020SOL    HW2 7502   1.471   3.279   4.182  0.6192  1.6878  0.0057
 2021SOL     OW 7503   0.553   2.123   4.708 -0.1296 -0.0642  0.0298
 2021SOL    HW1 7504   0.503   2.174   4.772 -0.9409  0.6854 -1.1639
 2021SOL    HW2 7505   0.590   2.188   4.649  0.5275 -0.7502 -0.3274
 2022SOL     OW 7506   1.971   2.494   5.430 -0.5986  0.1707 -0.2659
 2022SOL    HW1 7507   1.984   2.467   5.521 -0.2543 -1.2129 -0.6910
 2022SOL    HW2 7508   1.882   2.465   5.409 -0.0033 -1.2761 -0.9187
 2023SOL     OW 7509   7.866   2.050   6.010 -0.7224 -0.4399  0.4265
 2023SOL    HW1 7510   7.788   2.001   6.038 -0.4162 -1.5619 -0.5601
 2023SOL    HW2 7511   7.834   2.139   5.994 -1.8330 -0.9010 -0.0591
 2024SOL     OW 7512   2.339   1.551   3.186 -0.3676 -0.7490  0.2216
 2024SOL    HW1 7513   2.378   1.567   3.272 -4.9620  0.8770  2.3310
 2024SOL    HW2 7514   2.312   1.459   3.189 -1.2540 -0.4869  0.9712
 2025SOL     OW 7515   0.125   6.114   4.767  0.4018 -0.9852  0.5085
 2025SOL    HW1 7516   0.073   6.076   4.695 -0.6028  1.4572 -0.1599
 2025SOL    HW2 7517   0.215   6.110   4.736  0.0668 -0.7375 -0.5349
 2026SOL     OW 7518   1.239   3.081   2.996  0.4621  0.1648 -0.3690
 2026SOL    HW1 7519   1.159   3.103   3.044 -1.1107 -0.0515 -2.7431
 2026SOL    HW2 7520   1.225   2.991   2.966  2.5575 -0.6752  0.8885
 2027SOL     OW 7521   0.732   2.719   4.724 -0.3416  0.1367 -0.1577
 2027SOL    HW1 7522   0.726   2.653   4.794 -0.8243  1.0080  0.6436
 2027SOL    HW2 7523   0.819   2.707   4.688 -0.2218 -0.5903  0.3324
 2028SOL     OW 7524   1.034   2.726   4.345  0.3452 -0.2576 -0.4113
 2028SOL    HW1 7525   1.007   2.697   4.258  3.3687  0.1910 -1.6248
 2028SOL    HW2 7526   1.042   2.821   4.338  2.2163 -0.3618 -0.2266
 2029SOL     OW 7527   1.451   1.439   5.455 -0.1471 -0.4494 -0.4170
 2029SOL    HW1 7528   1.421   1.416   5.367 -4.5317 -1.5932  1.1354
 2029SOL    HW2 7529   1.395   1.512   5.481  0.9472 -0.2310  1.4945
 2030SOL     OW 7530   2.142   3.193   4.879 -0.0349  0.0582  0.0633
 2030SOL    HW1 7531   2.143   3.104   4.915  1.5227  1.0214  2.7354
 2030SOL    HW2 7532   2.222   3.233   4.913 -1.6092  3.0565  0.5836
 2031SOL     OW 7533   2.180   2.856   3.328  0.0679 -1.2524 -0.7311
 2031SOL    HW1 7534   2.260   2.831   3.373  0.6313 -0.3978 -1.2315
 2031SOL    HW2 7535   2.202   2.855   3.235  0.4436  1.8136 -0.8027
 2032SOL     OW 7536   0.984   2.719   4.951  0.6004 -0.6729 -0.2335
 2032SOL    HW1 7537   1.029   2.645   4.910  1.9201  0.0400 -0.1447
 2032SOL    HW2 7538   1.039   2.795   4.929 -0.9519  0.3647 -0.7221
 2033SOL     OW 7539   0.503   2.493   5.913  0.0004  0.2381 -0.0622
 2033SOL    HW1 7540   0.440   2.556   5.879  1.1093  0.8275 -1.1103
 2033SOL    HW2 7541   0.496   2.502   6.008 -2.1800 -0.4486 -0.1102
 2034SOL     OW 7542   3.036   7.616   5.576 -0.1634 -0.3172 -0.2698
 2034SOL    HW1 7543   3.117   7.569   5.554 -0.6814 -1.2527 -0.2549
 2034SOL    HW2 7544   3.024   7.598   5.670  0.0629  0.5345 -0.0748
 2035SOL     OW 7545   2.296   3.097   5.317 -0.1961  0.4503 -0.2916
 2035SOL    HW1 7546   2.255   3.111   5.403 -0.4397  0.2460 -0.3748
 2035SOL    HW2 7547   2.252   3.160   5.259  0.4540  1.0761 -0.1167
 2036SOL     OW 7548   0.276   4.508   6.216 -0.0239  0.3413  0.3043
 2036SOL    HW1 7549   0.272   4.421   6.254 -1.7523  1.1005  2.0564
 2036SOL    HW2 7550   0.315   4.495   6.130 -1.8125 -2.4191 -0.2231
 2037SOL     OW 7551   1.745   2.688   2.422 -0.0544  0.1694  0.1090
 2037SOL    HW1 7552   1.666   2.719   2.378  0.3437  0.2036 -0.5897
 2037SOL    HW2 7553   1.817   2.729   2.373  0.3964  0.1571  0.7498
 2038SOL     OW 7554   7.205   2.013   6.963  0.3229 -0.1916  0.1984
 2038SOL    HW1 7555   7.301   2.013   6.965  0.3812  2.1724  0.6928
 2038SOL    HW2 7556   7.180   1.998   7.055  0.2363 -0.2085  0.1717
 2039SOL     OW 7557   0.659   3.395   5.359 -0.2736 -0.1571  0.6186
 2039SOL    HW1 7558   0.607   3.316   5.346  0.0548 -0.2313 -0.2674
 2039SOL    HW2 7559   0.682   3.424   5.271 -0.4136  0.9492  0.9309
 2040SOL     OW 7560   2.141   1.896   4.854 -0.2661  0.1416  0.0263
 2040SOL    HW1 7561   2.158   1.811   4.893  0.2477  0.3202  0.2076
 2040SOL    HW2 7562   2.175   1.959   4.918 -0.5158  0.4779 -0.1651
 2041SOL     OW 7563   1.663   1.814   2.024  0.1532 -0.4173  0.1358
 2041SOL    HW1 7564   1.665   1.823   2.120  1.6641  3.1089 -0.1031
 2041SOL    HW2 7565   1.618   1.892   1.993  1.1499 -0.6556 -2.0998
 2042SOL     OW 7566   0.264   1.278   2.678 -0.0432  0.1385  0.4844
 2042SOL    HW1 7567   0.357   1.269   2.658 -0.2689 -2.5653  0.3905
 2042SOL    HW2 7568   0.240   1.198   2.723 -2.4051  0.6354  0.2739
 2043SOL     OW 7569   7.627   4.810   2.384 -0.4245 -0.0885  0.1963
 2043SOL    HW1 7570   7.575   4.890   2.378  0.6660  0.5223 -2.5684
 2043SOL    HW2 7571   7.692   4.828   2.451 -0.8810  0.9103  0.3879
 2044SOL     OW 7572   7.816   4.138   7.073  0.0809  0.1578 -0.3470
 2044SOL    HW1 7573   7.849   4.050   7.053 -2.7179 -1.2215  0.5533
 2044SOL    HW2 7574   7.775   4.167   6.991 -3.8094 -1.8587  0.6238
 2045SOL     OW 7575   2.471   3.261   4.306 -0.4844 -0.4974 -0.4425
 2045SOL    HW1 7576   2.387   3.278   4.348  0.0285  0.0937  0.3655
 2045SOL    HW2 7577   2.530   3.325   4.344  0.5994 -1.6110 -0.1904
 2046SOL     OW 7578   1.168   3.709   3.959  0.2140 -0.2142  0.6035
 2046SOL    HW1 7579   1.188   3.640   3.896 -2.1472 -0.3935 -0.0469
 2046SOL    HW2 7580   1.093   3.675   4.008 -1.5941  2.1484 -0.3114
 2047SOL     OW 7581   0.258   2.698   6.185 -0.0814  0.3279  0.3922
 2047SOL    HW1 7582   0.191   2.710   6.252 -0.0225  0.1582  0.4844
 2047SOL    HW2 7583   0.219   2.730   6.104 -0.8009 -1.0528  0.1561
 2048SOL     OW 7584   2.285   3.240   3.170  0.3624  0.5278  0.0532
 2048SOL    HW1 7585   2.368   3.251   3.216  0.4199 -1.3510  0.4973
 2048SOL    HW2 7586   2.224   3.211   3.238 -0.6771  1.8783 -0.2710
 2049SOL     OW 7587   1.754   2.932   4.990 -0.1386 -0.5228  0.1795
 2049SOL    HW1 7588   1.806   3.011   5.004 -1.2958 -0.0395  2.0204
 2049SOL    HW2 7589   1.723   2.908   5.077 -0.7990 -2.3352 -0.5123
 2050SOL     OW 7590   1.853   2.995   2.392 -0.0863 -0.4966 -0.5412
 2050SOL    HW1 7591   1.852   3.081   2.350  0.0992 -0.6585 -0.8699
 2050SOL    HW2 7592   1.847   3.015   2.486  0.3643 -0.1134 -0.5939
 2051SOL     OW 7593   0.197   3.140   4.492 -0.0213  0.5300  0.1263
 2051SOL    HW1 7594   0.227   3.145   4.583 -0.7320  0.0792  0.3965
 2051SOL    HW2 7595   0.126   3.204   4.487  0.3392  0.9065 -0.2496
 2052SOL     OW 7596   2.516   4.353   5.133  0.5734 -0.3435 -0.4284
 2052SOL    HW1 7597   2.569   4.352   5.054  1.3968  3.5874 -0.1468
 2052SOL    HW2 7598   2.544   4.432   5.180 -1.5876 -1.1652  2.5926
 2053SOL     OW 7599   7.585   2.891   4.608  0.3220 -0.2595 -0.3176
 2053SOL    HW1 7600   7.517   2.914   4.672 -0.3625  1.1203 -1.4674
 2053SOL    HW2 7601   7.536   2.876   4.527  1.2519 -1.0624 -0.7440
 2054SOL     OW 7602   0.782   2.643   5.579  0.3257 -0.0623 -0.1990
 2054SOL    HW1 7603   0.757   2.700   5.651 -2.8977  1.2619 -2.1557
 2054SOL    HW2 7604   0.753   2.556   5.605  0.7416  0.0780  0.7662
 2055SOL     OW 7605   1.349   1.127   4.344 -0.0955 -0.6982 -0.6160
 2055SOL    HW1 7606   1.362   1.078   4.426 -1.3185 -0.0806 -0.0270
 2055SOL    HW2 7607   1.386   1.070   4.276  0.8077 -1.2945  0.3378
 2056SOL     OW 7608   0.067   3.310   2.024  0.1605 -0.6558 -0.4263
 2056SOL    HW1 7609   0.060   3.237   2.085 -1.0794 -0.4291 -0.2815
 2056SOL    HW2 7610   0.047   3.271   1.938 -1.2106 -0.3740 -0.2577
 2057SOL     OW 7611   0.836   1.329   5.174 -0.0687 -1.1270 -0.1795
 2057SOL    HW1 7612   0.876   1.285   5.099  0.6492 -2.6277  1.0210
 2057SOL    HW2 7613   0.904   1.389   5.204 -0.3184 -0.5999 -0.6508
 2058SOL     OW 7614   1.475   2.379   4.552  0.4291 -0.0574  0.3020
 2058SOL    HW1 7615   1.549   2.363   4.611  0.4366  2.0543  0.9501
 2058SOL    HW2 7616   1.499   2.335   4.471  1.5625 -0.9477  1.0850
 2059SOL     OW 7617   1.480   3.527   3.770  0.3630  0.3912 -0.6082
 2059SOL    HW1 7618   1.388   3.552   3.764  0.1354 -0.5395 -1.0818
 2059SOL    HW2 7619   1.483   3.436   3.742  0.9477 -0.6966  2.5618
 2060SOL     OW 7620   2.234   1.936   6.038  0.3207  0.2279 -0.3096
 2060SOL    HW1 7621   2.312   1.918   5.986 -0.5947  1.5198 -2.2577
 2060SOL    HW2 7622   2.161   1.901   5.986 -0.6127  1.3356  0.1960
 2061SOL     OW 7623   2.244   3.170   5.569 -0.2071 -0.3769  0.4426
 2061SOL    HW1 7624   2.288   3.118   5.636  0.9834  1.4277  1.1419
 2061SOL    HW2 7625   2.278   3.258   5.581 -0.8077  0.2303 -1.8441
 2062SOL     OW 7626   7.986   1.481   7.372  0.2684 -0.2011  0.3979
 2062SOL    HW1 7627   7.936   1.502   7.451 -1.4898 -2.9552  0.1704
 2062SOL    HW2 7628   7.920   1.478   7.302  1.0961 -1.6029 -0.3746
 2063SOL     OW 7629   2.051   1.001   4.972  0.2488 -0.7462  0.4065
 2063SOL    HW1 7630   2.059   0.990   5.066 -0.7755 -0.5904  0.5216
 2063SOL    HW2 7631   2.058   1.095   4.958 -0.6447 -0.6596  0.4535
 2064SOL     OW 7632   0.814   2.674   6.051 -0.2405 -0.1213 -0.0309
 2064SOL    HW1 7633   0.729   2.701   6.014 -0.3745 -0.7490 -0.1843
 2064SOL    HW2 7634   0.877   2.690   5.980  0.1084  2.1958  0.7097
 2065SOL     OW 7635   2.563   1.879   3.922 -0.3920 -0.1271 -0.0503
 2065SOL    HW1 7636   2.513   1.872   4.003  2.2579  1.3024  1.8525
 2065SOL    HW2 7637   2.554   1.970   3.896  1.8889  0.4480  0.9114
 2066SOL     OW 7638   0.336   2.307   4.765  0.0817  0.2479 -0.2923
 2066SOL    HW1 7639   0.256   2.304   4.713 -1.6211 -0.4280  2.1515
 2066SOL    HW2 7640   0.336   2.393   4.806 -0.3197 -0.3190  0.9695
 2067SOL     OW 7641   1.052   2.139   3.251 -0.1413 -0.2485 -0.1456
 2067SOL    HW1 7642   1.046   2.233   3.269 -0.7924 -0.1908 -0.6092
 2067SOL    HW2 7643   0.962   2.113   3.232  0.1550 -0.8090 -0.8158
 2068SOL     OW 7644   3.694   2.586   4.827  0.1688 -0.0983  0.3721
 2068SOL    HW1 7645   3.644   2.643   4.885  0.2680  0.1988  0.1655
 2068SOL    HW2 7646   3.775   2.633   4.809 -0.2152  0.1941 -0.6782
 2069SOL     OW 7647   2.624   3.061   5.020  0.1373 -0.2926  0.0964
 2069SOL    HW1 7648   2.670   3.137   5.056  0.4148  0.0013 -0.8668
 2069SOL    HW2 7649   2.678   3.032   4.947 -1.1221 -0.0091 -1.0006
 2070SOL     OW 7650   1.138   3.656   2.631  0.2625  0.4755 -0.1003
 2070SOL    HW1 7651   1.146   3.614   2.716 -2.5485  0.4515  0.2477
 2070SOL    HW2 7652   1.134   3.750   2.651 -2.9722  0.3864  0.1883
 2071SOL     OW 7653   0.041   2.166   5.217  0.5252 -0.0004  0.3425
 2071SOL    HW1 7654   0.064   2.177   5.310  1.4474  0.9790  0.0288
 2071SOL    HW2 7655   0.050   2.254   5.180 -3.1520  0.3934 -0.0084
 2072SOL     OW 7656   0.702   2.457   4.858 -0.0720  0.1493 -0.0764
 2072SOL    HW1 7657   0.710   2.372   4.902  0.0522  0.9898  1.6377
 2072SOL    HW2 7658   0.770   2.456   4.791 -0.5992 -1.3915 -0.6367
 2073SOL     OW 7659   2.920   0.640   2.291 -0.3525 -0.2703  0.2585
 2073SOL    HW1 7660   2.926   0.730   2.324  0.5416 -0.1161 -0.2925
 2073SOL    HW2 7661   2.881   0.649   2.204 -0.8868 -0.4908  0.4692
 2074SOL     OW 7662   1.725   2.813   3.268 -0.2227  0.3694 -1.3730
 2074SOL    HW1 7663   1.795   2.803   3.204 -0.2467 -0.9314 -1.2348
 2074SOL    HW2 7664   1.764   2.862   3.339  0.1641  0.7684 -1.8536
 2075SOL     OW 7665   7.139   3.840   5.505 -0.1630 -0.7138 -0.5366
 2075SOL    HW1 7666   7.109   3.750   5.499 -2.3729 -0.2127  1.5782
 2075SOL    HW2 7667   7.180   3.846   5.591  1.1333  0.0311 -1.1699
 2076SOL     OW 7668   7.323   4.936   6.345  0.0772 -0.1311 -0.0575
 2076SOL    HW1 7669   7.331   4.923   6.439  0.6927 -0.5735 -0.1626
 2076SOL    HW2 7670   7.299   4.850   6.310 -2.1757  0.4442 -0.1178
 2077SOL     OW 7671   1.415   3.880   4.638 -0.1898  0.9469 -0.1681
 2077SOL    HW1 7672   1.335   3.900   4.687 -0.0969  1.1254 -0.0883
 2077SOL    HW2 7673   1.486   3.908   4.696 -0.0671  0.7520 -0.2213
 2078SOL     OW 7674   3.335   2.953   3.872  0.3053  0.1634 -0.4323
 2078SOL    HW1 7675   3.417   2.960   3.920  0.3243  1.1932 -0.6060
 2078SOL    HW2 7676   3.267   2.965   3.939  0.3264  1.0415 -0.5540
 2079SOL     OW 7677   1.537   2.556   3.971  0.8127  0.3295 -0.4542
 2079SOL    HW1 7678   1.496   2.476   3.941  0.5201 -0.1355  1.0787
 2079SOL    HW2 7679   1.622   2.528   4.006  0.6905  0.6583  0.1290
 2080SOL     OW 7680   2.224   2.509   3.408 -0.9011 -0.0851  0.7074
 2080SOL    HW1 7681   2.297   2.453   3.382  0.1118  1.8920 -0.9945
 2080SOL    HW2 7682   2.260   2.565   3.477 -0.7685  0.8568 -0.0968
 2081SOL     OW 7683   1.349   2.596   5.704 -0.1733 -0.0161  0.0927
 2081SOL    HW1 7684   1.284   2.665   5.694 -0.4972 -0.3999 -0.5541
 2081SOL    HW2 7685   1.298   2.516   5.711  0.2284 -0.4141 -1.2580
 2082SOL     OW 7686   1.013   3.242   5.528 -0.0943 -0.4386 -0.0663
 2082SOL    HW1 7687   0.921   3.263   5.544 -0.1461  1.4654 -2.2811
 2082SOL    HW2 7688   1.060   3.324   5.543  1.0518 -0.9992 -0.4079
 2083SOL     OW 7689   2.072   3.244   7.130  0.4517 -0.1888 -0.1646
 2083SOL    HW1 7690   2.040   3.287   7.050  0.0996  0.4766  0.3220
 2083SOL    HW2 7691   2.161   3.217   7.108  1.6753  3.0452  0.2641
 2084SOL     OW 7692   0.331   2.641   5.754  0.0517  0.3324 -0.6603
 2084SOL    HW1 7693   0.247   2.594   5.756 -0.0228  0.4752  0.0376
 2084SOL    HW2 7694   0.367   2.624   5.667  0.4906 -1.8330 -0.1060
 2085SOL     OW 7695   1.924   3.150   3.605 -0.4699  0.5641 -0.2716
 2085SOL    HW1 7696   1.911   3.242   3.627 -1.4004  0.1122  1.2263
 2085SOL    HW2 7697   1.994   3.121   3.664 -2.8033 -0.5914  2.1892
 2086SOL     OW 7698   0.984   3.633   5.210  0.4687  0.4413 -0.2039
 2086SOL    HW1 7699   0.988   3.595   5.297  0.6180  0.8797 -0.0177
 2086SOL    HW2 7700   1.073   3.661   5.191  0.5681 -0.2142 -0.7578
 2087SOL     OW 7701   3.000   0.762   4.515  0.1795 -0.1306  0.3552
 2087SOL    HW1 7702   3.004   0.668   4.498 -0.5407  0.1097 -1.3581
 2087SOL    HW2 7703   2.906   0.782   4.518  0.3250  0.5796  0.3674
 2088SOL     OW 7704   1.808   3.575   2.988  0.2183  0.0797 -0.1053
 2088SOL    HW1 7705   1.719   3.610   2.988  0.9537  2.2134  1.7200
 2088SOL    HW2 7706   1.819   3.538   2.901 -2.7169 -1.0732 -0.1218
 2089SOL     OW 7707   1.967   7.328   4.432 -0.6370  0.2012  0.2932
 2089SOL    HW1 7708   1.978   7.246   4.384  0.1908  0.3922  0.1290
 2089SOL    HW2 7709   1.963   7.395   4.363 -2.9850  0.1721  0.3317
 2090SOL     OW 7710   1.367   2.472   3.407  0.2415  0.1530  0.5881
 2090SOL    HW1 7711   1.368   2.398   3.468 -1.8675 -0.2629  0.1966
 2090SOL    HW2 7712   1.320   2.541   3.453 -0.9742 -0.0116 -0.3405
 2091SOL     OW 7713   0.785   2.837   2.758  0.0993  0.7341  0.0658
 2091SOL    HW1 7714   0.779   2.867   2.849 -0.6820  1.7914 -0.3135
 2091SOL    HW2 7715   0.761   2.744   2.762  1.1826  0.4633  1.0727
 2092SOL     OW 7716   0.969   1.260   8.573  0.2681  0.2961 -0.1693
 2092SOL    HW1 7717   0.882   1.234   8.544  0.4096 -0.6041  0.1809
 2092SOL    HW2 7718   1.013   1.290   8.493  0.3421 -1.2616 -0.7447
 2093SOL     OW 7719   6.726   2.523   8.965 -0.4139 -0.0102  0.2153
 2093SOL    HW1 7720   6.805   2.520   8.911 -2.2723  0.6398 -2.8033
 2093SOL    HW2 7721   6.747   2.586   9.034  1.8339 -0.2001 -0.2137
 2094SOL     OW 7722   6.298   3.183   7.455 -0.0351  0.0074 -0.2113
 2094SOL    HW1 7723   6.291   3.173   7.360  0.7610 -1.0636 -0.1734
 2094SOL    HW2 7724   6.260   3.102   7.490  1.6450 -0.6001  0.3016
 2095SOL     OW 7725   7.591   3.679   7.382  0.4807 -0.0937  0.2174
 2095SOL    HW1 7726   7.538   3.741   7.330  1.7126  0.2671 -0.6601
 2095SOL    HW2 7727   7.642   3.735   7.440 -0.7734 -0.4919  1.7713
 2096SOL     OW 7728   2.639   5.416   7.235 -0.0858  0.2066  0.0340
 2096SOL    HW1 7729   2.606   5.368   7.159  0.3147  0.3112 -0.2059
 2096SOL    HW2 7730   2.561   5.431   7.289 -0.0386 -1.8489  0.7648
 2097SOL     OW 7731   2.452   6.436   7.913 -0.6673  0.6864 -0.0332
 2097SOL    HW1 7732   2.502   6.401   7.839 -1.0841 -0.8987  0.4091
 2097SOL    HW2 7733   2.418   6.520   7.880 -2.3358 -0.7678 -2.3172
 2098SOL     OW 7734   2.407   3.256   5.904 -0.2836  0.0750  0.3117
 2098SOL    HW1 7735   2.321   3.256   5.863 -0.1610  1.7390 -0.0313
 2098SOL    HW2 7736   2.446   3.339   5.877  1.9527 -1.1916 -0.6112
 2099SOL     OW 7737   1.074   3.605   6.437 -0.8769  0.3445  0.1147
 2099SOL    HW1 7738   1.129   3.684   6.441  0.7999 -0.6772 -1.1021
 2099SOL    HW2 7739   1.058   3.592   6.343 -0.2434 -1.2777  0.1863
 2100SOL     OW 7740   3.278   1.943   8.132  0.0699 -0.1553  0.3070
 2100SOL    HW1 7741   3.350   1.952   8.070 -0.2044  0.7785  0.1148
 2100SOL    HW2 7742   3.202   1.980   8.087 -0.3002 -0.1510  0.9153
 2101SOL     OW 7743   7.860   2.581   5.995 -0.0257 -0.1112  0.0492
 2101SOL    HW1 7744   7.858   2.669   6.033 -0.6676  0.3640 -1.0335
 2101SOL    HW2 7745   7.787   2.579   5.933 -0.2890 -1.5610  0.3615
 2102SOL     OW 7746   1.036   3.230   7.028  0.0457  0.2689  0.0147
 2102SOL    HW1 7747   1.077   3.311   6.996  0.7787  1.0454  2.7021
 2102SOL    HW2 7748   0.946   3.236   6.998  0.6175  1.0008 -1.6936
 2103SOL     OW 7749   7.522   1.400   6.814  0.0745 -0.1513 -0.1892
 2103SOL    HW1 7750   7.433   1.421   6.844 -0.5827 -1.1232 -1.3918
 2103SOL    HW2 7751   7.513   1.390   6.719  1.7571  1.1108 -0.5195
 2104SOL     OW 7752   1.195   2.930   6.717  0.0817  0.3189  0.1950
 2104SOL    HW1 7753   1.134   2.928   6.790  0.2897  0.9639  0.3971
 2104SOL    HW2 7754   1.255   2.857   6.734 -0.9158 -0.6387 -0.2784
 2105SOL     OW 7755   6.479   0.636   6.232  0.5585 -0.2932 -0.1405
 2105SOL    HW1 7756   6.478   0.631   6.137 -0.4979 -0.8400 -0.1211
 2105SOL    HW2 7757   6.412   0.573   6.260 -0.8764  1.5553  0.8518
 2106SOL     OW 7758   1.244   2.142   8.291  0.1699 -0.1751 -0.4777
 2106SOL    HW1 7759   1.276   2.218   8.339  1.0625 -0.7546 -0.1255
 2106SOL    HW2 7760   1.323   2.091   8.271 -0.4474 -1.3118 -0.1629
 2107SOL     OW 7761   5.581   3.493   6.746  0.5216  0.5039 -0.5031
 2107SOL    HW1 7762   5.597   3.579   6.707 -0.1821  0.3781 -1.0799
 2107SOL    HW2 7763   5.487   3.490   6.760  0.8363  1.0027  2.3062
 2108SOL     OW 7764   1.175   2.097   5.833  0.3987 -0.2195 -0.2139
 2108SOL    HW1 7765   1.096   2.061   5.873 -0.2892  1.0231 -0.3996
 2108SOL    HW2 7766   1.233   2.114   5.907 -0.0767  0.1829  0.0784
 2109SOL     OW 7767   7.819   2.702   4.573  0.4063  0.1115  0.2283
 2109SOL    HW1 7768   7.779   2.778   4.529  0.0362 -0.1954  0.0310
 2109SOL    HW2 7769   7.761   2.629   4.552  0.4922 -0.1343  0.8334
 2110SOL     OW 7770   6.078   2.092   6.351  0.8632 -0.1246  0.2661
 2110SOL    HW1 7771   6.074   2.169   6.407  1.0814  1.2420 -1.5081
 2110SOL    HW2 7772   6.166   2.095   6.313  0.3053 -0.2652 -1.1082
 2111SOL     OW 7773   7.198   5.902   8.090 -0.3392 -0.1932 -0.0795
 2111SOL    HW1 7774   7.156   5.840   8.031 -1.9505 -1.6727  2.4283
 2111SOL    HW2 7775   7.154   5.985   8.072 -1.1356 -0.7193 -0.6423
 2112SOL     OW 7776   1.959   1.445   5.083  0.1506  0.2877 -0.6107
 2112SOL    HW1 7777   1.908   1.427   5.004  1.6315 -0.1362 -1.5039
 2112SOL    HW2 7778   2.040   1.395   5.071  0.2023 -0.1953  1.4210
 2113SOL     OW 7779   2.627   0.639   7.525 -0.4828  0.3148  0.1775
 2113SOL    HW1 7780   2.550   0.680   7.486 -0.5359 -0.1133 -0.1675
 2113SOL    HW2 7781   2.624   0.665   7.617 -0.5309  1.0670 -0.0268
 2114SOL     OW 7782   7.981   1.954   7.352  0.2831  0.1542  0.3265
 2114SOL    HW1 7783   8.076   1.962   7.359  0.2449  0.3212  0.6850
 2114SOL    HW2 7784   7.968   1.876   7.298  0.6525  1.7522 -2.2081
 2115SOL     OW 7785   1.538   3.441   6.257 -0.3714  0.6270  0.1684
 2115SOL    HW1 7786   1.454   3.472   6.223 -1.0046 -1.4505 -0.2817
 2115SOL    HW2 7787   1.515   3.388   6.333  0.2978 -1.5995 -1.0991
 2116SOL     OW 7788   6.705   2.926   5.770 -0.1951 -0.0678 -0.1664
 2116SOL    HW1 7789   6.694   2.988   5.843  2.7263 -0.6346  0.8980
 2116SOL    HW2 7790   6.653   2.850   5.795 -1.6180  0.8586 -0.1683
 2117SOL     OW 7791   0.662   2.566   6.880 -0.8934  0.3110  0.1832
 2117SOL    HW1 7792   0.734   2.593   6.938 -0.9351  1.0425 -0.0965
 2117SOL    HW2 7793   0.644   2.475   6.905  1.4872 -0.6087 -1.0758
 2118SOL     OW 7794   2.617   3.567   6.353  0.4721 -0.2206 -0.2125
 2118SOL    HW1 7795   2.578   3.587   6.438  3.0137 -1.3420  1.3574
 2118SOL    HW2 7796   2.591   3.476   6.335  1.0433 -0.4508  0.0845
 2119SOL     OW 7797   0.261   2.207   8.392  0.1424 -0.4941  0.3497
 2119SOL    HW1 7798   0.293   2.266   8.325 -1.1629  3.0157  2.5208
 2119SOL    HW2 7799   0.336   2.153   8.415  0.8695 -1.1468 -3.1099
 2120SOL     OW 7800   0.488   2.250   5.589  0.5801  0.1205 -0.2749
 2120SOL    HW1 7801   0.495   2.187   5.517 -0.3738 -0.0769 -0.2034
 2120SOL    HW2 7802   0.394   2.256   5.608  0.7736  0.5284  0.6391
 2121SOL     OW 7803   7.772   2.531   6.825  0.3937 -0.1268  0.0586
 2121SOL    HW1 7804   7.793   2.625   6.825 -1.1747  0.2537  0.6981
 2121SOL    HW2 7805   7.773   2.506   6.917  1.7813 -1.0016 -0.1663
 2122SOL     OW 7806   1.503   2.344   7.247  0.1988 -0.0870  0.0200
 2122SOL    HW1 7807   1.487   2.250   7.249  0.2412 -0.0918  2.0715
 2122SOL    HW2 7808   1.539   2.360   7.159 -0.0757 -1.9126 -0.4745
 2123SOL     OW 7809   0.475   2.366   5.007  0.4291 -0.2603 -0.8899
 2123SOL    HW1 7810   0.542   2.415   4.961 -0.1370  0.5586 -0.8695
 2123SOL    HW2 7811   0.443   2.302   4.943  1.0224 -0.4640 -0.9869
 2124SOL     OW 7812   0.759   2.929   6.807 -0.4533  0.1341 -0.5995
 2124SOL    HW1 7813   0.667   2.952   6.794 -0.8503 -0.6360  0.6899
 2124SOL    HW2 7814   0.789   2.899   6.721 -1.4792  0.1081 -0.9633
 2125SOL     OW 7815   2.220   3.119   7.402 -0.0364 -0.9549  0.8067
 2125SOL    HW1 7816   2.310   3.153   7.411 -0.0707 -0.7111  0.2507
 2125SOL    HW2 7817   2.165   3.196   7.409 -0.2519 -1.1830  1.8037
 2126SOL     OW 7818   0.809   0.850   8.432 -0.6712 -0.5081  0.1208
 2126SOL    HW1 7819   0.786   0.791   8.504 -0.9651  0.8038  1.1384
 2126SOL    HW2 7820   0.725   0.872   8.392 -0.6103 -0.3675  0.0729
 2127SOL     OW 7821   1.890   2.017   7.130 -0.0112  0.2779  0.1872
 2127SOL    HW1 7822   1.935   1.934   7.144 -1.6639 -0.4097  1.6940
 2127SOL    HW2 7823   1.849   2.037   7.214  1.4127  3.3381  0.3116
 2128SOL     OW 7824   0.816   4.331   7.066 -0.1211 -0.1983  0.1563
 2128SOL    HW1 7825   0.822   4.416   7.022 -1.0412  0.3284  1.0010
 2128SOL    HW2 7826   0.776   4.274   7.001 -1.2250  0.5026  0.1909
 2129SOL     OW 7827   7.728   3.204   6.914 -0.1534 -0.1827 -0.1215
 2129SOL    HW1 7828   7.823   3.214   6.914  0.0888 -2.1215 -0.5926
 2129SOL    HW2 7829   7.697   3.272   6.854  1.0839 -0.5023 -1.1614
 2130SOL     OW 7830   2.414   1.499   6.869  0.6636  0.0113 -0.8504
 2130SOL    HW1 7831   2.482   1.515   6.935 -1.4089 -1.2737  1.8205
 2130SOL    HW2 7832   2.436   1.413   6.832  0.6233 -0.3247 -0.1158
 2131SOL     OW 7833   2.286   3.974   7.060  0.4743 -0.2607 -0.5154
 2131SOL    HW1 7834   2.264   3.884   7.034  0.6740 -0.9232  1.4252
 2131SOL    HW2 7835   2.341   3.963   7.138  0.1328  1.5601  0.0242
 2132SOL     OW 7836   7.287   2.328   6.971 -0.3290 -0.3783  0.0802
 2132SOL    HW1 7837   7.277   2.240   7.005  3.5554 -0.1329  2.5189
 2132SOL    HW2 7838   7.324   2.317   6.884  0.3293 -1.1798  0.4559
 2133SOL     OW 7839   0.896   1.663   8.281  0.3013  0.0446 -0.2627
 2133SOL    HW1 7840   0.837   1.731   8.250 -0.1942  0.0910  0.7491
 2133SOL    HW2 7841   0.979   1.708   8.296  0.0428  0.3904  0.1738
 2134SOL     OW 7842   7.350   1.378   7.307 -1.1216 -0.1763  0.3188
 2134SOL    HW1 7843   7.332   1.303   7.363  1.7385 -0.8765  0.4818
 2134SOL    HW2 7844   7.372   1.340   7.222  1.6408  0.2357  0.7362
 2135SOL     OW 7845   2.037   2.101   7.772 -0.1824  0.2361 -0.3362
 2135SOL    HW1 7846   2.028   2.084   7.865 -1.8618  0.0813 -0.4903
 2135SOL    HW2 7847   2.131   2.113   7.758  0.1356 -0.1954  1.2808
 2136SOL     OW 7848   0.461   1.451   6.733 -0.4030  0.7212  0.3038
 2136SOL    HW1 7849   0.474   1.536   6.691  0.6644  0.2056 -0.4477
 2136SOL    HW2 7850   0.549   1.417   6.746 -0.7504  0.3129  1.8687
 2137SOL     OW 7851   0.326   1.190   6.188  0.2022  0.4895 -0.2719
 2137SOL    HW1 7852   0.280   1.106   6.186 -0.1099  0.6675 -0.6632
 2137SOL    HW2 7853   0.408   1.171   6.233 -0.9555  0.5126  1.9799
 2138SOL     OW 7854   7.964   2.087   7.725  0.4088  0.3289 -0.1010
 2138SOL    HW1 7855   8.006   2.008   7.692 -1.4989 -0.7560 -0.0393
 2138SOL    HW2 7856   8.010   2.159   7.681  1.3924 -0.8409 -1.0550
 2139SOL     OW 7857   0.801   1.113   4.747 -0.1394  0.0690 -0.3549
 2139SOL    HW1 7858   0.804   1.039   4.808 -0.0663  0.6903  0.4049
 2139SOL    HW2 7859   0.709   1.120   4.723 -0.3949  0.6320  0.7157
 2140SOL     OW 7860   0.744   0.957   7.022  0.3974  0.0330  0.2056
 2140SOL    HW1 7861   0.769   1.025   6.959  0.6243 -1.4586 -1.3906
 2140SOL    HW2 7862   0.652   0.940   7.005  1.2463 -2.9619 -2.4834
 2141SOL     OW 7863   1.351   4.123   5.389  0.0775 -0.0926  0.7809
 2141SOL    HW1 7864   1.304   4.137   5.307  2.3775 -0.5271 -0.7119
 2141SOL    HW2 7865   1.336   4.203   5.439  0.3436  1.1053 -0.9737
 2142SOL     OW 7866   7.796   2.608   7.700  0.1230  0.5331  0.3069
 2142SOL    HW1 7867   7.821   2.554   7.775  0.4552 -0.7611 -0.7011
 2142SOL    HW2 7868   7.702   2.597   7.693  0.3516 -1.1165 -0.7378
 2143SOL     OW 7869   1.875   2.185   7.572  0.7694 -0.3415  0.4974
 2143SOL    HW1 7870   1.815   2.253   7.603  0.8777 -0.7313  1.5930
 2143SOL    HW2 7871   1.931   2.166   7.647  1.7656 -0.5387 -0.2680
 2144SOL     OW 7872   7.998   3.195   6.884  0.1432 -0.6264 -0.3520
 2144SOL    HW1 7873   8.028   3.220   6.796 -0.0587  0.6256 -0.0711
 2144SOL    HW2 7874   8.077   3.160   6.926  0.4055 -0.5860 -0.7961
 2145SOL     OW 7875   2.271   3.351   6.395  0.2229 -0.1980  0.0513
 2145SOL    HW1 7876   2.220   3.405   6.456 -0.3707 -1.6624  0.9121
 2145SOL    HW2 7877   2.234   3.370   6.309 -1.2605 -0.6223  0.5668
 2146SOL     OW 7878   2.369   4.351   6.786 -0.2190 -0.4931  0.4974
 2146SOL    HW1 7879   2.355   4.381   6.697 -2.0688  1.0190  1.2184
 2146SOL    HW2 7880   2.464   4.352   6.798 -0.0063  0.5371 -1.0231
 2147SOL     OW 7881   7.753   3.080   5.458 -0.0544  0.0876 -0.6845
 2147SOL    HW1 7882   7.834   3.128   5.440 -0.6634  0.7209 -1.9211
 2147SOL    HW2 7883   7.781   2.992   5.482  1.0248  0.5558 -0.1723
 2148SOL     OW 7884   1.192   5.100   7.843 -0.0980  0.2595 -0.0056
 2148SOL    HW1 7885   1.140   5.083   7.764  2.0366  1.3288 -1.7405
 2148SOL    HW2 7886   1.195   5.195   7.850  0.7772  0.1957  0.6356
 2149SOL     OW 7887   7.338   2.941   8.233 -0.3671 -0.3451  0.0994
 2149SOL    HW1 7888   7.246   2.941   8.259 -0.3653 -1.3680  0.1624
 2149SOL    HW2 7889   7.383   2.985   8.304 -0.7957  0.0540  0.1273
 2150SOL     OW 7890   1.929   2.820   6.351 -0.1878 -0.1763 -0.4736
 2150SOL    HW1 7891   2.001   2.766   6.384  0.0474  0.2028 -0.3541
 2150SOL    HW2 7892   1.959   2.910   6.365 -0.2394 -0.0098 -1.3751
 2151SOL     OW 7893   6.645   2.357   4.764  0.6266 -0.2510 -0.0571
 2151SOL    HW1 7894   6.593   2.304   4.825  1.7568  0.4191  1.5715
 2151SOL    HW2 7895   6.733   2.359   4.803  1.6922 -0.6757 -2.2913
 2152SOL     OW 7896   1.465   2.073   7.236  0.1007 -0.2082 -0.3008
 2152SOL    HW1 7897   1.461   1.988   7.192 -0.6315  0.3017 -1.2511
 2152SOL    HW2 7898   1.558   2.084   7.257  0.1754 -1.3382  0.0401
 2153SOL     OW 7899   1.660   4.480   2.440 -0.3379 -0.8432  0.5471
 2153SOL    HW1 7900   1.564   4.484   2.435 -0.3027 -0.8099 -0.4362
 2153SOL    HW2 7901   1.684   4.557   2.491 -0.8207 -0.6115  0.4339
 2154SOL     OW 7902   2.437   1.505   4.124  0.0075 -0.4997  0.2165
 2154SOL    HW1 7903   2.396   1.590   4.138 -2.0543 -1.3322 -0.3330
 2154SOL    HW2 7904   2.444   1.467   4.211  1.0297  0.2509  0.4744
 2155SOL     OW 7905   0.799   2.245   7.313  0.0633 -0.1137 -0.3385
 2155SOL    HW1 7906   0.831   2.335   7.302 -0.6337  0.1179 -0.5249
 2155SOL    HW2 7907   0.823   2.222   7.403 -3.7436  1.9390  1.4339
 2156SOL     OW 7908   0.455   2.618   7.306  0.2164 -0.3441 -0.7712
 2156SOL    HW1 7909   0.468   2.656   7.220 -2.1037 -0.3819 -1.1906
 2156SOL    HW2 7910   0.424   2.529   7.289  0.3312 -0.5671  0.1056
 2157SOL     OW 7911   1.361   3.140   8.367  0.5218 -0.3139  0.6166
 2157SOL    HW1 7912   1.393   3.224   8.332  1.5054 -0.2876  1.5178
 2157SOL    HW2 7913   1.417   3.124   8.444  0.8241 -2.1455  0.0464
 2158SOL     OW 7914   1.012   1.974   7.646 -0.1818  0.1478 -0.0113
 2158SOL    HW1 7915   1.020   1.966   7.551 -1.0670 -0.0803 -0.0783
 2158SOL    HW2 7916   0.927   1.935   7.666 -0.1498  0.4915  0.8384
 2159SOL     OW 7917   0.217   2.097   6.420 -0.1736 -0.1969  0.6471
 2159SOL    HW1 7918   0.167   2.063   6.346 -0.6394 -1.7621  1.6313
 2159SOL    HW2 7919   0.174   2.180   6.441 -1.0863 -0.5319  0.1823
 2160SOL     OW 7920   1.291   2.900   7.656 -0.1283 -0.0584 -0.3259
 2160SOL    HW1 7921   1.241   2.969   7.700 -0.6798 -1.0530  0.6523
 2160SOL    HW2 7922   1.225   2.835   7.630  0.5450 -1.0102  0.2642
 2161SOL     OW 7923   7.689   2.190   6.949  0.7656  0.0553 -0.1394
 2161SOL    HW1 7924   7.690   2.203   6.854  2.1171  0.3698 -0.1120
 2161SOL    HW2 7925   7.679   2.279   6.985  1.4835  0.0862  0.0045
 2162SOL     OW 7926   1.707   2.143   8.848 -0.2760  0.6011  0.4230
 2162SOL    HW1 7927   1.635   2.105   8.899 -1.3309  0.6052 -0.9864
 2162SOL    HW2 7928   1.680   2.234   8.833  1.3042  1.3986  2.1014
 2163SOL     OW 7929   0.554   2.933   7.256 -0.2293 -0.2716  0.3577
 2163SOL    HW1 7930   0.509   3.016   7.271  1.4934  0.7310  0.2138
 2163SOL    HW2 7931   0.545   2.917   7.162  0.1578  0.2228  0.2279
 2164SOL     OW 7932   2.665   2.464   5.089  0.0747  0.0178 -0.8910
 2164SOL    HW1 7933   2.633   2.459   4.999 -1.1544  3.2209 -0.7565
 2164SOL    HW2 7934   2.596   2.510   5.137 -0.1475 -3.0694  2.2080
 2165SOL     OW 7935   1.110   3.883   6.649 -0.0110 -0.3225  0.5671
 2165SOL    HW1 7936   1.020   3.904   6.673  0.1295  1.1782 -0.1133
 2165SOL    HW2 7937   1.139   3.957   6.596  2.2343  0.1163  2.2632
 2166SOL     OW 7938   2.356   2.690   5.772 -0.3766 -0.0243  0.2997
 2166SOL    HW1 7939   2.359   2.683   5.867 -1.7964  0.6987  0.4289
 2166SOL    HW2 7940   2.267   2.661   5.749 -1.3767  3.1965 -0.4202
 2167SOL     OW 7941   0.140   2.214   4.259  0.5795  0.2277 -0.4610
 2167SOL    HW1 7942   0.192   2.290   4.287  1.8096 -1.1117  1.0687
 2167SOL    HW2 7943   0.121   2.167   4.339  0.4107 -1.4435 -1.4344
 2168SOL     OW 7944   0.681   3.687   6.259 -0.0346 -0.0327  0.7447
 2168SOL    HW1 7945   0.731   3.754   6.213 -1.5443  0.2737 -0.5304
 2168SOL    HW2 7946   0.708   3.605   6.219 -0.5515  0.1371  0.0220
 2169SOL     OW 7947   7.576   2.223   7.445  0.4501 -0.0515 -0.3078
 2169SOL    HW1 7948   7.640   2.157   7.420  1.0141  0.9168 -1.5641
 2169SOL    HW2 7949   7.505   2.214   7.382  0.3358  0.2757 -0.2300
 2170SOL     OW 7950   1.986   1.714   6.218 -0.1016  0.5752 -0.3791
 2170SOL    HW1 7951   1.916   1.779   6.223 -0.2230  0.4974 -0.9883
 2170SOL    HW2 7952   2.063   1.758   6.253  0.4525  1.9362 -3.0044
 2171SOL     OW 7953   7.569   1.760   5.809  0.0249  0.2373  0.1444
 2171SOL    HW1 7954   7.539   1.851   5.805  1.0735  0.5623 -1.4112
 2171SOL    HW2 7955   7.648   1.763   5.862  0.0667  0.2444  0.0821
 2172SOL     OW 7956   1.703   3.615   7.796  0.0400  0.1492  0.5394
 2172SOL    HW1 7957   1.780   3.611   7.739  0.6933  0.0538  1.4081
 2172SOL    HW2 7958   1.724   3.683   7.860 -1.0452  0.8671  0.1708
 2173SOL     OW 7959   0.987   2.697   5.859 -0.1763  0.2451 -0.2744
 2173SOL    HW1 7960   1.048   2.756   5.904 -2.5869  4.0199 -1.4287
 2173SOL    HW2 7961   1.018   2.695   5.768 -0.8155  0.8957 -0.5212
 2174SOL     OW 7962   7.050   2.961   8.034  0.2260 -0.1344  0.0267
 2174SOL    HW1 7963   7.059   2.875   7.992 -2.5656 -0.3360 -0.3294
 2174SOL    HW2 7964   7.053   2.942   8.128  0.9434 -0.4214 -0.0471
 2175SOL     OW 7965   6.761   1.091   5.920 -0.3177  0.0154  0.1270
 2175SOL    HW1 7966   6.824   1.047   5.862 -1.0890 -1.1064  0.0978
 2175SOL    HW2 7967   6.682   1.036   5.915 -1.9885  2.3685 -1.2794
 2176SOL     OW 7968   0.166   2.621   7.729 -0.0667 -0.8143 -0.3773
 2176SOL    HW1 7969   0.122   2.541   7.700  0.3816 -0.7536 -1.2408
 2176SOL    HW2 7970   0.116   2.692   7.690  0.5328 -0.7316 -1.0081
 2177SOL     OW 7971   7.513   0.127   4.889 -0.0777 -0.4361  0.4181
 2177SOL    HW1 7972   7.549   0.041   4.909  0.5761 -0.2564  0.0702
 2177SOL    HW2 7973   7.556   0.152   4.807  1.6978  1.2788  1.7608
 2178SOL     OW 7974   2.026   3.381   7.953 -0.3498  0.4221 -0.3031
 2178SOL    HW1 7975   1.938   3.346   7.941 -0.7924  1.5023 -0.3076
 2178SOL    HW2 7976   2.064   3.384   7.865  0.0490 -0.9058 -0.1974
 2179SOL     OW 7977   1.523   1.764   5.834 -0.2882 -0.2835  0.3044
 2179SOL    HW1 7978   1.493   1.831   5.895  1.1965  0.1023  0.6650
 2179SOL    HW2 7979   1.471   1.687   5.856 -0.4285  0.1117  1.4485
 2180SOL     OW 7980   2.481   3.778   6.206  0.3032  0.4308  0.2977
 2180SOL    HW1 7981   2.496   3.696   6.253 -0.6023 -0.5678 -1.1092
 2180SOL    HW2 7982   2.410   3.820   6.253  0.3528  0.1240  0.6539
 2181SOL     OW 7983   0.408   3.791   5.703  0.0134 -1.1459  0.2334
 2181SOL    HW1 7984   0.346   3.751   5.641  1.5688  0.1683 -2.3462
 2181SOL    HW2 7985   0.465   3.719   5.729  0.1612 -1.4890 -0.9710
 2182SOL     OW 7986   0.163   2.498   8.443 -0.4346 -0.0264 -0.8754
 2182SOL    HW1 7987   0.244   2.534   8.405 -0.0542 -0.9365 -0.9498
 2182SOL    HW2 7988   0.124   2.449   8.371  0.1277 -1.5037 -0.2062
 2183SOL     OW 7989   2.137   2.196   6.111 -0.4841 -0.0942 -0.2515
 2183SOL    HW1 7990   2.174   2.111   6.086  1.5016  0.8720 -0.8632
 2183SOL    HW2 7991   2.152   2.201   6.206  1.2428  0.3388 -0.5043
 2184SOL     OW 7992   6.874   2.206   4.380  0.5984 -0.0724  0.5840
 2184SOL    HW1 7993   6.956   2.210   4.430  1.0488 -1.5000  0.0138
 2184SOL    HW2 7994   6.889   2.264   4.305  1.7261 -1.5467 -0.3690
 2185SOL     OW 7995   2.055   2.856   6.688  0.4317 -0.1697 -0.1393
 2185SOL    HW1 7996   1.980   2.894   6.733  0.0863 -0.0304 -0.8378
 2185SOL    HW2 7997   2.018   2.812   6.611  0.8604 -1.5524  0.4054
 2186SOL     OW 7998   0.001   3.000   8.723  0.2425  0.1021  0.1424
 2186SOL    HW1 7999   0.093   2.984   8.743  0.4715 -0.4046 -1.2379
 2186SOL    HW2 8000  -0.044   2.920   8.749  0.7539 -1.1809 -2.5977
 2187SOL     OW 8001   2.640   1.873   6.175 -0.2102  0.0453  0.3452
 2187SOL    HW1 8002   2.672   1.871   6.265 -1.3390  1.1328  0.8027
 2187SOL    HW2 8003   2.719   1.874   6.121  0.5213 -2.3222  1.2084
 2188SOL     OW 8004   7.462   0.966   6.469 -0.2834  0.0223 -0.0654
 2188SOL    HW1 8005   7.477   1.056   6.441 -0.1869  0.3732  1.0734
 2188SOL    HW2 8006   7.430   0.922   6.390  0.2753  0.8858 -0.8037
 2189SOL     OW 8007   0.561   1.550   5.759  0.3205 -0.5784 -0.2015
 2189SOL    HW1 8008   0.648   1.530   5.795  0.9318 -1.9179 -2.2153
 2189SOL    HW2 8009   0.520   1.464   5.747 -0.9208 -0.0117 -0.1589
 2190SOL     OW 8010   1.086   1.915   7.079 -0.1142 -0.3773  0.2039
 2190SOL    HW1 8011   1.063   1.860   7.004 -0.8645 -1.3981  1.1504
 2190SOL    HW2 8012   1.149   1.977   7.044 -1.2045 -0.1529 -1.5306
 2191SOL     OW 8013   0.893   2.983   5.933  0.1099 -0.0381  0.2493
 2191SOL    HW1 8014   0.938   3.009   5.853  1.3477 -0.8088  0.6730
 2191SOL    HW2 8015   0.962   2.980   6.000 -1.0103  1.3604  1.5563
 2192SOL     OW 8016   0.438   1.503   7.506  0.6963 -0.4541  0.0930
 2192SOL    HW1 8017   0.461   1.498   7.413  2.6738  1.9358  0.3516
 2192SOL    HW2 8018   0.505   1.450   7.550  0.3774 -0.7353  0.2455
 2193SOL     OW 8019   6.907   2.966   7.091  0.5164  0.0419 -0.2062
 2193SOL    HW1 8020   6.952   3.017   7.158  3.0388  0.2189 -1.8985
 2193SOL    HW2 8021   6.972   2.903   7.060 -1.4745 -2.0423 -0.4989
 2194SOL     OW 8022   1.831   4.134   6.132 -0.3302 -0.4687  0.4871
 2194SOL    HW1 8023   1.828   4.054   6.080  0.4971 -0.1105 -0.1242
 2194SOL    HW2 8024   1.855   4.104   6.220  0.9080 -0.7984  0.0497
 2195SOL     OW 8025   7.015   5.652   7.612 -0.9950  0.5774  0.0985
 2195SOL    HW1 8026   6.920   5.651   7.607 -1.0034  2.1982 -0.5814
 2195SOL    HW2 8027   7.041   5.729   7.561  0.7395 -0.4791 -0.7053
 2196SOL     OW 8028   6.934   2.165   7.265 -0.4411 -0.7292  0.1065
 2196SOL    HW1 8029   6.864   2.099   7.265 -0.7645 -0.3996  1.0248
 2196SOL    HW2 8030   7.015   2.114   7.264 -0.6453 -1.1294 -2.0475
 2197SOL     OW 8031   1.376   2.704   5.985  0.3959  0.4762 -0.2506
 2197SOL    HW1 8032   1.459   2.748   6.000  0.8837 -0.2984 -0.5928
 2197SOL    HW2 8033   1.334   2.754   5.914  1.0327  0.2768 -0.7778
 2198SOL     OW 8034   7.805   2.529   8.408  1.0269  0.0206 -0.2316
 2198SOL    HW1 8035   7.753   2.466   8.358  0.5413  2.0028 -2.4088
 2198SOL    HW2 8036   7.890   2.488   8.417  0.3173 -1.5309 -0.3185
 2199SOL     OW 8037   1.426   1.859   7.051  0.2450 -0.1853  0.1469
 2199SOL    HW1 8038   1.362   1.824   6.989  1.5417 -1.2935 -0.6323
 2199SOL    HW2 8039   1.474   1.782   7.081  1.8635  0.7021 -0.0636
 2200SOL     OW 8040   0.923   3.479   8.441  0.4849  0.0517  0.1375
 2200SOL    HW1 8041   0.880   3.519   8.365 -0.2705 -0.6835  0.1689
 2200SOL    HW2 8042   0.869   3.504   8.515 -1.3116 -2.7736 -0.0801
 2201SOL     OW 8043   1.227   1.726   9.899  0.5507  0.0020 -0.2495
 2201SOL    HW1 8044   1.254   1.765   9.816 -1.6947 -1.3286 -1.6877
 2201SOL    HW2 8045   1.195   1.801   9.951  0.3015  0.6421 -1.2974
 2202SOL     OW 8046   2.550   3.370   7.609  0.2154 -0.2975 -0.3022
 2202SOL    HW1 8047   2.618   3.416   7.560  0.3241 -0.5640 -0.4005
 2202SOL    HW2 8048   2.597   3.327   7.680  0.2046 -0.8164 -0.6069
 2203SOL     OW 8049   1.186   2.100   7.846 -0.0646  0.4525 -0.1768
 2203SOL    HW1 8050   1.210   2.179   7.796  0.1417 -0.0805 -0.9378
 2203SOL    HW2 8051   1.146   2.042   7.781  0.8775 -0.5526  0.1095
 2204SOL     OW 8052   7.722   2.081   8.474 -0.1553 -0.1386 -0.0683
 2204SOL    HW1 8053   7.693   2.091   8.565 -0.8290 -0.6053 -0.2239
 2204SOL    HW2 8054   7.642   2.087   8.423  0.1271 -0.6048 -0.5771
 2205SOL     OW 8055   7.050   1.892   6.751 -0.0473  0.0275  0.4423
 2205SOL    HW1 8056   7.095   1.916   6.832 -0.1659  1.5810  0.0702
 2205SOL    HW2 8057   7.098   1.815   6.720  1.9158  1.1647  0.4657
 2206SOL     OW 8058   1.585   1.416   4.264 -0.5195 -0.3325  0.7070
 2206SOL    HW1 8059   1.535   1.496   4.251  0.4449  0.1756 -0.0036
 2206SOL    HW2 8060   1.577   1.369   4.181  0.4836 -0.0533  0.4355
 2207SOL     OW 8061   0.610   4.241   6.163 -0.1416  0.2047  0.2390
 2207SOL    HW1 8062   0.664   4.267   6.238  1.0554 -1.8482  0.1496
 2207SOL    HW2 8063   0.636   4.300   6.092  0.6596  0.4128  0.6995
 2208SOL     OW 8064   0.134   1.967   4.716 -0.3184 -0.4098  0.2159
 2208SOL    HW1 8065   0.126   2.051   4.761  0.0689 -0.0708 -0.3528
 2208SOL    HW2 8066   0.089   1.905   4.775 -0.6575  0.1943  0.6080
 2209SOL     OW 8067   0.253   1.574   9.021 -0.0669  0.1305  0.4035
 2209SOL    HW1 8068   0.338   1.600   8.986 -0.0740 -1.2567 -0.7345
 2209SOL    HW2 8069   0.194   1.646   8.996  0.2699 -0.0647 -1.0350
 2210SOL     OW 8070   0.788   2.018   7.003 -0.1453 -0.1145  0.5003
 2210SOL    HW1 8071   0.817   2.036   7.092  1.0501 -1.9074  0.5348
 2210SOL    HW2 8072   0.866   2.027   6.950 -0.6276 -0.0806 -0.2203
 2211SOL     OW 8073   2.277   2.676   7.638 -0.2446  0.9721  0.1227
 2211SOL    HW1 8074   2.288   2.717   7.724  0.4062 -1.0548  1.0905
 2211SOL    HW2 8075   2.355   2.701   7.589  0.8050 -0.1267  1.1683
 2212SOL     OW 8076   0.882   1.633   7.304  0.1215 -0.2437  0.1118
 2212SOL    HW1 8077   0.950   1.573   7.333  2.2588  1.5038 -0.9324
 2212SOL    HW2 8078   0.830   1.651   7.382  0.7466 -1.7588  0.9102
 2213SOL     OW 8079   0.735   2.240   6.654  0.4295 -0.4457  0.0126
 2213SOL    HW1 8080   0.766   2.151   6.674  1.9894 -0.4204 -1.9192
 2213SOL    HW2 8081   0.640   2.235   6.665  0.7175 -1.4144  3.1324
 2214SOL     OW 8082   7.658   0.756   5.433 -0.0281 -0.4452  0.0120
 2214SOL    HW1 8083   7.617   0.745   5.519 -2.0378  1.2948 -0.6397
 2214SOL    HW2 8084   7.646   0.849   5.412  1.2887 -0.6106 -1.7553
 2215SOL     OW 8085   1.492   2.986   7.855 -0.0429 -0.2797  0.8287
 2215SOL    HW1 8086   1.421   3.050   7.850 -0.6342 -0.9551  0.4914
 2215SOL    HW2 8087   1.515   2.983   7.948 -1.2660 -0.9271  1.1279
 2216SOL     OW 8088   1.014   1.571   6.262 -0.3736 -0.1998 -0.4371
 2216SOL    HW1 8089   0.963   1.636   6.213  0.1829 -0.7886 -1.8455
 2216SOL    HW2 8090   1.104   1.588   6.237 -0.1174 -0.8175  0.0474
 2217SOL     OW 8091   7.988   3.055   9.404  0.0661  0.0641 -0.2424
 2217SOL    HW1 8092   7.972   3.064   9.310 -1.5330  0.2692  0.0207
 2217SOL    HW2 8093   8.081   3.076   9.415  0.9566 -2.3859 -2.0864
 2218SOL     OW 8094   2.655   4.447   5.600  0.0042  0.0969 -0.2736
 2218SOL    HW1 8095   2.595   4.441   5.675  0.5798  0.8336  0.2603
 2218SOL    HW2 8096   2.607   4.406   5.528 -0.7424 -0.2132  0.3838
 2219SOL     OW 8097   0.912   2.160   5.664  0.1468  0.7571  0.5943
 2219SOL    HW1 8098   0.941   2.212   5.588  1.3042  0.4488  0.8072
 2219SOL    HW2 8099   0.943   2.210   5.740 -1.5359  1.3773  0.9164
 2220SOL     OW 8100   1.881   3.061   7.211  0.4860  0.5181  0.2696
 2220SOL    HW1 8101   1.856   3.103   7.128  1.3220  0.7697  0.1405
 2220SOL    HW2 8102   1.966   3.098   7.231  0.7908 -0.3946  0.6689
 2221SOL     OW 8103   0.071   2.503   5.760 -0.4950  0.4291  0.1959
 2221SOL    HW1 8104   0.033   2.523   5.846  0.0389 -0.2264  0.5978
 2221SOL    HW2 8105   0.005   2.531   5.697 -0.3168  2.2712  0.7557
 2222SOL     OW 8106   6.523   2.365   7.795  0.3285 -0.4529  0.3697
 2222SOL    HW1 8107   6.460   2.427   7.831  0.2852 -1.0243  1.3390
 2222SOL    HW2 8108   6.476   2.282   7.793  0.6170 -0.6045 -0.2061
 2223SOL     OW 8109   1.389   1.902   7.959  0.2489  0.0484 -0.2118
 2223SOL    HW1 8110   1.394   1.976   7.899  1.1513  0.8918  0.8669
 2223SOL    HW2 8111   1.476   1.863   7.957  0.2469  0.0000  0.4327
 2224SOL     OW 8112   7.877   1.564   6.483  0.4590 -0.2371  0.5080
 2224SOL    HW1 8113   7.930   1.624   6.535  0.2321 -1.0313  1.6819
 2224SOL    HW2 8114   7.940   1.508   6.439  0.6475  0.3398  0.0259
 2225SOL     OW 8115   7.670   2.426   7.070  0.2880 -0.1438  0.5724
 2225SOL    HW1 8116   7.697   2.449   7.159 -0.1615  0.6331  0.5199
 2225SOL    HW2 8117   7.600   2.488   7.050 -1.6571 -2.1860  0.7583
 2226SOL     OW 8118   0.447   1.994   4.967  0.3919  0.2703  0.0450
 2226SOL    HW1 8119   0.458   1.999   4.872  0.6051  1.4478  0.1170
 2226SOL    HW2 8120   0.357   2.021   4.983  0.7455  1.3803  0.2589
 2227SOL     OW 8121   1.086   2.924   6.112  0.0314  0.0173 -0.0118
 2227SOL    HW1 8122   1.180   2.933   6.096  0.0111  0.9974  0.3413
 2227SOL    HW2 8123   1.080   2.896   6.203 -0.0263  0.5609  0.1573
 2228SOL     OW 8124   2.112   3.591   8.839 -0.1347  0.1454 -0.3918
 2228SOL    HW1 8125   2.037   3.562   8.891  0.5261 -0.3000  0.3400
 2228SOL    HW2 8126   2.074   3.627   8.759 -1.1203 -0.1390 -0.0608
 2229SOL     OW 8127   6.647   0.910   6.434  0.1556  0.2208 -0.3860
 2229SOL    HW1 8128   6.692   0.826   6.446 -0.6844 -0.1373  0.3620
 2229SOL    HW2 8129   6.693   0.951   6.360  0.5475 -0.9105 -0.8008
 2230SOL     OW 8130   0.732   2.774   7.388 -0.0790  0.3015  0.3120
 2230SOL    HW1 8131   0.678   2.816   7.321 -0.6748  0.5091  0.9086
 2230SOL    HW2 8132   0.767   2.846   7.439  1.1608  0.1965 -0.3377
 2231SOL     OW 8133   1.488   3.146   6.954  0.5249 -0.8878 -0.2814
 2231SOL    HW1 8134   1.439   3.179   7.030  0.5228 -2.1696  0.3058
 2231SOL    HW2 8135   1.428   3.156   6.880  0.5724  0.4934 -0.1527
 2232SOL     OW 8136   6.709   1.698   7.184 -0.3629  0.3091 -0.4244
 2232SOL    HW1 8137   6.800   1.727   7.181 -0.6013  1.0391 -0.7598
 2232SOL    HW2 8138   6.707   1.636   7.256  0.5123 -0.1066 -0.7311
 2233SOL     OW 8139   1.277   3.089   5.459  0.7569 -0.2507 -0.0239
 2233SOL    HW1 8140   1.301   3.150   5.529  0.0480  0.2726 -0.2223
 2233SOL    HW2 8141   1.181   3.084   5.465  0.7241 -0.4651 -0.7412
 2234SOL     OW 8142   7.269   3.700   7.436  0.3140 -0.1441 -0.7146
 2234SOL    HW1 8143   7.267   3.794   7.453 -1.2072 -0.2469 -0.1406
 2234SOL    HW2 8144   7.199   3.665   7.490 -1.1098 -1.2229 -3.0783
 2235SOL     OW 8145   1.598   1.774   8.448  0.3649 -0.0478  0.0177
 2235SOL    HW1 8146   1.513   1.782   8.406  1.1308  2.4966 -1.2318
 2235SOL    HW2 8147   1.617   1.861   8.482  1.6638 -1.0195  2.0190
 2236SOL     OW 8148   0.138   2.712   9.266  0.2526  0.5362 -0.0901
 2236SOL    HW1 8149   0.233   2.719   9.277  0.3139  0.6291 -0.6223
 2236SOL    HW2 8150   0.104   2.709   9.355  0.5916  2.8098  0.1812
 2237SOL     OW 8151   1.004   1.383   3.683  0.1867  0.2328  0.0668
 2237SOL    HW1 8152   1.064   1.341   3.744 -0.5562 -0.6628  0.1898
 2237SOL    HW2 8153   1.062   1.425   3.619  0.9515 -0.2020  0.4558
 2238SOL     OW 8154   1.644   2.477   6.970  0.5228 -0.0042 -0.4772
 2238SOL    HW1 8155   1.701   2.401   6.979 -1.4884 -1.4512  1.2297
 2238SOL    HW2 8156   1.576   2.448   6.909  0.2660  0.8000 -0.5872
 2239SOL     OW 8157   7.604   7.855   6.585  0.0350 -0.0963  0.0789
 2239SOL    HW1 8158   7.525   7.858   6.640  0.2361 -1.5166  0.4883
 2239SOL    HW2 8159   7.625   7.947   6.569 -0.0034  0.3809  2.4125
 2240SOL     OW 8160   1.015   3.162   5.265 -0.1214 -0.5306 -0.1810
 2240SOL    HW1 8161   0.958   3.210   5.204  0.2156  0.1389  0.0284
 2240SOL    HW2 8162   1.010   3.210   5.347  2.2255  0.6850 -0.6686
 2241SOL     OW 8163   1.464   3.575   6.622 -0.0099 -0.1712 -0.2473
 2241SOL    HW1 8164   1.499   3.628   6.550  0.9774 -1.2295 -0.5545
 2241SOL    HW2 8165   1.380   3.617   6.642 -0.6550 -0.2396 -2.4722
 2242SOL     OW 8166   7.789   0.166   6.799 -0.1975  0.2012 -0.0777
 2242SOL    HW1 8167   7.751   0.110   6.867 -1.5103 -0.1806 -1.0817
 2242SOL    HW2 8168   7.726   0.237   6.788  0.6014  0.9367 -0.0622
 2243SOL     OW 8169   7.748   5.151   6.698 -0.3267 -0.1075 -0.1124
 2243SOL    HW1 8170   7.779   5.104   6.621  0.1429  0.0019  0.0081
 2243SOL    HW2 8171   7.681   5.094   6.735 -0.4251 -0.2454 -0.4980
 2244SOL     OW 8172   1.584   1.781   4.464  0.0124 -0.3946 -0.1432
 2244SOL    HW1 8173   1.588   1.753   4.555  2.4603 -2.2836 -0.7302
 2244SOL    HW2 8174   1.665   1.748   4.425 -1.4258 -0.5946 -3.2841
 2245SOL     OW 8175   6.781   2.185   3.363  0.5627 -0.2149  0.5752
 2245SOL    HW1 8176   6.700   2.150   3.327 -0.1004  1.4824  0.2873
 2245SOL    HW2 8177   6.796   2.135   3.443 -0.0748 -1.3954 -0.0217
 2246SOL     OW 8178   7.229   3.657   8.305 -0.2516 -0.2203 -0.3920
 2246SOL    HW1 8179   7.268   3.646   8.218  0.8830  1.8624 -0.2169
 2246SOL    HW2 8180   7.254   3.746   8.331 -0.3960 -0.8466  2.1385
 2247SOL     OW 8181   2.865   4.104   7.158 -0.4048 -0.6306 -0.6692
 2247SOL    HW1 8182   2.873   4.117   7.064 -0.0452  0.9283 -0.4505
 2247SOL    HW2 8183   2.954   4.111   7.191 -0.8462  2.6326  0.1655
 2248SOL     OW 8184   0.520   2.329   7.258  0.7401  0.7641 -0.2101
 2248SOL    HW1 8185   0.612   2.346   7.279  1.6300 -1.2975 -2.0616
 2248SOL    HW2 8186   0.518   2.319   7.163 -1.0066 -1.1155 -0.0594
 2249SOL     OW 8187   1.015   1.732   4.624 -0.3718 -0.1348  0.1868
 2249SOL    HW1 8188   0.921   1.745   4.612 -0.6380  0.3136  2.3988
 2249SOL    HW2 8189   1.035   1.776   4.706  2.1508  1.4236 -1.1369
 2250SOL     OW 8190   1.889   3.601   6.978  0.2719 -0.1781  0.8173
 2250SOL    HW1 8191   1.868   3.605   7.072  0.1343  0.6497  0.7568
 2250SOL    HW2 8192   1.803   3.596   6.935  0.3246 -0.2067  0.7165
 2251SOL     OW 8193   0.787   1.290   6.379 -0.3368  0.1630  0.7512
 2251SOL    HW1 8194   0.809   1.296   6.286  1.7477 -0.1431  1.1583
 2251SOL    HW2 8195   0.799   1.379   6.413 -1.6968  0.4049  0.6286
 2252SOL     OW 8196   7.842   1.732   6.090  0.1314  0.2892  0.0142
 2252SOL    HW1 8197   7.922   1.783   6.079 -0.1926  0.4315 -2.1080
 2252SOL    HW2 8198   7.776   1.796   6.114  0.2824  0.4619 -0.0284
 2253SOL     OW 8199   0.216   3.863   7.770 -0.1813 -0.6787  0.6515
 2253SOL    HW1 8200   0.211   3.956   7.792  0.8109 -0.3515 -0.4162
 2253SOL    HW2 8201   0.185   3.858   7.680  1.2127 -1.1410  0.1672
 2254SOL     OW 8202   1.652   4.555   6.417 -0.2184 -0.6266  0.1752
 2254SOL    HW1 8203   1.744   4.577   6.404  0.0560 -1.7658  0.1542
 2254SOL    HW2 8204   1.648   4.519   6.506 -0.8123  0.2160  0.5148
 2255SOL     OW 8205   7.505   2.320   6.145  0.3662  0.1319 -0.2758
 2255SOL    HW1 8206   7.546   2.292   6.227 -0.6224 -1.0127 -0.1566
 2255SOL    HW2 8207   7.571   2.301   6.078  0.1903 -1.3871 -0.0464
 2256SOL     OW 8208   1.411   4.359   6.372 -0.1634  0.1621  0.1656
 2256SOL    HW1 8209   1.499   4.321   6.369  0.3484  0.9831  2.4498
 2256SOL    HW2 8210   1.352   4.283   6.371  0.6825 -0.5318  0.9170
 2257SOL     OW 8211   0.549   3.181   7.068  0.1755  0.4592  0.0007
 2257SOL    HW1 8212   0.462   3.150   7.043  0.2011  0.6455 -0.3283
 2257SOL    HW2 8213   0.532   3.264   7.113  0.2321  0.9089 -0.7837
 2258SOL     OW 8214   2.755   3.000   7.287 -0.2990  0.1083  0.1044
 2258SOL    HW1 8215   2.784   3.071   7.343  0.5068  0.9356 -1.3011
 2258SOL    HW2 8216   2.712   3.043   7.213 -1.2477 -0.9392  0.0155
 2259SOL     OW 8217   0.734   2.314   3.500  0.2854 -0.0392  1.0899
 2259SOL    HW1 8218   0.788   2.391   3.481  0.0725 -0.6424 -2.4862
 2259SOL    HW2 8219   0.645   2.341   3.477  0.2181 -1.3078 -0.2712
 2260SOL     OW 8220   1.661   2.532   7.410 -0.4123  0.2101 -0.2047
 2260SOL    HW1 8221   1.691   2.608   7.360  0.5492  0.8858  1.3171
 2260SOL    HW2 8222   1.615   2.477   7.346 -1.1068  2.0388 -1.3574
 2261SOL     OW 8223   0.395   4.863   4.937 -0.3854  0.2309  0.2137
 2261SOL    HW1 8224   0.357   4.922   4.872  0.0418 -0.3657 -0.6012
 2261SOL    HW2 8225   0.487   4.889   4.942 -0.3775  0.1601  0.4635
 2262SOL     OW 8226   3.077   3.362   5.955  0.4923  0.1777  0.2972
 2262SOL    HW1 8227   2.999   3.364   5.899 -0.7536  0.3767  1.9835
 2262SOL    HW2 8228   3.096   3.454   5.972  1.3376  0.1469 -0.3691
 2263SOL     OW 8229   0.724   3.550   5.130  0.5823  0.1085  0.2416
 2263SOL    HW1 8230   0.807   3.581   5.166  0.6769  0.2241 -0.0717
 2263SOL    HW2 8231   0.685   3.627   5.089  1.0403 -0.2734 -0.9556
 2264SOL     OW 8232   7.578   3.013   7.218  0.0713 -0.1479 -0.9514
 2264SOL    HW1 8233   7.566   2.960   7.139 -2.3663  0.8441 -1.3468
 2264SOL    HW2 8234   7.570   3.103   7.187 -0.0629  0.2881  0.3154
 2265SOL     OW 8235   2.113   4.619   7.722 -0.0627 -0.0830 -0.2561
 2265SOL    HW1 8236   2.137   4.614   7.630 -0.0336 -2.7786 -0.1598
 2265SOL    HW2 8237   2.032   4.671   7.723 -0.0318  0.0175 -1.7834
 2266SOL     OW 8238   7.451   1.551   5.509  0.3267 -0.2385 -0.3774
 2266SOL    HW1 8239   7.411   1.470   5.479  1.6208 -0.8450 -0.5478
 2266SOL    HW2 8240   7.463   1.604   5.430  0.4773 -0.3479 -0.4292
 2267SOL     OW 8241   0.217   2.271   5.682  0.0663 -0.1836  0.3781
 2267SOL    HW1 8242   0.159   2.345   5.702  0.1100 -0.1874  0.5224
 2267SOL    HW2 8243   0.258   2.250   5.766 -1.1486 -1.3981  0.7098
 2268SOL     OW 8244   0.194   3.163   4.791  0.0578  0.0438 -0.2704
 2268SOL    HW1 8245   0.168   3.101   4.860  0.1921  0.4704  0.1708
 2268SOL    HW2 8246   0.126   3.230   4.793  0.9696  0.9853  0.6551
 2269SOL     OW 8247   1.851   2.676   5.034  0.2740  0.1170 -0.3161
 2269SOL    HW1 8248   1.776   2.656   5.091 -0.3233  0.2460 -1.0453
 2269SOL    HW2 8249   1.821   2.748   4.979  0.2338 -1.0797 -1.9271
 2270SOL     OW 8250   0.212   1.819   7.906 -0.0329 -0.2519  0.1814
 2270SOL    HW1 8251   0.209   1.736   7.859 -0.7312 -0.7620  1.0835
 2270SOL    HW2 8252   0.185   1.885   7.842 -4.9997 -1.3685  0.7797
 2271SOL     OW 8253   1.357   2.184   6.068  0.5006  0.8890  0.2501
 2271SOL    HW1 8254   1.337   2.276   6.084 -2.6724  0.3289  0.1378
 2271SOL    HW2 8255   1.295   2.136   6.123 -0.4112 -1.1321 -2.3379
 2272SOL     OW 8256   1.747   2.352   9.047 -0.1678 -0.2731  0.2009
 2272SOL    HW1 8257   1.790   2.391   8.971  2.4440 -2.2436  0.5288
 2272SOL    HW2 8258   1.774   2.407   9.121 -0.2796 -0.0799  0.0999
 2273SOL     OW 8259   3.121   1.709   6.689  0.1641  0.6850  0.3092
 2273SOL    HW1 8260   3.041   1.661   6.668  1.8697 -1.7809 -1.0605
 2273SOL    HW2 8261   3.128   1.702   6.784 -0.2916 -0.7177  0.2569
 2274SOL     OW 8262   6.414   2.866   8.521 -0.2994  0.6872 -0.5704
 2274SOL    HW1 8263   6.479   2.910   8.466 -0.3525 -0.4214 -1.5755
 2274SOL    HW2 8264   6.333   2.869   8.469 -0.5606  0.3532 -0.1871
 2275SOL     OW 8265   0.849   2.194   7.585  0.6581  0.0369 -0.1309
 2275SOL    HW1 8266   0.934   2.234   7.603  0.5410  0.9230 -1.4122
 2275SOL    HW2 8267   0.859   2.103   7.614  1.7744  0.3235  0.4593
 2276SOL     OW 8268   0.622   1.888   5.589  0.6334 -0.5242 -0.1281
 2276SOL    HW1 8269   0.562   1.949   5.546  1.8903  0.5766 -0.3733
 2276SOL    HW2 8270   0.583   1.875   5.676 -1.2576 -1.7923 -1.0913
 2277SOL     OW 8271   0.658   2.427   5.709  0.2806 -0.3925 -0.1221
 2277SOL    HW1 8272   0.609   2.456   5.786 -0.2907  2.7715 -1.5236
 2277SOL    HW2 8273   0.593   2.387   5.652 -0.2663  1.4509 -0.8618
 2278SOL     OW 8274   2.254   2.413   7.724 -0.0498 -0.0262 -0.4087
 2278SOL    HW1 8275   2.271   2.499   7.687  1.2578 -0.1452 -0.1399
 2278SOL    HW2 8276   2.269   2.352   7.652 -0.3148 -0.0766 -0.4223
 2279SOL     OW 8277   1.942   2.852   7.788  0.2713  0.0575  0.4534
 2279SOL    HW1 8278   1.913   2.838   7.878 -3.1544 -0.4695 -0.5810
 2279SOL    HW2 8279   2.031   2.887   7.796 -0.7610  2.3542  4.0945
 2280SOL     OW 8280   2.152   2.259   6.360  0.4491 -0.4682 -0.4596
 2280SOL    HW1 8281   2.077   2.225   6.409 -0.1641  0.9792 -0.3374
 2280SOL    HW2 8282   2.203   2.307   6.426  0.0184  0.8526 -1.0406
 2281SOL     OW 8283   6.390   1.853   7.691 -0.3990 -0.5088 -0.4259
 2281SOL    HW1 8284   6.335   1.877   7.617 -0.4200  0.7641 -0.0178
 2281SOL    HW2 8285   6.447   1.783   7.657 -0.0217  0.4303 -1.8154
 2282SOL     OW 8286   0.641   3.285   7.407  0.2130  0.1975 -0.1518
 2282SOL    HW1 8287   0.702   3.355   7.430  0.1420  0.2380 -0.0879
 2282SOL    HW2 8288   0.623   3.298   7.314 -2.5784  2.4628  0.5448
 2283SOL     OW 8289   1.617   1.651   4.910  0.3585 -0.2583  0.1139
 2283SOL    HW1 8290   1.607   1.687   4.998 -1.3813  0.9561 -0.5273
 2283SOL    HW2 8291   1.706   1.674   4.884  0.0119  1.7634  0.5601
 2284SOL     OW 8292   0.402   3.263   5.893  0.2247  0.2355  0.0742
 2284SOL    HW1 8293   0.489   3.298   5.912 -0.0618  0.1598  1.6910
 2284SOL    HW2 8294   0.398   3.180   5.942 -0.4661 -0.1770 -0.6498
 2285SOL     OW 8295   7.758   2.836   9.672 -0.0711 -0.3835 -0.4035
 2285SOL    HW1 8296   7.763   2.828   9.767 -0.4178 -2.3188 -0.5052
 2285SOL    HW2 8297   7.667   2.858   9.654 -0.4542 -1.7959 -0.3374
 2286SOL     OW 8298   6.235   2.273   7.193  0.0247 -0.0690 -0.1376
 2286SOL    HW1 8299   6.190   2.206   7.246  1.1261 -1.7237 -1.1940
 2286SOL    HW2 8300   6.222   2.243   7.103  2.7738 -0.3482 -0.5004
 2287SOL     OW 8301   0.031   3.245   7.383 -0.2240 -0.1360  0.1174
 2287SOL    HW1 8302  -0.032   3.222   7.315 -0.6405 -2.9413  1.3359
 2287SOL    HW2 8303   0.022   3.340   7.394 -4.0916 -0.3818  0.1140
 2288SOL     OW 8304   2.370   1.681   5.351  0.2817 -0.2532  0.3156
 2288SOL    HW1 8305   2.403   1.631   5.276 -1.2548 -2.4842  1.0301
 2288SOL    HW2 8306   2.276   1.689   5.335  0.0089 -0.3510  1.7665
 2289SOL     OW 8307   7.353   2.288   6.690  0.0027 -0.2900 -0.4235
 2289SOL    HW1 8308   7.368   2.198   6.659  1.1704 -0.8767  1.6729
 2289SOL    HW2 8309   7.427   2.337   6.655  1.3364 -0.9594  1.3137
 2290SOL     OW 8310   1.286   3.786   7.734 -0.1031 -0.2987 -0.1761
 2290SOL    HW1 8311   1.266   3.749   7.819  0.0178  0.4678  0.2000
 2290SOL    HW2 8312   1.369   3.833   7.747 -0.3038  0.1893 -0.5972
 2291SOL     OW 8313   6.939   1.592   8.659  0.0003 -0.0830 -0.6295
 2291SOL    HW1 8314   6.909   1.623   8.574 -1.3085 -0.5948 -0.3833
 2291SOL    HW2 8315   7.003   1.524   8.639 -0.7932 -0.6769 -1.2346
 2292SOL     OW 8316   0.452   2.203   6.631 -0.1514 -0.1439  0.1469
 2292SOL    HW1 8317   0.359   2.205   6.608  0.0586  0.0880 -0.7063
 2292SOL    HW2 8318   0.456   2.147   6.709 -0.7815 -1.7402 -0.9219
 2293SOL     OW 8319   0.449   3.223   6.689 -0.2296 -0.0031  0.1298
 2293SOL    HW1 8320   0.398   3.174   6.753  2.4592  1.2238  3.4832
 2293SOL    HW2 8321   0.521   3.164   6.666 -0.9774 -0.3008 -1.6276
 2294SOL     OW 8322   1.217   2.105   6.628 -0.2783  0.3546  0.6332
 2294SOL    HW1 8323   1.216   2.158   6.548 -1.6371  0.9891  1.0395
 2294SOL    HW2 8324   1.304   2.066   6.629  0.6763  2.3276  0.1269
 2295SOL     OW 8325   0.897   3.947   5.611  0.2249  0.6412 -0.1445
 2295SOL    HW1 8326   0.988   3.976   5.614  0.1637  0.8681 -0.4398
 2295SOL    HW2 8327   0.894   3.883   5.541  0.0596  0.9916 -0.4644
 2296SOL     OW 8328   6.698   2.750   7.197 -0.0630 -0.0803  0.0647
 2296SOL    HW1 8329   6.745   2.834   7.203 -1.5635  0.9070 -1.2995
 2296SOL    HW2 8330   6.751   2.690   7.249  2.5215  1.0503 -1.0418
 2297SOL     OW 8331   1.281   0.701   5.949  0.2200  0.0466 -0.3999
 2297SOL    HW1 8332   1.243   0.746   5.874 -1.4421 -0.7300 -0.0929
 2297SOL    HW2 8333   1.364   0.666   5.917  0.3232  1.1258 -1.3732
 2298SOL     OW 8334   0.239   1.729   7.018  0.1220  0.0803  0.2650
 2298SOL    HW1 8335   0.154   1.766   7.040  0.9257  2.5345 -0.4432
 2298SOL    HW2 8336   0.300   1.768   7.081  0.9835 -0.2435 -0.3437
 2299SOL     OW 8337   7.265   2.538   8.457 -0.0898  0.2413 -0.0285
 2299SOL    HW1 8338   7.255   2.470   8.524 -0.7770  0.3798  0.0105
 2299SOL    HW2 8339   7.201   2.515   8.390  0.7121  0.0036 -0.7280
 2300SOL     OW 8340   6.205   1.882   6.726  0.0784  0.0185 -0.4212
 2300SOL    HW1 8341   6.207   1.976   6.712 -0.2348 -0.0437 -0.9244
 2300SOL    HW2 8342   6.294   1.853   6.707 -0.2363 -0.0094 -1.9856
 2301SOL     OW 8343   1.909   1.848   5.475  0.1639 -0.2218  0.4544
 2301SOL    HW1 8344   1.869   1.800   5.548  2.2966 -1.5747  0.8186
 2301SOL    HW2 8345   1.867   1.934   5.478 -1.7820 -1.1278  1.5269
 2302SOL     OW 8346   0.221   2.282   7.710 -0.2308 -0.1358 -0.2967
 2302SOL    HW1 8347   0.197   2.249   7.623 -1.1344 -2.7495  0.8431
 2302SOL    HW2 8348   0.296   2.339   7.694  0.7077 -1.8549 -2.6223
 2303SOL     OW 8349   0.596   2.597   7.548 -0.3879  0.3172  0.1014
 2303SOL    HW1 8350   0.510   2.595   7.507 -0.1847  1.7393 -0.4696
 2303SOL    HW2 8351   0.651   2.645   7.486  1.0636 -1.3562  0.0366
 2304SOL     OW 8352   0.013   2.416   9.302  0.1879 -0.7008  0.0708
 2304SOL    HW1 8353   0.056   2.479   9.244  0.3824 -0.6309  0.2907
 2304SOL    HW2 8354   0.054   2.332   9.280  0.7339 -0.5683  0.5695
 2305SOL     OW 8355   0.776   4.345   8.433 -0.2695  0.8481 -0.2473
 2305SOL    HW1 8356   0.811   4.260   8.459  1.0103  0.6416 -2.4057
 2305SOL    HW2 8357   0.854   4.400   8.421 -0.9062  1.5242 -1.4558
 2306SOL     OW 8358   2.022   4.311   6.025 -0.3015 -0.5750 -0.1662
 2306SOL    HW1 8359   1.995   4.301   6.116  0.4488 -0.8263  0.0297
 2306SOL    HW2 8360   2.038   4.222   5.994  3.2031 -0.3569  0.6195
 2307SOL     OW 8361   1.216   2.322   9.405 -0.0538 -0.1792 -0.1929
 2307SOL    HW1 8362   1.135   2.280   9.433 -1.3440  2.2202 -0.0470
 2307SOL    HW2 8363   1.279   2.301   9.474 -1.6131  0.8967  1.6751
 2308SOL     OW 8364   3.148   2.652   7.572  0.4604 -0.5960  0.1706
 2308SOL    HW1 8365   3.158   2.561   7.600  0.4061 -0.3953  0.8634
 2308SOL    HW2 8366   3.208   2.661   7.497  1.0137 -1.0018  0.5604
 2309SOL     OW 8367   7.377   3.539   8.517  0.2407 -0.1103  0.0929
 2309SOL    HW1 8368   7.324   3.590   8.455  0.9670  2.3709  1.3612
 2309SOL    HW2 8369   7.357   3.448   8.497 -1.2110  0.6453 -2.2917
 2310SOL     OW 8370   7.559   3.777  10.105  0.2906  0.6961 -0.0378
 2310SOL    HW1 8371   7.546   3.757  10.198  1.5743  0.0497  0.0212
 2310SOL    HW2 8372   7.482   3.740  10.062 -0.2734  0.9178  0.7451
 2311SOL     OW 8373   2.455   2.665   9.216 -0.2792 -0.3798 -0.0686
 2311SOL    HW1 8374   2.434   2.703   9.131  0.6777  0.4662  0.0618
 2311SOL    HW2 8375   2.540   2.702   9.240 -1.1336  0.5011  1.8871
 2312SOL     OW 8376   0.605   2.477   9.447  0.0741 -0.1936 -0.2513
 2312SOL    HW1 8377   0.591   2.403   9.387 -0.6216  0.8211 -1.3773
 2312SOL    HW2 8378   0.697   2.499   9.436 -0.2299  0.5212 -1.6374
 2313SOL     OW 8379   7.546   3.379   7.847  0.7633 -0.0405 -0.3898
 2313SOL    HW1 8380   7.517   3.348   7.933  1.0211 -1.0153 -0.6469
 2313SOL    HW2 8381   7.629   3.333   7.832  0.9828  0.5213 -0.9307
 2314SOL     OW 8382   7.897   3.771   7.636 -0.3979 -0.5759 -0.1665
 2314SOL    HW1 8383   7.954   3.792   7.563 -0.7817 -1.3800 -0.7122
 2314SOL    HW2 8384   7.810   3.800   7.608 -0.5514 -0.9122 -0.0410
 2315SOL     OW 8385   0.198   2.749   9.666 -1.0532  0.0065  0.3451
 2315SOL    HW1 8386   0.242   2.701   9.596 -1.5492 -1.0190  0.7237
 2315SOL    HW2 8387   0.112   2.770   9.631 -1.0701  0.0550  0.4158
 2316SOL     OW 8388   7.618   3.926   9.008  0.2299 -0.2951 -0.3128
 2316SOL    HW1 8389   7.621   3.946   8.914  1.5348  0.3323 -0.1584
 2316SOL    HW2 8390   7.707   3.899   9.029 -0.3733 -1.7701  0.4815
 2317SOL     OW 8391   0.060   3.042   7.838 -0.3301  0.2055 -0.2320
 2317SOL    HW1 8392   0.078   3.102   7.765  0.2930 -0.7707 -0.9099
 2317SOL    HW2 8393   0.007   2.972   7.799 -0.5473 -0.0013  0.4148
 2318SOL     OW 8394   2.047   3.475   6.527  0.0092 -0.3588  0.2458
 2318SOL    HW1 8395   2.105   3.465   6.602  0.3525 -0.0859  0.0198
 2318SOL    HW2 8396   1.969   3.424   6.549  0.3401 -0.7332  0.5480
 2319SOL     OW 8397   6.679   3.859   9.184 -0.5150 -0.4538 -0.1493
 2319SOL    HW1 8398   6.711   3.774   9.152 -1.0134 -0.3981 -0.8116
 2319SOL    HW2 8399   6.725   3.872   9.267  1.2302 -0.3769 -1.0598
 2320SOL     OW 8400   5.920   0.624   8.333 -0.5512  0.2440  0.2034
 2320SOL    HW1 8401   6.013   0.646   8.326 -0.5905  0.4199  0.2322
 2320SOL    HW2 8402   5.877   0.684   8.272 -0.8953  1.7700  1.8608
 2321SOL     OW 8403   7.965   4.692   9.425 -0.5085 -0.1152 -0.3214
 2321SOL    HW1 8404   8.044   4.676   9.374 -0.7743 -0.6720 -0.5648
 2321SOL    HW2 8405   7.975   4.782   9.457 -0.4533  0.3332 -1.5472
 2322SOL     OW 8406   0.974   2.435   7.788 -0.7831 -0.1158  0.4963
 2322SOL    HW1 8407   0.939   2.504   7.732  0.0246 -1.3331 -1.6231
 2322SOL    HW2 8408   1.012   2.371   7.727  1.7982 -0.6569  2.4786
 2323SOL     OW 8409   2.771   1.826   9.849  0.1635  0.4049 -0.1027
 2323SOL    HW1 8410   2.729   1.756   9.799 -0.2701  0.1530  0.6013
 2323SOL    HW2 8411   2.751   1.905   9.799 -2.9603  0.5991  1.1973
 2324SOL     OW 8412   7.749   4.451   8.336 -0.2979 -0.7520  0.2502
 2324SOL    HW1 8413   7.728   4.455   8.429  1.3930 -1.5975  0.7166
 2324SOL    HW2 8414   7.843   4.469   8.333 -0.5767  0.6814 -1.4536
 2325SOL     OW 8415   3.631   2.521   8.681  0.6155 -0.0495 -0.1534
 2325SOL    HW1 8416   3.648   2.474   8.600  1.0043  0.5028 -0.3935
 2325SOL    HW2 8417   3.618   2.612   8.654  1.1682  0.2115  0.4500
 2326SOL     OW 8418   6.612   1.906   8.353  0.6888  0.0822  0.5258
 2326SOL    HW1 8419   6.637   1.968   8.285 -0.1663  1.8314  1.7416
 2326SOL    HW2 8420   6.547   1.849   8.312  0.5129  0.8257 -0.2431
 2327SOL     OW 8421   3.905   1.522   8.722  0.2478 -0.2660 -0.1025
 2327SOL    HW1 8422   3.829   1.488   8.675  0.0775 -3.8390  2.2703
 2327SOL    HW2 8423   3.981   1.488   8.674  0.1156 -1.8253  0.7019
 2328SOL     OW 8424   2.198   4.359   7.210  0.3524 -0.0018 -0.0934
 2328SOL    HW1 8425   2.156   4.327   7.130 -1.3954 -0.4046  0.9289
 2328SOL    HW2 8426   2.288   4.378   7.184 -0.2161  0.0547 -2.1904
 2329SOL     OW 8427   1.585   3.283   9.462 -0.6104  0.0208  0.4843
 2329SOL    HW1 8428   1.657   3.241   9.415 -0.5477 -0.4703  1.0095
 2329SOL    HW2 8429   1.564   3.222   9.533 -2.8535 -0.8076 -0.7977
 2330SOL     OW 8430   0.247   3.414   6.680  0.0435  0.3804 -0.3251
 2330SOL    HW1 8431   0.178   3.350   6.661 -0.2926 -0.0731  2.0747
 2330SOL    HW2 8432   0.328   3.364   6.671 -0.0234  0.4258 -1.3251
 2331SOL     OW 8433   0.286   2.766   8.202 -0.2937  0.2352 -0.2296
 2331SOL    HW1 8434   0.340   2.780   8.125 -0.6997 -1.1398 -0.7916
 2331SOL    HW2 8435   0.342   2.715   8.261 -1.2285 -2.1227 -1.2384
 2332SOL     OW 8436   1.113   0.950   7.571 -0.0666  0.1910 -0.2318
 2332SOL    HW1 8437   1.131   0.869   7.523 -1.1351  0.4082 -1.0324
 2332SOL    HW2 8438   1.134   1.020   7.509 -0.9766  0.4880 -0.2112
 2333SOL     OW 8439   7.858   2.104   8.217  0.5227  0.8632 -0.0173
 2333SOL    HW1 8440   7.909   2.030   8.250 -0.1201 -0.2555 -1.4069
 2333SOL    HW2 8441   7.893   2.119   8.129 -0.8483  0.7212 -0.6043
 2334SOL     OW 8442   2.405   3.196   7.071  0.1159  0.2374  0.2095
 2334SOL    HW1 8443   2.399   3.284   7.032 -1.5861 -0.7454 -2.0181
 2334SOL    HW2 8444   2.481   3.157   7.028 -0.0345  0.1280  0.0398
 2335SOL     OW 8445   0.590   3.309   9.057  0.2872  0.2325 -0.0030
 2335SOL    HW1 8446   0.540   3.388   9.078 -0.2680 -0.4609  1.3818
 2335SOL    HW2 8447   0.560   3.285   8.969 -0.2422  1.0140 -0.0462
 2336SOL     OW 8448   0.065   0.957  10.189  0.3702 -0.3988 -0.0584
 2336SOL    HW1 8449   0.117   0.946  10.109  1.3461 -3.2893  0.8402
 2336SOL    HW2 8450   0.125   0.936  10.260 -0.1116  3.3484  1.6854
 2337SOL     OW 8451   0.872   4.212   8.104 -0.3768  0.0597 -0.3221
 2337SOL    HW1 8452   0.871   4.117   8.115  0.0719  0.2413  1.6896
 2337SOL    HW2 8453   0.825   4.245   8.180 -0.0780  1.4797 -0.7310
 2338SOL     OW 8454   1.604   2.836   6.043 -0.4785 -0.2392  0.5990
 2338SOL    HW1 8455   1.630   2.918   6.084 -0.6964  0.0515  0.1608
 2338SOL    HW2 8456   1.680   2.779   6.053  0.5706  0.7733 -1.1543
 2339SOL     OW 8457   0.450   2.599   8.383 -0.2763 -0.2273 -0.8000
 2339SOL    HW1 8458   0.445   2.520   8.329  0.2341 -0.7073 -0.1499
 2339SOL    HW2 8459   0.498   2.572   8.461 -1.9638  0.1619  0.4181
 2340SOL     OW 8460   0.580   1.452   7.274 -0.0230 -0.6813 -0.3353
 2340SOL    HW1 8461   0.637   1.394   7.324 -0.5772 -1.2730 -0.3845
 2340SOL    HW2 8462   0.635   1.481   7.201 -0.1797 -2.3513 -1.1745
 2341SOL     OW 8463   2.751   3.475   6.699  0.0641 -0.0036  0.4925
 2341SOL    HW1 8464   2.696   3.552   6.682 -0.0926  0.4920  2.8985
 2341SOL    HW2 8465   2.794   3.494   6.782  0.4502 -2.3057  0.8871
 2342SOL     OW 8466   2.578   2.777   8.206 -0.6587 -0.4645 -0.5401
 2342SOL    HW1 8467   2.535   2.861   8.228 -0.7897 -0.2316 -1.6426
 2342SOL    HW2 8468   2.649   2.801   8.147  2.8926 -0.4887  3.2657
 2343SOL     OW 8469   0.683   3.257   9.625 -0.2225 -0.1236 -0.2597
 2343SOL    HW1 8470   0.588   3.271   9.625 -0.1904  0.2523  1.1135
 2343SOL    HW2 8471   0.693   3.164   9.607 -0.7584  0.1697 -2.2845
 2344SOL     OW 8472   6.327   4.428   9.959  0.4367  0.0943  0.5249
 2344SOL    HW1 8473   6.421   4.411   9.953  0.0327 -1.7669 -1.8880
 2344SOL    HW2 8474   6.299   4.442   9.869 -1.2905  3.1134  1.3668
 2345SOL     OW 8475   7.720   1.806   9.585 -0.0126  0.2715  0.3519
 2345SOL    HW1 8476   7.725   1.779   9.676 -1.8212  0.8621  0.6737
 2345SOL    HW2 8477   7.727   1.724   9.535 -0.8543 -0.2860  1.1111
 2346SOL     OW 8478   0.847   2.370   8.348 -0.4354  0.1867  0.3785
 2346SOL    HW1 8479   0.805   2.439   8.297  0.8013  0.3894 -0.3957
 2346SOL    HW2 8480   0.937   2.400   8.361 -0.8321  0.3765  3.1516
 2347SOL     OW 8481   7.947   1.987   8.628 -0.6321  0.2762  0.5136
 2347SOL    HW1 8482   7.881   1.947   8.685 -0.1117 -1.7252 -0.1899
 2347SOL    HW2 8483   7.896   2.023   8.555 -1.0111 -1.1511  0.0282
 2348SOL     OW 8484   7.799   1.937  10.171  0.4902  0.0110 -0.0563
 2348SOL    HW1 8485   7.854   1.948  10.093  0.0612 -0.6428 -0.4591
 2348SOL    HW2 8486   7.845   1.987  10.239  1.7978 -0.8109 -0.2892
 2349SOL     OW 8487   3.209   3.193   9.759 -0.1359  0.0040  0.8100
 2349SOL    HW1 8488   3.264   3.268   9.736 -0.7371 -0.4580 -2.6560
 2349SOL    HW2 8489   3.254   3.152   9.833  2.9820  0.9110 -0.4379
 2350SOL     OW 8490   2.834   4.028   8.453 -0.5192 -0.2243 -0.0108
 2350SOL    HW1 8491   2.809   4.042   8.544  0.4266 -0.4545  0.2933
 2350SOL    HW2 8492   2.834   4.116   8.415  0.2018  0.0179  0.5193
 2351SOL     OW 8493   1.341   3.558   8.418 -0.2510 -0.1446 -0.1509
 2351SOL    HW1 8494   1.313   3.603   8.338 -1.2564  0.7564  0.6757
 2351SOL    HW2 8495   1.436   3.568   8.419 -0.2882  0.4057 -0.8963
 2352SOL     OW 8496   1.444   1.672   8.984  0.0946  0.1868  0.0473
 2352SOL    HW1 8497   1.428   1.731   8.911 -3.8617 -1.3295 -0.5779
 2352SOL    HW2 8498   1.416   1.720   9.062  1.0818  0.6209  0.1441
 2353SOL     OW 8499   2.493   2.725   7.156 -0.2653  0.1161  0.2528
 2353SOL    HW1 8500   2.403   2.712   7.126 -0.1124  0.5757 -0.4398
 2353SOL    HW2 8501   2.493   2.811   7.197 -1.1561 -1.6186  4.3690
 2354SOL     OW 8502   7.688   3.599   9.112 -0.1951  0.3545 -0.2108
 2354SOL    HW1 8503   7.596   3.572   9.118 -0.0434  0.0735  1.0764
 2354SOL    HW2 8504   7.714   3.572   9.024 -1.1711 -0.1355 -0.3715
 2355SOL     OW 8505   2.664   3.144   8.733 -0.4945  0.2015 -0.0123
 2355SOL    HW1 8506   2.587   3.160   8.788 -0.7491 -2.0669  0.3856
 2355SOL    HW2 8507   2.691   3.231   8.704 -2.8947  1.1127  0.2475
 2356SOL     OW 8508   1.603   2.622   8.664  0.0560  0.0461  0.1647
 2356SOL    HW1 8509   1.690   2.601   8.631  0.5050  2.5279 -0.4609
 2356SOL    HW2 8510   1.617   2.697   8.722 -1.4193 -0.8798  1.8370
 2357SOL     OW 8511   0.531   2.671   6.640  0.4627 -0.7693  0.1362
 2357SOL    HW1 8512   0.616   2.687   6.601  0.2374  1.4884  0.4552
 2357SOL    HW2 8513   0.551   2.633   6.725  1.0915 -1.4865 -0.3182
 2358SOL     OW 8514   1.552   1.416   9.130  0.3776 -0.6204  0.1061
 2358SOL    HW1 8515   1.505   1.414   9.214  2.1402 -0.9534  1.1448
 2358SOL    HW2 8516   1.487   1.447   9.067 -1.0288 -0.4169  1.5748
 2359SOL     OW 8517   1.193   2.504  10.247 -0.5881  0.7368 -0.1230
 2359SOL    HW1 8518   1.192   2.474  10.338  1.8563  0.4450 -0.1231
 2359SOL    HW2 8519   1.119   2.459  10.206  0.6469 -2.4149  0.7893
 2360SOL     OW 8520   7.887   3.756   8.638 -0.5487  0.0217 -0.0151
 2360SOL    HW1 8521   7.879   3.827   8.573  0.4986  0.0571 -0.1326
 2360SOL    HW2 8522   7.797   3.735   8.662 -0.9169  0.7058 -0.7331
 2361SOL     OW 8523   7.016   2.773   9.003 -0.0424 -0.2235 -0.3533
 2361SOL    HW1 8524   6.990   2.700   8.947 -2.6841  0.2084  0.1696
 2361SOL    HW2 8525   6.942   2.833   9.000  1.7756  2.1808 -0.2427
 2362SOL     OW 8526   2.729   3.198   7.790  0.1886 -0.2331  0.7098
 2362SOL    HW1 8527   2.809   3.235   7.752  0.6158 -0.8334  0.9986
 2362SOL    HW2 8528   2.732   3.105   7.767 -1.3753  0.0716 -0.8739
 2363SOL     OW 8529   6.830   4.520   8.168  0.3047  0.3103  0.0536
 2363SOL    HW1 8530   6.811   4.480   8.253 -0.1582 -1.1990 -0.7211
 2363SOL    HW2 8531   6.925   4.531   8.168  0.4052 -0.4596  0.4518
 2364SOL     OW 8532   1.048   1.704   8.639  0.0309  0.2270  0.7266
 2364SOL    HW1 8533   1.031   1.787   8.594  0.8035  0.3917  0.7240
 2364SOL    HW2 8534   1.080   1.731   8.726  1.0058 -0.0456  0.4675
 2365SOL     OW 8535   0.744   3.506   8.880  0.5263 -0.5392  0.1648
 2365SOL    HW1 8536   0.668   3.542   8.926  0.3561 -1.4552  0.6265
 2365SOL    HW2 8537   0.779   3.440   8.940  0.0999 -1.9977 -1.1463
 2366SOL     OW 8538   2.975   2.841   8.623 -0.8770 -0.2308  0.0028
 2366SOL    HW1 8539   3.009   2.892   8.696  0.5957  0.1617 -0.9285
 2366SOL    HW2 8540   3.005   2.752   8.641 -2.2445 -0.5526  0.8882
 2367SOL     OW 8541   0.079   1.875   7.610  0.2792  0.4555  0.4881
 2367SOL    HW1 8542   0.027   1.863   7.531 -2.1148  0.0853  2.0238
 2367SOL    HW2 8543   0.115   1.788   7.628 -1.0906 -0.0321  1.0252
 2368SOL     OW 8544   2.399   3.115   8.533 -0.6326 -0.2277  0.3136
 2368SOL    HW1 8545   2.463   3.045   8.545 -0.0208 -0.2481 -2.3367
 2368SOL    HW2 8546   2.442   3.194   8.568  0.2911 -0.5012 -0.1627
 2369SOL     OW 8547   7.047   7.479   7.629 -0.4833 -0.3611 -0.3070
 2369SOL    HW1 8548   7.049   7.406   7.568  0.0584 -0.1976 -0.4960
 2369SOL    HW2 8549   6.956   7.484   7.659 -0.3330 -1.7211  0.4630
 2370SOL     OW 8550   2.246   1.779   8.788  0.7067 -0.0790  0.0018
 2370SOL    HW1 8551   2.167   1.757   8.838  0.1951 -2.1409 -1.5546
 2370SOL    HW2 8552   2.317   1.770   8.851 -0.1715  0.5019  1.1188
 2371SOL     OW 8553   0.717   2.254   8.597  0.0512  0.0815  0.3179
 2371SOL    HW1 8554   0.764   2.268   8.515 -2.3701  2.5944 -0.7906
 2371SOL    HW2 8555   0.642   2.199   8.574 -0.5183  0.6025  0.8698
 2372SOL     OW 8556   1.745   2.804   7.987  0.4733  0.1533 -1.1083
 2372SOL    HW1 8557   1.794   2.797   8.069 -1.7664  1.7490  0.4982
 2372SOL    HW2 8558   1.709   2.716   7.973  0.5060 -0.0271 -0.1138
 2373SOL     OW 8559   1.886   3.114   8.250  0.6572 -0.0004  0.3952
 2373SOL    HW1 8560   1.898   3.032   8.204 -2.4281 -0.7708  0.7700
 2373SOL    HW2 8561   1.925   3.099   8.337  3.3257  0.2806 -0.6461
 2374SOL     OW 8562   2.452   3.361   8.643 -0.0566 -0.0454 -0.3464
 2374SOL    HW1 8563   2.384   3.361   8.576 -0.9174 -2.9112  0.3470
 2374SOL    HW2 8564   2.518   3.422   8.611 -1.3261  0.1599 -2.8208
 2375SOL     OW 8565   1.556   2.304   7.830 -0.1978  0.0234  0.9990
 2375SOL    HW1 8566   1.488   2.283   7.766  0.9440 -2.2140  0.4065
 2375SOL    HW2 8567   1.521   2.272   7.913 -0.1705 -0.4714  0.8228
 2376SOL     OW 8568   7.739   2.507  11.158 -0.7508  0.1542 -0.1160
 2376SOL    HW1 8569   7.721   2.500  11.252 -0.2817 -1.0572 -0.1030
 2376SOL    HW2 8570   7.657   2.538  11.121 -0.5597  1.9801  0.8313
 2377SOL     OW 8571   0.769   2.369   7.973 -1.1059  0.2869  0.6907
 2377SOL    HW1 8572   0.779   2.457   8.011  0.6658  1.0603 -1.3942
 2377SOL    HW2 8573   0.835   2.365   7.904 -3.3272 -1.4903 -1.4992
 2378SOL     OW 8574   2.808   2.497   8.359 -0.0021 -0.4759 -0.2855
 2378SOL    HW1 8575   2.811   2.451   8.275 -0.8310 -1.1887  0.0550
 2378SOL    HW2 8576   2.858   2.578   8.345 -2.4784  0.8471 -2.3472
 2379SOL     OW 8577   0.998   3.391   7.702  0.0813 -0.1156 -0.1084
 2379SOL    HW1 8578   1.049   3.425   7.775  0.2905 -1.0690  0.2102
 2379SOL    HW2 8579   0.922   3.449   7.696  0.2085  0.1442  0.6771
 2380SOL     OW 8580   1.102   3.841   7.564  0.0632 -0.0020 -0.5313
 2380SOL    HW1 8581   1.126   3.810   7.477 -1.2413  1.0892 -1.3239
 2380SOL    HW2 8582   1.180   3.827   7.618  2.2645  2.6571 -2.7385
 2381SOL     OW 8583   1.560   6.428   9.588 -0.0567  0.3906  0.0037
 2381SOL    HW1 8584   1.597   6.343   9.562  0.1213  1.3492 -3.2305
 2381SOL    HW2 8585   1.601   6.446   9.673  1.0004 -2.0795  0.1189
 2382SOL     OW 8586   0.763   1.645   7.618 -0.1361  0.0504  0.2066
 2382SOL    HW1 8587   0.714   1.563   7.630  2.0786 -1.7412 -1.8959
 2382SOL    HW2 8588   0.838   1.636   7.677  1.0432 -0.3329 -1.2804
 2383SOL     OW 8589   7.986   2.978  10.250 -0.7308  0.1773 -0.2707
 2383SOL    HW1 8590   7.898   2.985  10.288 -1.3017 -1.7381 -1.1250
 2383SOL    HW2 8591   7.980   3.025  10.167 -1.5087 -1.3600 -1.1414
 2384SOL     OW 8592   2.140   3.059   8.440  0.0789  0.6218  0.1856
 2384SOL    HW1 8593   2.118   3.145   8.402  0.6080 -0.2532 -2.3356
 2384SOL    HW2 8594   2.229   3.071   8.473  0.2380  1.0034 -0.3517
 2385SOL     OW 8595   0.670   1.267   8.989 -0.1934 -0.3625  0.3162
 2385SOL    HW1 8596   0.666   1.317   8.907 -1.5729 -0.1167  0.5061
 2385SOL    HW2 8597   0.762   1.273   9.016 -0.0747  1.0934 -0.2779
 2386SOL     OW 8598   1.702   1.605   8.655  0.0985 -0.9773  0.0079
 2386SOL    HW1 8599   1.781   1.556   8.630 -0.9160 -2.4485 -0.3990
 2386SOL    HW2 8600   1.670   1.642   8.572  0.9480  0.5817  0.3340
 2387SOL     OW 8601   3.014   2.557   8.998 -0.1619 -0.1526 -0.5038
 2387SOL    HW1 8602   3.054   2.634   8.957  0.0721 -0.1422 -0.2554
 2387SOL    HW2 8603   2.920   2.569   8.983 -0.2085  0.6490  0.3206
 2388SOL     OW 8604   2.571   2.440   8.971 -0.3546 -0.2558  0.1436
 2388SOL    HW1 8605   2.633   2.374   8.940 -0.5385  0.4760 -1.8766
 2388SOL    HW2 8606   2.625   2.504   9.017 -0.0538 -1.2700  1.2551
 2389SOL     OW 8607   1.873   3.532   9.488  0.2649 -0.6228  0.4919
 2389SOL    HW1 8608   1.892   3.508   9.397  0.0590 -0.7197  0.4735
 2389SOL    HW2 8609   1.930   3.607   9.506  0.3805 -0.6684  0.3155
 2390SOL     OW 8610   0.349   2.081   7.830 -0.7254 -0.5286  0.0525
 2390SOL    HW1 8611   0.308   2.149   7.777  0.8973  0.1225 -0.4248
 2390SOL    HW2 8612   0.443   2.090   7.812 -0.5369 -3.9932 -1.3621
 2391SOL     OW 8613   0.132   2.931   9.102  0.1568 -0.3782  0.1591
 2391SOL    HW1 8614   0.065   2.973   9.156 -0.8056 -2.3348  0.5612
 2391SOL    HW2 8615   0.148   2.847   9.144  1.5453 -0.7101 -0.9714
 2392SOL     OW 8616   0.371   2.934   8.599  0.0430  0.0171 -0.0412
 2392SOL    HW1 8617   0.297   2.970   8.550  0.3149  0.9499  0.2041
 2392SOL    HW2 8618   0.349   2.952   8.691  0.4019 -0.0264  0.0530
 2393SOL     OW 8619   1.316   2.893   8.621  0.0751  0.7313  0.2536
 2393SOL    HW1 8620   1.349   2.821   8.566  0.0493  1.2508 -0.4621
 2393SOL    HW2 8621   1.251   2.936   8.566 -0.4967  0.8106  0.9882
 2394SOL     OW 8622   1.800   2.993   8.543 -0.5596 -0.1491 -0.0553
 2394SOL    HW1 8623   1.711   3.017   8.566 -0.1058 -0.1168  1.7638
 2394SOL    HW2 8624   1.853   3.020   8.618  1.0526  0.2238 -1.2593
 2395SOL     OW 8625   6.979   3.064  10.436  0.2141 -0.5653 -0.5257
 2395SOL    HW1 8626   6.966   2.986  10.490  0.8710 -0.5588 -0.3563
 2395SOL    HW2 8627   7.073   3.076  10.433  0.1591 -0.2502 -1.2327
 2396SOL     OW 8628   1.311   3.955  10.020  0.0790 -0.6030 -0.2448
 2396SOL    HW1 8629   1.284   3.879  10.070 -0.9052 -0.5550 -0.6802
 2396SOL    HW2 8630   1.405   3.943  10.007  0.0299 -1.4682  0.1447
 2397SOL     OW 8631   2.049   2.645   7.465 -0.4120 -0.0965 -0.1794
 2397SOL    HW1 8632   2.022   2.554   7.477  0.1626 -0.4013 -1.1046
 2397SOL    HW2 8633   2.116   2.659   7.531 -2.1841  0.4294  1.6121
 2398SOL     OW 8634   2.327   4.841   7.747 -0.0469 -0.1126 -0.0478
 2398SOL    HW1 8635   2.277   4.798   7.678  0.5273  0.0481 -0.5653
 2398SOL    HW2 8636   2.417   4.814   7.732  0.2280  0.7323  0.0247
 2399SOL     OW 8637   0.163   1.849   9.426  0.1670  0.3325 -0.3435
 2399SOL    HW1 8638   0.228   1.884   9.365  2.6483  1.0050  2.4354
 2399SOL    HW2 8639   0.196   1.762   9.449 -0.4493  0.2723  0.3463
 2400SOL     OW 8640   7.099   2.274   9.639  0.3165 -0.1557 -0.0407
 2400SOL    HW1 8641   7.054   2.275   9.724  2.3885 -1.5664  1.1923
 2400SOL    HW2 8642   7.151   2.355   9.640  0.0402  0.0254 -0.1554
 2401SOL     OW 8643   0.880   2.720  10.229 -0.3732  0.3744 -0.1961
 2401SOL    HW1 8644   0.871   2.624  10.230  0.8235  0.2444  1.0534
 2401SOL    HW2 8645   0.871   2.746  10.320 -0.1291  1.3965 -0.4537
 2402SOL     OW 8646   2.509   2.218   9.153 -0.0553 -0.1788  0.2193
 2402SOL    HW1 8647   2.513   2.268   9.072  1.0134  0.6832  0.7838
 2402SOL    HW2 8648   2.601   2.208   9.180 -0.4118  0.0570  1.6151
 2403SOL     OW 8649   2.648   3.893   7.084  0.1407 -0.1094  0.0441
 2403SOL    HW1 8650   2.725   3.947   7.105 -0.1159 -0.0291  0.7912
 2403SOL    HW2 8651   2.584   3.914   7.152 -1.0517  0.8093 -1.2905
 2404SOL     OW 8652   7.038   2.352  10.084 -0.2205  0.6050 -0.5915
 2404SOL    HW1 8653   7.115   2.312  10.124 -0.8911  1.0800  1.2913
 2404SOL    HW2 8654   7.020   2.298  10.007  2.0197  0.5424 -1.1492
 2405SOL     OW 8655   0.885   3.163   8.527  0.6376 -0.0291 -0.3057
 2405SOL    HW1 8656   0.868   3.220   8.452 -1.1085  2.1745  1.6387
 2405SOL    HW2 8657   0.798   3.131   8.552  1.4081 -2.3007 -0.3187
 2406SOL     OW 8658   2.734   3.987   8.715  0.4445 -0.2057 -0.2805
 2406SOL    HW1 8659   2.663   4.044   8.745  0.0272 -0.4217 -0.8411
 2406SOL    HW2 8660   2.696   3.899   8.715  0.7630 -0.3439 -0.4172
 2407SOL     OW 8661   1.619   4.715   9.056  0.4647  0.4752  0.3274
 2407SOL    HW1 8662   1.628   4.684   9.146  2.7458 -1.9389 -0.5966
 2407SOL    HW2 8663   1.611   4.635   9.004  1.9325  1.6420 -1.8437
 2408SOL     OW 8664   0.340   3.763   8.842  0.1266  0.4392 -0.1658
 2408SOL    HW1 8665   0.250   3.735   8.829  0.5714 -0.3819 -1.7946
 2408SOL    HW2 8666   0.334   3.840   8.898 -1.4081 -0.8018  1.4639
 2409SOL     OW 8667   0.521   2.334   6.994 -1.0391 -0.4578 -0.0739
 2409SOL    HW1 8668   0.524   2.242   6.965  1.5547 -0.0292 -1.4673
 2409SOL    HW2 8669   0.437   2.366   6.962 -1.1495 -1.8451 -1.3311
 2410SOL     OW 8670   7.659   5.385  10.046  0.1663 -0.0826 -0.5414
 2410SOL    HW1 8671   7.719   5.328  10.095  1.0556  2.1014  1.0669
 2410SOL    HW2 8672   7.699   5.393   9.960  2.5297  1.6098  0.5955
 2411SOL     OW 8673   0.586   4.891   9.604 -0.8140 -0.2605 -0.0275
 2411SOL    HW1 8674   0.517   4.948   9.570  0.8009  0.8951 -1.6439
 2411SOL    HW2 8675   0.606   4.832   9.531 -1.1964 -1.6841  0.9905
 2412SOL     OW 8676   0.060   3.959  10.560  0.0002 -0.0360 -0.2626
 2412SOL    HW1 8677   0.114   4.027  10.520 -2.3718  1.5586 -0.9550
 2412SOL    HW2 8678   0.087   3.957  10.652  0.7472  1.1883 -0.4358
 2413SOL     OW 8679   2.180   0.576  10.405 -0.7161 -0.5840 -0.7533
 2413SOL    HW1 8680   2.098   0.620  10.387  0.2004  0.7964 -1.7507
 2413SOL    HW2 8681   2.155   0.495  10.449 -2.4253  1.3391  2.1082
 2414SOL     OW 8682   7.590   0.726   9.023  0.4443 -0.0443 -0.1206
 2414SOL    HW1 8683   7.670   0.756   8.980  0.2202 -1.9541 -2.0332
 2414SOL    HW2 8684   7.521   0.780   8.985  0.5206 -0.2236 -0.5233
 2415SOL     OW 8685   7.386   4.778   9.600 -0.1977 -0.3389  0.1329
 2415SOL    HW1 8686   7.407   4.852   9.656 -0.8231 -1.2714  1.6710
 2415SOL    HW2 8687   7.468   4.757   9.555  0.0030  1.2026 -0.2761
 2416SOL     OW 8688   1.332   3.222   7.854 -0.0969  0.2952  0.0964
 2416SOL    HW1 8689   1.393   3.295   7.845 -0.7308  0.7023 -1.0412
 2416SOL    HW2 8690   1.313   3.219   7.948  1.0738  0.6391  0.3580
 2417SOL     OW 8691   1.077   2.463   6.836  0.3281 -0.4758  0.3415
 2417SOL    HW1 8692   1.032   2.508   6.908  0.9855  0.1350  0.3879
 2417SOL    HW2 8693   1.016   2.467   6.763  0.8215  1.6649 -0.0498
 2418SOL     OW 8694   1.213   3.115  10.727 -0.4902 -0.1450 -0.1969
 2418SOL    HW1 8695   1.254   3.029  10.731 -1.7199 -0.7103  1.3058
 2418SOL    HW2 8696   1.137   3.104  10.670 -1.1063 -0.2892  0.6315
 2419SOL     OW 8697   7.405   5.313   8.984  0.2864 -0.5637  0.0446
 2419SOL    HW1 8698   7.490   5.276   8.963  0.6004  0.5745 -0.7967
 2419SOL    HW2 8699   7.392   5.382   8.919 -1.4167 -0.9023 -0.0260
 2420SOL     OW 8700   1.168   4.289   9.347  0.0586  0.4360 -0.0293
 2420SOL    HW1 8701   1.181   4.317   9.437  1.9132 -1.0327  0.2046
 2420SOL    HW2 8702   1.076   4.310   9.328  0.2323  2.8220  1.4152
 2421SOL     OW 8703   7.977   3.225  10.069  0.4071  0.1421 -0.3654
 2421SOL    HW1 8704   7.915   3.206  10.000  0.6528  2.2347 -1.2304
 2421SOL    HW2 8705   7.934   3.292  10.123  0.9289 -0.1675  0.4573
 2422SOL     OW 8706   7.905   0.363   7.318 -0.0083  0.2261 -0.0069
 2422SOL    HW1 8707   7.842   0.408   7.375  0.6399 -0.5645  1.3804
 2422SOL    HW2 8708   7.906   0.416   7.238 -0.7442  1.5394  0.8031
 2423SOL     OW 8709   2.757   1.602   7.502 -0.4960 -0.3320 -0.7283
 2423SOL    HW1 8710   2.766   1.693   7.472  1.4513 -0.5238 -0.9118
 2423SOL    HW2 8711   2.728   1.609   7.593  2.4292  0.6853  0.2743
 2424SOL     OW 8712   7.727   2.772   7.308  0.2031 -0.4957  0.3695
 2424SOL    HW1 8713   7.688   2.702   7.362 -0.6722 -0.1218  0.2434
 2424SOL    HW2 8714   7.662   2.842   7.311  0.1569 -0.4553 -1.1510
 2425SOL     OW 8715   7.545   2.445  10.885 -0.6145  0.5963 -0.3909
 2425SOL    HW1 8716   7.514   2.502  10.814  0.5423  1.2168 -0.4232
 2425SOL    HW2 8717   7.493   2.470  10.961 -0.0078  1.8695 -0.3538
 2426SOL     OW 8718   1.705   4.823   8.655  0.7587 -0.2120  0.1800
 2426SOL    HW1 8719   1.796   4.797   8.641  1.5203  2.7390 -1.2699
 2426SOL    HW2 8720   1.654   4.743   8.642  3.0483 -1.7169 -0.0183
 2427SOL     OW 8721   1.081   3.404   7.407  0.3431  0.0651  0.2691
 2427SOL    HW1 8722   0.992   3.435   7.388 -0.0010 -0.4502  0.9821
 2427SOL    HW2 8723   1.098   3.433   7.497  0.8845  0.1296  0.1484
 2428SOL     OW 8724   0.577   2.946   6.450 -0.3567  0.6181  0.1237
 2428SOL    HW1 8725   0.554   2.932   6.542  2.1947 -0.3504  0.6977
 2428SOL    HW2 8726   0.616   2.863   6.422 -0.7620  1.0140 -1.7421
 2429SOL     OW 8727   7.833   3.476   8.880  0.2546 -0.2501  0.1502
 2429SOL    HW1 8728   7.816   3.462   8.787  1.1034  1.7736 -0.3711
 2429SOL    HW2 8729   7.864   3.392   8.912 -0.7102 -1.1586 -1.2264
 2430SOL     OW 8730   1.573   4.564   7.522  0.1708  0.2857  0.5857
 2430SOL    HW1 8731   1.517   4.527   7.591 -0.9370 -0.4206 -0.6523
 2430SOL    HW2 8732   1.555   4.510   7.445  1.1026  1.2986 -0.3731
 2431SOL     OW 8733   0.840   2.540   7.293  0.1953  0.2966  0.0009
 2431SOL    HW1 8734   0.931   2.547   7.321  0.2593  0.9544 -0.3463
 2431SOL    HW2 8735   0.798   2.619   7.327 -0.3344 -0.1823  0.4698
 2432SOL     OW 8736   0.860   3.822   8.435 -0.2154 -0.2872  0.1422
 2432SOL    HW1 8737   0.835   3.740   8.477  2.1424 -0.3684  1.5472
 2432SOL    HW2 8738   0.954   3.813   8.417 -0.0634  1.7694 -0.4359
 2433SOL     OW 8739   3.096   1.240   6.997 -0.6889 -0.2577 -0.6961
 2433SOL    HW1 8740   3.119   1.233   7.090 -2.5167 -1.0954 -0.2787
 2433SOL    HW2 8741   3.116   1.332   6.975  1.1012 -0.4135  0.1092
 2434SOL     OW 8742   2.080   2.432   6.727 -0.0425 -0.7508 -0.5153
 2434SOL    HW1 8743   2.073   2.524   6.753 -1.7713 -0.9431 -0.2186
 2434SOL    HW2 8744   2.122   2.389   6.801 -0.9099 -0.5188  0.1198
 2435SOL     OW 8745   6.081   5.777   9.169  0.2037 -0.1541 -0.0661
 2435SOL    HW1 8746   5.990   5.766   9.145 -0.4105  0.7810  1.6538
 2435SOL    HW2 8747   6.116   5.839   9.105 -0.4836 -0.2009 -0.4856
 2436SOL     OW 8748   7.725   4.608   8.568  0.1055 -0.0012 -0.1825
 2436SOL    HW1 8749   7.724   4.698   8.535  0.5797  0.1524  0.1951
 2436SOL    HW2 8750   7.685   4.614   8.655 -0.0042 -0.1810 -0.2207
 2437SOL     OW 8751   0.498   2.649   9.797  0.1199  0.0903  0.5365
 2437SOL    HW1 8752   0.465   2.689   9.716 -2.4808 -0.3436  1.2939
 2437SOL    HW2 8753   0.586   2.685   9.808  0.4669  0.3276 -2.3429
 2438SOL     OW 8754   2.356   3.913   8.568  0.3236  0.0952  0.1562
 2438SOL    HW1 8755   2.427   3.969   8.599 -0.2434  0.5370  0.6603
 2438SOL    HW2 8756   2.276   3.955   8.598 -0.1122 -1.0954  0.7361
 2439SOL     OW 8757   2.359   2.463   8.659  0.2947 -0.4565 -0.5044
 2439SOL    HW1 8758   2.307   2.383   8.667  0.8781 -0.7293  0.8129
 2439SOL    HW2 8759   2.295   2.534   8.671 -0.0541 -0.7351 -0.6792
 2440SOL     OW 8760   1.178   2.374   9.965 -0.0891 -0.2317 -0.4985
 2440SOL    HW1 8761   1.099   2.334   9.930 -2.0766  3.0720 -0.1839
 2440SOL    HW2 8762   1.228   2.399   9.888 -0.1119 -0.8527 -0.7266
 2441SOL     OW 8763   0.208   2.177   9.543 -0.2924  0.2410  0.3894
 2441SOL    HW1 8764   0.166   2.154   9.460  0.6402  0.4112 -0.1428
 2441SOL    HW2 8765   0.205   2.272   9.546 -0.7855  0.2160  0.8029
 2442SOL     OW 8766   1.256   3.094   8.780 -0.2052 -0.2220 -0.1244
 2442SOL    HW1 8767   1.179   3.150   8.771  1.0654  1.4092 -1.8550
 2442SOL    HW2 8768   1.249   3.030   8.710  0.4073  0.5211 -0.8989
 2443SOL     OW 8769   1.748   1.131   8.808  0.4068  0.3186 -0.2339
 2443SOL    HW1 8770   1.782   1.056   8.857 -0.3259 -1.1774 -1.9200
 2443SOL    HW2 8771   1.792   1.127   8.723  1.4026  2.6682  0.1016
 2444SOL     OW 8772   7.104   4.680   8.653 -0.2583 -0.5231 -0.0495
 2444SOL    HW1 8773   7.176   4.716   8.602 -0.6300 -0.4505 -0.5279
 2444SOL    HW2 8774   7.036   4.748   8.651  0.0408 -0.1445  1.2755
 2445SOL     OW 8775   7.619   1.896   9.227 -0.2315 -0.4808 -0.0999
 2445SOL    HW1 8776   7.677   1.889   9.303 -0.6445 -0.4932  0.2171
 2445SOL    HW2 8777   7.568   1.976   9.243  0.6449  0.3039 -1.0446
 2446SOL     OW 8778   0.537   3.480   7.598  0.3024  0.5259  0.2485
 2446SOL    HW1 8779   0.590   3.492   7.519  1.7196 -1.6810  0.7973
 2446SOL    HW2 8780   0.466   3.421   7.571  1.5900 -1.3912  0.8830
 2447SOL     OW 8781   2.025   2.761   8.521 -0.0275  0.5529 -0.6232
 2447SOL    HW1 8782   1.994   2.850   8.537  0.9709  0.7460  0.3758
 2447SOL    HW2 8783   2.073   2.766   8.439  0.1820  0.9816 -0.4760
 2448SOL     OW 8784   7.831   2.438  10.827 -0.5168  0.3413 -0.1938
 2448SOL    HW1 8785   7.761   2.455  10.890  0.6993  1.3103  0.9577
 2448SOL    HW2 8786   7.852   2.523  10.790 -1.1097 -0.1976 -1.8446
 2449SOL     OW 8787   1.825   3.843   9.822  0.3980  0.4230  0.8665
 2449SOL    HW1 8788   1.878   3.784   9.875  0.1711 -0.1643  0.4535
 2449SOL    HW2 8789   1.884   3.871   9.751 -0.0434 -0.8196 -0.0180
 2450SOL     OW 8790   7.825   3.365   6.533  0.5257  0.8538 -0.1827
 2450SOL    HW1 8791   7.870   3.443   6.502  0.4173  0.7891 -0.5026
 2450SOL    HW2 8792   7.829   3.303   6.460 -0.2179  0.9045 -0.2715
 2451SOL     OW 8793   2.542   2.184   7.865 -0.2699  0.3795 -0.4735
 2451SOL    HW1 8794   2.600   2.256   7.893  1.1331 -0.4528 -1.1233
 2451SOL    HW2 8795   2.559   2.114   7.928 -0.0320 -0.1218 -1.0880
 2452SOL     OW 8796   1.692   4.375  10.091 -0.0194 -0.0451  0.0198
 2452SOL    HW1 8797   1.701   4.401   9.999 -0.7865  1.7099  0.4140
 2452SOL    HW2 8798   1.771   4.323  10.108  0.8183  0.7424 -1.2529
 2453SOL     OW 8799   0.632   4.625   8.687  0.3985 -0.3956 -0.1620
 2453SOL    HW1 8800   0.687   4.626   8.608  1.2312  0.0616  0.4169
 2453SOL    HW2 8801   0.621   4.717   8.710  0.3954 -0.5381  0.4245
 2454SOL     OW 8802   1.999   3.695   9.991 -0.3120 -0.1481  1.3291
 2454SOL    HW1 8803   2.058   3.714   9.918 -1.6529  1.3870  0.5741
 2454SOL    HW2 8804   2.047   3.634  10.046  0.6458 -1.5718 -0.9682
 2455SOL     OW 8805   2.241   2.572   6.995  0.2179  0.0567  0.6361
 2455SOL    HW1 8806   2.269   2.631   6.925  0.8957 -0.0661  0.8014
 2455SOL    HW2 8807   2.191   2.628   7.055 -0.7964  0.0635 -0.1858
 2456SOL     OW 8808   2.075   3.359   7.389 -0.1830 -0.2527 -0.3896
 2456SOL    HW1 8809   2.069   3.454   7.400  2.7566 -0.1914  2.0543
 2456SOL    HW2 8810   2.082   3.346   7.294 -0.6172  1.9538 -0.7745
 2457SOL     OW 8811   1.025   5.101  10.094 -0.0168 -1.0533  0.1303
 2457SOL    HW1 8812   1.079   5.023  10.078 -0.3111 -1.2988  0.3298
 2457SOL    HW2 8813   0.935   5.070  10.086 -0.1837 -1.1253  1.8466
 2458SOL     OW 8814   2.549   2.720   7.865 -0.2764 -0.0155 -0.0806
 2458SOL    HW1 8815   2.460   2.749   7.884  0.3875  2.3886 -0.3041
 2458SOL    HW2 8816   2.605   2.780   7.915  1.2305 -1.4451  0.0203
 2459SOL     OW 8817   0.968   1.949   8.582  0.7641  0.5211  0.2210
 2459SOL    HW1 8818   0.990   2.003   8.506  0.8978  0.4857  0.2341
 2459SOL    HW2 8819   0.876   1.926   8.569  1.5456 -1.9850 -1.4784
 2460SOL     OW 8820   1.060   4.195   7.087  0.0778 -0.3183  0.0544
 2460SOL    HW1 8821   0.974   4.237   7.087 -0.5664 -1.5815  0.3771
 2460SOL    HW2 8822   1.087   4.196   7.179 -0.3953 -1.4465  0.2275
 2461SOL     OW 8823   1.216   4.377   7.749 -0.3575  0.0260 -0.0932
 2461SOL    HW1 8824   1.159   4.329   7.809 -1.2553  0.3237 -0.6876
 2461SOL    HW2 8825   1.216   4.467   7.781  1.0090 -0.2670  0.7889
 2462SOL     OW 8826   1.276   2.351   8.681 -0.6169  0.3239 -0.6158
 2462SOL    HW1 8827   1.223   2.425   8.651 -0.8452  1.8459  2.9856
 2462SOL    HW2 8828   1.212   2.288   8.715 -0.3433 -0.9423 -2.3294
 2463SOL     OW 8829   1.476   2.999   8.932  0.1871  0.0033  0.3767
 2463SOL    HW1 8830   1.445   2.935   8.996  0.8184 -0.8579 -0.1395
 2463SOL    HW2 8831   1.397   3.044   8.902 -0.7231 -2.4857 -1.3034
 2464SOL     OW 8832   1.683   3.895   6.006 -0.7392 -0.5828  0.3185
 2464SOL    HW1 8833   1.621   3.887   5.933 -0.9837  0.3301  0.4081
 2464SOL    HW2 8834   1.769   3.883   5.965 -0.8254  0.6500 -0.2747
 2465SOL     OW 8835   0.867   4.038   8.623 -0.1533  0.0331 -0.0034
 2465SOL    HW1 8836   0.863   3.968   8.558 -1.8812 -0.6502  0.7626
 2465SOL    HW2 8837   0.837   3.997   8.705  0.2784  1.2934  0.8255
 2466SOL     OW 8838   0.966   3.162   7.910  0.1917 -0.0768  0.4282
 2466SOL    HW1 8839   0.897   3.220   7.879 -0.9442 -1.4346  0.3501
 2466SOL    HW2 8840   1.029   3.160   7.838 -1.3059 -1.4041 -0.9010
 2467SOL     OW 8841   1.315   3.485   7.260 -0.0695 -0.1080 -0.3079
 2467SOL    HW1 8842   1.298   3.448   7.173 -0.4863  1.1497 -0.7809
 2467SOL    HW2 8843   1.241   3.457   7.313 -1.8205  2.1610 -1.3630
 2468SOL     OW 8844   1.022   4.512   8.194  0.2602 -0.2160  0.3426
 2468SOL    HW1 8845   0.930   4.488   8.192  0.0605  0.3043  1.8671
 2468SOL    HW2 8846   1.024   4.603   8.163  0.4338 -0.6022 -0.8423
 2469SOL     OW 8847   1.962   2.498  10.675 -0.4688 -0.8000  0.4770
 2469SOL    HW1 8848   2.007   2.544  10.746 -0.6826 -1.0312  0.7642
 2469SOL    HW2 8849   1.872   2.531  10.679 -0.1159  0.3775 -0.7031
 2470SOL     OW 8850   0.121   3.988   9.527  0.6730  0.3609  0.2714
 2470SOL    HW1 8851   0.086   3.950   9.447  0.2217  0.0451  0.6099
 2470SOL    HW2 8852   0.105   3.922   9.594  2.1780  0.0880  0.4040
 2471SOL     OW 8853   7.546   0.393   8.810 -0.1322  0.2463 -0.0433
 2471SOL    HW1 8854   7.477   0.425   8.752 -1.2983 -0.6808  0.7993
 2471SOL    HW2 8855   7.510   0.400   8.898  1.2809  0.7932  0.5354
 2472SOL     OW 8856   7.626   1.727   8.128  0.0818  0.4546 -0.6984
 2472SOL    HW1 8857   7.699   1.753   8.072 -0.4699 -1.3246 -2.3774
 2472SOL    HW2 8858   7.646   1.765   8.213  1.8240  1.8675 -1.6581
 2473SOL     OW 8859   2.908   2.752   9.295  0.0098  0.0095  0.0907
 2473SOL    HW1 8860   3.001   2.754   9.319 -0.2412  1.2799  1.0617
 2473SOL    HW2 8861   2.862   2.769   9.378 -0.9822  2.3994 -0.8584
 2474SOL     OW 8862   0.645   1.978   7.348  0.0584  0.1075 -0.0260
 2474SOL    HW1 8863   0.682   2.064   7.329  2.0633 -0.9061 -0.9471
 2474SOL    HW2 8864   0.673   1.923   7.275  1.6774 -2.1225  2.1020
 2475SOL     OW 8865   1.433   1.857  10.290  0.1082 -0.4540 -0.4207
 2475SOL    HW1 8866   1.453   1.765  10.308  1.4373 -0.0832  0.1092
 2475SOL    HW2 8867   1.516   1.895  10.260 -0.2768  0.7142 -0.0753
 2476SOL     OW 8868   2.800   1.307   8.911 -0.2549 -0.0243  0.0018
 2476SOL    HW1 8869   2.773   1.395   8.884 -2.1950 -1.1123 -1.8967
 2476SOL    HW2 8870   2.857   1.277   8.840  1.0845 -0.0345  1.0485
 2477SOL     OW 8871   6.330   1.052   8.699 -0.3559  0.1594 -0.1878
 2477SOL    HW1 8872   6.359   0.963   8.715  0.8519  0.5860  0.1544
 2477SOL    HW2 8873   6.344   1.065   8.605 -0.2243  0.0908 -0.1773
 2478SOL     OW 8874   0.079   3.133   8.102  0.3500 -0.5620  0.7488
 2478SOL    HW1 8875   0.004   3.172   8.147  0.3996 -2.3870  2.5921
 2478SOL    HW2 8876   0.045   3.103   8.019  0.1550  2.6007 -0.4585
 2479SOL     OW 8877   1.081   2.936   6.464  0.2888  0.0908  0.3163
 2479SOL    HW1 8878   1.118   2.937   6.553 -3.0949 -2.6483  1.9764
 2479SOL    HW2 8879   1.102   2.848   6.431 -0.7626  0.1436 -0.5186
 2480SOL     OW 8880   0.764   2.626   8.054 -0.2002 -0.1114  0.8910
 2480SOL    HW1 8881   0.782   2.663   7.968 -3.1844 -1.6050 -0.5146
 2480SOL    HW2 8882   0.797   2.692   8.115  1.2189  1.4038 -1.3421
 2481SOL     OW 8883   1.553   2.943   8.106  0.5057  0.2653  0.0881
 2481SOL    HW1 8884   1.572   2.930   8.199  0.9325  1.9547  0.2632
 2481SOL    HW2 8885   1.627   2.903   8.061  1.5620  1.5793  0.5849
 2482SOL     OW 8886   0.735   4.420  11.490  0.4817  0.0391 -0.4502
 2482SOL    HW1 8887   0.665   4.464  11.442  0.4378 -0.5068 -0.9044
 2482SOL    HW2 8888   0.691   4.374  11.562  0.2328 -1.0415 -1.2563
 2483SOL     OW 8889   0.386   2.622   9.493  0.8439  0.2084  0.0082
 2483SOL    HW1 8890   0.385   2.682   9.418 -1.4002  0.7753  0.3967
 2483SOL    HW2 8891   0.474   2.586   9.494  1.3441  1.1968 -2.0920
 2484SOL     OW 8892   0.212   4.194   9.657 -0.1251  0.3545 -0.3180
 2484SOL    HW1 8893   0.165   4.121   9.616  0.2732  0.5284 -1.1004
 2484SOL    HW2 8894   0.207   4.265   9.593 -2.5187  1.8282  1.3541
 2485SOL     OW 8895   1.537   3.061   8.613 -0.3518  0.2950  0.7343
 2485SOL    HW1 8896   1.490   3.130   8.660 -2.6799 -0.5269 -0.2485
 2485SOL    HW2 8897   1.481   2.984   8.621  1.4100 -1.0841  0.4491
 2486SOL     OW 8898   1.146   2.136   8.822 -0.1553 -0.2752  0.4097
 2486SOL    HW1 8899   1.151   2.174   8.910 -0.7184  1.0372 -0.0931
 2486SOL    HW2 8900   1.084   2.064   8.831 -0.7174  0.2529  0.9682
 2487SOL     OW 8901   1.685   2.122   9.177  0.0583 -0.1531 -0.2793
 2487SOL    HW1 8902   1.635   2.079   9.108  0.6190 -1.2824  0.0060
 2487SOL    HW2 8903   1.730   2.194   9.132 -0.8835  0.1485 -0.7606
 2488SOL     OW 8904   0.724   1.541  10.286  0.6125  0.4959 -0.3938
 2488SOL    HW1 8905   0.700   1.484  10.214 -1.6465  1.7288 -0.7144
 2488SOL    HW2 8906   0.784   1.605  10.248  1.5520 -0.4432 -0.5087
 2489SOL     OW 8907   0.889   3.306   9.814  0.3344 -0.0479  0.5916
 2489SOL    HW1 8908   0.856   3.377   9.870 -0.7484  0.5707 -0.7691
 2489SOL    HW2 8909   0.816   3.285   9.756  0.5947 -2.4033  1.0404
 2490SOL     OW 8910   0.052   2.214   7.488  0.3973  0.0351  0.1933
 2490SOL    HW1 8911   0.001   2.144   7.448  0.1477  0.0504  0.4842
 2490SOL    HW2 8912   0.103   2.251   7.416 -0.9895  0.8972 -0.3736
 2491SOL     OW 8913   2.881   2.966   9.617 -0.4824 -0.4713 -0.2357
 2491SOL    HW1 8914   2.967   2.998   9.589 -0.3570 -0.3380  0.3023
 2491SOL    HW2 8915   2.882   2.873   9.594  1.0565 -1.2656  2.6541
 2492SOL     OW 8916   1.874   2.799   7.084 -0.1035  0.4533 -0.3921
 2492SOL    HW1 8917   1.955   2.752   7.103 -0.4762 -0.2724 -0.5749
 2492SOL    HW2 8918   1.881   2.879   7.136  0.1701 -0.1737  0.5659
 2493SOL     OW 8919   0.511   2.938   8.326  0.3803 -0.1172 -0.3005
 2493SOL    HW1 8920   0.453   2.917   8.398  1.8770 -1.5001  0.5733
 2493SOL    HW2 8921   0.457   2.930   8.248 -0.8258 -0.3537  0.5376
 2494SOL     OW 8922   0.541   3.845   8.100  0.2685  0.2127 -0.7213
 2494SOL    HW1 8923   0.541   3.781   8.029 -1.0708 -0.3031 -0.2869
 2494SOL    HW2 8924   0.456   3.834   8.143  1.2115  0.2081  1.2515
 2495SOL     OW 8925   0.437   2.919   9.665  0.2279 -0.1630  0.0807
 2495SOL    HW1 8926   0.351   2.888   9.637  0.2132  0.1864 -0.2799
 2495SOL    HW2 8927   0.422   2.961   9.749 -0.6717  3.1555 -1.5699
 2496SOL     OW 8928   6.834   2.162   7.595  0.0345 -0.0010 -0.2890
 2496SOL    HW1 8929   6.812   2.134   7.684  0.1993 -2.3685 -0.9289
 2496SOL    HW2 8930   6.909   2.108   7.571  0.2469  0.9048 -1.7359
 2497SOL     OW 8931   3.788   0.655   8.775  0.2117 -0.6901 -0.2870
 2497SOL    HW1 8932   3.824   0.737   8.743 -0.4701 -0.5633 -0.7632
 2497SOL    HW2 8933   3.747   0.615   8.698  0.0579 -1.2113  0.0581
 2498SOL     OW 8934   7.067   2.722   7.595 -0.1896  0.0869 -0.1829
 2498SOL    HW1 8935   6.998   2.764   7.544  2.1841  0.6924 -3.2367
 2498SOL    HW2 8936   7.073   2.633   7.559  1.3987  0.4594 -0.9624
 2499SOL     OW 8937   1.882   3.766   8.221 -0.0824  0.9598  0.3284
 2499SOL    HW1 8938   1.946   3.735   8.158 -1.0564  1.9687 -1.2215
 2499SOL    HW2 8939   1.904   3.858   8.235 -0.8248  1.1625  0.2227
 2500SOL     OW 8940   0.086   3.570  10.397  0.0186  0.5503 -0.2729
 2500SOL    HW1 8941   0.045   3.511  10.334  0.8332  2.1747 -2.4289
 2500SOL    HW2 8942   0.013   3.615  10.439 -0.5393  1.0222 -1.6835
 2501SOL     OW 8943   0.403   2.015   9.495 -0.1002 -0.1338  0.1611
 2501SOL    HW1 8944   0.380   2.002   9.404  0.5781  2.5061 -0.4768
 2501SOL    HW2 8945   0.326   2.056   9.534  0.0309 -0.1831  0.4756
 2502SOL     OW 8946   7.857   1.263   5.524 -0.7758  0.3364 -0.2454
 2502SOL    HW1 8947   7.915   1.222   5.588  1.7286  4.9241  0.8692
 2502SOL    HW2 8948   7.891   1.235   5.439  1.2449  0.6042  0.4356
 2503SOL     OW 8949   1.615   2.026   8.601  0.1399  0.1680  0.0667
 2503SOL    HW1 8950   1.662   2.068   8.673  1.4094 -0.4651 -0.3672
 2503SOL    HW2 8951   1.544   2.088   8.580  0.3465  0.8201  1.1869
 2504SOL     OW 8952   7.514   3.934   7.265  0.2253  0.5177 -0.4304
 2504SOL    HW1 8953   7.471   3.968   7.187  1.5542 -0.1566 -1.5039
 2504SOL    HW2 8954   7.546   4.012   7.310  0.1257  0.8764 -0.9717
 2505SOL     OW 8955   6.792   2.603   8.146  0.0695  0.0237 -0.0299
 2505SOL    HW1 8956   6.838   2.662   8.206  1.1406  0.1102 -0.9074
 2505SOL    HW2 8957   6.789   2.650   8.063 -1.4142 -0.0877 -0.0654
 2506SOL     OW 8958   2.509   2.117   8.338  0.5300  0.6230 -0.4093
 2506SOL    HW1 8959   2.522   2.125   8.432 -0.1110  0.2471 -0.2847
 2506SOL    HW2 8960   2.434   2.173   8.318 -2.2568 -2.6012  0.0498
 2507SOL     OW 8961   2.992   2.566   8.630 -0.1206 -0.2978  0.3389
 2507SOL    HW1 8962   3.062   2.502   8.619 -0.5760 -0.6823 -0.3755
 2507SOL    HW2 8963   2.912   2.520   8.605 -0.7425 -0.0722  1.8049
 2508SOL     OW 8964   2.089   4.421   6.293  0.3316  0.1345  0.2186
 2508SOL    HW1 8965   2.137   4.340   6.309  0.6788  0.3378  0.2311
 2508SOL    HW2 8966   2.154   4.490   6.310 -0.3028  0.4567  1.4965
 2509SOL     OW 8967   6.916   3.305   6.992  0.1785 -0.0990  0.8117
 2509SOL    HW1 8968   6.833   3.289   6.948 -0.0487  0.0537  1.1726
 2509SOL    HW2 8969   6.892   3.313   7.085  0.8283 -1.8305  1.1619
 2510SOL     OW 8970   7.487   3.356   7.553  0.4887 -0.4115  0.2026
 2510SOL    HW1 8971   7.557   3.364   7.618 -1.3762  1.4002  2.1866
 2510SOL    HW2 8972   7.439   3.278   7.578  0.1389 -0.0598  0.6465
 2511SOL     OW 8973   0.939   2.983   9.277  0.3026 -0.4708 -0.4239
 2511SOL    HW1 8974   0.890   3.016   9.202  0.7503  0.7096 -0.2166
 2511SOL    HW2 8975   0.880   2.920   9.318 -0.3314 -0.3969 -1.1949
 2512SOL     OW 8976   7.727   1.943  10.504  0.1628  0.0504 -0.3012
 2512SOL    HW1 8977   7.723   1.859  10.458 -0.8183  0.1553 -0.4465
 2512SOL    HW2 8978   7.767   1.923  10.588 -0.7421 -0.7257 -0.0344
 2513SOL     OW 8979   1.922   2.474   8.869  0.4285  0.0869  0.0916
 2513SOL    HW1 8980   1.878   2.489   8.785 -1.2425 -0.0086  0.9221
 2513SOL    HW2 8981   1.975   2.396   8.854  0.1480  0.0660 -0.8801
 2514SOL     OW 8982   7.439   4.288  12.274  0.5428 -1.1328  0.0620
 2514SOL    HW1 8983   7.515   4.337  12.245 -0.2664 -0.5125 -1.0675
 2514SOL    HW2 8984   7.452   4.200  12.239 -0.1451 -0.5395 -1.7860
 2515SOL     OW 8985   2.945   3.107  10.235 -0.1712 -0.2345 -0.4981
 2515SOL    HW1 8986   2.951   3.135  10.143 -0.0402  1.2727 -0.0602
 2515SOL    HW2 8987   2.973   3.184  10.285 -1.9830 -0.3982  0.8633
 2516SOL     OW 8988   0.376   3.190  10.375 -0.2435  0.3393  0.2596
 2516SOL    HW1 8989   0.336   3.222  10.455  2.1115  0.6414  1.3847
 2516SOL    HW2 8990   0.431   3.262  10.345  1.1260 -0.7809 -0.0224
 2517SOL     OW 8991   1.971   1.245   8.542 -0.2685 -0.5801 -0.2298
 2517SOL    HW1 8992   1.994   1.224   8.452 -0.4698 -0.4509 -0.3136
 2517SOL    HW2 8993   1.958   1.340   8.542 -1.5796 -0.7439 -0.3723
 2518SOL     OW 8994   7.031   2.104  10.322 -0.2751  0.3471 -0.5428
 2518SOL    HW1 8995   7.030   2.011  10.341  0.2229  0.2460 -0.9852
 2518SOL    HW2 8996   7.109   2.117  10.268  0.8865  1.3802  1.2820
 2519SOL     OW 8997   0.353   4.001   9.024  0.2453  0.7496 -0.5575
 2519SOL    HW1 8998   0.314   4.011   9.111 -2.0666 -2.6999 -0.9966
 2519SOL    HW2 8999   0.292   4.044   8.964 -0.6911 -0.8973 -0.8386
 2520SOL     OW 9000   7.432   3.865   9.650 -0.1248  0.3605  0.1770
 2520SOL    HW1 9001   7.519   3.886   9.684  0.0499 -0.2298  0.1259
 2520SOL    HW2 9002   7.378   3.941   9.669 -0.3222 -0.3264  2.7141
 2521SOL     OW 9003   1.326   3.417   9.442  0.4616 -0.0701 -0.2228
 2521SOL    HW1 9004   1.331   3.508   9.471  0.5436  0.3581 -1.5130
 2521SOL    HW2 9005   1.415   3.383   9.453  0.6495  0.2916 -0.6060
 2522SOL     OW 9006   7.040   3.093   9.106 -0.2504 -0.2638 -0.4139
 2522SOL    HW1 9007   6.995   3.097   9.191 -0.2356  0.2597 -0.4308
 2522SOL    HW2 9008   7.129   3.066   9.128  0.3157  1.7367 -0.0376
 2523SOL     OW 9009   2.305   3.407  10.367 -0.1459  0.0145 -0.0898
 2523SOL    HW1 9010   2.399   3.421  10.358 -0.1218 -0.5967 -1.0222
 2523SOL    HW2 9011   2.286   3.336  10.305 -1.2400  0.2174 -0.0045
 2524SOL     OW 9012   6.339   4.361   8.852 -0.6002 -0.5199  0.0068
 2524SOL    HW1 9013   6.277   4.295   8.824  0.8365 -1.6671 -0.5980
 2524SOL    HW2 9014   6.289   4.443   8.851 -1.6790 -1.1323 -1.9977
 2525SOL     OW 9015   1.910   3.071   8.835  0.4328 -0.4101 -0.0501
 2525SOL    HW1 9016   1.999   3.077   8.799  0.0334  0.9760 -0.8950
 2525SOL    HW2 9017   1.919   3.103   8.925  0.8572 -0.6855  0.0107
 2526SOL     OW 9018   0.924   2.602   9.348  0.7786 -0.1301  0.1573
 2526SOL    HW1 9019   0.906   2.633   9.436  0.7724  4.4865 -1.2062
 2526SOL    HW2 9020   1.016   2.626   9.332  0.9663 -1.4243 -0.9347
 2527SOL     OW 9021   1.680   3.465  10.526 -0.2535 -0.0372 -0.1803
 2527SOL    HW1 9022   1.658   3.389  10.472  0.7529 -0.9284  0.5997
 2527SOL    HW2 9023   1.762   3.440  10.570  0.0065  1.4356  0.2371
 2528SOL     OW 9024   1.873   4.109  10.006 -0.0943  0.3349  0.5307
 2528SOL    HW1 9025   1.845   4.102   9.915 -1.1973  0.2465  0.8561
 2528SOL    HW2 9026   1.948   4.168  10.004  0.9746 -0.9845 -0.6308
 2529SOL     OW 9027   7.206   3.450   9.485  0.1300  0.5288 -0.2214
 2529SOL    HW1 9028   7.265   3.526   9.482 -0.4093  0.9664  0.0732
 2529SOL    HW2 9029   7.119   3.487   9.472 -0.3133  0.1762  1.5213
 2530SOL     OW 9030   0.307   3.960  11.054  0.7689  0.2061 -0.1545
 2530SOL    HW1 9031   0.322   3.873  11.018  1.8194  0.6692 -0.8732
 2530SOL    HW2 9032   0.223   3.953  11.099  1.2600 -1.4034  0.5577
 2531SOL     OW 9033   1.398   3.596   8.757 -0.0145  0.0118  0.5373
 2531SOL    HW1 9034   1.312   3.564   8.732 -0.4425  0.3252  1.5376
 2531SOL    HW2 9035   1.396   3.690   8.738  0.7642 -0.2757 -1.1352
 2532SOL     OW 9036   1.094   2.776  11.275  0.3484 -0.1039  0.6224
 2532SOL    HW1 9037   1.148   2.852  11.255  0.2281 -0.1900 -0.0306
 2532SOL    HW2 9038   1.014   2.812  11.313  0.3832  0.0806  0.5179
 2533SOL     OW 9039   1.343   0.383   8.962 -0.2403 -0.0877 -0.1274
 2533SOL    HW1 9040   1.321   0.294   8.934 -1.5683  0.0914  0.2720
 2533SOL    HW2 9041   1.310   0.439   8.892  1.2629  0.0694 -0.7375
 2534SOL     OW 9042   1.246   2.547   9.713  0.0108  0.4411  0.6254
 2534SOL    HW1 9043   1.298   2.583   9.641 -1.0250  0.7493  0.0229
 2534SOL    HW2 9044   1.185   2.616   9.736  0.0150  0.1707  1.4970
 2535SOL     OW 9045   0.289   3.805  10.734 -0.1105  0.1983  0.1213
 2535SOL    HW1 9046   0.262   3.897  10.740  0.9590  0.4993  0.5651
 2535SOL    HW2 9047   0.333   3.787  10.817 -0.6734 -0.8509  0.2100
 2536SOL     OW 9048   0.097   2.161   9.270  0.0767  0.1970  0.7113
 2536SOL    HW1 9049   0.015   2.112   9.268  0.4050 -0.3638 -1.2967
 2536SOL    HW2 9050   0.123   2.168   9.178  1.2078  2.2043  1.1232
 2537SOL     OW 9051   2.739   2.882   8.862 -0.1010  0.6977 -0.1026
 2537SOL    HW1 9052   2.727   2.905   8.954  1.8329 -0.0607  0.3965
 2537SOL    HW2 9053   2.746   2.786   8.862 -0.3955  0.6646 -1.0852
 2538SOL     OW 9054   7.979   1.035  10.479 -0.3770  0.1883 -0.1269
 2538SOL    HW1 9055   7.971   1.126  10.452  2.0775  0.4241 -0.2579
 2538SOL    HW2 9056   8.061   1.005  10.440 -1.5230 -2.3559 -0.7858
 2539SOL     OW 9057   7.859   4.365  10.309 -0.2299  0.3058  0.2471
 2539SOL    HW1 9058   7.789   4.329  10.255 -1.3082  1.6877  0.6479
 2539SOL    HW2 9059   7.939   4.326  10.275 -1.1548 -1.0357 -0.4695
 2540SOL     OW 9060   1.527   2.490   9.741 -0.1942  0.5388  0.2549
 2540SOL    HW1 9061   1.434   2.511   9.742 -0.4218 -0.4178  1.4048
 2540SOL    HW2 9062   1.543   2.446   9.825  0.7949 -1.3743 -0.8593
 2541SOL     OW 9063   0.329   3.793  10.205  0.2022  0.5591 -0.3291
 2541SOL    HW1 9064   0.351   3.759  10.292 -1.3864  0.8658  0.2360
 2541SOL    HW2 9065   0.314   3.715  10.152  2.1425  0.3478 -0.6476
 2542SOL     OW 9066   2.970   2.334  11.936  0.2187 -0.2893 -0.2507
 2542SOL    HW1 9067   2.924   2.408  11.976 -0.2210 -0.2773 -0.7724
 2542SOL    HW2 9068   3.015   2.292  12.010 -0.7911 -0.4204  0.3201
 2543SOL     OW 9069   0.794   5.016   8.335 -0.0886 -0.1574  0.0746
 2543SOL    HW1 9070   0.756   5.086   8.389  1.1147  0.7476 -0.2073
 2543SOL    HW2 9071   0.887   5.018   8.355  0.3043 -0.1829 -1.5957
 2544SOL     OW 9072   1.414   2.918  11.378  0.4948 -0.3033  0.6969
 2544SOL    HW1 9073   1.418   3.002  11.422  2.2263 -0.5341  1.0435
 2544SOL    HW2 9074   1.356   2.933  11.303 -0.6041  0.7084  1.7168
 2545SOL     OW 9075   0.120   2.786  10.413 -0.0630 -0.2671  0.0028
 2545SOL    HW1 9076   0.213   2.807  10.414  0.5850 -2.5786  2.1785
 2545SOL    HW2 9077   0.081   2.848  10.352  2.9946  0.3062 -1.5575
 2546SOL     OW 9078   0.641   3.159  10.874 -0.5954  0.0074  0.4248
 2546SOL    HW1 9079   0.697   3.081  10.869 -0.1275  0.4074 -1.0541
 2546SOL    HW2 9080   0.553   3.124  10.891 -0.4650 -0.8942 -0.6195
 2547SOL     OW 9081   3.138   2.605  10.920 -0.5386  0.0933 -0.3503
 2547SOL    HW1 9082   3.135   2.602  11.015  1.2362  0.3015 -0.2602
 2547SOL    HW2 9083   3.170   2.519  10.894  2.6346  1.1872 -0.4910
 2548SOL     OW 9084   0.755   3.104  10.147  0.2390 -0.3154 -0.5607
 2548SOL    HW1 9085   0.735   3.136  10.235 -0.1840 -1.7357 -0.1273
 2548SOL    HW2 9086   0.850   3.115  10.140  0.1362  0.8772 -0.3849
 2549SOL     OW 9087   1.218   2.679  10.498  0.3681 -0.3197 -0.0531
 2549SOL    HW1 9088   1.292   2.721  10.453  1.0357  1.0647  2.1486
 2549SOL    HW2 9089   1.257   2.603  10.542  0.2037 -0.3711  0.0047
 2550SOL     OW 9090   1.044   4.846   8.469  0.1732  0.1269 -0.0365
 2550SOL    HW1 9091   1.108   4.896   8.519 -0.0015 -0.5552  0.9168
 2550SOL    HW2 9092   0.988   4.807   8.536  0.3489 -1.3795 -0.7187
 2551SOL     OW 9093   1.863   2.344   9.969  0.2461 -0.2866 -0.5646
 2551SOL    HW1 9094   1.909   2.319  10.050  0.1322 -0.1076 -0.4445
 2551SOL    HW2 9095   1.782   2.385   9.999  0.6270  0.6245 -0.7529
 2552SOL     OW 9096   1.328   1.763  11.272  0.3727 -0.5944  0.4720
 2552SOL    HW1 9097   1.340   1.731  11.362  0.1323  1.0302  1.1091
 2552SOL    HW2 9098   1.381   1.842  11.267 -0.0325 -0.3758 -0.6710
 2553SOL     OW 9099   0.302   4.819  11.531 -0.0548  0.0322 -0.0889
 2553SOL    HW1 9100   0.296   4.859  11.617  1.5732  0.8220 -0.3048
 2553SOL    HW2 9101   0.233   4.861  11.480 -0.6377 -0.0109  0.6585
 2554SOL     OW 9102   0.409   3.047   9.908 -0.2201  0.2201 -0.0868
 2554SOL    HW1 9103   0.349   3.050   9.983  2.4070 -0.2396  2.2147
 2554SOL    HW2 9104   0.477   3.110   9.929  1.5703 -1.2523 -1.1545
 2555SOL     OW 9105   6.228   1.321   9.658 -0.2155 -0.1979 -0.1018
 2555SOL    HW1 9106   6.307   1.368   9.632  0.0079  0.0583  0.9822
 2555SOL    HW2 9107   6.165   1.338   9.588  0.8754 -0.9211 -1.2993
 2556SOL     OW 9108   6.363   2.521  10.320  0.3749  0.4455 -0.2168
 2556SOL    HW1 9109   6.339   2.555  10.233 -0.0006 -1.6424 -0.9882
 2556SOL    HW2 9110   6.456   2.502  10.313  0.5783  1.2362  0.2059
 2557SOL     OW 9111   0.682   3.808  10.875  0.0625  0.2452  0.2336
 2557SOL    HW1 9112   0.742   3.738  10.851 -0.7663  0.2749 -2.1909
 2557SOL    HW2 9113   0.695   3.876  10.809 -1.9075  0.6560  0.1853
 2558SOL     OW 9114   7.979   2.837  10.924 -0.7516 -0.2764  0.1082
 2558SOL    HW1 9115   8.063   2.838  10.879 -0.4839 -0.1054  0.6008
 2558SOL    HW2 9116   7.979   2.756  10.974 -0.9540 -0.3591 -0.0232
 2559SOL     OW 9117   2.729   0.936  10.695  0.5616  0.2592  0.5080
 2559SOL    HW1 9118   2.727   0.842  10.679  0.6069  0.2002  0.8351
 2559SOL    HW2 9119   2.741   0.944  10.790 -1.0742  0.5877  0.7139
 2560SOL     OW 9120   6.760   1.612  10.105 -0.1686  0.2843  0.0320
 2560SOL    HW1 9121   6.758   1.693  10.155 -1.4125  0.7169 -0.6626
 2560SOL    HW2 9122   6.845   1.611  10.062  1.1198 -0.3173  2.4315
 2561SOL     OW 9123   1.393   2.465  10.535 -0.2207  0.2517  0.0319
 2561SOL    HW1 9124   1.426   2.375  10.528 -0.7943  0.0374  0.0300
 2561SOL    HW2 9125   1.463   2.512  10.579  1.3155  0.4796 -2.4899
 2562SOL     OW 9126   1.661   3.837   8.827 -0.4528 -0.3498  0.0413
 2562SOL    HW1 9127   1.647   3.779   8.902  0.3513  0.0482  0.5084
 2562SOL    HW2 9128   1.572   3.857   8.796 -0.7481 -1.6810 -0.0272
 2563SOL     OW 9129   0.353   2.325  10.266 -0.0095 -0.3315 -0.1073
 2563SOL    HW1 9130   0.362   2.418  10.289  0.3357 -0.1861 -0.7765
 2563SOL    HW2 9131   0.272   2.297  10.308  0.2887  0.0668  0.7471
 2564SOL     OW 9132   2.689   3.673  11.430  0.0657 -0.5498  0.3089
 2564SOL    HW1 9133   2.778   3.666  11.394  0.7705 -0.9899  2.0348
 2564SOL    HW2 9134   2.645   3.594  11.398  0.1190 -0.0882 -0.9611
 2565SOL     OW 9135   1.659   2.174  11.457  0.2781  0.3154  0.0485
 2565SOL    HW1 9136   1.720   2.180  11.383  0.1202  0.3669 -0.0774
 2565SOL    HW2 9137   1.584   2.226  11.430 -0.2999 -0.6558 -0.2558
 2566SOL     OW 9138   1.726   1.776   8.855 -0.1709 -0.5142  0.0029
 2566SOL    HW1 9139   1.744   1.860   8.813  2.7742 -1.2834 -0.4907
 2566SOL    HW2 9140   1.694   1.721   8.784 -1.7339  0.0320  0.2494
 2567SOL     OW 9141   2.094   2.635  10.871 -0.2831 -0.1295  0.5966
 2567SOL    HW1 9142   2.088   2.723  10.834  1.1769  0.0894  0.8341
 2567SOL    HW2 9143   2.186   2.624  10.893 -0.5221 -1.5563  0.9944
 2568SOL     OW 9144   0.198   2.291  12.050 -0.0692  0.1134  0.4217
 2568SOL    HW1 9145   0.164   2.206  12.079  0.9644 -0.3292  0.3895
 2568SOL    HW2 9146   0.293   2.278  12.045  0.2016  1.5482  1.3123
 2569SOL     OW 9147   2.306   2.904  10.271  0.2663  0.7100 -0.2180
 2569SOL    HW1 9148   2.224   2.856  10.262  0.4634  0.4705 -0.8029
 2569SOL    HW2 9149   2.286   2.992  10.239  0.3718  0.4957 -0.9055
 2570SOL     OW 9150   0.801   1.426  10.697 -0.0565  0.5925 -0.5917
 2570SOL    HW1 9151   0.861   1.497  10.673  0.0751  1.7347  2.6422
 2570SOL    HW2 9152   0.844   1.383  10.771 -1.3352 -1.3133 -0.8868
 2571SOL     OW 9153   2.106   2.737   9.943 -0.5989 -0.2815  0.1159
 2571SOL    HW1 9154   2.059   2.747   9.861 -0.6681  0.1966  0.2150
 2571SOL    HW2 9155   2.127   2.643   9.947 -0.2360 -0.2390 -0.6398
 2572SOL     OW 9156   1.775   4.277   8.164 -0.2817  0.4475 -0.2293
 2572SOL    HW1 9157   1.727   4.251   8.085  0.0354 -1.1311  0.0786
 2572SOL    HW2 9158   1.757   4.371   8.172  0.4478  0.8769 -2.7199
 2573SOL     OW 9159   3.017   1.335   9.223  0.1765  0.3012  0.1196
 2573SOL    HW1 9160   3.044   1.366   9.310 -0.6307 -0.0208  0.4889
 2573SOL    HW2 9161   3.003   1.241   9.234 -1.9267  0.5815  0.1769
 2574SOL     OW 9162   7.146   4.671   9.747 -0.2932 -0.3314  0.0995
 2574SOL    HW1 9163   7.232   4.692   9.711  0.1074 -0.6783  0.8308
 2574SOL    HW2 9164   7.084   4.708   9.684  0.3672 -1.3526 -1.2175
 2575SOL     OW 9165   1.520   5.536  11.730 -0.1521 -0.4586 -0.1134
 2575SOL    HW1 9166   1.608   5.499  11.739  0.2964  0.6568  0.3982
 2575SOL    HW2 9167   1.536   5.630  11.720 -1.1959 -0.4288 -2.0290
 2576SOL     OW 9168   2.409   2.903   8.794 -0.0838  0.0225  0.0403
 2576SOL    HW1 9169   2.452   2.977   8.837 -1.4261  0.7518  0.2199
 2576SOL    HW2 9170   2.356   2.863   8.863 -0.9668  0.1778 -0.5318
 2577SOL     OW 9171   0.877   1.941  11.647  0.4490  0.0111  0.0314
 2577SOL    HW1 9172   0.848   2.013  11.702  0.3659  0.5767 -0.7255
 2577SOL    HW2 9173   0.801   1.921  11.591  0.3516 -0.9076  0.4750
 2578SOL     OW 9174   0.710   1.471  11.133 -0.3969  0.1719 -0.4192
 2578SOL    HW1 9175   0.702   1.379  11.109 -0.2714 -0.1356  0.6568
 2578SOL    HW2 9176   0.800   1.480  11.164 -0.5378  0.5509 -0.1114
 2579SOL     OW 9177   1.187   3.618  12.309 -0.0809  0.2176  0.3104
 2579SOL    HW1 9178   1.114   3.606  12.249 -0.0925 -0.2879  0.4248
 2579SOL    HW2 9179   1.247   3.677  12.262  0.4126 -1.0067 -0.6627
 2580SOL     OW 9180   0.817   2.931   8.853 -0.3631 -0.4842  0.0760
 2580SOL    HW1 9181   0.776   2.986   8.786  0.3133  0.0079  0.0609
 2580SOL    HW2 9182   0.910   2.932   8.831 -0.2590 -1.1092  0.4596
 2581SOL     OW 9183   1.966   3.398  11.118  0.4625  0.4298  0.1189
 2581SOL    HW1 9184   1.953   3.323  11.177  1.1473 -0.4090 -0.7728
 2581SOL    HW2 9185   1.878   3.417  11.085  0.3238 -0.2158  0.0916
 2582SOL     OW 9186   6.256   1.893  10.022 -0.0525  0.6120 -0.6055
 2582SOL    HW1 9187   6.283   1.801  10.029 -1.5462  0.0253 -1.8763
 2582SOL    HW2 9188   6.210   1.898   9.938  1.7371  3.0127 -1.5919
 2583SOL     OW 9189   1.590   3.786  11.050  0.0291  0.1657 -0.6371
 2583SOL    HW1 9190   1.568   3.832  11.132 -0.3451  0.6944 -1.0302
 2583SOL    HW2 9191   1.505   3.769  11.009  0.2229 -0.0396 -0.9509
 2584SOL     OW 9192   2.366   0.874   8.692  0.1452  0.1993 -0.0796
 2584SOL    HW1 9193   2.276   0.864   8.661 -0.0381  1.3905  0.0492
 2584SOL    HW2 9194   2.360   0.870   8.787  0.4867 -1.6031 -0.0862
 2585SOL     OW 9195   0.411   2.351   8.883  0.0098  0.6767 -0.1903
 2585SOL    HW1 9196   0.417   2.437   8.924 -2.6779  0.1227  1.5836
 2585SOL    HW2 9197   0.367   2.367   8.800 -0.5190  1.0228  0.1524
 2586SOL     OW 9198   0.873   1.579   9.722 -0.1286 -0.4517 -0.3373
 2586SOL    HW1 9199   0.926   1.648   9.681  0.0995  1.0590  2.3211
 2586SOL    HW2 9200   0.784   1.597   9.694  0.0299  0.4579 -0.2770
 2587SOL     OW 9201   1.058   2.952  10.137 -0.1027 -0.0431 -0.2525
 2587SOL    HW1 9202   0.987   2.890  10.153  0.5393 -0.8078 -0.3080
 2587SOL    HW2 9203   1.100   2.963  10.222 -0.6547  0.8851 -0.0891
 2588SOL     OW 9204   0.565   4.911  10.059  0.2503 -0.1025  0.1171
 2588SOL    HW1 9205   0.579   4.849   9.987  0.6879 -1.7639  1.5879
 2588SOL    HW2 9206   0.470   4.929  10.056  0.0128 -1.3142  0.0366
 2589SOL     OW 9207   1.200   3.493  10.394 -0.0126  0.4734 -0.1615
 2589SOL    HW1 9208   1.247   3.499  10.311  0.9490 -0.1654  0.3277
 2589SOL    HW2 9209   1.240   3.419  10.439 -1.0106  0.3606  0.5728
 2590SOL     OW 9210   0.774   3.846   8.833  0.1255  0.9429 -0.5641
 2590SOL    HW1 9211   0.729   3.855   8.916  0.9627  0.0352  0.0100
 2590SOL    HW2 9212   0.828   3.767   8.843 -1.0512 -0.2006 -2.5754
 2591SOL     OW 9213   1.685   3.639   8.389 -0.2093 -0.7927  0.0029
 2591SOL    HW1 9214   1.746   3.686   8.331 -1.4298  0.8731 -0.0083
 2591SOL    HW2 9215   1.720   3.654   8.477 -1.5351  1.8418  0.1926
 2592SOL     OW 9216   1.562   3.386   8.602 -0.8020 -0.0230 -0.0723
 2592SOL    HW1 9217   1.511   3.415   8.678  1.8607 -0.0367  1.8546
 2592SOL    HW2 9218   1.633   3.451   8.594  0.1294 -1.1276 -1.3146
 2593SOL     OW 9219   0.369   3.263  10.669  0.2038  0.0373  0.2497
 2593SOL    HW1 9220   0.289   3.236  10.714  0.5050  0.5685  1.1303
 2593SOL    HW2 9221   0.422   3.184  10.665 -0.2830 -0.2746 -0.1739
 2594SOL     OW 9222   6.622   1.252  10.282  0.2341 -0.1206  0.0152
 2594SOL    HW1 9223   6.587   1.173  10.323 -1.3629  0.2765 -0.5354
 2594SOL    HW2 9224   6.676   1.218  10.210 -2.7879 -0.7822 -2.1225
 2595SOL     OW 9225   7.303   4.253   9.152  0.1168 -0.3997 -0.2478
 2595SOL    HW1 9226   7.296   4.344   9.180  1.1522 -0.3763 -0.0196
 2595SOL    HW2 9227   7.216   4.216   9.166  0.2141  0.0067  1.6188
 2596SOL     OW 9228   1.758   2.591  10.316  0.7154  0.0984 -0.9009
 2596SOL    HW1 9229   1.692   2.547  10.264  0.4295  0.3480 -0.7530
 2596SOL    HW2 9230   1.724   2.589  10.405  0.1648  1.5849 -1.0476
 2597SOL     OW 9231   7.885   3.060   9.154 -0.7570  0.1857  0.0028
 2597SOL    HW1 9232   7.890   3.060   9.058  0.2813  1.2806  0.0349
 2597SOL    HW2 9233   7.792   3.048   9.173 -0.6772 -3.2957 -1.0554
 2598SOL     OW 9234   7.778   3.203   9.862 -0.4954  0.4367 -0.2537
 2598SOL    HW1 9235   7.762   3.194   9.768 -2.4863 -1.0650  0.1600
 2598SOL    HW2 9236   7.740   3.124   9.901  1.4056  0.3853  1.7366
 2599SOL     OW 9237   3.252   1.668  10.259  0.3264  0.3875  0.3297
 2599SOL    HW1 9238   3.164   1.698  10.282  1.1699  2.5351  0.9681
 2599SOL    HW2 9239   3.249   1.657  10.164 -0.6621  0.2474  0.3605
 2600SOL     OW 9240   0.648   2.218  10.357 -0.0231  0.1455 -0.9377
 2600SOL    HW1 9241   0.606   2.282  10.300  0.4453  1.3989  0.0855
 2600SOL    HW2 9242   0.587   2.207  10.429 -2.1518 -3.7995 -2.9864
 2601SOL     OW 9243   1.534   3.964  10.269 -0.0458  0.3137  0.3410
 2601SOL    HW1 9244   1.491   3.880  10.252 -0.7670  0.4335  1.4095
 2601SOL    HW2 9245   1.480   4.004  10.338  0.3502  1.6024 -0.0733
 2602SOL     OW 9246   0.874   3.129  10.559 -0.4154  0.1886  0.3132
 2602SOL    HW1 9247   0.815   3.152  10.488  0.5612  0.0443 -0.5715
 2602SOL    HW2 9248   0.856   3.037  10.576  0.2624 -0.1487 -0.6812
 2603SOL     OW 9249   0.631   0.944   9.102  0.4007 -0.2607 -0.0677
 2603SOL    HW1 9250   0.674   0.996   9.034 -0.9955 -0.8816 -1.4664
 2603SOL    HW2 9251   0.682   0.864   9.107  2.2492  0.8999  1.7328
 2604SOL     OW 9252   3.282   2.883  11.215 -0.2415 -0.1192  0.4476
 2604SOL    HW1 9253   3.351   2.820  11.234 -0.8280 -0.3930  1.7578
 2604SOL    HW2 9254   3.202   2.831  11.211 -0.4658  0.2765 -0.4705
 2605SOL     OW 9255   2.159   2.589   9.209 -0.2729 -0.2959 -0.4135
 2605SOL    HW1 9256   2.247   2.627   9.213 -0.6897  0.7879 -1.1724
 2605SOL    HW2 9257   2.108   2.638   9.274 -0.5514 -0.2703 -0.6468
 2606SOL     OW 9258   2.705   1.418  11.477  0.2303  0.1464  0.3226
 2606SOL    HW1 9259   2.666   1.390  11.560 -1.3223 -1.2575 -0.8370
 2606SOL    HW2 9260   2.781   1.470  11.504 -0.1981 -0.2883  2.6215
 2607SOL     OW 9261   1.913   3.483  10.676  0.1881 -0.7367  0.5560
 2607SOL    HW1 9262   1.982   3.484  10.743  0.7703  1.8375  0.0438
 2607SOL    HW2 9263   1.949   3.535  10.605 -1.7582 -0.5105 -0.3144
 2608SOL     OW 9264   1.842   3.846  10.226 -0.2277  0.0913  0.1145
 2608SOL    HW1 9265   1.747   3.859  10.217 -0.5289 -1.4366  0.6561
 2608SOL    HW2 9266   1.871   3.821  10.139 -0.7908 -1.8196  0.4283
 2609SOL     OW 9267   2.223   1.571  11.531 -0.0514 -0.4812 -0.1933
 2609SOL    HW1 9268   2.196   1.635  11.465 -0.5861  0.3098  0.7554
 2609SOL    HW2 9269   2.158   1.501  11.524 -0.2576 -0.2804 -0.3390
 2610SOL     OW 9270   0.868   2.461  10.280  0.5993  0.2451 -0.5687
 2610SOL    HW1 9271   0.828   2.375  10.265  0.0150  0.2751  0.6535
 2610SOL    HW2 9272   0.872   2.469  10.376 -0.6394  2.1436 -0.6256
 2611SOL     OW 9273   0.364   1.748  10.590 -0.0314 -0.5605 -0.1378
 2611SOL    HW1 9274   0.453   1.713  10.586  0.0279 -0.3254 -1.2409
 2611SOL    HW2 9275   0.374   1.842  10.573 -0.6374 -0.8322 -2.4422
 2612SOL     OW 9276   0.186   3.470  10.666 -0.3286 -0.0119 -0.1334
 2612SOL    HW1 9277   0.180   3.529  10.591  0.2165  0.5071  0.2313
 2612SOL    HW2 9278   0.245   3.400  10.637  0.4845  0.5828  0.0647
 2613SOL     OW 9279   0.639   4.135  10.496  0.0370  0.0579  0.4411
 2613SOL    HW1 9280   0.651   4.211  10.439  1.7720 -0.9975 -0.6905
 2613SOL    HW2 9281   0.569   4.085  10.455 -1.4044  1.1759  1.4144
 2614SOL     OW 9282   7.563   3.421  10.152 -0.1682  0.2832 -0.0468
 2614SOL    HW1 9283   7.486   3.432  10.097 -0.0152 -0.5370 -0.4359
 2614SOL    HW2 9284   7.636   3.451  10.098 -0.1628  0.7608  0.2099
 2615SOL     OW 9285   1.064   2.585  11.080 -0.0345  0.4574  0.2064
 2615SOL    HW1 9286   1.014   2.606  11.001  1.3124  0.4378 -0.6710
 2615SOL    HW2 9287   1.022   2.637  11.149 -1.4744  0.1792 -0.4143
 2616SOL     OW 9288   0.629   3.533  10.597 -0.4463 -0.7299  0.6394
 2616SOL    HW1 9289   0.703   3.592  10.608 -0.6194 -0.7675  2.3186
 2616SOL    HW2 9290   0.590   3.527  10.684  0.1355 -4.0394  0.8054
 2617SOL     OW 9291   0.970   3.909  10.580  0.3046 -0.5697 -0.2472
 2617SOL    HW1 9292   1.016   3.927  10.499  1.3250 -0.7456  0.2769
 2617SOL    HW2 9293   0.954   3.815  10.578 -1.7446 -0.2531 -1.2874
 2618SOL     OW 9294   0.914   3.237   8.165 -0.2370  0.2869 -0.4121
 2618SOL    HW1 9295   0.947   3.208   8.080  1.2878  1.5073 -0.2807
 2618SOL    HW2 9296   0.820   3.220   8.161  0.2177 -2.5352 -1.1427
 2619SOL     OW 9297   7.253   3.068  10.384 -0.8467 -0.1699  0.5609
 2619SOL    HW1 9298   7.250   2.974  10.366  0.5770 -0.1479  0.1065
 2619SOL    HW2 9299   7.342   3.094  10.360 -2.3710  2.1619 -3.6908
 2620SOL     OW 9300   7.960   2.821  10.627 -0.7893  0.0944 -0.1336
 2620SOL    HW1 9301   8.031   2.781  10.676 -0.2576  1.1360 -0.0254
 2620SOL    HW2 9302   7.994   2.827  10.537 -1.1616 -0.3733 -0.3143
 2621SOL     OW 9303   0.678   0.867  10.752  0.4208 -0.1581 -0.1501
 2621SOL    HW1 9304   0.720   0.949  10.726  2.0734 -1.1449 -0.7508
 2621SOL    HW2 9305   0.677   0.814  10.672 -0.9052 -0.6247  0.1543
 2622SOL     OW 9306   0.477   0.210   0.057 -0.0658  0.6807 -0.5415
 2622SOL    HW1 9307   0.504   0.302   0.059  0.3757  0.5497  0.4558
 2622SOL    HW2 9308   0.537   0.169  -0.005  0.9261  0.7427  0.3318
 2623SOL     OW 9309   1.242   1.281  11.383  0.0620 -0.4931  0.2503
 2623SOL    HW1 9310   1.257   1.208  11.442  1.3247 -0.8971 -0.5339
 2623SOL    HW2 9311   1.326   1.296  11.341 -0.4524  0.7011 -0.4195
 2624SOL     OW 9312   0.133   3.052  10.619 -0.2721 -0.2386 -0.6402
 2624SOL    HW1 9313   0.105   3.117  10.554  1.7419 -0.5831 -1.9379
 2624SOL    HW2 9314   0.054   3.001  10.637 -2.0193  2.6671  0.6350
 2625SOL     OW 9315   0.129   3.873  11.218  0.1726 -0.3534  0.0949
 2625SOL    HW1 9316   0.180   3.885  11.298  1.0001 -1.4717 -0.2358
 2625SOL    HW2 9317   0.049   3.829  11.246 -0.5637  1.2104  0.5849
 2626SOL     OW 9318   1.982   1.998  11.116  0.2600  0.4968  0.0714
 2626SOL    HW1 9319   1.968   1.903  11.109  0.8284  0.4453 -0.4271
 2626SOL    HW2 9320   2.072   2.007  11.146  0.1687  0.8825  0.2365
 2627SOL     OW 9321   0.157   3.519   9.626 -0.3161  0.5317  0.2539
 2627SOL    HW1 9322   0.250   3.508   9.608  1.0892  5.4848  2.7448
 2627SOL    HW2 9323   0.144   3.477   9.711 -1.5027 -3.2534 -1.5579
 2628SOL     OW 9324   1.275   3.832  12.145  0.5213  0.2864 -0.2016
 2628SOL    HW1 9325   1.273   3.895  12.217 -0.2111  0.0862 -0.0432
 2628SOL    HW2 9326   1.190   3.841  12.103  0.3156 -0.7725 -0.0329
 2629SOL     OW 9327   0.562   3.683   9.894 -0.2830 -0.1310  0.2323
 2629SOL    HW1 9328   0.521   3.621   9.835  0.6179 -0.6998  0.1734
 2629SOL    HW2 9329   0.506   3.684   9.972 -0.0395 -1.4268  0.4464
 2630SOL     OW 9330   2.135   1.143  11.418 -0.8146  0.4053  0.4675
 2630SOL    HW1 9331   2.225   1.174  11.426 -1.0536  0.9039  1.4552
 2630SOL    HW2 9332   2.132   1.063  11.472 -0.2832 -1.2638 -1.8001
 2631SOL     OW 9333   0.263   2.745   9.919  0.0946 -0.0053  0.0153
 2631SOL    HW1 9334   0.234   2.777   9.833 -2.1978 -1.7570  0.0392
 2631SOL    HW2 9335   0.333   2.683   9.898  0.0519  0.1159 -0.5183
 2632SOL     OW 9336   1.821   2.343   8.142  0.8401  0.0794  0.2405
 2632SOL    HW1 9337   1.820   2.326   8.048 -0.4321  0.6398  0.1329
 2632SOL    HW2 9338   1.914   2.340   8.166  1.1275 -0.7096 -0.8998
 2633SOL     OW 9339   0.767   3.785  11.144  0.1035 -0.6135 -0.7183
 2633SOL    HW1 9340   0.718   3.785  11.062  1.2723 -0.5866 -1.4272
 2633SOL    HW2 9341   0.841   3.726  11.128  0.9975  0.3043 -0.0847
 2634SOL     OW 9342   2.225   4.293   1.371  0.0525  0.5277  0.0431
 2634SOL    HW1 9343   2.288   4.284   1.443 -0.2395 -1.7971  0.0960
 2634SOL    HW2 9344   2.253   4.372   1.324  0.7170  1.6746  2.2215
 2635SOL     OW 9345   0.603   3.366  11.064 -0.2510  0.2652 -0.4085
 2635SOL    HW1 9346   0.618   3.286  11.012 -0.4778  0.5643 -0.9500
 2635SOL    HW2 9347   0.652   3.352  11.145 -0.3142 -0.4382 -0.4849
 2636SOL     OW 9348   1.419   2.694  10.784  0.0958  0.5989 -0.1467
 2636SOL    HW1 9349   1.501   2.671  10.739  1.2989  0.3125  2.0742
 2636SOL    HW2 9350   1.442   2.769  10.839 -1.3233  0.9114  0.0466
 2637SOL     OW 9351   1.166   0.255   9.228 -0.3562 -0.2519  0.1029
 2637SOL    HW1 9352   1.217   0.209   9.161 -0.0099  0.3544 -0.0544
 2637SOL    HW2 9353   1.223   0.325   9.258 -1.1188  0.4872 -0.1221
 2638SOL     OW 9354   0.890   3.420  10.209 -0.4629  0.2570  0.2351
 2638SOL    HW1 9355   0.965   3.361  10.203 -0.4143  0.1982  1.3631
 2638SOL    HW2 9356   0.818   3.365  10.238 -1.5624 -0.1872 -2.8899
 2639SOL     OW 9357   1.602   3.391   9.819 -0.5042 -0.5119  0.2637
 2639SOL    HW1 9358   1.669   3.447   9.779  0.8886 -0.7291  2.1268
 2639SOL    HW2 9359   1.551   3.451   9.874 -0.1909 -0.7451  0.8210
 2640SOL     OW 9360   7.809   2.723   9.929  0.4150 -0.0791  0.1197
 2640SOL    HW1 9361   7.896   2.727   9.969 -0.4404  0.3385  2.0501
 2640SOL    HW2 9362   7.753   2.773   9.989 -0.9820  0.4576 -1.5618
 2641SOL     OW 9363   6.582   2.364   9.510 -0.0046 -0.0911  0.2351
 2641SOL    HW1 9364   6.594   2.283   9.460 -0.5722  0.3583 -0.6680
 2641SOL    HW2 9365   6.578   2.336   9.601  0.8952 -0.9601  0.0205
 2642SOL     OW 9366   1.870   1.106  10.385  0.5036 -0.8309  0.8136
 2642SOL    HW1 9367   1.868   1.031  10.326  0.6883  0.2941 -0.6852
 2642SOL    HW2 9368   1.779   1.119  10.411  0.0673 -0.0325 -0.9956
 2643SOL     OW 9369   1.090   1.470   9.835 -0.3800 -0.3211  0.5636
 2643SOL    HW1 9370   1.009   1.516   9.811 -1.3396 -0.3475  3.2748
 2643SOL    HW2 9371   1.151   1.540   9.860 -0.1048 -0.3550 -0.0123
 2644SOL     OW 9372   6.130   3.200  10.333 -0.1654 -0.4860  0.5716
 2644SOL    HW1 9373   6.057   3.221  10.275 -0.7293  0.5532  1.6117
 2644SOL    HW2 9374   6.164   3.285  10.361  1.2555 -0.9587  0.3495
 2645SOL     OW 9375   7.098   6.170   8.449 -0.4651  0.6044 -0.6643
 2645SOL    HW1 9376   7.160   6.108   8.487 -0.0090  1.4869  0.0427
 2645SOL    HW2 9377   7.021   6.116   8.427  0.2102 -0.3354 -0.7652
 2646SOL     OW 9378   2.535   4.426  11.854  0.0033  0.7705  1.0546
 2646SOL    HW1 9379   2.541   4.332  11.867 -2.0292  0.5164  0.3669
 2646SOL    HW2 9380   2.451   4.451  11.892 -0.7793  1.8341 -1.2057
 2647SOL     OW 9381   7.006   1.935  10.091  0.0015 -0.3957  0.2268
 2647SOL    HW1 9382   7.077   1.994  10.064 -0.4268  0.2850  0.5661
 2647SOL    HW2 9383   7.051   1.859  10.127  0.6208  1.0704  2.7819
 2648SOL     OW 9384   5.863   1.761   9.030 -0.4404 -0.0939  0.3980
 2648SOL    HW1 9385   5.898   1.822   8.965 -0.5828 -0.5238 -0.0930
 2648SOL    HW2 9386   5.768   1.777   9.029 -0.2926  1.0311  1.6862
 2649SOL     OW 9387   1.541   0.851  10.085  0.4541 -0.5050  0.1910
 2649SOL    HW1 9388   1.485   0.927  10.066  1.4413  0.5154  1.1744
 2649SOL    HW2 9389   1.614   0.860  10.024  1.1536  0.0079  1.0849
 2650SOL     OW 9390   1.819   1.194  10.063  0.6822 -0.3446  0.1618
 2650SOL    HW1 9391   1.739   1.193  10.115 -0.1366 -0.3277 -1.0850
 2650SOL    HW2 9392   1.860   1.278  10.085 -1.0715  0.9645 -1.2952
 2651SOL     OW 9393   7.095   2.201   9.359  0.0393 -0.1610 -0.1671
 2651SOL    HW1 9394   7.109   2.231   9.449 -2.3907 -0.0155  0.2218
 2651SOL    HW2 9395   7.057   2.276   9.314  0.6626 -0.4268 -1.1796
 2652SOL     OW 9396   2.841   3.237  11.672  0.2941 -0.0313 -0.3807
 2652SOL    HW1 9397   2.748   3.261  11.666  0.3670  0.1113 -1.0769
 2652SOL    HW2 9398   2.886   3.306  11.623  0.8619  0.4164  0.7363
 2653SOL     OW 9399   1.501   4.488  11.967  0.2343 -0.0557  0.0788
 2653SOL    HW1 9400   1.474   4.492  12.058 -0.8633 -2.7518 -0.0034
 2653SOL    HW2 9401   1.586   4.444  11.969  0.0142 -0.5023 -0.1999
 2654SOL     OW 9402   0.703   7.734   7.921  0.5064 -0.1156 -0.1016
 2654SOL    HW1 9403   0.631   7.759   7.979 -0.0144 -0.0357 -0.7762
 2654SOL    HW2 9404   0.708   7.804   7.857  1.2563 -0.0727 -0.0109
 2655SOL     OW 9405   3.211   4.402  11.003 -0.3094  0.1979 -0.0438
 2655SOL    HW1 9406   3.171   4.415  11.089 -0.3262 -1.1981  0.1817
 2655SOL    HW2 9407   3.285   4.463  11.001  1.1543 -1.4005  1.9245
 2656SOL     OW 9408   0.722   2.448   9.074 -0.3002 -0.0625 -0.1339
 2656SOL    HW1 9409   0.738   2.385   9.003  1.7159  0.4236 -0.1918
 2656SOL    HW2 9410   0.739   2.533   9.034  2.5413  0.1395  1.2263
 2657SOL     OW 9411   6.530   2.101  11.631 -0.3100  0.3323 -0.0570
 2657SOL    HW1 9412   6.513   2.011  11.659  0.6154  0.1533 -0.0496
 2657SOL    HW2 9413   6.499   2.104  11.541 -0.4787  0.0503 -0.0113
 2658SOL     OW 9414   1.181   3.442   9.796 -0.3325 -0.0098 -0.0283
 2658SOL    HW1 9415   1.211   3.505   9.730 -0.6670 -0.0583 -0.2312
 2658SOL    HW2 9416   1.203   3.482   9.880  0.2116 -0.0035 -0.1734
 2659SOL     OW 9417   0.353   1.941   9.243  0.3762  0.2889  0.2119
 2659SOL    HW1 9418   0.314   1.996   9.176  0.0941  0.5651  0.5970
 2659SOL    HW2 9419   0.416   1.886   9.196 -2.6166 -2.4399 -1.0126
 2660SOL     OW 9420   7.682   2.225  10.667  0.4289 -0.0792  0.2235
 2660SOL    HW1 9421   7.760   2.174  10.690 -0.3785 -1.2223  0.5254
 2660SOL    HW2 9422   7.703   2.315  10.692  2.7512  0.2234 -2.3129
 2661SOL     OW 9423   2.043   1.794   8.602  0.0492  0.0870  0.0681
 2661SOL    HW1 9424   1.992   1.871   8.626 -0.9831 -0.7648  0.6836
 2661SOL    HW2 9425   2.127   1.806   8.646 -0.3036  0.5926  0.6124
 2662SOL     OW 9426   6.543   2.386   8.821  0.6685 -0.3816 -0.2522
 2662SOL    HW1 9427   6.569   2.375   8.730 -0.1692  1.3381 -0.7499
 2662SOL    HW2 9428   6.614   2.438   8.860  0.1719  0.4542 -0.4315
 2663SOL     OW 9429   0.405   4.278  11.118  0.2392  0.1685 -0.1845
 2663SOL    HW1 9430   0.474   4.229  11.163  0.2501 -0.2396 -0.6307
 2663SOL    HW2 9431   0.415   4.254  11.025 -0.0241  0.6953 -0.3539
 2664SOL     OW 9432   1.572   2.404  10.020 -0.0449  0.1386 -0.0516
 2664SOL    HW1 9433   1.602   2.352  10.094  2.6150  2.0917  0.4069
 2664SOL    HW2 9434   1.524   2.477  10.059 -1.3926 -0.4626 -0.5147
 2665SOL     OW 9435   3.020   2.155  10.082  0.1081 -0.3418  0.5584
 2665SOL    HW1 9436   3.083   2.215  10.122 -0.4832 -0.0062  0.9841
 2665SOL    HW2 9437   2.956   2.212  10.040 -0.1921 -0.6849  0.5503
 2666SOL     OW 9438   1.216   2.799  11.006 -0.2814 -0.0724 -0.7749
 2666SOL    HW1 9439   1.179   2.755  11.083  1.5588  2.7090  1.9564
 2666SOL    HW2 9440   1.179   2.752  10.931 -1.2478 -3.7840  1.7445
 2667SOL     OW 9441   7.610   2.891  12.482  0.2163 -0.5354 -0.2187
 2667SOL    HW1 9442   7.643   2.887  12.392  0.2588  0.4182 -0.2573
 2667SOL    HW2 9443   7.652   2.968  12.519 -2.0097  0.7847 -0.2972
 2668SOL     OW 9444   5.947   2.478   9.720  0.2985  0.3263 -0.6070
 2668SOL    HW1 9445   5.988   2.552   9.766  1.8996 -0.7947 -0.1507
 2668SOL    HW2 9446   5.987   2.400   9.759 -2.1954 -0.8779 -0.2370
 2669SOL     OW 9447   1.317   3.237  10.508  0.1440 -0.3512  0.0190
 2669SOL    HW1 9448   1.293   3.209  10.596  0.3977 -0.7738 -0.0460
 2669SOL    HW2 9449   1.404   3.201  10.493 -0.3575 -1.2531 -0.8324
 2670SOL     OW 9450   2.133   2.472   9.949  0.8314 -0.0117  0.1042
 2670SOL    HW1 9451   2.116   2.412  10.022  1.3052  0.2706  0.4583
 2670SOL    HW2 9452   2.073   2.445   9.880  1.3255 -1.1562  0.1002
 2671SOL     OW 9453   0.135   2.295  10.485  0.2276 -0.1543  0.4696
 2671SOL    HW1 9454   0.135   2.244  10.566 -1.6420 -0.9449  0.0286
 2671SOL    HW2 9455   0.087   2.375  10.508  0.4849  0.0310  0.3676
 2672SOL     OW 9456   7.736   2.441  10.052  0.5339 -0.8242  0.7134
 2672SOL    HW1 9457   7.726   2.468   9.961 -0.4463 -1.5118  0.5979
 2672SOL    HW2 9458   7.653   2.398  10.073 -0.0184  0.9458  2.4985
 2673SOL     OW 9459   1.818   3.331   8.717 -0.6445  0.8820 -0.2549
 2673SOL    HW1 9460   1.850   3.253   8.762 -0.8290  0.4376 -0.8894
 2673SOL    HW2 9461   1.745   3.300   8.664 -0.7431  1.4951 -0.4887
 2674SOL     OW 9462   0.982   3.723   9.940  0.0255  0.0812  0.2292
 2674SOL    HW1 9463   0.966   3.630   9.926 -0.0853  0.2241 -0.6436
 2674SOL    HW2 9464   1.055   3.726  10.001  1.7184 -0.6126 -1.6648
 2675SOL     OW 9465   1.298   3.651   9.633  0.3274  0.3563  0.1758
 2675SOL    HW1 9466   1.388   3.683   9.643  0.5792 -0.2208 -0.1610
 2675SOL    HW2 9467   1.243   3.728   9.648  0.9039  0.8781 -0.3258
 2676SOL     OW 9468   7.929   2.843   7.716  0.0832  0.3011  0.6184
 2676SOL    HW1 9469   7.893   2.755   7.706  2.8835 -0.8431 -0.0908
 2676SOL    HW2 9470   7.923   2.881   7.629  0.2374  0.2625  0.5914
 2677SOL     OW 9471   7.921   2.064   9.918  0.4944  0.0220  0.0666
 2677SOL    HW1 9472   7.906   2.097   9.829 -1.2163 -0.8495 -0.0160
 2677SOL    HW2 9473   8.007   2.099   9.943  0.7118  0.8224 -1.6686
 2678SOL     OW 9474   7.678   2.257  10.349  0.1221  0.2521 -0.1382
 2678SOL    HW1 9475   7.771   2.238  10.336 -0.0188  0.0638 -0.9033
 2678SOL    HW2 9476   7.674   2.351  10.367  0.7185 -0.1577  2.5842
 2679SOL     OW 9477   1.223   2.186  10.685  0.6134 -0.1167 -0.3485
 2679SOL    HW1 9478   1.235   2.091  10.686  0.7558 -0.1439 -2.0326
 2679SOL    HW2 9479   1.309   2.221  10.662  0.1752  0.3236 -1.3507
 2680SOL     OW 9480   1.560   3.767   9.657  0.1842 -0.3566  0.3879
 2680SOL    HW1 9481   1.561   3.735   9.567  0.6298 -2.2902  1.0382
 2680SOL    HW2 9482   1.652   3.764   9.684 -0.0040 -0.2487  1.0523
 2681SOL     OW 9483   2.032   2.938  12.298  0.2470  0.0356 -0.1329
 2681SOL    HW1 9484   2.106   2.997  12.283 -0.8592  1.6424  0.5629
 2681SOL    HW2 9485   1.960   2.975  12.248 -0.2980 -1.1279 -0.2509
 2682SOL     OW 9486   1.075   3.085   9.564 -0.2021  0.0728  0.2911
 2682SOL    HW1 9487   1.022   3.135   9.502 -0.4923 -1.3895 -0.6866
 2682SOL    HW2 9488   1.157   3.070   9.518 -0.2232 -0.5725  0.4543
 2683SOL     OW 9489   5.986   4.921  12.414  0.2422 -0.3152  0.5082
 2683SOL    HW1 9490   6.069   4.942  12.458  1.1302  0.8048 -1.5509
 2683SOL    HW2 9491   5.969   4.830  12.436  1.3124 -0.1750  2.0580
 2684SOL     OW 9492   2.016   2.536  10.393 -0.0877  0.1221 -0.6139
 2684SOL    HW1 9493   1.924   2.543  10.367 -0.3755 -0.1044  0.3139
 2684SOL    HW2 9494   2.013   2.519  10.487  0.8777 -0.8557 -0.7478
 2685SOL     OW 9495   7.757   2.313   9.332 -0.0414 -0.3203  0.3255
 2685SOL    HW1 9496   7.795   2.290   9.417  0.2592  1.7266  0.7765
 2685SOL    HW2 9497   7.830   2.350   9.282 -0.6264  0.2245 -0.1403
 2686SOL     OW 9498   7.235   2.511   9.637 -0.3164  0.3013 -0.0251
 2686SOL    HW1 9499   7.315   2.550   9.671  0.1726 -0.5168 -0.2221
 2686SOL    HW2 9500   7.227   2.546   9.548  1.5362 -1.9844 -1.1984
 2687SOL     OW 9501   0.545   0.798   9.665  0.5411 -0.0184 -0.2979
 2687SOL    HW1 9502   0.597   0.752   9.732  0.3794  1.4237  0.8538
 2687SOL    HW2 9503   0.539   0.735   9.593  1.0005 -1.5053  0.9016
 2688SOL     OW 9504   2.108   3.280   8.273 -0.4424 -0.9128  0.3395
 2688SOL    HW1 9505   2.016   3.253   8.264 -0.5944 -1.2032  2.3231
 2688SOL    HW2 9506   2.136   3.297   8.183 -2.3764 -0.9970 -0.3420
 2689SOL     OW 9507   7.357   3.398  10.711  0.0539  0.1381 -0.0482
 2689SOL    HW1 9508   7.416   3.466  10.741 -0.5813  0.3794  0.6933
 2689SOL    HW2 9509   7.310   3.437  10.637  0.0571  0.3211  0.0469
 2690SOL     OW 9510   1.399   3.319  10.096 -0.1503 -0.0245 -0.1678
 2690SOL    HW1 9511   1.333   3.388  10.095 -2.7371 -2.2598  1.0409
 2690SOL    HW2 9512   1.474   3.356  10.050 -1.9426  2.9732 -0.9545
 2691SOL     OW 9513   7.402   2.308  10.578  0.2270 -0.0667  0.2972
 2691SOL    HW1 9514   7.471   2.374  10.582 -1.1967  1.5050  0.1052
 2691SOL    HW2 9515   7.329   2.352  10.533 -0.8112 -1.7494  0.2296
 2692SOL     OW 9516   0.968   2.689  10.822 -0.3097  0.4625 -0.3782
 2692SOL    HW1 9517   1.026   2.623  10.784  0.8380  1.2847 -0.1285
 2692SOL    HW2 9518   0.924   2.729  10.747 -2.5185 -1.8396 -0.4390
 2693SOL     OW 9519   0.120   4.272   9.925 -0.2316 -0.0229  0.3685
 2693SOL    HW1 9520   0.182   4.235   9.861  0.5040  2.2018 -0.3223
 2693SOL    HW2 9521   0.038   4.281   9.876 -0.8103 -1.8889  0.9357
 2694SOL     OW 9522   2.209   1.137  11.144 -0.4250 -0.0819 -0.0638
 2694SOL    HW1 9523   2.150   1.139  11.069  0.2790 -3.0428 -0.8426
 2694SOL    HW2 9524   2.152   1.128  11.220 -1.1140  2.3601 -0.1952
 2695SOL     OW 9525   1.517   2.394  11.386  0.1441  0.3369 -0.3247
 2695SOL    HW1 9526   1.587   2.414  11.324 -0.0262 -0.6784 -0.8600
 2695SOL    HW2 9527   1.449   2.459  11.369 -0.0502 -0.1504 -1.4484
 2696SOL     OW 9528   0.244   2.390   7.190  0.3189 -0.3647 -0.6643
 2696SOL    HW1 9529   0.223   2.347   7.107 -0.4691 -2.5968  0.6034
 2696SOL    HW2 9530   0.307   2.332   7.232 -0.1163  0.1473  0.7619
 2697SOL     OW 9531   1.489   3.069  10.211  0.3827 -0.3006 -0.0289
 2697SOL    HW1 9532   1.526   3.028  10.133 -1.3428  0.5597 -1.3670
 2697SOL    HW2 9533   1.442   3.145  10.178  0.8152  0.9386  2.0334
 2698SOL     OW 9534   2.656   3.965  10.472 -0.1233 -0.4376  0.2788
 2698SOL    HW1 9535   2.639   3.879  10.434  0.8245  0.6783 -3.0150
 2698SOL    HW2 9536   2.574   4.013  10.459  0.0396 -0.2008  0.1172
 2699SOL     OW 9537   7.759   3.460   9.977  0.0755  0.1758 -0.2288
 2699SOL    HW1 9538   7.739   3.528   9.913 -0.3806 -0.2399 -0.5300
 2699SOL    HW2 9539   7.777   3.382   9.925  2.2680  0.4485  0.0287
 2700SOL     OW 9540   0.753   3.068   9.081 -0.0484 -0.1722 -0.1365
 2700SOL    HW1 9541   0.782   3.012   9.009 -0.0621  0.6395 -0.7853
 2700SOL    HW2 9542   0.753   3.156   9.045  1.9238  0.5609  1.4349
 2701SOL     OW 9543   7.237   1.392   9.771  0.0425  0.3800  0.1936
 2701SOL    HW1 9544   7.269   1.468   9.819 -0.7174  1.1248 -0.4358
 2701SOL    HW2 9545   7.142   1.406   9.764 -0.1686 -0.8278  0.4012
 2702SOL     OW 9546   0.754   4.537   8.182  0.5701  0.0250  0.4701
 2702SOL    HW1 9547   0.673   4.507   8.224  0.5656 -0.8411 -0.1329
 2702SOL    HW2 9548   0.748   4.505   8.093  2.0346 -0.9188  0.6876
 2703SOL     OW 9549   2.920   2.602  11.759  0.6846 -0.5613  0.4357
 2703SOL    HW1 9550   2.994   2.599  11.820  1.2659  0.8665 -0.1533
 2703SOL    HW2 9551   2.845   2.573  11.811  1.2865 -0.0117  1.6558
 2704SOL     OW 9552   7.527   3.171  10.809 -0.1608  0.3972 -0.0606
 2704SOL    HW1 9553   7.473   3.221  10.748  0.8748 -0.7674 -2.0460
 2704SOL    HW2 9554   7.564   3.100  10.756  2.6324  0.6267  1.3656
 2705SOL     OW 9555   7.866   4.431  11.346 -0.0618  0.1265  0.0702
 2705SOL    HW1 9556   7.911   4.410  11.428 -0.1497  1.0684  0.3697
 2705SOL    HW2 9557   7.878   4.353  11.292  2.4651  0.5221 -0.1057
 2706SOL     OW 9558   6.601   2.520   9.269 -0.3892  0.1408  0.4186
 2706SOL    HW1 9559   6.608   2.455   9.339 -1.0100  0.0444  0.4037
 2706SOL    HW2 9560   6.666   2.494   9.204  0.2210  0.2542  0.9809
 2707SOL     OW 9561   1.978   2.725   8.961  0.2545 -0.0874  0.0726
 2707SOL    HW1 9562   1.949   2.633   8.961 -3.3387  0.8833  1.9071
 2707SOL    HW2 9563   1.923   2.767   8.895  0.1829  1.1660  0.9079
 2708SOL     OW 9564   4.077   1.376  12.032 -0.0239  0.1102 -0.3766
 2708SOL    HW1 9565   4.108   1.296  12.075 -0.7825 -0.0039 -0.0070
 2708SOL    HW2 9566   3.984   1.359  12.016 -0.3902  1.2271  0.4439
 2709SOL     OW 9567   1.901   1.369  10.844  0.1476  0.2609  0.9839
 2709SOL    HW1 9568   1.986   1.391  10.805  0.5005  0.6975  1.9447
 2709SOL    HW2 9569   1.917   1.288  10.892 -0.4735 -0.6833 -0.3676
 2710SOL     OW 9570   1.213   1.893  10.459 -0.4259 -0.2287  0.1619
 2710SOL    HW1 9571   1.255   1.825  10.513  0.5222  1.1895  1.3144
 2710SOL    HW2 9572   1.283   1.924  10.402 -0.5142  0.5785  0.4806
 2711SOL     OW 9573   0.942   3.070  11.851  0.5402  0.0889 -0.1165
 2711SOL    HW1 9574   0.856   3.032  11.832  0.1586  0.7276  0.3247
 2711SOL    HW2 9575   0.924   3.157  11.885  1.3021 -0.1425  0.9674
 2712SOL     OW 9576   1.618   2.033  11.138  0.1509 -0.5007 -0.1714
 2712SOL    HW1 9577   1.596   2.125  11.124  2.1138 -0.0760 -0.8411
 2712SOL    HW2 9578   1.622   1.995  11.050 -2.6198 -1.8162  0.1501
 2713SOL     OW 9579   7.712   4.603   7.963 -0.1014  0.4813 -0.7513
 2713SOL    HW1 9580   7.801   4.582   7.934  0.0609 -0.0737  0.0892
 2713SOL    HW2 9581   7.679   4.665   7.898  0.4922 -0.1579 -1.6913
 2714SOL     OW 9582   7.653   3.207   9.049  0.1257  0.2352 -0.8001
 2714SOL    HW1 9583   7.624   3.298   9.037 -2.5214 -0.3917  0.0600
 2714SOL    HW2 9584   7.638   3.166   8.963 -3.0064 -0.3557 -0.0948
 2715SOL     OW 9585   0.452   2.133  10.047 -0.0195 -0.3993  0.3205
 2715SOL    HW1 9586   0.452   2.044  10.083  1.5772 -0.8545 -0.7086
 2715SOL    HW2 9587   0.434   2.189  10.123 -2.2344 -1.6037  0.7958
 2716SOL     OW 9588   0.965   1.068   9.075  0.5522 -0.0466  0.4924
 2716SOL    HW1 9589   0.947   1.162   9.076 -0.1946 -0.1421 -1.1917
 2716SOL    HW2 9590   1.060   1.062   9.085  0.5733  0.8549  0.9894
 2717SOL     OW 9591   3.492   2.626  10.476 -0.4029  0.2197  0.5331
 2717SOL    HW1 9592   3.415   2.581  10.441 -1.1995  1.5930  0.4147
 2717SOL    HW2 9593   3.497   2.706  10.424 -0.2225  1.2134  2.0219
 2718SOL     OW 9594   5.794   2.481  10.101  0.4542 -0.0935 -0.0314
 2718SOL    HW1 9595   5.883   2.446  10.102 -0.0726 -1.5703  1.7764
 2718SOL    HW2 9596   5.776   2.502  10.193  0.0882  3.4347 -0.7619
 2719SOL     OW 9597   0.120   4.276  10.715 -0.1357  0.4572  0.4962
 2719SOL    HW1 9598   0.155   4.363  10.734 -0.1973  0.8559 -1.0231
 2719SOL    HW2 9599   0.028   4.292  10.692 -0.1970 -0.0310  0.3834
 2720SOL     OW 9600   0.581   3.568   1.210  0.5890 -0.0394 -0.2565
 2720SOL    HW1 9601   0.586   3.610   1.124  0.5749 -2.3389 -1.4739
 2720SOL    HW2 9602   0.501   3.517   1.207  0.8889 -0.6072  0.9042
 2721SOL     OW 9603   7.844   2.851  11.804 -0.4284  0.1013  0.1005
 2721SOL    HW1 9604   7.756   2.814  11.811 -1.1495  1.6274 -0.5797
 2721SOL    HW2 9605   7.877   2.818  11.720  0.4775 -2.0601  1.2082
 2722SOL     OW 9606   0.216   2.664  12.342 -0.0533 -0.5021  0.7032
 2722SOL    HW1 9607   0.285   2.698  12.399 -1.6109  1.1159  1.7132
 2722SOL    HW2 9608   0.251   2.581  12.309  3.0837  1.0174 -0.2211
 2723SOL     OW 9609   0.227   1.298   1.072 -0.1091  0.0347  0.2845
 2723SOL    HW1 9610   0.307   1.256   1.042 -0.7438 -1.0573  0.0444
 2723SOL    HW2 9611   0.248   1.332   1.159  1.0295  1.0667 -0.3741
 2724SOL     OW 9612   4.444   2.122   0.413  0.3473 -0.0019  0.4710
 2724SOL    HW1 9613   4.521   2.084   0.372  0.0159  1.0975 -1.3017
 2724SOL    HW2 9614   4.428   2.203   0.364  0.2946  1.8097  3.2420
 2725SOL     OW 9615   4.535   2.687   9.694  0.3432  0.1587  0.5028
 2725SOL    HW1 9616   4.474   2.694   9.769 -0.0926  0.3727  0.1339
 2725SOL    HW2 9617   4.478   2.665   9.620  0.8177 -0.3815  0.2971
 2726SOL     OW 9618   0.251   2.162  11.527  0.0090  0.0718  0.5661
 2726SOL    HW1 9619   0.342   2.190  11.514  0.4504 -0.7867  1.5868
 2726SOL    HW2 9620   0.199   2.225  11.479  1.1274  0.8480  0.3345
 2727SOL     OW 9621   1.717   3.130  11.889 -0.1756 -0.2077  0.4763
 2727SOL    HW1 9622   1.640   3.182  11.912 -0.0010  0.3036 -0.1008
 2727SOL    HW2 9623   1.743   3.161  11.803  2.1915  1.4213  1.6666
 2728SOL     OW 9624   2.202   3.092  11.238  0.0606 -0.4622  0.8220
 2728SOL    HW1 9625   2.110   3.099  11.213  0.1264 -0.2918  0.6367
 2728SOL    HW2 9626   2.251   3.107  11.158  0.2524 -0.5644  0.9182
 2729SOL     OW 9627   0.793   2.278   0.320  0.1985  0.1421 -0.0852
 2729SOL    HW1 9628   0.791   2.183   0.313 -0.2741  0.2562 -1.8455
 2729SOL    HW2 9629   0.753   2.297   0.406  0.3129 -1.2295  0.2847
 2730SOL     OW 9630   4.085   2.671  11.672  0.2179  0.3692  0.3012
 2730SOL    HW1 9631   4.016   2.607  11.654 -0.5520  1.2441  0.0921
 2730SOL    HW2 9632   4.120   2.645  11.757  0.9100 -1.1802 -0.4098
 2731SOL     OW 9633   2.742   1.425  10.400 -0.0521 -0.5279 -0.0509
 2731SOL    HW1 9634   2.699   1.382  10.475  0.8548 -0.5330  0.4799
 2731SOL    HW2 9635   2.784   1.354  10.353  1.2916 -0.2781  0.7223
 2732SOL     OW 9636   7.328   3.777  11.018 -0.0748  0.0536  0.2663
 2732SOL    HW1 9637   7.306   3.808  10.931 -1.5977  0.3049  0.6987
 2732SOL    HW2 9638   7.335   3.857  11.071  0.1728 -0.1284  0.5127
 2733SOL     OW 9639   1.650   3.639  11.293  0.0001 -0.2144 -0.4234
 2733SOL    HW1 9640   1.621   3.622  11.204  3.5172  0.6703 -1.8810
 2733SOL    HW2 9641   1.731   3.690  11.284  1.2871 -1.2494  3.2218
 2734SOL     OW 9642   7.627   3.361  11.083  0.4249  0.3338  0.2142
 2734SOL    HW1 9643   7.591   3.449  11.080 -0.6303 -0.0835  0.0160
 2734SOL    HW2 9644   7.550   3.304  11.075  0.9791 -0.6033  1.2876
 2735SOL     OW 9645   0.560   1.898   0.867  0.3172 -0.0875  0.4994
 2735SOL    HW1 9646   0.619   1.878   0.793 -1.2425 -1.5749 -0.4321
 2735SOL    HW2 9647   0.586   1.836   0.935  0.1902 -0.3748  0.2891
 2736SOL     OW 9648   3.359   3.289  10.820 -0.2020 -0.1917 -0.2590
 2736SOL    HW1 9649   3.425   3.232  10.858 -0.4544  0.4014  1.1542
 2736SOL    HW2 9650   3.284   3.232  10.802  0.7582 -0.9316 -2.1925
 2737SOL     OW 9651   0.478   4.135  10.117 -0.6833 -0.2355  0.5070
 2737SOL    HW1 9652   0.414   4.084  10.069  0.1304 -0.0714 -0.7957
 2737SOL    HW2 9653   0.466   4.109  10.209 -1.3634 -1.5602  0.0633
 2738SOL     OW 9654   2.878   4.273   0.070  0.6756 -0.5819  0.0918
 2738SOL    HW1 9655   2.792   4.311   0.054  0.1974 -1.5723  0.1883
 2738SOL    HW2 9656   2.872   4.237   0.159  2.1584  1.8438  1.2833
 2739SOL     OW 9657   0.812   3.320  10.739  0.0160  0.1375 -0.6321
 2739SOL    HW1 9658   0.745   3.284  10.798 -0.6308  0.0905 -1.3811
 2739SOL    HW2 9659   0.820   3.255  10.670  1.4220 -0.2309 -0.1469
 2740SOL     OW 9660   7.080   3.471   0.310 -0.7383  0.1793 -0.3845
 2740SOL    HW1 9661   6.991   3.508   0.311 -0.1587  1.6549  0.5679
 2740SOL    HW2 9662   7.095   3.443   0.400 -1.5816 -3.6872 -1.2893
 2741SOL     OW 9663   0.984   3.277  12.402 -0.4324 -0.3240  0.5465
 2741SOL    HW1 9664   0.941   3.358  12.429 -0.4381  0.6921 -2.2354
 2741SOL    HW2 9665   0.947   3.210  12.459 -1.0400  1.4754  2.3678
 2742SOL     OW 9666   1.251   0.408   0.629 -0.3456 -0.1640  0.4354
 2742SOL    HW1 9667   1.284   0.370   0.711 -1.1327 -2.4394 -0.2335
 2742SOL    HW2 9668   1.314   0.379   0.563  1.1967  2.9952  0.3529
 2743SOL     OW 9669   7.481   3.971   2.148  0.4220 -0.7010  0.2307
 2743SOL    HW1 9670   7.496   3.911   2.075  0.9236  0.0671 -0.3163
 2743SOL    HW2 9671   7.386   3.971   2.159  0.3191 -0.6590 -0.5719
 2744SOL     OW 9672   2.649   4.343  10.525 -0.4684  0.3255 -0.3551
 2744SOL    HW1 9673   2.725   4.301  10.485 -0.7016  0.6671 -1.1840
 2744SOL    HW2 9674   2.650   4.313  10.616 -0.5431 -1.3746 -0.8647
 2745SOL     OW 9675   2.014   3.170  12.068 -0.2401  0.0271 -0.6509
 2745SOL    HW1 9676   2.069   3.131  12.000  1.8298  1.5959  0.0109
 2745SOL    HW2 9677   1.985   3.253  12.031  2.0743  1.5716  0.7855
 2746SOL     OW 9678   2.938   3.622  10.302 -0.0916  0.5678 -0.1827
 2746SOL    HW1 9679   2.891   3.606  10.384 -0.0034  0.2928 -0.1852
 2746SOL    HW2 9680   3.027   3.642  10.330 -0.2774  1.4219 -0.1575
 2747SOL     OW 9681   7.568   3.949  10.669  0.2399 -0.0670  0.6474
 2747SOL    HW1 9682   7.628   3.983  10.736  2.3324 -0.5954 -0.8559
 2747SOL    HW2 9683   7.584   4.003  10.592  0.7307 -1.8725 -0.5803
 2748SOL     OW 9684   7.883   3.987   1.816 -0.1765  0.8715  0.5148
 2748SOL    HW1 9685   7.899   4.079   1.834 -0.6892  1.1983 -0.5711
 2748SOL    HW2 9686   7.796   3.970   1.852 -0.3280  0.9729  0.2003
 2749SOL     OW 9687   3.123   3.218  11.778  0.2153 -0.1190  0.4266
 2749SOL    HW1 9688   3.191   3.253  11.721  0.5198 -0.6283  0.4652
 2749SOL    HW2 9689   3.041   3.254  11.743  0.4088 -0.3267 -0.2676
 2750SOL     OW 9690   0.372   2.056  10.515 -0.4983  0.4883 -0.5607
 2750SOL    HW1 9691   0.439   2.033  10.450  1.0105 -2.3907  1.7363
 2750SOL    HW2 9692   0.415   2.119  10.573  0.2013 -1.0265  0.6561
 2751SOL     OW 9693   2.300   1.427  12.044 -0.4839  0.1398  0.1075
 2751SOL    HW1 9694   2.339   1.410  11.958  1.4263 -0.2400  1.0046
 2751SOL    HW2 9695   2.295   1.522  12.050  0.7650  0.2185  0.1441
 2752SOL     OW 9696   0.847   3.592  10.781 -0.0303  0.1552 -0.1695
 2752SOL    HW1 9697   0.831   3.500  10.800  1.6232  0.0147  0.7590
 2752SOL    HW2 9698   0.915   3.592  10.713 -0.0340  0.6711 -0.1800
 2753SOL     OW 9699   0.643   4.986   0.355 -0.0925 -0.6473  0.0197
 2753SOL    HW1 9700   0.695   4.923   0.404  1.6462 -0.0010 -0.8987
 2753SOL    HW2 9701   0.666   4.970   0.263 -1.1907 -0.0415 -0.3773
 2754SOL     OW 9702   1.551   3.840  12.362  0.0821 -0.0180  0.2857
 2754SOL    HW1 9703   1.593   3.804  12.285  3.5498  1.1812  1.4382
 2754SOL    HW2 9704   1.560   3.771  12.429  1.8799  0.8334  0.9905
 2755SOL     OW 9705   2.950   3.634  12.146  0.0258 -0.9699  0.0811
 2755SOL    HW1 9706   2.980   3.562  12.091 -0.9421 -0.9848 -0.4470
 2755SOL    HW2 9707   2.965   3.603  12.236 -0.4460 -1.8588 -0.1413
 2756SOL     OW 9708   0.500   2.323  12.147  0.3854 -0.3227  0.2159
 2756SOL    HW1 9709   0.479   2.230  12.158  0.8286 -0.5279 -0.6583
 2756SOL    HW2 9710   0.586   2.324  12.106  0.0109  0.4539 -0.5856
 2757SOL     OW 9711   3.442   2.711  10.214 -0.1253 -0.2049  0.2921
 2757SOL    HW1 9712   3.484   2.760  10.143  1.8739 -1.0254  0.8468
 2757SOL    HW2 9713   3.354   2.693  10.181  0.7450 -0.6050 -2.0197
 2758SOL     OW 9714   7.889   2.485   0.529  0.1440 -0.1191 -0.3701
 2758SOL    HW1 9715   7.893   2.410   0.588  0.4811 -0.6865 -1.0913
 2758SOL    HW2 9716   7.934   2.455   0.450 -0.6084  0.4973 -1.0481
 2759SOL     OW 9717   2.900   3.762   0.659  0.1964  0.0023 -0.2050
 2759SOL    HW1 9718   2.861   3.816   0.728 -1.8673 -2.0972  0.3975
 2759SOL    HW2 9719   2.872   3.805   0.577 -2.0290 -0.4756  0.2472
 2760SOL     OW 9720   0.032   2.287  11.392  0.4892 -0.2453 -0.1967
 2760SOL    HW1 9721  -0.033   2.330  11.447  0.4583 -1.4947  0.7881
 2760SOL    HW2 9722  -0.015   2.269  11.310 -0.4303 -1.1069  0.4896
 2761SOL     OW 9723   3.452   3.615  11.960  0.4037 -0.1873 -0.2771
 2761SOL    HW1 9724   3.377   3.595  12.015  0.8382  0.4399  0.5562
 2761SOL    HW2 9725   3.478   3.530  11.924 -0.7284 -0.4046 -0.6407
 2762SOL     OW 9726   6.529   2.238  11.020 -0.5070 -0.3053  0.3190
 2762SOL    HW1 9727   6.595   2.265  10.956 -1.7061  1.0521 -0.3963
 2762SOL    HW2 9728   6.488   2.161  10.981  0.3066 -0.8887  0.5643
 2763SOL     OW 9729   3.704   3.884  10.833 -0.0168  0.2825  0.1367
 2763SOL    HW1 9730   3.620   3.869  10.877  0.7842 -3.1754  0.7716
 2763SOL    HW2 9731   3.694   3.841  10.748  1.5090 -1.4424  0.7840
 2764SOL     OW 9732   1.245   3.975  12.357  0.0518  0.3297  0.3179
 2764SOL    HW1 9733   1.304   3.978  12.433 -1.4061 -2.9867  1.8032
 2764SOL    HW2 9734   1.232   4.067  12.333  2.1736  1.4143  2.7837
 2765SOL     OW 9735   0.585   2.548  11.181  0.1782 -0.1187 -0.3508
 2765SOL    HW1 9736   0.599   2.477  11.120 -0.7424  0.8380 -1.7230
 2765SOL    HW2 9737   0.593   2.628  11.128  0.3630  0.7798  0.9695
 2766SOL     OW 9738   7.584   5.791   0.270 -0.0967  0.0661  0.0482
 2766SOL    HW1 9739   7.506   5.794   0.214  0.1826 -1.4632 -0.4762
 2766SOL    HW2 9740   7.651   5.837   0.220 -0.3571  0.3660 -0.0278
 2767SOL     OW 9741   1.209   2.842  12.193  0.0589 -0.2372 -0.1452
 2767SOL    HW1 9742   1.301   2.836  12.169 -0.4333  1.7982 -3.1839
 2767SOL    HW2 9743   1.178   2.921  12.150 -3.0492 -0.6058  1.1098
 2768SOL     OW 9744   1.930   2.865  11.768  0.2943 -0.8156  0.4029
 2768SOL    HW1 9745   1.903   2.830  11.683  1.1110  0.7590 -0.5671
 2768SOL    HW2 9746   1.848   2.891  11.811 -0.0176  1.0524 -1.1764
 2769SOL     OW 9747   7.460   2.585  11.859  0.4239 -0.5078 -0.4642
 2769SOL    HW1 9748   7.476   2.677  11.881  0.4844 -0.7176  0.3988
 2769SOL    HW2 9749   7.371   2.569  11.890 -0.0142 -0.4408 -1.6382
 2770SOL     OW 9750   3.021   2.555  11.522  0.0214 -0.7991 -0.0110
 2770SOL    HW1 9751   2.978   2.575  11.605 -2.1219 -2.5354 -0.6014
 2770SOL    HW2 9752   2.956   2.578  11.455  0.2491 -2.7644 -0.9903
 2771SOL     OW 9753   7.633   2.242  11.996  0.2461  0.9534  0.0991
 2771SOL    HW1 9754   7.661   2.312  12.055  1.0933 -0.2640  1.2111
 2771SOL    HW2 9755   7.713   2.192  11.979 -0.2693  0.4606 -0.9568
 2772SOL     OW 9756   1.917   4.144  12.062  0.1038  0.4062 -0.2901
 2772SOL    HW1 9757   2.008   4.130  12.035  0.2674  0.6919  0.1032
 2772SOL    HW2 9758   1.874   4.060  12.043  0.6640 -0.0456  0.3866
 2773SOL     OW 9759   0.336   3.747   0.595 -0.8043 -0.6914  0.5249
 2773SOL    HW1 9760   0.386   3.781   0.669 -0.6622 -0.8710  0.5125
 2773SOL    HW2 9761   0.356   3.654   0.593 -1.3518 -0.8123  0.6777
 2774SOL     OW 9762   0.899   4.447  11.794 -0.3583  0.1890  0.3092
 2774SOL    HW1 9763   0.891   4.421  11.702 -2.2135  1.0005  0.1963
 2774SOL    HW2 9764   0.936   4.536  11.791 -1.0488  0.4830  0.2932
 2775SOL     OW 9765   1.456   3.721  11.990 -0.5433 -0.1132 -0.1040
 2775SOL    HW1 9766   1.389   3.759  12.046 -1.2253 -0.5307 -0.6190
 2775SOL    HW2 9767   1.477   3.637  12.031 -1.9243 -0.9893 -1.0770
 2776SOL     OW 9768   2.704   2.702   0.017 -0.5348  0.2173  0.5885
 2776SOL    HW1 9769   2.633   2.724   0.078 -1.2024 -0.1790 -0.0212
 2776SOL    HW2 9770   2.679   2.745  -0.065 -0.7899 -1.0337 -0.0208
 2777SOL     OW 9771   0.070   3.231  10.375 -0.4321  0.9239  0.1688
 2777SOL    HW1 9772   0.090   3.172  10.303  0.0735  0.7117  0.4713
 2777SOL    HW2 9773   0.004   3.291  10.340 -0.9081  0.2165 -0.1554
 2778SOL     OW 9774   0.998   4.200   0.064 -0.5553  0.4580  0.2229
 2778SOL    HW1 9775   0.938   4.251   0.010 -0.3722  0.8966  0.4295
 2778SOL    HW2 9776   0.994   4.112   0.027 -0.9150  0.6072 -0.1035
 2779SOL     OW 9777   0.131   3.396  12.063  0.4580  0.6752  0.1961
 2779SOL    HW1 9778   0.192   3.346  12.118  0.4228  1.0864  0.6089
 2779SOL    HW2 9779   0.047   3.351  12.072  0.3580  0.9792  0.8015
 2780SOL     OW 9780   1.390   0.949  10.770 -0.2410 -0.1560 -0.2001
 2780SOL    HW1 9781   1.307   0.903  10.779 -0.0299 -0.4666  0.1725
 2780SOL    HW2 9782   1.410   0.945  10.677  0.4242 -1.9601 -0.0153
 2781SOL     OW 9783   7.725   3.653   0.898  0.6682 -0.0231  1.0513
 2781SOL    HW1 9784   7.705   3.674   0.989  0.6320 -0.8669  1.2427
 2781SOL    HW2 9785   7.645   3.676   0.850  0.6720  0.3830  1.2322
 2782SOL     OW 9786   1.789   0.723  10.908 -0.7063 -0.3379 -0.2114
 2782SOL    HW1 9787   1.830   0.682  10.984 -0.8151  0.7114  0.4359
 2782SOL    HW2 9788   1.747   0.651  10.862  0.1801 -1.1344  0.1895
 2783SOL     OW 9789   3.251   2.046  11.184  0.0000  0.3895 -0.0719
 2783SOL    HW1 9790   3.340   2.011  11.180  0.5826  1.8033 -0.0089
 2783SOL    HW2 9791   3.202   1.981  11.235  0.6263 -1.1260 -1.3323
 2784SOL     OW 9792   2.462   0.924  11.410 -0.0984  0.1651 -0.3076
 2784SOL    HW1 9793   2.426   0.871  11.339 -0.5055  1.0546 -0.7870
 2784SOL    HW2 9794   2.550   0.890  11.423  0.7356  1.2462 -2.6142
 2785SOL     OW 9795   2.969   2.517  10.070  0.1249 -0.0882  0.0610
 2785SOL    HW1 9796   3.034   2.489  10.007  1.0308 -1.0349  1.3764
 2785SOL    HW2 9797   3.019   2.565  10.137 -0.8717  1.3109 -0.1440
 2786SOL     OW 9798   1.836   2.881  10.343  0.1164  0.2381  0.1004
 2786SOL    HW1 9799   1.802   2.792  10.333  0.1733  0.2540 -0.2618
 2786SOL    HW2 9800   1.926   2.876  10.309 -1.2464  1.3991 -4.3126
 2787SOL     OW 9801   3.328   3.155   0.513  0.0597  0.1155  0.0876
 2787SOL    HW1 9802   3.260   3.104   0.468 -0.2023 -0.3838  1.0224
 2787SOL    HW2 9803   3.285   3.186   0.593  0.9549 -0.2663  0.7275
 2788SOL     OW 9804   1.457   2.252  10.987  0.1080 -0.0099 -0.8142
 2788SOL    HW1 9805   1.533   2.276  10.934  0.1414  1.1027 -0.3010
 2788SOL    HW2 9806   1.408   2.334  10.997 -0.5212 -0.4547 -0.1334
 2789SOL     OW 9807   1.190   3.001  11.768 -0.3373 -0.4805  0.5013
 2789SOL    HW1 9808   1.097   3.023  11.771 -1.0172 -2.8653 -0.7906
 2789SOL    HW2 9809   1.193   2.906  11.784  1.7124 -0.7225 -0.9439
 2790SOL     OW 9810   2.779   4.643  11.927 -0.3229  0.2996 -0.1242
 2790SOL    HW1 9811   2.747   4.671  12.013 -1.1526  1.3909 -0.7684
 2790SOL    HW2 9812   2.828   4.718  11.894  1.6311 -0.7684  0.1502
 2791SOL     OW 9813   2.910   2.113   1.023 -0.4793 -0.5351 -0.0377
 2791SOL    HW1 9814   2.958   2.097   1.105  0.2382 -1.6824 -0.6543
 2791SOL    HW2 9815   2.822   2.079   1.039 -0.0795 -1.5880 -0.0344
 2792SOL     OW 9816   7.847   3.501   0.687 -0.4776 -0.4763  1.1480
 2792SOL    HW1 9817   7.935   3.532   0.666 -1.2660  0.0448 -1.9167
 2792SOL    HW2 9818   7.815   3.562   0.754 -0.0843  2.2870 -0.9897
 2793SOL     OW 9819   7.482   2.857  11.900 -0.2009  0.0837 -0.2649
 2793SOL    HW1 9820   7.470   2.902  11.984 -0.2356 -0.0775 -0.1831
 2793SOL    HW2 9821   7.404   2.879  11.849 -0.9939 -1.1732  0.3563
 2794SOL     OW 9822   1.840   2.284  11.680  0.1393 -0.6474  0.8364
 2794SOL    HW1 9823   1.817   2.213  11.740 -3.2213 -0.3587  0.0912
 2794SOL    HW2 9824   1.788   2.267  11.601 -1.0060  2.6999  0.7131
 2795SOL     OW 9825   0.918   2.140  10.781  0.0955  0.4265 -0.3507
 2795SOL    HW1 9826   1.010   2.129  10.760 -0.3906 -1.9562 -1.5429
 2795SOL    HW2 9827   0.918   2.194  10.861  2.6100 -1.3393  0.9732
 2796SOL     OW 9828   0.836   1.106   0.442 -0.0363 -0.0496 -0.0608
 2796SOL    HW1 9829   0.889   1.171   0.396  0.7255  0.2919  1.2330
 2796SOL    HW2 9830   0.831   1.140   0.532 -3.0922  0.3503 -0.2569
 2797SOL     OW 9831   7.763   3.174  12.086 -0.0481  0.2388 -0.1472
 2797SOL    HW1 9832   7.823   3.160  12.012 -0.4026 -0.8737 -0.2516
 2797SOL    HW2 9833   7.820   3.197  12.159  0.4981 -0.5413 -0.3107
 2798SOL     OW 9834   1.308   3.700  11.148  0.2777  0.1818 -0.2270
 2798SOL    HW1 9835   1.261   3.770  11.103  1.7142  0.8112 -0.8019
 2798SOL    HW2 9836   1.342   3.742  11.227 -1.1300 -0.5897  0.8377
 2799SOL     OW 9837   3.017   5.144  10.439  0.6235  0.0489  0.3588
 2799SOL    HW1 9838   3.050   5.056  10.459  2.1238  0.6546  0.6927
 2799SOL    HW2 9839   3.075   5.175  10.369  1.5334  1.5740  1.7262
 2800SOL     OW 9840   7.840   4.104  12.378 -0.5695  0.1400 -0.2094
 2800SOL    HW1 9841   7.832   4.047  12.454  0.0162 -1.4091 -1.2511
 2800SOL    HW2 9842   7.923   4.149  12.391 -0.9970  0.7174  0.5870
 2801SOL     OW 9843   7.950   4.369   1.127 -0.0822 -0.1498  0.3233
 2801SOL    HW1 9844   7.913   4.285   1.098  0.5179 -0.1171 -0.5853
 2801SOL    HW2 9845   7.963   4.418   1.046  1.1991  0.1451  0.6928
 2802SOL     OW 9846   1.698   3.663  12.186 -0.4295  0.0060  0.0164
 2802SOL    HW1 9847   1.630   3.598  12.167  0.0669 -0.5764  0.2192
 2802SOL    HW2 9848   1.778   3.612  12.197 -0.5110  0.3481  2.9256
 2803SOL     OW 9849   3.436   1.602  12.009  0.5592  0.1477 -0.1270
 2803SOL    HW1 9850   3.491   1.526  11.991 -0.2684 -0.3131 -0.7799
 2803SOL    HW2 9851   3.364   1.594  11.947 -1.8052 -0.8452  2.5321
 2804SOL     OW 9852   0.163   4.582  11.524 -0.3513  0.4217 -0.0357
 2804SOL    HW1 9853   0.224   4.596  11.597 -0.7764 -1.3009  0.7011
 2804SOL    HW2 9854   0.214   4.534  11.459 -0.3072  0.9198 -0.3708
 2805SOL     OW 9855   7.345   3.378  11.735  0.1798  0.3698 -0.4112
 2805SOL    HW1 9856   7.251   3.396  11.733  0.2579  0.8381 -0.1033
 2805SOL    HW2 9857   7.367   3.353  11.646 -0.3425 -0.2835 -0.3614
 2806SOL     OW 9858   0.040   1.945   0.827 -0.0171  0.2014  0.1865
 2806SOL    HW1 9859   0.077   1.882   0.889  0.1474 -0.7138 -0.8099
 2806SOL    HW2 9860   0.108   2.012   0.818  0.8723 -0.7650 -0.6031
 2807SOL     OW 9861   1.306   2.207  10.178 -0.6095 -0.2153 -0.1875
 2807SOL    HW1 9862   1.395   2.237  10.197  1.1436 -2.9495 -3.1281
 2807SOL    HW2 9863   1.282   2.253  10.097 -1.1306 -0.8391 -0.3946
 2808SOL     OW 9864   2.744   1.757  11.962 -0.5908 -0.3705 -0.1230
 2808SOL    HW1 9865   2.835   1.770  11.938 -0.1576 -3.5830 -0.7043
 2808SOL    HW2 9866   2.694   1.799  11.892  0.4338  0.3035 -0.4743
 2809SOL     OW 9867   0.548   3.368  11.803  0.1101  0.0291 -0.3215
 2809SOL    HW1 9868   0.510   3.428  11.738  0.5126  0.3361 -0.2781
 2809SOL    HW2 9869   0.474   3.313  11.831 -0.0988 -0.0010 -0.9200
 2810SOL     OW 9870   2.339   0.246  10.710  0.2357 -0.0797  0.1066
 2810SOL    HW1 9871   2.305   0.240  10.799 -1.8196  0.3771 -0.5878
 2810SOL    HW2 9872   2.262   0.237  10.654  1.1771  1.5658 -1.5837
 2811SOL     OW 9873   7.994   3.532  11.210 -0.2721  0.1430  0.1100
 2811SOL    HW1 9874   7.996   3.601  11.143  2.2628  0.8443  0.8219
 2811SOL    HW2 9875   8.082   3.495  11.209 -0.4424 -0.4466  2.4069
 2812SOL     OW 9876   2.179   5.273  11.495 -0.0799 -0.4789 -0.1960
 2812SOL    HW1 9877   2.114   5.230  11.440  0.1635 -0.0500 -0.8216
 2812SOL    HW2 9878   2.261   5.229  11.475 -0.0751 -0.6368  0.1697
 2813SOL     OW 9879   0.084   2.774  12.055  0.4641 -0.3169  0.0040
 2813SOL    HW1 9880   0.142   2.850  12.068 -1.2625  1.1600 -0.4296
 2813SOL    HW2 9881   0.047   2.788  11.967 -2.5615  0.3104  1.2731
 2814SOL     OW 9882   6.847   2.635   0.022 -0.4509 -0.2747 -0.1906
 2814SOL    HW1 9883   6.810   2.710   0.068 -1.0154 -1.5008  1.4190
 2814SOL    HW2 9884   6.782   2.614  -0.046 -1.4875 -0.7781  0.9208
 2815SOL     OW 9885   2.253   0.984  11.821  0.0055  0.2197 -0.0527
 2815SOL    HW1 9886   2.252   0.949  11.732  1.5947  1.1645 -0.4942
 2815SOL    HW2 9887   2.249   1.079  11.808  2.0464  0.4603  0.7541
 2816SOL     OW 9888   7.482   4.058  11.824 -0.3617 -0.2363  0.6358
 2816SOL    HW1 9889   7.543   3.986  11.843 -0.6229 -0.6045  0.1280
 2816SOL    HW2 9890   7.404   4.014  11.789 -0.8371  0.2485  1.0833
 2817SOL     OW 9891   1.683   2.800  11.971  0.1777 -0.3433  0.8263
 2817SOL    HW1 9892   1.686   2.731  11.905  0.7803  0.2318  0.2479
 2817SOL    HW2 9893   1.615   2.859  11.941  1.7743  0.9884 -0.3906
 2818SOL     OW 9894   7.632   2.429   0.391  0.5921 -0.7366  0.3373
 2818SOL    HW1 9895   7.634   2.483   0.311  1.5027  0.6144  1.2358
 2818SOL    HW2 9896   7.656   2.489   0.461 -2.3330 -1.3414  2.0050
 2819SOL     OW 9897   1.384   2.930  11.959 -0.0827 -0.0575 -0.5058
 2819SOL    HW1 9898   1.392   3.015  12.004  0.1030  1.3012 -2.9376
 2819SOL    HW2 9899   1.325   2.947  11.886  2.2542 -1.1984 -2.8345
 2820SOL     OW 9900   7.156   1.917  11.809  0.1383  0.2551  0.0445
 2820SOL    HW1 9901   7.189   1.916  11.719  1.2442 -0.6755  0.4291
 2820SOL    HW2 9902   7.231   1.943  11.862 -0.2680 -0.0239  0.7742
 2821SOL     OW 9903   3.060   3.964   0.330 -0.3336 -0.0762 -0.1168
 2821SOL    HW1 9904   3.128   3.985   0.395  0.7346 -1.4264 -0.7375
 2821SOL    HW2 9905   3.054   4.043   0.275 -0.9110  0.9035  1.2892
 2822SOL     OW 9906   2.334   1.506  11.792 -0.6473  0.6700  0.0166
 2822SOL    HW1 9907   2.303   1.551  11.713 -0.0076  1.3608  0.1505
 2822SOL    HW2 9908   2.392   1.569  11.834 -1.6332  0.6509  1.4868
 2823SOL     OW 9909   7.136   1.811  11.291  0.5021 -0.3678  0.0422
 2823SOL    HW1 9910   7.097   1.881  11.239  0.7324 -0.7304 -0.6294
 2823SOL    HW2 9911   7.114   1.731  11.244  0.1884 -0.7575  0.8361
 2824SOL     OW 9912   1.287   3.705   0.878 -0.4012 -0.0724  0.0712
 2824SOL    HW1 9913   1.292   3.767   0.805 -0.3894 -1.2306 -0.9525
 2824SOL    HW2 9914   1.360   3.645   0.863 -2.2014 -2.1802 -0.7757
 2825SOL     OW 9915   5.944   3.949  10.811 -0.4665 -0.3173 -0.0256
 2825SOL    HW1 9916   5.896   4.032  10.808 -2.3882 -1.3552  0.5977
 2825SOL    HW2 9917   6.006   3.960  10.883 -0.2721  0.7696 -0.3364
 2826SOL     OW 9918   1.741   1.907  11.349  0.5121  0.0740  0.2369
 2826SOL    HW1 9919   1.697   1.963  11.285  0.6167  0.7268  0.7223
 2826SOL    HW2 9920   1.752   1.823  11.305 -0.7340  0.0656 -0.0902
 2827SOL     OW 9921   2.593   3.479  12.396  0.5148 -0.0806 -0.5890
 2827SOL    HW1 9922   2.528   3.478  12.325  0.3285  0.1888 -0.4248
 2827SOL    HW2 9923   2.616   3.387  12.408  1.5805 -0.0061 -1.9302
 2828SOL     OW 9924   2.990   2.761   0.238  0.3135  0.1767 -0.6667
 2828SOL    HW1 9925   2.933   2.685   0.227  1.4437 -0.6409 -1.0035
 2828SOL    HW2 9926   2.956   2.826   0.176  0.0248 -0.4647 -1.1872
 2829SOL     OW 9927   0.713   4.093   0.077  0.2965 -0.4495  0.4945
 2829SOL    HW1 9928   0.697   4.186   0.096 -0.4042 -0.0513 -1.7456
 2829SOL    HW2 9929   0.759   4.060   0.154 -0.6915  1.4057  1.9500
 2830SOL     OW 9930   0.062   2.845   4.024 -0.3367 -0.1113  0.2400
 2830SOL    HW1 9931   0.089   2.755   4.009 -0.0949  0.1792 -1.2613
 2830SOL    HW2 9932   0.088   2.863   4.115 -1.6691 -1.9596  1.0569
 2831SOL     OW 9933   2.622   3.397  11.019 -0.1335 -0.1236 -0.3343
 2831SOL    HW1 9934   2.595   3.406  10.928 -1.1847 -2.1245 -0.2885
 2831SOL    HW2 9935   2.558   3.447  11.069 -0.9550 -0.9127 -0.5689
 2832SOL     OW 9936   0.519   4.298  11.608 -0.2420 -0.2180 -0.0924
 2832SOL    HW1 9937   0.524   4.224  11.547 -0.0786  1.1633 -1.8553
 2832SOL    HW2 9938   0.429   4.330  11.600 -0.5306 -0.6330  1.2107
 2833SOL     OW 9939   1.787   3.738  10.856 -0.1395  0.1302 -0.0300
 2833SOL    HW1 9940   1.761   3.652  10.824 -0.7290  0.4048 -0.3068
 2833SOL    HW2 9941   1.712   3.767  10.909 -0.1327  0.6547 -0.3038
 2834SOL     OW 9942   2.774   3.174  10.990  0.1270  0.4834  0.1617
 2834SOL    HW1 9943   2.781   3.167  10.895 -2.2952 -0.2221 -0.0500
 2834SOL    HW2 9944   2.738   3.261  11.005  0.8971  0.7549  0.4866
 2835SOL     OW 9945   2.196   4.464  12.307 -0.2007  0.6689  0.2164
 2835SOL    HW1 9946   2.170   4.411  12.382  1.4668  1.0336  1.1168
 2835SOL    HW2 9947   2.255   4.408  12.257  0.2906  1.1144  0.2901
 2836SOL     OW 9948   1.638   2.907  11.661 -0.3040  0.2436 -0.0163
 2836SOL    HW1 9949   1.649   3.001  11.672 -0.9436  0.1823  1.4210
 2836SOL    HW2 9950   1.666   2.889  11.571  4.7341  1.0103  1.0907
 2837SOL     OW 9951   7.267   4.288  11.315 -0.0507 -0.0920 -0.0648
 2837SOL    HW1 9952   7.361   4.272  11.305  0.0355 -0.3537  1.0883
 2837SOL    HW2 9953   7.255   4.307  11.408 -0.9967  0.9594 -0.3852
 2838SOL     OW 9954   2.457   3.509  11.612 -0.6028  0.4841 -0.3466
 2838SOL    HW1 9955   2.484   3.434  11.665  0.5210  1.5511  0.6462
 2838SOL    HW2 9956   2.526   3.518  11.546 -1.3471 -0.0527 -1.2293
 2839SOL     OW 9957   0.297   4.774  10.512  0.3765  0.0111  0.3051
 2839SOL    HW1 9958   0.315   4.853  10.563  1.3178  0.8278 -1.2219
 2839SOL    HW2 9959   0.222   4.797  10.459  0.7529 -0.0601 -0.2618
 2840SOL     OW 9960   1.219   4.381  11.592 -0.1175  0.3749  0.1952
 2840SOL    HW1 9961   1.277   4.310  11.567  0.3300  0.7025  0.3027
 2840SOL    HW2 9962   1.132   4.350  11.567 -0.1124 -0.8126  1.5574
 2841SOL     OW 9963   4.234   3.072  10.176  0.0733 -0.5757  0.1722
 2841SOL    HW1 9964   4.196   3.123  10.248 -1.3519  0.2858 -1.1045
 2841SOL    HW2 9965   4.328   3.073  10.193 -0.2430 -0.7315  2.2011
 2842SOL     OW 9966   1.241   4.602  12.348 -0.0130  0.0947  0.2694
 2842SOL    HW1 9967   1.163   4.546  12.341 -1.4133  1.9131  0.5377
 2842SOL    HW2 9968   1.238   4.637  12.437 -0.9344  2.8792 -0.7219
 2843SOL     OW 9969   1.456   0.855   0.844 -0.2530 -0.1290  0.0986
 2843SOL    HW1 9970   1.455   0.946   0.873  0.5481  0.0318 -0.3586
 2843SOL    HW2 9971   1.470   0.861   0.749  2.1423 -0.7855  0.3692
 2844SOL     OW 9972   7.191   2.911   0.292  0.0879 -0.0560  0.2354
 2844SOL    HW1 9973   7.189   3.000   0.257  2.0483  0.7677  1.9937
 2844SOL    HW2 9974   7.225   2.858   0.220 -1.4182  0.5113 -0.9502
 2845SOL     OW 9975   0.595   2.225  11.128  0.3086  0.2423 -0.0022
 2845SOL    HW1 9976   0.662   2.207  11.061 -0.7513 -0.4016 -0.9315
 2845SOL    HW2 9977   0.521   2.260  11.078 -0.1098  0.7777  0.9863
 2846SOL     OW 9978   6.907   1.581  10.595  0.1119 -0.4192 -0.4864
 2846SOL    HW1 9979   6.851   1.531  10.535  0.2765  0.6148 -1.5377
 2846SOL    HW2 9980   6.994   1.541  10.584  0.3840  0.4668 -1.8146
 2847SOL     OW 9981   0.782   2.281  11.562  0.3395  0.5406  0.4797
 2847SOL    HW1 9982   0.701   2.276  11.512  1.0102 -1.5719 -0.5286
 2847SOL    HW2 9983   0.836   2.343  11.513 -0.7380  2.2838  1.3847
 2848SOL     OW 9984   7.577   7.882  10.720 -0.7393 -0.3191  0.6400
 2848SOL    HW1 9985   7.612   7.889  10.809 -0.5530 -1.1770  0.6495
 2848SOL    HW2 9986   7.485   7.858  10.733 -1.2222  1.4099  0.6092
 2849SOL     OW 9987   0.748   1.949  10.975 -0.7218  0.1964 -1.2722
 2849SOL    HW1 9988   0.705   1.870  10.943  0.0915 -0.3196 -1.1307
 2849SOL    HW2 9989   0.786   1.989  10.897 -0.8678  0.2774 -1.3007
 2850SOL     OW 9990   3.369   3.905  10.942 -0.7063 -0.0865  0.0754
 2850SOL    HW1 9991   3.341   3.983  10.990  0.1043 -0.4281  1.1424
 2850SOL    HW2 9992   3.340   3.920  10.852 -0.4260  1.5060  0.2356
 2851SOL     OW 9993   1.798   3.180  11.636 -0.3317 -0.4360 -0.3073
 2851SOL    HW1 9994   1.782   3.256  11.580 -0.2019 -2.1463 -2.8782
 2851SOL    HW2 9995   1.880   3.143  11.602  0.0929 -1.2135  1.4741
 2852SOL     OW 9996   2.333   1.916  10.828  0.6148  0.1465  0.4325
 2852SOL    HW1 9997   2.321   1.978  10.756 -1.4195  0.5397  1.0524
 2852SOL    HW2 9998   2.346   1.971  10.905  2.9199 -0.2722  0.3986
 2853SOL     OW 9999   0.086   4.401  11.852 -0.2969 -0.2585  0.2498
 2853SOL    HW110000   0.145   4.326  11.845  0.1945  0.1873 -0.4261
 2853SOL    HW210001   0.141   4.472  11.883 -0.8759 -0.2936  1.4389
 2854SOL     OW10002   1.273   3.158  12.126  0.1151 -0.9445  0.0113
 2854SOL    HW110003   1.305   3.188  12.211 -0.9639 -0.4988  0.2835
 2854SOL    HW210004   1.185   3.195  12.119  0.7302  0.3247 -1.9707
 2855SOL     OW10005   7.979   3.649  11.463 -0.4579 -0.3003  0.5410
 2855SOL    HW110006   7.955   3.585  11.396 -0.5139 -0.4006  0.6560
 2855SOL    HW210007   7.897   3.673  11.505 -0.3002 -1.1746  1.4077
 2856SOL     OW10008   7.378   5.807   0.079  0.0833  0.1813 -0.1300
 2856SOL    HW110009   7.285   5.833   0.076  0.7635  2.7994 -1.7820
 2856SOL    HW210010   7.386   5.739   0.011 -0.6491 -0.2360  0.1883
 2857SOL     OW10011   1.234   3.024  11.173 -0.0604 -0.0567  0.0010
 2857SOL    HW110012   1.219   2.965  11.099  2.8469 -0.1150 -0.6906
 2857SOL    HW210013   1.176   3.098  11.157 -0.6373 -0.7832 -1.4878
 2858SOL     OW10014   0.359   3.154  10.974 -0.1096 -0.8084 -0.0311
 2858SOL    HW110015   0.399   3.151  11.061  0.1534 -0.7315 -0.1468
 2858SOL    HW210016   0.266   3.171  10.991 -0.0310 -0.6211  0.2283
 2859SOL     OW10017   3.675   2.941  10.378  0.2993 -0.4966 -0.4457
 2859SOL    HW110018   3.686   3.034  10.397 -0.3776 -0.6268  0.6299
 2859SOL    HW210019   3.685   2.898  10.463  1.6013 -1.5079 -1.0851
 2860SOL     OW10020   0.248   2.095   9.855 -0.0918  0.3785  0.0281
 2860SOL    HW110021   0.291   2.111   9.939  1.5120  2.4745 -1.1079
 2860SOL    HW210022   0.237   2.182   9.816 -0.9018 -0.5197 -1.9043
 2861SOL     OW10023   1.088   2.333   0.537 -0.4885  0.3254 -0.1439
 2861SOL    HW110024   1.032   2.411   0.538 -0.9182  0.0256  1.0899
 2861SOL    HW210025   1.152   2.350   0.607 -1.2777 -0.8929  0.9209
 2862SOL     OW10026   7.908   4.487  12.081  0.0447 -0.2693 -0.6498
 2862SOL    HW110027   7.957   4.428  12.023  0.7428 -0.9101  0.5624
 2862SOL    HW210028   7.975   4.536  12.128 -0.4918 -0.2169  0.0809
 2863SOL     OW10029   3.465   2.749  12.153 -0.1578 -0.4457  0.7125
 2863SOL    HW110030   3.466   2.656  12.132  1.2325 -0.6316  1.4928
 2863SOL    HW210031   3.444   2.752  12.246  0.5026 -0.0167  0.8496
 2864SOL     OW10032   1.793   3.899  12.058 -0.0988 -0.4407  0.1211
 2864SOL    HW110033   1.818   3.861  11.974 -0.9411 -2.6032  0.7976
 2864SOL    HW210034   1.747   3.829  12.104  0.1842  0.7377  2.3353
 2865SOL     OW10035   1.202   3.342   0.681 -0.0454  0.1880  0.0352
 2865SOL    HW110036   1.246   3.332   0.596  2.1004  0.6115  1.0356
 2865SOL    HW210037   1.144   3.417   0.670 -0.9526 -0.6771 -1.4719
 2866SOL     OW10038   0.525   1.978  12.495  0.4214 -0.1493 -0.3664
 2866SOL    HW110039   0.455   1.914  12.505  0.1332  0.3791  1.3427
 2866SOL    HW210040   0.568   1.954  12.413 -0.0996 -2.1051 -0.1159
 2867SOL     OW10041   0.302   2.512  10.656  0.0494 -0.1994  0.3341
 2867SOL    HW110042   0.314   2.430  10.607  1.0834 -0.7385  1.4561
 2867SOL    HW210043   0.388   2.554  10.653  0.4404 -0.7344  2.5144
 2868SOL     OW10044   1.838   2.936   0.250 -0.1661  0.0895 -0.7833
 2868SOL    HW110045   1.864   3.011   0.197 -2.2568  0.3751 -1.4805
 2868SOL    HW210046   1.826   2.971   0.338 -0.5772  0.4726 -0.9861
 2869SOL     OW10047   1.791   2.996  12.146 -0.3297 -0.1784 -0.0805
 2869SOL    HW110048   1.813   3.060  12.078 -0.7086 -1.3384 -1.3545
 2869SOL    HW210049   1.749   2.924  12.098 -0.5244 -1.0829  1.3837
 2870SOL     OW10050   4.793   3.982  10.913  0.1644 -0.2423  0.3480
 2870SOL    HW110051   4.833   3.973  10.827  1.6646  0.0456  0.9942
 2870SOL    HW210052   4.700   3.962  10.898  0.4951 -0.7498 -1.2123
 2871SOL     OW10053   1.772   4.951   0.938 -0.0329  0.2568 -0.3205
 2871SOL    HW110054   1.733   5.018   0.994 -1.1230 -1.7749  1.4710
 2871SOL    HW210055   1.860   4.984   0.919 -0.2014  1.7531  1.2713
 2872SOL     OW10056   0.702   2.353   1.034 -0.1292  0.5818 -0.0993
 2872SOL    HW110057   0.685   2.267   0.996  1.8774  0.2914 -0.4972
 2872SOL    HW210058   0.616   2.389   1.055 -1.0025 -1.4604 -0.0422
 2873SOL     OW10059   1.836   5.610   0.381  0.0610  0.1930 -0.0747
 2873SOL    HW110060   1.823   5.543   0.313  3.1809  0.2214 -0.8208
 2873SOL    HW210061   1.837   5.693   0.333  0.6746  0.3585  0.2232
 2874SOL     OW10062   6.987   3.535   2.697 -0.0742  0.2888 -0.5037
 2874SOL    HW110063   6.931   3.592   2.750 -0.7796 -0.8690  0.0341
 2874SOL    HW210064   7.024   3.593   2.631  0.6485  1.7283  1.1008
 2875SOL     OW10065   0.148   3.352   0.491 -0.1276  0.3427 -0.3777
 2875SOL    HW110066   0.218   3.385   0.547 -0.7182 -1.3098  1.4530
 2875SOL    HW210067   0.167   3.387   0.404  1.3692  2.2173  0.6576
 2876SOL     OW10068   0.900   5.530   0.860  0.4251 -0.4824  0.1570
 2876SOL    HW110069   0.879   5.618   0.829  0.1021  0.3828  2.6050
 2876SOL    HW210070   0.945   5.488   0.786  0.0792  1.5160 -1.2626
 2877SOL     OW10071   2.248   5.826   1.182  0.0354  0.1427 -0.1053
 2877SOL    HW110072   2.171   5.828   1.126  0.1288 -2.3220 -0.4038
 2877SOL    HW210073   2.322   5.842   1.123  0.1032 -2.1024 -0.7352
 2878SOL     OW10074   1.478   4.041   0.758  0.1523  0.0404 -0.0710
 2878SOL    HW110075   1.422   3.963   0.764 -0.7536  0.7530  1.3087
 2878SOL    HW210076   1.558   4.017   0.805 -0.5770  0.2745  1.3537
 2879SOL     OW10077   1.446   4.334   0.064 -0.0287 -0.3351 -0.4031
 2879SOL    HW110078   1.466   4.246   0.094 -0.8684 -0.0663  1.0651
 2879SOL    HW210079   1.530   4.380   0.069  0.3414 -0.9508 -0.8452
 2880SOL     OW10080   0.305   5.102   3.859 -0.6512  0.1443 -0.0681
 2880SOL    HW110081   0.292   5.108   3.954  0.6979  0.0315  0.1363
 2880SOL    HW210082   0.387   5.149   3.843  0.7433 -2.3777 -0.7869
 2881SOL     OW10083   0.385   4.822  12.087 -0.1456  0.3616  0.4665
 2881SOL    HW110084   0.331   4.755  12.045  0.9729  1.1624 -2.5028
 2881SOL    HW210085   0.333   4.901  12.084  0.9939  1.0988 -2.2603
 2882SOL     OW10086   0.373   4.894   1.806 -0.2809 -0.3362 -0.0881
 2882SOL    HW110087   0.383   4.866   1.897  0.2137 -1.4450 -0.4750
 2882SOL    HW210088   0.307   4.835   1.769 -2.0763  1.4209  0.0724
 2883SOL     OW10089   7.737   4.058   2.665 -0.6025 -0.4675 -0.2823
 2883SOL    HW110090   7.810   4.061   2.602  0.0038 -0.1563  0.4145
 2883SOL    HW210091   7.775   4.093   2.746 -1.4494 -0.6044  0.1772
 2884SOL     OW10092   0.648   6.117   0.067  0.4029 -0.3682 -0.5460
 2884SOL    HW110093   0.683   6.188   0.012 -0.5792 -0.7517 -1.7096
 2884SOL    HW210094   0.602   6.060   0.005  1.2564 -2.0873  0.3407
 2885SOL     OW10095   7.702   3.068   2.006 -0.2547 -0.0878 -0.0041
 2885SOL    HW110096   7.659   3.152   1.991 -2.0291 -1.0959 -0.8895
 2885SOL    HW210097   7.754   3.081   2.085 -0.0861  1.9679 -0.3952
 2886SOL     OW10098   1.091   4.241   0.894 -0.2943 -0.1709  0.0808
 2886SOL    HW110099   1.042   4.168   0.856  2.4279 -1.7409 -0.6681
 2886SOL    HW210100   1.095   4.307   0.824  1.7241 -1.5987 -1.2558
 2887SOL     OW10101   7.425   5.287   9.993  0.7400  0.1460 -0.6611
 2887SOL    HW110102   7.508   5.328  10.019 -0.3241  2.3077 -0.4805
 2887SOL    HW210103   7.414   5.213  10.053  2.7498 -0.5236 -1.0251
 2888SOL     OW10104   1.338   4.911   2.791 -0.0371  0.1570  0.5951
 2888SOL    HW110105   1.430   4.887   2.801 -0.3439 -0.6249  1.7476
 2888SOL    HW210106   1.338   5.007   2.793  0.5779  0.1744  2.7944
 2889SOL     OW10107   6.996   6.648  11.677 -0.1642  0.7582  0.2584
 2889SOL    HW110108   6.913   6.689  11.653 -0.4949  0.6647  1.1853
 2889SOL    HW210109   6.975   6.593  11.752  0.4610 -0.3850 -0.3718
 2890SOL     OW10110   0.908   4.949   0.379  0.7887 -0.0702 -0.4217
 2890SOL    HW110111   0.976   5.010   0.407  0.6703  0.0955 -0.4880
 2890SOL    HW210112   0.857   4.999   0.314  0.2568  0.0101  0.0475
 2891SOL     OW10113   0.417   6.792   1.309  0.5157  0.1080 -0.0836
 2891SOL    HW110114   0.322   6.796   1.320  0.5606  0.9449  0.0406
 2891SOL    HW210115   0.452   6.790   1.398  0.6506  1.0019 -0.1037
 2892SOL     OW10116   0.648   6.710  11.266 -0.3005  0.5992 -0.0029
 2892SOL    HW110117   0.557   6.737  11.280 -1.4014 -1.2134 -2.7789
 2892SOL    HW210118   0.693   6.788  11.234 -0.7377  1.5983  1.7009
 2893SOL     OW10119   1.050   3.396   1.251 -0.4650 -0.3476  0.4204
 2893SOL    HW110120   0.972   3.440   1.219 -1.1868 -1.5906  0.4178
 2893SOL    HW210121   1.095   3.367   1.171 -1.2480 -1.7118  0.4451
 2894SOL     OW10122   7.150   4.829   1.909 -0.4034  0.1395  0.0225
 2894SOL    HW110123   7.127   4.737   1.921  1.4472 -0.2475  0.9730
 2894SOL    HW210124   7.197   4.831   1.826 -2.1427  0.6138 -1.0014
 2895SOL     OW10125   1.256   5.672  12.293 -0.1179 -0.0603  0.2819
 2895SOL    HW110126   1.216   5.655  12.378  1.3592  0.1270  1.0537
 2895SOL    HW210127   1.285   5.587  12.261  1.3084  0.1007  1.0395
 2896SOL     OW10128   0.827   6.704  10.352 -0.0554 -0.4351  0.3228
 2896SOL    HW110129   0.754   6.642  10.341  0.8034 -1.5369  0.7200
 2896SOL    HW210130   0.788   6.778  10.399 -0.9464 -0.9742  0.4621
 2897SOL     OW10131   2.012   5.978   0.541 -0.2292 -0.0355 -0.8342
 2897SOL    HW110132   2.039   6.046   0.480 -0.1511  0.4574 -0.2614
 2897SOL    HW210133   2.039   6.010   0.627 -3.7292  1.1528 -0.0085
 2898SOL     OW10134   0.776   3.813  11.908  0.1934  0.1199 -0.3389
 2898SOL    HW110135   0.705   3.844  11.853 -1.4678  0.9126  2.0618
 2898SOL    HW210136   0.752   3.723  11.931 -0.5056  0.6360  1.0833
 2899SOL     OW10137   7.651   4.373   3.125 -0.3159  0.6539  0.4316
 2899SOL    HW110138   7.722   4.436   3.138 -1.0360  1.6032 -0.1074
 2899SOL    HW210139   7.628   4.345   3.213  2.1164 -1.3024  0.5600
 2900SOL     OW10140   7.991   3.954   1.574  0.1039 -0.4329  0.1475
 2900SOL    HW110141   7.992   4.042   1.537 -0.8781 -0.7323 -0.6360
 2900SOL    HW210142   7.959   3.966   1.663  1.1038  0.1290  0.4434
 2901SOL     OW10143   1.271   6.138   2.857  0.4242 -0.1122  0.3396
 2901SOL    HW110144   1.260   6.225   2.895  1.9923  0.6557 -0.8246
 2901SOL    HW210145   1.365   6.131   2.839 -0.0308 -0.8212 -2.3019
 2902SOL     OW10146   1.239   3.344   0.406  0.1602  0.1098  0.4708
 2902SOL    HW110147   1.159   3.308   0.369 -2.0516  2.2632  2.7191
 2902SOL    HW210148   1.257   3.422   0.354  1.5579 -0.9945 -0.7679
 2903SOL     OW10149   7.485   3.900   1.289  0.2193  0.0997  0.1578
 2903SOL    HW110150   7.492   3.993   1.306 -0.0496  0.4746 -1.5734
 2903SOL    HW210151   7.392   3.880   1.299  0.0945  0.2770 -0.5560
 2904SOL     OW10152   1.973   6.092  11.601  0.5931 -0.1057  0.1424
 2904SOL    HW110153   1.991   6.136  11.517 -0.5473 -1.5351 -0.9083
 2904SOL    HW210154   1.929   6.159  11.653  3.7673  1.7357  0.7666
 2905SOL     OW10155   2.303   5.115   2.590  0.0234 -0.0589 -0.1927
 2905SOL    HW110156   2.304   5.113   2.495  0.6209  0.4873 -0.2031
 2905SOL    HW210157   2.343   5.032   2.617  1.1771  0.4020 -0.4339
 2906SOL     OW10158   0.099   5.032   0.676 -0.5593  0.4412 -0.8373
 2906SOL    HW110159   0.024   5.006   0.623 -1.1860 -0.3382  0.4003
 2906SOL    HW210160   0.074   5.013   0.766  1.5003 -0.7852 -0.4511
 2907SOL     OW10161   1.929   5.049   0.017  0.7134 -0.2662  0.0378
 2907SOL    HW110162   1.893   5.033  -0.070  0.6303 -1.0702  0.2120
 2907SOL    HW210163   1.858   5.091   0.065  0.9613  0.7700 -0.4501
 2908SOL     OW10164   3.030   4.337   0.727  0.0459  0.1331  0.0377
 2908SOL    HW110165   3.097   4.304   0.787 -0.3883 -0.6869  0.0808
 2908SOL    HW210166   3.080   4.382   0.659  0.6063  0.0612  0.3891
 2909SOL     OW10167   1.543   3.466   0.375 -0.0105  0.2015 -0.0099
 2909SOL    HW110168   1.604   3.392   0.376  0.8230  0.8209 -1.3934
 2909SOL    HW210169   1.457   3.427   0.363  0.2497 -0.6160  0.7258
 2910SOL     OW10170   2.196   4.876   3.754  0.1522  0.0884 -0.1146
 2910SOL    HW110171   2.260   4.805   3.764  0.7833  0.8622  1.5272
 2910SOL    HW210172   2.113   4.837   3.780  0.3444 -0.2663 -0.0256
 2911SOL     OW10173   1.135   4.509   1.449  0.1587 -0.5744  0.4485
 2911SOL    HW110174   1.103   4.474   1.532 -2.7156  0.7956  0.0404
 2911SOL    HW210175   1.084   4.463   1.383 -0.9290  1.5428 -0.2694
 2912SOL     OW10176   1.119   5.238   0.255 -0.0568  0.0982  0.5807
 2912SOL    HW110177   1.024   5.223   0.257  0.2475 -2.5916 -0.7259
 2912SOL    HW210178   1.153   5.179   0.323  0.9053 -2.1324 -1.6849
 2913SOL     OW10179   3.607   5.346   2.326 -0.0953 -0.1681 -0.7731
 2913SOL    HW110180   3.587   5.361   2.418 -0.3943  0.3891 -0.9230
 2913SOL    HW210181   3.594   5.252   2.313 -1.0981 -0.0711 -0.5026
 2914SOL     OW10182   7.791   4.167   0.294 -0.0994  0.0930 -0.2962
 2914SOL    HW110183   7.829   4.081   0.276 -1.4018 -0.6214  0.2447
 2914SOL    HW210184   7.849   4.205   0.359 -0.0042 -0.7649  0.1384
 2915SOL     OW10185   7.918   5.191   1.589 -0.0948 -0.0750  0.8788
 2915SOL    HW110186   8.007   5.163   1.609  0.4975  0.3733 -0.9420
 2915SOL    HW210187   7.873   5.111   1.564  0.3811 -0.0302 -0.1501
 2916SOL     OW10188   1.268   5.143   1.191  0.2211 -0.2030  0.2669
 2916SOL    HW110189   1.215   5.154   1.112 -1.1781  0.1482  1.2218
 2916SOL    HW210190   1.233   5.207   1.253  1.5047 -0.2488  1.0812
 2917SOL     OW10191   1.421   6.665  11.162 -0.3563  0.1906  0.0399
 2917SOL    HW110192   1.465   6.688  11.245 -0.3241  1.1297 -0.2240
 2917SOL    HW210193   1.434   6.571  11.153  2.5472  0.5579 -0.5508
 2918SOL     OW10194   0.247   7.158   1.657 -0.1000 -0.5024 -0.2157
 2918SOL    HW110195   0.166   7.204   1.676  0.9537  1.3797 -0.0238
 2918SOL    HW210196   0.242   7.077   1.708 -0.9312  0.5743  1.4969
 2919SOL     OW10197   0.611   3.379  12.406  0.1294 -0.6063  0.3616
 2919SOL    HW110198   0.614   3.301  12.461 -0.2312 -0.8872 -0.0137
 2919SOL    HW210199   0.680   3.436  12.441  0.0048 -0.8451  1.0031
 2920SOL     OW10200   0.542   5.476   3.214 -0.0023  0.1480  0.2368
 2920SOL    HW110201   0.566   5.545   3.274  1.1916 -1.3119  1.5045
 2920SOL    HW210202   0.519   5.401   3.270  1.9399 -1.5255 -1.0326
 2921SOL     OW10203   1.779   4.861  11.234  0.4374 -0.6002 -0.6110
 2921SOL    HW110204   1.703   4.885  11.181 -1.0472 -0.9643  1.2419
 2921SOL    HW210205   1.791   4.934  11.294  2.3551 -0.0005 -1.6635
 2922SOL     OW10206   0.514   6.286   1.851  0.1206 -0.4077  0.4358
 2922SOL    HW110207   0.492   6.330   1.769 -0.7455 -1.5697  0.0262
 2922SOL    HW210208   0.431   6.279   1.898  0.6484  0.5008  1.5699
 2923SOL     OW10209   0.784   5.990   2.388 -0.1069 -0.5161 -0.0477
 2923SOL    HW110210   0.879   5.997   2.393 -0.1542  1.9821 -0.9556
 2923SOL    HW210211   0.759   5.936   2.463  1.9156 -0.0281  1.0393
 2924SOL     OW10212   0.233   4.808   1.466 -0.7235  0.3552  0.2853
 2924SOL    HW110213   0.303   4.757   1.426 -1.6294 -1.5838  1.0372
 2924SOL    HW210214   0.228   4.775   1.556 -2.9186  0.0536  0.1077
 2925SOL     OW10215   7.871   4.490   0.533 -0.0798  0.2782 -0.3093
 2925SOL    HW110216   7.853   4.549   0.606 -0.1353  0.2829 -0.3264
 2925SOL    HW210217   7.804   4.510   0.469  0.2563  0.6057 -0.5595
 2926SOL     OW10218   1.563   6.808   0.679  0.1659  0.2295 -0.0155
 2926SOL    HW110219   1.521   6.744   0.735  0.5602 -0.2241 -0.2309
 2926SOL    HW210220   1.649   6.823   0.719  0.3632  0.0696 -0.3736
 2927SOL     OW10221   0.360   5.886   1.203  0.1576 -0.1747  0.7626
 2927SOL    HW110222   0.342   5.908   1.112 -1.0598 -0.6849  0.8507
 2927SOL    HW210223   0.448   5.849   1.202  0.4412  0.4889 -0.0839
 2928SOL     OW10224   3.212   4.832   2.317  0.1654  0.1243 -0.7443
 2928SOL    HW110225   3.119   4.853   2.319  0.1547  0.0672 -0.6301
 2928SOL    HW210226   3.214   4.736   2.316  0.2310  0.1162 -0.2471
 2929SOL     OW10227   0.914   7.016   0.896  0.6934 -0.0069  0.3328
 2929SOL    HW110228   0.963   7.095   0.874  1.4763 -0.7979 -0.8819
 2929SOL    HW210229   0.981   6.951   0.917  0.0347 -0.1321  2.2000
 2930SOL     OW10230   0.459   4.209   0.265 -0.4095  0.4130  0.5408
 2930SOL    HW110231   0.401   4.215   0.189  1.9370  0.0124 -1.4142
 2930SOL    HW210232   0.423   4.137   0.317 -2.2771  0.9316  0.0343
 2931SOL     OW10233   0.565   3.969  12.401 -0.0420  0.0405 -0.1253
 2931SOL    HW110234   0.621   4.013  12.465 -0.0145 -0.6807  0.3584
 2931SOL    HW210235   0.611   3.979  12.318  0.1167  0.6431  0.0293
 2932SOL     OW10236   1.071   3.641   1.443  0.0252  0.4594  0.4291
 2932SOL    HW110237   1.096   3.569   1.385  1.7814  1.0329  0.3868
 2932SOL    HW210238   0.995   3.680   1.401  0.9699  0.5721 -1.2950
 2933SOL     OW10239   0.063   6.369  11.057  0.0483  0.0899 -0.0884
 2933SOL    HW110240  -0.005   6.395  11.120 -0.2916 -2.1654  0.5384
 2933SOL    HW210241   0.075   6.447  11.002  0.1148  2.0547  2.5162
 2934SOL     OW10242   2.932   4.063  12.080  0.3085 -0.3147  0.5824
 2934SOL    HW110243   2.934   4.073  12.175  1.2592  0.1779  0.5242
 2934SOL    HW210244   2.893   3.976  12.066 -0.6927 -0.0163  1.3736
 2935SOL     OW10245   0.271   6.300   2.492 -0.3721  0.2593 -0.1351
 2935SOL    HW110246   0.342   6.320   2.553  0.0452  0.2396 -0.6075
 2935SOL    HW210247   0.204   6.258   2.546  0.4953 -0.8529  0.1003
 2936SOL     OW10248   0.768   4.797   0.588 -0.3033 -0.0770 -0.3001
 2936SOL    HW110249   0.845   4.828   0.541 -0.5210 -1.5918 -1.7286
 2936SOL    HW210250   0.742   4.871   0.643  0.9335  1.1718 -1.3380
 2937SOL     OW10251   1.078   3.918   0.426  0.3450 -0.2024  0.3608
 2937SOL    HW110252   1.162   3.880   0.399  0.6527  0.1699  0.7809
 2937SOL    HW210253   1.020   3.905   0.351  0.5499 -1.1663  0.3609
 2938SOL     OW10254   1.379   4.821   2.256  0.0234  0.0409  0.3380
 2938SOL    HW110255   1.312   4.887   2.236 -1.4678 -1.7670 -1.0144
 2938SOL    HW210256   1.371   4.806   2.350 -2.0192 -0.5983  0.1114
 2939SOL     OW10257   1.010   4.531   1.733  0.7993  0.2038 -0.2896
 2939SOL    HW110258   0.937   4.594   1.726  0.5778  0.0591  0.5359
 2939SOL    HW210259   0.970   4.454   1.774  1.5154  0.2916  0.5858
 2940SOL     OW10260   2.052   4.400   1.146 -0.2138  0.5343  0.2473
 2940SOL    HW110261   2.004   4.329   1.103  1.1705 -0.0800 -0.3187
 2940SOL    HW210262   2.084   4.362   1.228  2.5886 -0.3404 -1.1314
 2941SOL     OW10263   0.946   5.386   0.609 -0.2078  0.4214  0.2188
 2941SOL    HW110264   1.009   5.410   0.540 -0.1080  1.2116  0.5738
 2941SOL    HW210265   0.861   5.399   0.568 -0.1497  0.4442  0.1024
 2942SOL     OW10266   1.814   5.285   0.843 -0.0418 -0.1969  0.0738
 2942SOL    HW110267   1.800   5.269   0.749 -0.8695 -1.8651  0.4427
 2942SOL    HW210268   1.726   5.299   0.878  0.3039  0.8298  0.5412
 2943SOL     OW10269   7.486   4.040  12.163  0.2633 -0.3476 -0.6245
 2943SOL    HW110270   7.505   3.966  12.220  0.7525  0.4317  0.2659
 2943SOL    HW210271   7.562   4.045  12.104  1.1510  0.5296  0.5248
 2944SOL     OW10272   3.023   2.942   1.246  0.2073  0.0636  0.1477
 2944SOL    HW110273   2.958   3.010   1.264 -0.1730 -0.3243  0.2588
 2944SOL    HW210274   3.107   2.986   1.258  0.0040  0.9839 -1.5031
 2945SOL     OW10275   1.354   3.149  11.501  0.5867  0.1711 -0.1981
 2945SOL    HW110276   1.286   3.097  11.542  0.5387 -0.4866 -1.0874
 2945SOL    HW210277   1.370   3.221  11.563  0.0873 -0.4436  0.6643
 2946SOL     OW10278   1.949   5.980  10.638 -0.5218 -0.1357 -0.1862
 2946SOL    HW110279   1.985   6.044  10.576 -0.6775 -0.0293 -0.1682
 2946SOL    HW210280   1.864   6.017  10.664 -0.4806 -0.2067  0.0482
 2947SOL     OW10281   0.318   3.380   2.143 -0.0059  0.1714 -0.2700
 2947SOL    HW110282   0.233   3.383   2.099 -0.5975  0.7829  0.8730
 2947SOL    HW210283   0.341   3.472   2.155 -0.1917  0.0335  1.2915
 2948SOL     OW10284   1.683   2.981  12.411  0.2254 -0.1080 -0.2207
 2948SOL    HW110285   1.694   2.889  12.432  1.1876  0.4877  2.1731
 2948SOL    HW210286   1.729   2.993  12.328  0.8303 -1.6080 -0.1245
 2949SOL     OW10287   0.935   4.035   1.415 -0.2196 -0.1354 -0.3126
 2949SOL    HW110288   0.979   4.013   1.497 -0.1518 -2.1149 -0.8536
 2949SOL    HW210289   0.879   4.109   1.438  2.5912  1.8840  0.6101
 2950SOL     OW10290   7.679   4.303   0.967  0.8437 -0.1952  0.1386
 2950SOL    HW110291   7.757   4.283   0.915  0.2222 -1.1786 -0.4443
 2950SOL    HW210292   7.672   4.399   0.965  2.0325 -0.1007  0.2064
 2951SOL     OW10293   6.661   6.328  12.324  1.5722  0.1900 -0.3623
 2951SOL    HW110294   6.676   6.417  12.293  1.3956 -0.1719 -1.5202
 2951SOL    HW210295   6.567   6.323  12.338  1.6237  0.2827  0.0345
 2952SOL     OW10296   1.522   4.616  12.282 -0.6873 -0.4379  0.0144
 2952SOL    HW110297   1.565   4.531  12.292 -0.4113 -0.3979 -0.7489
 2952SOL    HW210298   1.430   4.600  12.305 -0.6790 -0.9878 -0.3367
 2953SOL     OW10299   1.572   5.184  11.976 -0.5919  0.2364 -0.3840
 2953SOL    HW110300   1.523   5.266  11.968  0.6362  1.0191 -0.0247
 2953SOL    HW210301   1.607   5.185  12.064 -0.5826 -0.7076 -0.3664
 2954SOL     OW10302   7.314   4.326   1.601 -0.8766  0.4810  0.4248
 2954SOL    HW110303   7.279   4.412   1.579  1.0843  1.1867 -0.2449
 2954SOL    HW210304   7.386   4.344   1.662 -0.0282 -0.5919 -0.2088
 2955SOL     OW10305   2.372   6.622   1.001 -0.0555 -0.5102 -0.0835
 2955SOL    HW110306   2.366   6.717   1.008 -1.2388 -0.6025  0.3944
 2955SOL    HW210307   2.430   6.595   1.072 -1.7140 -0.3365  1.3891
 2956SOL     OW10308   2.472   4.265   0.487 -0.1804  0.4499 -0.4358
 2956SOL    HW110309   2.530   4.341   0.494  0.9646 -0.5350  1.8150
 2956SOL    HW210310   2.531   4.189   0.486 -1.3589 -0.5100 -0.1247
 2957SOL     OW10311   1.525   5.415   1.338 -0.5295  0.0688  0.0586
 2957SOL    HW110312   1.538   5.361   1.416  0.1565 -0.4880 -0.4248
 2957SOL    HW210313   1.596   5.390   1.279 -2.2238 -1.1039 -1.6252
 2958SOL     OW10314   0.661   5.558   0.696 -0.5482 -0.2789 -0.8615
 2958SOL    HW110315   0.590   5.509   0.655 -1.7647 -1.3049  2.1845
 2958SOL    HW210316   0.733   5.495   0.704 -0.8278 -0.5252 -0.1937
 2959SOL     OW10317   1.944   3.965   0.948 -0.8890 -0.0960  0.1298
 2959SOL    HW110318   1.932   4.014   1.029 -2.1800  0.0876 -0.1397
 2959SOL    HW210319   1.992   4.025   0.890 -2.0657  0.7163 -0.0439
 2960SOL     OW10320   1.883   5.858   0.242  0.1314  0.3073  0.1993
 2960SOL    HW110321   1.965   5.851   0.192  0.7814 -1.0248  1.4099
 2960SOL    HW210322   1.887   5.945   0.283  1.2775 -0.0255  0.8146
 2961SOL     OW10323   1.531   4.536   0.750 -0.2031 -0.0243 -0.3216
 2961SOL    HW110324   1.449   4.487   0.746 -0.6058  0.6000  0.1330
 2961SOL    HW210325   1.596   4.477   0.712 -1.0626 -0.0956 -1.7520
 2962SOL     OW10326   2.480   5.785  10.837 -0.1356 -0.4583 -0.0653
 2962SOL    HW110327   2.525   5.869  10.830 -0.6399 -0.1510  0.2800
 2962SOL    HW210328   2.459   5.761  10.746 -0.3592  0.0006 -0.1410
 2963SOL     OW10329   2.465   3.808  12.472  0.0829  0.7070 -0.8804
 2963SOL    HW110330   2.516   3.728  12.464 -0.4858  0.0687  1.2292
 2963SOL    HW210331   2.459   3.824  12.566  0.5549  3.5139 -1.2268
 2964SOL     OW10332   1.838   4.562   2.236  0.0034 -0.6696 -0.7205
 2964SOL    HW110333   1.831   4.502   2.161  1.9755 -0.0465 -1.4689
 2964SOL    HW210334   1.786   4.520   2.305  0.7881 -2.9185 -1.4140
 2965SOL     OW10335   3.282   6.358  12.024  0.2075 -0.0799 -0.0421
 2965SOL    HW110336   3.332   6.308  12.088  1.0541 -1.1626 -1.4899
 2965SOL    HW210337   3.312   6.326  11.939 -1.6663  0.5177 -0.9909
 2966SOL     OW10338   2.980   5.684   2.628 -0.1292  0.1998  0.1698
 2966SOL    HW110339   2.955   5.776   2.631  1.5872  0.6704  0.9752
 2966SOL    HW210340   2.921   5.642   2.691  0.4104  1.1055  1.3110
 2967SOL     OW10341   1.791   5.053  12.280 -0.2572 -0.1113  0.0842
 2967SOL    HW110342   1.721   4.988  12.289  0.4129 -0.9248 -0.4206
 2967SOL    HW210343   1.748   5.130  12.242 -1.2779  0.1495  1.6619
 2968SOL     OW10344   3.173   5.161   2.300  0.1966  0.0242  0.3016
 2968SOL    HW110345   3.260   5.121   2.294  0.0743 -0.2710  0.5120
 2968SOL    HW210346   3.141   5.137   2.387  0.0203  0.3710  0.3341
 2969SOL     OW10347   1.133   4.781   2.033 -0.2888 -0.5356 -0.1683
 2969SOL    HW110348   1.164   4.866   2.062 -0.4774 -0.6930  0.5149
 2969SOL    HW210349   1.182   4.718   2.087 -0.3797 -0.8451 -0.4443
 2970SOL     OW10350   2.859   5.253   1.398 -0.3836  0.1786 -0.3760
 2970SOL    HW110351   2.770   5.275   1.426 -1.0488 -0.3602 -1.9207
 2970SOL    HW210352   2.894   5.198   1.467 -2.1478 -1.6012 -0.8115
 2971SOL     OW10353   7.279   3.687   2.090  0.2168  0.0106 -0.6670
 2971SOL    HW110354   7.224   3.714   2.016 -1.1367 -0.5273  0.1053
 2971SOL    HW210355   7.218   3.652   2.154  1.4621 -0.4767  0.3084
 2972SOL     OW10356   1.283   5.938   1.634  0.1617 -0.4418  0.5694
 2972SOL    HW110357   1.295   6.032   1.617  1.5135 -0.7844 -0.6476
 2972SOL    HW210358   1.275   5.932   1.729  0.5290  0.8733  0.7144
 2973SOL     OW10359   1.538   4.235   0.527  0.3497  0.0356 -0.4032
 2973SOL    HW110360   1.599   4.299   0.489 -0.1420 -0.0847 -1.4245
 2973SOL    HW210361   1.558   4.235   0.620  2.6349 -0.7679 -0.8363
 2974SOL     OW10362   7.976   5.765  12.401  0.1194 -0.4248 -0.3594
 2974SOL    HW110363   7.908   5.814  12.354  0.0152 -0.5689 -0.3615
 2974SOL    HW210364   7.952   5.773  12.493  0.3231 -0.1444 -0.3316
 2975SOL     OW10365   0.514   5.059   1.607 -0.7095 -0.3422 -0.1583
 2975SOL    HW110366   0.573   5.106   1.666  2.0773 -1.0305 -2.1914
 2975SOL    HW210367   0.461   5.004   1.665 -2.7316  3.5875  2.1462
 2976SOL     OW10368   0.493   5.156   0.518  0.4886  0.1285 -0.0139
 2976SOL    HW110369   0.546   5.101   0.460  1.2495  0.3365  0.4711
 2976SOL    HW210370   0.405   5.120   0.510  0.5495  0.2023 -1.3601
 2977SOL     OW10371   0.287   2.923  11.199  0.5450  0.0620 -0.0483
 2977SOL    HW110372   0.217   2.983  11.171  0.7295 -0.7008 -2.3120
 2977SOL    HW210373   0.357   2.980  11.228  0.5236  0.9778 -1.6803
 2978SOL     OW10374   6.975   5.003  11.850  0.5216 -0.7408 -0.0002
 2978SOL    HW110375   6.888   5.044  11.854  0.1442 -1.4956 -0.2744
 2978SOL    HW210376   7.035   5.072  11.877 -0.0398  0.2131 -1.0833
 2979SOL     OW10377   0.665   5.938   0.461  0.2810  0.6832 -0.0625
 2979SOL    HW110378   0.703   5.988   0.389  1.6754  1.9724  1.4807
 2979SOL    HW210379   0.726   5.865   0.475  1.0906  1.5401  1.0324
 2980SOL     OW10380   0.251   5.348   2.193  0.1987 -0.2909  0.0149
 2980SOL    HW110381   0.194   5.281   2.155  1.0310 -1.6755  1.1137
 2980SOL    HW210382   0.297   5.304   2.264  0.8784  1.4270  0.7161
 2981SOL     OW10383   7.573   4.182   1.175  0.1480  0.3738 -0.0649
 2981SOL    HW110384   7.624   4.232   1.112  0.3293 -0.9522 -1.0212
 2981SOL    HW210385   7.481   4.199   1.152  0.2139 -0.4637 -1.0238
 2982SOL     OW10386   0.589   5.698   2.852 -0.1284 -0.4477 -0.0043
 2982SOL    HW110387   0.673   5.708   2.898 -0.7754 -0.4057  1.2072
 2982SOL    HW210388   0.548   5.784   2.858 -0.3665 -0.5307 -0.3953
 2983SOL     OW10389   1.498   3.789   1.952 -0.3007 -0.0686  0.2755
 2983SOL    HW110390   1.569   3.741   1.909  0.1539  2.3424 -1.9571
 2983SOL    HW210391   1.520   3.787   2.045  0.7964 -2.2969  0.0243
 2984SOL     OW10392   7.190   4.030   0.812  0.6594  0.1831 -0.1506
 2984SOL    HW110393   7.154   3.943   0.798  1.1350 -0.2609  1.2074
 2984SOL    HW210394   7.266   4.015   0.868  0.9760  1.4348 -0.2230
 2985SOL     OW10395   1.041   5.507   0.352  0.5329  0.4186  0.0093
 2985SOL    HW110396   1.098   5.435   0.326  1.8884  1.6309 -0.4958
 2985SOL    HW210397   1.077   5.584   0.309 -0.3748  1.5700  1.1922
 2986SOL     OW10398   2.082   4.078   0.205  0.0283  0.1222 -0.0982
 2986SOL    HW110399   2.150   4.113   0.263  2.2221  0.0968 -2.4737
 2986SOL    HW210400   2.081   3.984   0.224  0.7193  0.1147 -0.0545
 2987SOL     OW10401   1.908   3.234   2.183 -0.3046  0.1924 -0.2493
 2987SOL    HW110402   1.844   3.302   2.200 -1.5972 -1.2045  0.7684
 2987SOL    HW210403   1.910   3.225   2.088 -0.2283  1.5141 -0.3787
 2988SOL     OW10404   0.830   3.461   1.108  0.2922 -0.3051  0.5845
 2988SOL    HW110405   0.750   3.496   1.148  1.4630  0.4575  2.4100
 2988SOL    HW210406   0.870   3.536   1.065 -0.1909 -0.7999 -0.7900
 2989SOL     OW10407   2.076   4.561   1.559 -0.3614 -0.3789  0.1841
 2989SOL    HW110408   2.075   4.643   1.609 -0.1999  0.1999 -0.7430
 2989SOL    HW210409   2.054   4.587   1.470  0.3712 -1.2424 -0.2677
 2990SOL     OW10410   1.424   5.402   2.152 -0.2751  0.7840  0.2910
 2990SOL    HW110411   1.490   5.350   2.197 -1.9850  0.2048  2.3185
 2990SOL    HW210412   1.405   5.474   2.212 -0.9378  1.3401 -0.5670
 2991SOL     OW10413   0.589   4.179   1.133 -0.3835  0.2407 -0.3534
 2991SOL    HW110414   0.547   4.131   1.205  0.3343  0.4698  0.2227
 2991SOL    HW210415   0.644   4.114   1.090  1.3201  0.7171  0.9989
 2992SOL     OW10416   0.965   4.498   0.365  0.3609  0.0908 -0.5678
 2992SOL    HW110417   0.924   4.430   0.417  1.2435  0.0074  0.0432
 2992SOL    HW210418   1.020   4.451   0.302  0.7347  0.2279 -0.3466
 2993SOL     OW10419   1.264   4.766   1.421  0.6060  0.8644  0.0611
 2993SOL    HW110420   1.212   4.846   1.432 -1.3061 -0.4784  1.4963
 2993SOL    HW210421   1.203   4.696   1.440  1.8053 -1.0813 -2.5934
 2994SOL     OW10422   0.139   4.209  12.319  0.2716 -0.2471 -0.4924
 2994SOL    HW110423   0.210   4.252  12.273  1.1560  0.7813  1.6957
 2994SOL    HW210424   0.091   4.281  12.361 -1.2299 -1.0386 -0.7831
 2995SOL     OW10425   2.092   4.243   1.962  0.5882  1.0443 -0.1244
 2995SOL    HW110426   2.139   4.266   1.882 -0.9240  1.8971 -0.8065
 2995SOL    HW210427   2.007   4.212   1.931  0.2946  0.5531  1.1282
 2996SOL     OW10428   0.152   4.377   1.554  0.0156 -0.2839  0.0325
 2996SOL    HW110429   0.219   4.320   1.591  0.4700 -0.8070 -1.5034
 2996SOL    HW210430   0.076   4.364   1.610  1.1542  0.2859  1.7954
 2997SOL     OW10431   4.099   2.849   0.589  0.5930  0.5182  0.2269
 2997SOL    HW110432   4.064   2.760   0.597 -0.6654  0.8130 -1.5229
 2997SOL    HW210433   4.024   2.906   0.607  1.7441  1.3285  2.9923
 2998SOL     OW10434   1.028   5.730  11.861 -0.1913  0.0235 -0.6557
 2998SOL    HW110435   0.972   5.808  11.856 -0.1559  0.0044 -1.4037
 2998SOL    HW210436   1.020   5.701  11.952  0.1537  1.1655 -0.2330
 2999SOL     OW10437   1.746   4.393   2.025 -0.2885 -0.3702 -0.3371
 2999SOL    HW110438   1.679   4.348   2.076 -0.4660  0.4202  0.1398
 2999SOL    HW210439   1.730   4.366   1.935  0.3587 -2.2152  0.0486
 3000SOL     OW10440   7.273   3.916  11.728  0.0009 -0.3454  0.0313
 3000SOL    HW110441   7.261   3.821  11.722 -0.4214 -0.3434  0.8036
 3000SOL    HW210442   7.222   3.951  11.655  1.8070 -0.8076 -1.5479
 3001SOL     OW10443   1.260   3.266  12.366 -0.1526  0.2645 -0.3447
 3001SOL    HW110444   1.258   3.191  12.425  0.8967  1.2001  0.9371
 3001SOL    HW210445   1.168   3.292  12.358 -0.3282  0.1137  0.9147
 3002SOL     OW10446   0.016   4.496   0.906  0.3007  0.1999 -0.2071
 3002SOL    HW110447   0.092   4.554   0.907  0.5058 -0.0686  0.8868
 3002SOL    HW210448  -0.055   4.552   0.874  0.7647  0.6956 -0.4049
 3003SOL     OW10449   2.254   3.064  12.228  0.0266  0.2594 -1.0340
 3003SOL    HW110450   2.326   3.006  12.202  0.7121  1.2808 -1.4438
 3003SOL    HW210451   2.217   3.095  12.146 -1.6401 -1.1206 -0.8651
 3004SOL     OW10452   6.496   4.038   9.314  0.4308  0.0059  0.0791
 3004SOL    HW110453   6.555   3.975   9.272 -1.4218 -1.5356 -0.3059
 3004SOL    HW210454   6.468   3.994   9.394 -1.4285 -0.0171 -0.5382
 3005SOL     OW10455   7.077   5.209   0.089  0.3606 -0.1982  0.6246
 3005SOL    HW110456   7.055   5.262   0.012 -0.3551 -3.8410 -1.9461
 3005SOL    HW210457   7.170   5.226   0.104  0.3495  1.1471 -0.5662
 3006SOL     OW10458   0.885   6.344   1.077  0.3576 -0.1252 -0.3948
 3006SOL    HW110459   0.813   6.407   1.068  0.3661  0.0132  0.4643
 3006SOL    HW210460   0.954   6.378   1.021  0.6244  1.0222  0.5929
 3007SOL     OW10461   3.162   3.532   2.565  0.0820 -0.4907 -0.4119
 3007SOL    HW110462   3.134   3.472   2.496  2.1684  0.6034 -2.3589
 3007SOL    HW210463   3.225   3.482   2.616  0.5292 -0.5151 -0.9729
 3008SOL     OW10464   0.921   3.470   1.882  0.0888  0.2460  0.3266
 3008SOL    HW110465   0.838   3.487   1.837  0.0310 -0.4915  0.1491
 3008SOL    HW210466   0.984   3.529   1.840 -0.3678  0.8984  0.5477
 3009SOL     OW10467   6.987   4.028   0.511 -0.0630 -0.3988  0.0593
 3009SOL    HW110468   6.924   3.962   0.540 -0.3507 -0.3417 -0.4328
 3009SOL    HW210469   6.964   4.045   0.420 -0.2546  0.6832  0.3002
 3010SOL     OW10470   3.257   4.547   2.406  0.9782  0.1979  0.2371
 3010SOL    HW110471   3.181   4.489   2.412 -1.0477  2.6792  0.0821
 3010SOL    HW210472   3.283   4.561   2.498  1.0109 -0.3284  0.3129
 3011SOL     OW10473   1.421   3.076   0.443 -0.2587  0.0990  0.1930
 3011SOL    HW110474   1.411   3.168   0.421  0.5745  0.3543  0.8452
 3011SOL    HW210475   1.467   3.037   0.369 -1.6053 -0.0475 -0.5947
 3012SOL     OW10476   0.699   6.001   1.538  0.1898 -0.1169  0.4776
 3012SOL    HW110477   0.697   6.073   1.475 -0.7468 -1.5987 -1.2920
 3012SOL    HW210478   0.790   5.996   1.567  0.9406 -0.1519 -1.7359
 3013SOL     OW10479   0.675   6.128   1.166 -0.6280  0.2679 -0.2508
 3013SOL    HW110480   0.694   6.162   1.079 -1.0775  2.2340  0.3803
 3013SOL    HW210481   0.719   6.188   1.226  0.0717 -1.3202  0.8915
 3014SOL     OW10482   2.470   5.956   0.327 -0.0999 -0.0667 -0.5037
 3014SOL    HW110483   2.429   5.916   0.251  1.6659 -2.4230 -0.3383
 3014SOL    HW210484   2.428   5.913   0.402  1.1702 -0.9636 -0.2882
 3015SOL     OW10485   1.467   5.686   0.953 -0.1337 -0.8770 -0.4312
 3015SOL    HW110486   1.443   5.597   0.927 -0.7875 -1.1087  0.8970
 3015SOL    HW210487   1.414   5.704   1.031  2.5988 -0.7172  1.5387
 3016SOL     OW10488   7.642   3.529   0.389 -0.3299 -0.3754  0.0647
 3016SOL    HW110489   7.551   3.547   0.364  0.1665  2.4374  0.0271
 3016SOL    HW210490   7.635   3.488   0.475 -1.6456 -0.4194 -0.0400
 3017SOL     OW10491   7.688   4.385  12.272  0.1100  0.2101  0.2223
 3017SOL    HW110492   7.725   4.405  12.186 -1.2084 -0.8068 -0.6108
 3017SOL    HW210493   7.762   4.353  12.323  0.7950  0.2490 -0.7200
 3018SOL     OW10494   2.230   2.921   2.259 -0.3511 -0.3361 -0.3172
 3018SOL    HW110495   2.220   3.013   2.284  1.2507  0.3656 -2.0225
 3018SOL    HW210496   2.302   2.890   2.315  0.0079 -0.1592 -0.6790
 3019SOL     OW10497   2.228   5.400   0.456  0.4154 -1.0758  0.5679
 3019SOL    HW110498   2.206   5.471   0.516  2.2040 -1.2388  1.4818
 3019SOL    HW210499   2.143   5.368   0.425 -0.4476  1.2083  0.3850
 3020SOL     OW10500   1.920   5.321  12.131  0.3175  0.6457  0.2275
 3020SOL    HW110501   1.872   5.400  12.155  2.5180  2.1464 -0.0517
 3020SOL    HW210502   1.967   5.295  12.211 -1.9370 -1.6733  0.9382
 3021SOL     OW10503   0.187   5.389   0.305  0.3871  0.0918 -0.0241
 3021SOL    HW110504   0.147   5.475   0.318  1.6187  0.7016 -0.1345
 3021SOL    HW210505   0.123   5.328   0.339 -1.5560  0.8619 -1.9981
 3022SOL     OW10506   0.493   5.738   0.334  0.2541  0.7167 -0.3610
 3022SOL    HW110507   0.551   5.805   0.370 -1.6228  2.0188  0.3828
 3022SOL    HW210508   0.436   5.785   0.274  0.1380 -0.5852 -1.3185
 3023SOL     OW10509   1.633   5.149   1.840  0.0394 -0.4185  0.0664
 3023SOL    HW110510   1.581   5.147   1.920  0.6973  1.3627  0.5790
 3023SOL    HW210511   1.718   5.185   1.867 -0.1664  1.4914 -1.6360
 3024SOL     OW10512   1.896   2.679  11.565  0.3425  0.0199 -0.0665
 3024SOL    HW110513   1.904   2.598  11.513 -0.9107 -1.5138  1.9712
 3024SOL    HW210514   1.835   2.733  11.516  0.5710 -0.6082 -1.0813
 3025SOL     OW10515   1.838   4.209   0.288 -0.1915  0.4932 -0.4683
 3025SOL    HW110516   1.921   4.178   0.250 -0.7866  0.1053 -1.4999
 3025SOL    HW210517   1.775   4.140   0.268 -0.7486  0.7353  0.4019
 3026SOL     OW10518   2.355   6.205   0.913 -0.3551 -0.6472 -0.0891
 3026SOL    HW110519   2.386   6.285   0.870  0.9512 -1.7989 -1.4149
 3026SOL    HW210520   2.370   6.136   0.849 -1.1276 -2.0289  1.1502
 3027SOL     OW10521   1.308   5.258   0.625 -0.1715 -0.7330 -0.3145
 3027SOL    HW110522   1.234   5.212   0.585  0.8437 -1.7427 -1.1011
 3027SOL    HW210523   1.283   5.267   0.718 -0.9656 -1.7061 -0.4160
 3028SOL     OW10524   0.787   5.467   1.091  0.2410 -0.0154 -0.2450
 3028SOL    HW110525   0.827   5.480   1.005  0.3224 -0.3422 -0.2615
 3028SOL    HW210526   0.765   5.374   1.093 -0.2762  0.1066 -0.1294
 3029SOL     OW10527   0.664   5.238   2.060 -0.2338  0.0241  0.6097
 3029SOL    HW110528   0.744   5.272   2.099 -0.1942 -1.8327  2.2778
 3029SOL    HW210529   0.607   5.218   2.134 -0.5887 -2.6201 -0.2844
 3030SOL     OW10530   1.648   5.723  11.990  0.1492 -0.3357 -0.0114
 3030SOL    HW110531   1.742   5.710  12.003 -0.0618 -1.7553  0.2475
 3030SOL    HW210532   1.639   5.746  11.898  0.8580  1.0803  0.2524
 3031SOL     OW10533   0.951   3.862   2.087  0.2166  0.9397  0.6775
 3031SOL    HW110534   0.883   3.794   2.085  0.9123  0.2429 -0.0656
 3031SOL    HW210535   0.990   3.855   2.174  1.0454 -0.4145  0.2359
 3032SOL     OW10536   1.295   4.237   1.277  0.0592  0.0705 -0.2010
 3032SOL    HW110537   1.262   4.229   1.367  1.3942 -0.6834  0.2535
 3032SOL    HW210538   1.377   4.187   1.277  0.3181  0.4439 -1.7251
 3033SOL     OW10539   7.314   2.748   2.092 -0.5921  0.2080  0.0169
 3033SOL    HW110540   7.315   2.652   2.097 -0.2181  0.1925 -0.2871
 3033SOL    HW210541   7.404   2.772   2.070 -0.6453  0.6410  0.2698
 3034SOL     OW10542   0.939   4.799  12.248  0.2629  0.4488 -0.1007
 3034SOL    HW110543   0.913   4.770  12.336  0.4912 -0.9016 -0.4574
 3034SOL    HW210544   1.007   4.864  12.264  0.3508  0.1723  0.7261
 3035SOL     OW10545   7.287   5.649   0.371 -0.5511 -0.1857  0.0504
 3035SOL    HW110546   7.285   5.616   0.281  0.4422 -0.5328  0.1489
 3035SOL    HW210547   7.247   5.736   0.365 -0.1471 -0.0451 -0.7972
 3036SOL     OW10548   0.058   3.182  11.542  0.1696 -0.0633  0.2555
 3036SOL    HW110549  -0.010   3.206  11.605 -2.0513  0.9211 -2.3426
 3036SOL    HW210550   0.119   3.256  11.543  1.4823 -1.0463  2.7565
 3037SOL     OW10551   2.437   4.297   0.903 -0.3613 -0.2885 -0.1047
 3037SOL    HW110552   2.394   4.254   0.829 -1.0617 -0.2442  0.2662
 3037SOL    HW210553   2.376   4.365   0.930 -0.7840 -1.2099  1.3973
 3038SOL     OW10554   0.694   6.820   0.754 -0.2614  0.3215 -0.4096
 3038SOL    HW110555   0.779   6.809   0.795 -0.0486 -0.0933 -0.9489
 3038SOL    HW210556   0.666   6.731   0.733 -0.6602  0.4831 -0.5748
 3039SOL     OW10557   1.716   4.727   0.595 -0.4649  0.7165  0.6178
 3039SOL    HW110558   1.698   4.646   0.548  2.4960  0.4130 -0.1602
 3039SOL    HW210559   1.706   4.704   0.687  1.6816 -0.9853  0.4940
 3040SOL     OW10560   1.598   6.519   0.874 -0.1281  0.2653  0.0835
 3040SOL    HW110561   1.603   6.480   0.961 -1.5715 -3.4380 -1.2992
 3040SOL    HW210562   1.513   6.563   0.872  0.3679  1.2945  0.8226
 3041SOL     OW10563   2.781   5.101   0.344  0.1276 -0.3384 -0.4743
 3041SOL    HW110564   2.727   5.160   0.292  0.0699  0.7617  0.7601
 3041SOL    HW210565   2.854   5.078   0.287  2.2884  4.0637  0.1002
 3042SOL     OW10566   0.697   5.358   1.392  0.1526 -0.0444 -0.1637
 3042SOL    HW110567   0.738   5.433   1.348  0.5864 -0.7062 -0.9051
 3042SOL    HW210568   0.763   5.289   1.389 -0.8865 -1.0486 -1.1271
 3043SOL     OW10569   7.339   5.493   3.756  0.1388 -0.8336  0.0688
 3043SOL    HW110570   7.244   5.493   3.747  0.1470  1.8845 -0.9816
 3043SOL    HW210571   7.372   5.482   3.667  0.7298  0.6024  0.0892
 3044SOL     OW10572   7.902   6.978   1.866  0.1485  0.1896  0.1259
 3044SOL    HW110573   7.931   6.973   1.957  1.2209  1.6035 -0.0859
 3044SOL    HW210574   7.864   7.066   1.858 -0.4496 -0.1268 -0.6525
 3045SOL     OW10575   7.429   5.602   1.910  0.0544  0.2099  0.5168
 3045SOL    HW110576   7.479   5.611   1.992 -0.5100  0.2086  0.8638
 3045SOL    HW210577   7.493   5.566   1.848 -0.0993 -2.1608  1.6020
 3046SOL     OW10578   0.266   5.182   0.989  0.4207 -0.5502 -0.3931
 3046SOL    HW110579   0.258   5.210   1.080 -2.6259 -1.6095 -0.2058
 3046SOL    HW210580   0.248   5.088   0.992  1.4973 -0.8357 -1.9689
 3047SOL     OW10581   6.833   5.450  11.808  0.2331  0.8042  0.4514
 3047SOL    HW110582   6.896   5.499  11.862  0.1642  0.8267  0.5117
 3047SOL    HW210583   6.748   5.485  11.834  0.0670 -0.3261  1.5239
 3048SOL     OW10584   1.660   4.081   3.404 -0.5787 -0.0801  0.4265
 3048SOL    HW110585   1.744   4.111   3.368 -0.8925 -0.8064 -0.9984
 3048SOL    HW210586   1.609   4.056   3.327 -1.1865 -2.0226  1.4047
 3049SOL     OW10587   6.819   3.732   1.929 -0.3532  0.1264  0.4806
 3049SOL    HW110588   6.769   3.751   1.849  0.8027 -1.4304 -0.6881
 3049SOL    HW210589   6.886   3.800   1.932 -0.4956  0.2826  0.2014
 3050SOL     OW10590   0.405   3.913  12.030 -0.1021 -0.0680 -0.3411
 3050SOL    HW110591   0.453   3.882  11.953  0.2920  0.4844 -0.3294
 3050SOL    HW210592   0.448   3.995  12.053 -1.2266  0.5736 -0.4789
 3051SOL     OW10593   7.875   3.301   1.120  0.2552 -0.3199 -0.5111
 3051SOL    HW110594   7.849   3.233   1.182 -0.3258 -0.7402 -1.2029
 3051SOL    HW210595   7.967   3.317   1.140  0.0457 -0.3533  0.5416
 3052SOL     OW10596   1.836   5.977   0.917 -0.2281  0.1447  0.3786
 3052SOL    HW110597   1.743   5.963   0.900 -0.3016 -1.1538  1.6970
 3052SOL    HW210598   1.864   6.037   0.847 -1.3703 -1.6879 -1.8175
 3053SOL     OW10599   7.881   5.333   2.595  0.3889 -0.1797 -0.7603
 3053SOL    HW110600   7.840   5.247   2.597 -0.5563  0.2230  1.8164
 3053SOL    HW210601   7.826   5.385   2.537 -0.3142 -0.7505 -0.6149
 3054SOL     OW10602   1.747   4.827   2.253  0.0307  0.4828  0.0573
 3054SOL    HW110603   1.652   4.835   2.245 -0.4676 -0.8826  2.9824
 3054SOL    HW210604   1.767   4.739   2.222  0.4070  0.8624 -0.8064
 3055SOL     OW10605   1.296   4.378   1.730  0.4445  0.1284 -0.0223
 3055SOL    HW110606   1.231   4.364   1.799  0.6030  0.1294  0.1279
 3055SOL    HW210607   1.373   4.411   1.776  1.0853 -1.3250 -0.0032
 3056SOL     OW10608   1.132   4.572   3.462 -0.0716  0.4008 -0.1763
 3056SOL    HW110609   1.173   4.538   3.382  0.9183 -0.0115  0.4827
 3056SOL    HW210610   1.111   4.663   3.442 -0.5595  0.0845 -1.1681
 3057SOL     OW10611   2.003   4.781   0.086 -0.4387 -0.4237  0.2480
 3057SOL    HW110612   1.936   4.740   0.032 -1.4860  0.8202  0.5396
 3057SOL    HW210613   1.972   4.871   0.098  0.9364 -0.0156  0.9901
 3058SOL     OW10614   1.641   4.431   0.987  0.1834  0.3610 -0.4701
 3058SOL    HW110615   1.715   4.474   0.943  0.5258  0.7056  0.4149
 3058SOL    HW210616   1.617   4.359   0.929  1.9285 -0.4251 -0.2718
 3059SOL     OW10617   3.384   2.939   2.652  0.4082  0.0334 -0.1513
 3059SOL    HW110618   3.354   3.022   2.616 -3.3715 -0.3399  1.6072
 3059SOL    HW210619   3.434   2.898   2.582 -1.4409  1.8874 -2.7181
 3060SOL     OW10620   1.019   4.411   0.666  0.4061  0.0128  0.0366
 3060SOL    HW110621   1.069   4.486   0.633 -0.3832  0.5354  0.0006
 3060SOL    HW210622   1.040   4.339   0.606  0.2751  0.5127 -0.6215
 3061SOL     OW10623   0.274   3.524   0.067  0.0041 -0.3495  0.4198
 3061SOL    HW110624   0.341   3.571   0.017 -0.3819 -0.5697 -0.3202
 3061SOL    HW210625   0.192   3.545   0.022 -0.1144 -2.1906 -0.2912
 3062SOL     OW10626   0.579   5.040   0.743 -0.3500 -0.2012 -0.0229
 3062SOL    HW110627   0.554   5.077   0.658  0.0822  1.7663  0.6529
 3062SOL    HW210628   0.509   4.978   0.764 -0.1039 -1.2375 -2.1122
 3063SOL     OW10629   0.122   3.587   0.276 -0.1156  0.1470  0.0476
 3063SOL    HW110630   0.053   3.532   0.237  0.6082 -1.7323  1.2803
 3063SOL    HW210631   0.199   3.571   0.222 -0.0297  0.3672  0.1038
 3064SOL     OW10632   2.459   6.476   0.258  1.1074  0.0398 -0.3307
 3064SOL    HW110633   2.495   6.387   0.265 -1.3997 -1.0099  0.8507
 3064SOL    HW210634   2.474   6.515   0.344  0.4368 -0.0345 -0.1693
 3065SOL     OW10635   1.012   3.825   0.666  0.0936  0.0876 -0.6930
 3065SOL    HW110636   0.976   3.903   0.709 -0.4279  1.0664 -2.7885
 3065SOL    HW210637   1.032   3.854   0.577  4.5270 -0.8802 -0.2084
 3066SOL     OW10638   0.314   5.982   1.895 -0.2086 -0.1253  0.1685
 3066SOL    HW110639   0.312   6.060   1.950 -1.6440  0.1294 -0.2153
 3066SOL    HW210640   0.392   5.992   1.841 -1.3036  1.9657 -1.1475
 3067SOL     OW10641   1.739   3.236   0.015 -0.3001 -0.1684 -0.1165
 3067SOL    HW110642   1.803   3.262  -0.052 -0.9047 -1.6432 -1.3155
 3067SOL    HW210643   1.699   3.156  -0.019 -3.1238  0.9320  0.3927
 3068SOL     OW10644   1.313   3.933   3.877  0.2425 -0.3755 -0.6562
 3068SOL    HW110645   1.335   4.010   3.929 -2.2451  1.2197 -1.7791
 3068SOL    HW210646   1.289   3.866   3.942  1.3716  0.1276  0.3127
 3069SOL     OW10647   2.641   4.167   1.088  0.2631 -0.3299  0.1130
 3069SOL    HW110648   2.567   4.206   1.041 -0.8103  0.3159  2.2059
 3069SOL    HW210649   2.603   4.092   1.134  0.2821  1.2168  2.9147
 3070SOL     OW10650   2.282   4.692   1.024  0.5268 -0.0924 -0.0750
 3070SOL    HW110651   2.281   4.607   1.069  0.2763 -0.7296 -1.2443
 3070SOL    HW210652   2.306   4.671   0.934 -0.1442  1.0167 -0.5276
 3071SOL     OW10653   1.513   4.608   2.729 -0.1898  0.7309  0.3281
 3071SOL    HW110654   1.565   4.659   2.667 -0.5638  1.4023  0.5472
 3071SOL    HW210655   1.422   4.627   2.704 -0.3387  0.7871  0.8949
 3072SOL     OW10656   0.936   4.635   2.142 -0.2875  0.2596  0.1956
 3072SOL    HW110657   1.003   4.676   2.089  0.3071 -0.1576  0.6088
 3072SOL    HW210658   0.958   4.659   2.232  0.2371 -1.1586  0.4710
 3073SOL     OW10659   2.707   4.785   0.233 -0.4678  0.8925 -0.1905
 3073SOL    HW110660   2.757   4.709   0.203  0.1036  1.2361 -0.1198
 3073SOL    HW210661   2.634   4.791   0.172 -0.5847  0.2127 -0.1250
 3074SOL     OW10662   2.796   4.984   0.930  0.1149  0.0645  0.6614
 3074SOL    HW110663   2.885   4.994   0.896  0.6805  0.1227  2.1140
 3074SOL    HW210664   2.775   5.070   0.966  0.2497 -0.4802  2.1031
 3075SOL     OW10665   0.402   3.335   2.577  0.1180  0.3574 -0.2054
 3075SOL    HW110666   0.311   3.331   2.607  0.5697  1.6258  1.4565
 3075SOL    HW210667   0.400   3.294   2.490 -2.1966  1.1568 -0.6037
 3076SOL     OW10668   0.766   4.963   0.094 -0.1426 -0.0995  0.1300
 3076SOL    HW110669   0.791   4.885   0.045 -0.7522  0.3175 -0.8880
 3076SOL    HW210670   0.839   5.024   0.080 -0.5863  0.2357 -0.7864
 3077SOL     OW10671   1.076   5.175   1.621 -0.6122 -0.0342 -0.4067
 3077SOL    HW110672   1.078   5.086   1.585 -2.4094 -0.1478 -0.2979
 3077SOL    HW210673   1.045   5.164   1.711 -0.5244  0.6771 -0.2874
 3078SOL     OW10674   1.783   5.132   1.149  0.4659 -0.0646  0.4528
 3078SOL    HW110675   1.849   5.076   1.187 -0.6314 -1.4562  0.4027
 3078SOL    HW210676   1.699   5.093   1.175 -0.3721  2.0056  1.0790
 3079SOL     OW10677   1.270   5.423   0.038 -0.2849  0.0512 -0.0317
 3079SOL    HW110678   1.210   5.383  -0.025  0.9593 -1.1718 -0.5016
 3079SOL    HW210679   1.231   5.405   0.124 -1.0772  0.1191 -0.3744
 3080SOL     OW10680   0.801   4.379  12.439  0.4075 -0.8914  0.0500
 3080SOL    HW110681   0.730   4.420  12.390  0.8772 -2.1655 -1.7941
 3080SOL    HW210682   0.776   4.390  12.531 -0.9979  0.7108 -0.4711
 3081SOL     OW10683   0.072   4.047   0.590  1.2140  0.0432 -0.4108
 3081SOL    HW110684  -0.008   4.038   0.641  1.7234  0.8411  0.5435
 3081SOL    HW210685   0.131   3.981   0.626  1.3967  0.2581 -0.3178
 3082SOL     OW10686   1.209   2.852  10.727 -0.4920 -0.5565 -0.0388
 3082SOL    HW110687   1.188   2.822  10.638  0.2903 -0.1444 -0.3702
 3082SOL    HW210688   1.285   2.800  10.752  0.6901  0.9023 -0.4989
 3083SOL     OW10689   1.166   4.998   2.190  0.0415  0.2137  0.1605
 3083SOL    HW110690   1.090   4.989   2.249  1.5385 -1.7154  1.9411
 3083SOL    HW210691   1.178   5.092   2.181 -0.5670  0.5834  2.5779
 3084SOL     OW10692   1.364   2.752   3.497  0.2253  0.4060  0.3233
 3084SOL    HW110693   1.422   2.703   3.555 -0.5000 -1.4924 -0.4944
 3084SOL    HW210694   1.400   2.737   3.409 -1.6909 -1.1787 -0.2457
 3085SOL     OW10695   0.092   2.338   2.814 -0.2310  0.7765  0.1060
 3085SOL    HW110696   0.059   2.259   2.771  0.4291 -0.0342  1.0428
 3085SOL    HW210697   0.014   2.384   2.844 -0.7719  1.7142 -2.4566
 3086SOL     OW10698   0.221   5.140   3.218  0.6183 -0.6604 -0.7281
 3086SOL    HW110699   0.307   5.178   3.237 -0.9793  2.4763  1.1121
 3086SOL    HW210700   0.179   5.204   3.161 -0.6793 -1.9257 -1.2523
 3087SOL     OW10701   0.758   5.792   3.894 -0.1301 -0.6634 -0.2043
 3087SOL    HW110702   0.719   5.715   3.854 -0.7343  0.0170 -0.9606
 3087SOL    HW210703   0.720   5.866   3.846 -2.5010  0.3187  2.8415
 3088SOL     OW10704   2.090   3.658   2.764 -0.2902 -0.0695 -0.2673
 3088SOL    HW110705   2.153   3.635   2.833 -2.7742 -0.3432  2.1126
 3088SOL    HW210706   2.144   3.681   2.689  2.6129 -0.4203  1.5345
 3089SOL     OW10707   1.967   3.504   2.065 -0.7384 -0.4172  0.3082
 3089SOL    HW110708   2.037   3.566   2.042  0.7531 -1.2278  2.3496
 3089SOL    HW210709   1.990   3.423   2.019 -1.1898 -0.2651 -0.1987
 3090SOL     OW10710   2.089   4.622   3.481 -0.1252  0.1731 -0.0499
 3090SOL    HW110711   2.129   4.697   3.437 -0.5495  1.2261  1.2859
 3090SOL    HW210712   2.013   4.658   3.527 -0.2759 -1.0454  0.7195
 3091SOL     OW10713   0.536   5.476   1.595  0.1148  0.5384 -0.3054
 3091SOL    HW110714   0.575   5.503   1.512  0.7980 -0.9735 -0.5124
 3091SOL    HW210715   0.604   5.424   1.638 -0.8566 -0.1854  0.4033
 3092SOL     OW10716   7.901   7.111   3.753 -0.0459 -0.3937  0.0541
 3092SOL    HW110717   7.933   7.137   3.667 -1.3289 -0.1655 -0.3820
 3092SOL    HW210718   7.806   7.106   3.742 -0.1372 -1.5258  1.1403
 3093SOL     OW10719   0.551   6.972   5.249  0.0317 -0.2714 -0.3669
 3093SOL    HW110720   0.599   7.002   5.172 -0.1937  1.2111  0.0377
 3093SOL    HW210721   0.618   6.936   5.307  0.4580  0.3947 -0.4380
 3094SOL     OW10722   7.204   3.181   5.649  0.1998 -0.4089 -0.1565
 3094SOL    HW110723   7.159   3.265   5.648  2.9789  1.2324  0.9460
 3094SOL    HW210724   7.145   3.123   5.696 -1.8079  0.8730 -0.9774
 3095SOL     OW10725   1.953   3.308   4.343  0.0556 -0.3826 -0.5890
 3095SOL    HW110726   2.038   3.321   4.386  0.3665  0.5864 -1.4456
 3095SOL    HW210727   1.944   3.213   4.336  0.6118 -0.5309  0.3787
 3096SOL     OW10728   0.147   2.847   3.722  0.1493 -0.0365  0.4468
 3096SOL    HW110729   0.150   2.764   3.674 -1.4899  0.2007 -0.1104
 3096SOL    HW210730   0.221   2.842   3.782  2.5753 -0.2010 -2.3099
 3097SOL     OW10731   0.786   4.500   2.898 -0.5841  0.0550 -0.0458
 3097SOL    HW110732   0.785   4.439   2.971  0.1911 -0.3619 -0.3708
 3097SOL    HW210733   0.693   4.515   2.877 -0.8014 -0.0522  0.8147
 3098SOL     OW10734   0.632   6.498   2.741 -0.6234  0.0423  0.0646
 3098SOL    HW110735   0.724   6.522   2.752 -1.0503  1.7593  0.1900
 3098SOL    HW210736   0.594   6.571   2.692 -1.8406 -0.8264 -0.3398
 3099SOL     OW10737   1.106   4.568   4.948 -0.5495  0.3601 -0.0976
 3099SOL    HW110738   1.178   4.605   4.998 -0.3544  0.4659 -0.4562
 3099SOL    HW210739   1.059   4.513   5.011  0.3944 -0.4633 -0.1070
 3100SOL     OW10740   0.067   5.375   4.034  0.6779  0.3705  0.0065
 3100SOL    HW110741   0.075   5.285   4.065  2.2599  0.8061  0.9800
 3100SOL    HW210742   0.126   5.380   3.959  3.4944  1.4481  2.1213
 3101SOL     OW10743   0.906   4.568   4.045  0.1969  0.1822  0.7248
 3101SOL    HW110744   0.912   4.653   4.001 -1.4971  0.0637  0.1892
 3101SOL    HW210745   0.865   4.511   3.979 -2.2769 -0.0505  2.3469
 3102SOL     OW10746   0.230   5.828   3.844  0.1121 -0.1959 -0.2078
 3102SOL    HW110747   0.217   5.886   3.769 -3.3837 -2.4021 -1.6207
 3102SOL    HW210748   0.280   5.754   3.808 -0.9624 -0.9290 -0.2487
 3103SOL     OW10749   0.725   4.368   1.277  0.5947 -0.7068 -0.1260
 3103SOL    HW110750   0.666   4.307   1.233 -0.3668 -0.5352  0.8749
 3103SOL    HW210751   0.683   4.453   1.265 -0.2131 -0.7749  1.9071
 3104SOL     OW10752   0.956   4.311   1.924 -0.6114  0.2144  0.0361
 3104SOL    HW110753   1.046   4.327   1.953 -0.7425  3.0013 -0.7508
 3104SOL    HW210754   0.951   4.216   1.910  2.2673 -0.0018 -0.0822
 3105SOL     OW10755   0.970   3.204   6.409 -0.9323  0.6411 -0.1565
 3105SOL    HW110756   1.008   3.252   6.482  2.1695 -0.7559 -0.7003
 3105SOL    HW210757   0.985   3.112   6.430 -1.2786  0.1572 -1.8760
 3106SOL     OW10758   2.689   3.274   2.342  0.6968  0.0416  0.3081
 3106SOL    HW110759   2.596   3.287   2.360  0.1231 -0.3153 -2.0036
 3106SOL    HW210760   2.723   3.228   2.419 -1.1695 -0.3518  0.9331
 3107SOL     OW10761   6.998   6.147   2.742  0.0641 -0.2889 -0.0222
 3107SOL    HW110762   6.906   6.171   2.726  0.3642  1.5699  0.7694
 3107SOL    HW210763   6.996   6.093   2.820 -0.4147 -0.8295 -0.4031
 3108SOL     OW10764   2.756   5.620   3.107 -0.2853 -0.4251 -0.1673
 3108SOL    HW110765   2.686   5.684   3.120 -0.5837 -0.4028 -1.7053
 3108SOL    HW210766   2.785   5.598   3.196 -2.6701 -0.9366  0.5701
 3109SOL     OW10767   2.157   4.104   0.827 -0.1278 -0.1628  0.3195
 3109SOL    HW110768   2.234   4.050   0.848 -0.2867  0.0796  1.5832
 3109SOL    HW210769   2.191   4.173   0.771  0.3472 -0.7484 -0.1287
 3110SOL     OW10770   7.348   5.112   5.423 -0.1369 -0.2070 -0.7951
 3110SOL    HW110771   7.415   5.178   5.407 -1.1366  1.0537 -0.0243
 3110SOL    HW210772   7.267   5.162   5.435 -0.9354 -1.5721 -0.2007
 3111SOL     OW10773   7.869   6.642   3.070  0.1966  0.5858 -0.2596
 3111SOL    HW110774   7.932   6.660   3.139  0.5575  0.4364 -0.5457
 3111SOL    HW210775   7.895   6.557   3.035 -0.8812 -0.0336  0.3956
 3112SOL     OW10776   1.430   6.965   5.477 -0.5736 -0.2018 -0.1873
 3112SOL    HW110777   1.525   6.961   5.477 -0.3143  2.9906  1.0525
 3112SOL    HW210778   1.407   7.000   5.391 -0.7589 -1.6299 -0.7586
 3113SOL     OW10779   0.251   3.110   2.539 -0.0805  0.2656  1.2807
 3113SOL    HW110780   0.297   3.048   2.596  1.6896  0.2126 -0.1100
 3113SOL    HW210781   0.200   3.055   2.480 -0.0490  0.2260  1.2904
 3114SOL     OW10782   0.335   6.680   5.099 -0.5630  0.2496  0.3165
 3114SOL    HW110783   0.332   6.611   5.033 -1.6338  0.7944 -0.2204
 3114SOL    HW210784   0.413   6.660   5.151  1.8933  1.2622 -2.6585
 3115SOL     OW10785   0.522   5.096   2.276 -0.0052 -0.2323  0.1321
 3115SOL    HW110786   0.544   5.180   2.316  1.2984 -0.2149 -0.5557
 3115SOL    HW210787   0.469   5.051   2.341  1.4397  0.0799  1.5936
 3116SOL     OW10788   1.292   2.909   5.076  0.1605 -0.3319 -0.1234
 3116SOL    HW110789   1.353   2.968   5.119  0.3536  0.4092 -1.3591
 3116SOL    HW210790   1.345   2.862   5.012 -0.4646  0.0522 -0.9533
 3117SOL     OW10791   2.191   4.871   3.378 -0.0122 -0.4812  0.1340
 3117SOL    HW110792   2.266   4.818   3.352  0.0890 -0.7438  0.9173
 3117SOL    HW210793   2.182   4.936   3.309  2.0050  0.6552  0.8501
 3118SOL     OW10794   0.581   5.333   2.376 -0.0978 -0.1235  0.0852
 3118SOL    HW110795   0.514   5.369   2.434  0.8434 -1.5923  2.2072
 3118SOL    HW210796   0.664   5.354   2.419  0.6480 -1.1980 -0.7779
 3119SOL     OW10797   1.417   4.689   3.078  0.8656 -0.1459 -0.0598
 3119SOL    HW110798   1.483   4.756   3.097 -0.5471  0.9850  1.1298
 3119SOL    HW210799   1.410   4.688   2.982  2.3139 -0.0280 -0.1857
 3120SOL     OW10800   1.514   4.791   3.390 -0.3465  0.9371 -0.2854
 3120SOL    HW110801   1.575   4.718   3.384 -0.0022  1.1868  0.1030
 3120SOL    HW210802   1.540   4.849   3.318 -1.5932 -0.0208 -1.5699
 3121SOL     OW10803   0.733   5.111   3.602  0.0179 -0.6229  0.3530
 3121SOL    HW110804   0.775   5.100   3.687  1.1962  0.6520 -0.0389
 3121SOL    HW210805   0.755   5.031   3.554  2.1188  0.0205  0.1384
 3122SOL     OW10806   2.233   4.347   3.593  0.1911  0.7204  0.2188
 3122SOL    HW110807   2.174   4.273   3.606  0.3858  0.3757 -0.7704
 3122SOL    HW210808   2.176   4.418   3.564  0.3843 -0.1255 -2.6196
 3123SOL     OW10809   2.996   2.156   4.705 -0.3943  0.3964  0.5262
 3123SOL    HW110810   2.998   2.193   4.794  1.2227 -0.3082  0.8234
 3123SOL    HW210811   3.082   2.117   4.694  0.6816  3.2400 -2.5662
 3124SOL     OW10812   0.849   3.778   1.333  0.7870 -0.2286 -0.1762
 3124SOL    HW110813   0.864   3.860   1.380 -3.0890  1.3968 -1.3714
 3124SOL    HW210814   0.832   3.805   1.243 -2.1384 -2.0721 -0.3041
 3125SOL     OW10815   0.024   5.557   3.042 -0.4578 -0.2743 -0.1082
 3125SOL    HW110816   0.077   5.482   3.016 -1.3649 -1.0209  0.1477
 3125SOL    HW210817  -0.054   5.519   3.082 -0.8247  0.8092  0.2519
 3126SOL     OW10818   0.462   4.540   2.057 -0.1883 -0.0472 -0.0770
 3126SOL    HW110819   0.430   4.629   2.046 -0.9156 -0.2287  0.5181
 3126SOL    HW210820   0.556   4.550   2.071 -0.4968  0.7638  1.6088
 3127SOL     OW10821   7.084   5.190   2.683  0.0801  0.1682  0.2077
 3127SOL    HW110822   7.090   5.253   2.611 -2.0586  1.4409  1.0553
 3127SOL    HW210823   7.174   5.164   2.701  0.7041  0.0236 -2.7064
 3128SOL     OW10824   0.001   4.799   4.731  0.0017 -0.3286 -0.0603
 3128SOL    HW110825  -0.004   4.787   4.826 -1.4962  0.5807  0.0231
 3128SOL    HW210826   0.094   4.803   4.712  0.3392 -0.9897  1.3036
 3129SOL     OW10827   1.376   2.886   1.959 -0.2895 -0.1720  0.1534
 3129SOL    HW110828   1.387   2.797   1.928  1.7575 -0.0390  0.4015
 3129SOL    HW210829   1.413   2.941   1.890 -0.4094  0.4196  0.5479
 3130SOL     OW10830   1.248   3.317   3.214 -0.3972 -0.0618  0.3134
 3130SOL    HW110831   1.312   3.254   3.180  0.0481 -0.1371  1.2632
 3130SOL    HW210832   1.299   3.373   3.272 -0.8104  1.1152 -0.4188
 3131SOL     OW10833   1.602   5.405   3.978 -0.7367  0.2868  0.4288
 3131SOL    HW110834   1.511   5.433   3.982 -0.5229  0.9135  1.0509
 3131SOL    HW210835   1.642   5.439   4.058 -0.8444 -3.3020  2.2153
 3132SOL     OW10836   2.522   3.152   3.332  0.0185  0.0044  0.1726
 3132SOL    HW110837   2.530   3.058   3.316  2.0633 -0.1794  1.7638
 3132SOL    HW210838   2.601   3.189   3.292  0.8364  0.5954  2.2475
 3133SOL     OW10839   7.885   4.410   3.967  0.0110  0.3306  0.3810
 3133SOL    HW110840   7.888   4.337   3.905  1.7504  1.5625 -1.0936
 3133SOL    HW210841   7.793   4.415   3.994 -0.7093 -0.6174 -1.6736
 3134SOL     OW10842   6.880   5.704   5.033 -0.5362 -0.4191 -0.1520
 3134SOL    HW110843   6.924   5.779   4.992  0.3639 -0.2313  1.0724
 3134SOL    HW210844   6.823   5.744   5.099 -2.6097 -0.6638 -1.7131
 3135SOL     OW10845   2.053   4.204   4.950 -0.1383  0.9033 -0.2692
 3135SOL    HW110846   2.052   4.285   4.899 -0.8625  0.6147 -0.7303
 3135SOL    HW210847   2.135   4.162   4.926 -0.6830  0.5442 -1.5909
 3136SOL     OW10848   0.742   4.462   4.274 -0.3513  0.3224  0.4383
 3136SOL    HW110849   0.752   4.471   4.369  1.3176  0.2266  0.3029
 3136SOL    HW210850   0.694   4.380   4.263  0.7489 -0.4457  1.1737
 3137SOL     OW10851   0.581   4.474   4.012 -0.1824 -0.2993 -0.6177
 3137SOL    HW110852   0.643   4.500   4.080 -0.4109  0.3931 -0.6627
 3137SOL    HW210853   0.539   4.395   4.046 -1.3579  0.8431  0.7439
 3138SOL     OW10854   0.879   5.386   3.922  0.3227  0.3998  0.8696
 3138SOL    HW110855   0.827   5.425   3.852  0.0446  0.7725  1.2788
 3138SOL    HW210856   0.849   5.430   4.002  1.7072  1.0525  1.0461
 3139SOL     OW10857   6.835   3.770   2.798  0.0208 -0.1451 -0.0047
 3139SOL    HW110858   6.927   3.795   2.809  0.2660 -1.4095  1.0806
 3139SOL    HW210859   6.786   3.842   2.837  0.5531  0.4620 -0.4374
 3140SOL     OW10860   3.012   6.108   1.938 -0.0512  0.2200  0.6343
 3140SOL    HW110861   3.002   6.098   2.032  0.3069 -2.1266  0.4923
 3140SOL    HW210862   3.107   6.108   1.924 -0.0801 -1.5172  0.1697
 3141SOL     OW10863   7.581   4.735   6.207  0.0154  0.2634 -0.3982
 3141SOL    HW110864   7.486   4.745   6.197  0.1955  1.8271 -0.7603
 3141SOL    HW210865   7.614   4.734   6.117  0.2449 -1.7609 -0.3390
 3142SOL     OW10866   1.470   5.889   2.937 -0.3716 -0.1600 -0.0669
 3142SOL    HW110867   1.434   5.940   3.010  0.4043 -1.1828  1.0748
 3142SOL    HW210868   1.530   5.828   2.979  0.5669 -0.3617 -1.6422
 3143SOL     OW10869   1.082   5.982   2.332  0.5027 -0.3464 -0.1575
 3143SOL    HW110870   1.139   5.906   2.341 -0.0883 -0.5674  2.2897
 3143SOL    HW210871   1.123   6.049   2.386 -1.2810 -0.3918  1.3550
 3144SOL     OW10872   7.292   5.682   3.030 -0.6874  0.2169  0.0331
 3144SOL    HW110873   7.269   5.769   2.996 -0.8163  0.0626 -0.2744
 3144SOL    HW210874   7.372   5.697   3.081 -0.0974  0.3430 -0.8998
 3145SOL     OW10875   7.312   5.902   3.799  0.5643 -0.0881  0.5178
 3145SOL    HW110876   7.252   5.827   3.801 -1.1454  1.2116  0.1448
 3145SOL    HW210877   7.390   5.869   3.753 -0.9537 -1.1037 -1.4995
 3146SOL     OW10878   1.750   4.152   4.308  0.4236 -0.5296 -0.0824
 3146SOL    HW110879   1.658   4.157   4.332  0.1469 -1.3441 -0.8815
 3146SOL    HW210880   1.796   4.136   4.391 -0.3068 -1.4892  0.1632
 3147SOL     OW10881   2.452   4.299   2.732 -0.3628 -0.2595 -0.3210
 3147SOL    HW110882   2.443   4.326   2.641 -0.3632  0.8946  0.0006
 3147SOL    HW210883   2.478   4.207   2.728 -1.6724 -0.6098 -1.4569
 3148SOL     OW10884   6.686   3.301   2.197 -0.0811  0.1339  0.4199
 3148SOL    HW110885   6.664   3.260   2.113  0.7211  0.7049 -0.0913
 3148SOL    HW210886   6.764   3.254   2.226 -1.0040 -0.8369  1.4432
 3149SOL     OW10887   1.394   3.893   4.357  0.0105  0.2495  0.2957
 3149SOL    HW110888   1.306   3.865   4.335  0.5383 -0.2764 -1.3066
 3149SOL    HW210889   1.397   3.893   4.452 -1.8068  0.6047  0.3773
 3150SOL     OW10890   7.617   4.403   2.206 -0.2215 -0.0594 -0.3662
 3150SOL    HW110891   7.613   4.329   2.267  0.3170  0.0432 -0.2097
 3150SOL    HW210892   7.649   4.364   2.124  2.6782  0.4605  0.4496
 3151SOL     OW10893   0.331   4.306   3.610  0.4669 -0.5873  0.7753
 3151SOL    HW110894   0.319   4.338   3.700 -0.9878 -1.9314  1.1135
 3151SOL    HW210895   0.353   4.214   3.620 -0.9787 -1.0820 -0.2435
 3152SOL     OW10896   0.105   5.141   4.980 -0.0705 -0.2611 -0.4894
 3152SOL    HW110897   0.128   5.109   4.893 -1.6004  2.4391 -2.0309
 3152SOL    HW210898   0.189   5.152   5.025  1.1376  1.6658 -2.9680
 3153SOL     OW10899   0.223   4.791   3.891  0.2320  0.6045  0.0026
 3153SOL    HW110900   0.222   4.881   3.859 -0.3618  0.2504 -1.0173
 3153SOL    HW210901   0.131   4.767   3.901  0.2835 -0.6403 -2.0091
 3154SOL     OW10902   0.214   5.165   1.280  0.3010  0.2449  0.1972
 3154SOL    HW110903   0.173   5.097   1.335  0.3312  0.5765  0.6384
 3154SOL    HW210904   0.292   5.191   1.329  0.0431  0.9184  0.2506
 3155SOL     OW10905   0.318   2.892   3.484  0.1294  0.3646  0.1971
 3155SOL    HW110906   0.338   2.900   3.391  0.9398  1.4763  0.4445
 3155SOL    HW210907   0.237   2.941   3.495 -0.3126 -0.3038 -0.0218
 3156SOL     OW10908   0.248   4.667   1.716 -0.1003 -0.4145  0.4983
 3156SOL    HW110909   0.180   4.611   1.756 -0.6824  0.6719  1.0624
 3156SOL    HW210910   0.328   4.615   1.723 -0.8616 -1.7350 -0.1999
 3157SOL     OW10911   0.280   3.234   2.953  0.1821  0.2454 -0.2860
 3157SOL    HW110912   0.194   3.274   2.937  0.2462  0.8873  0.8781
 3157SOL    HW210913   0.260   3.149   2.990  0.0539 -0.1440 -1.2215
 3158SOL     OW10914   2.378   5.421   2.609  0.1848  0.0561  0.1331
 3158SOL    HW110915   2.315   5.485   2.576 -0.2825 -0.5293 -0.1395
 3158SOL    HW210916   2.326   5.342   2.623  0.9711 -0.6312 -0.7199
 3159SOL     OW10917   0.614   5.535   2.614  0.3037  0.5687  0.0281
 3159SOL    HW110918   0.709   5.531   2.624  0.3023 -2.8042 -0.1609
 3159SOL    HW210919   0.582   5.563   2.700  1.4403  0.5724  0.4667
 3160SOL     OW10920   6.886   6.109   3.208  0.5232 -0.2829 -0.5207
 3160SOL    HW110921   6.823   6.041   3.183  1.0111 -1.1263  0.4844
 3160SOL    HW210922   6.946   6.065   3.268  0.5626  1.1662  0.5485
 3161SOL     OW10923   2.326   6.094   1.318  0.2898 -0.1579 -0.1569
 3161SOL    HW110924   2.269   6.127   1.249 -1.2934  0.0248  1.1907
 3161SOL    HW210925   2.328   6.163   1.384  2.1222 -0.1422 -0.1685
 3162SOL     OW10926   1.618   4.867   3.083  0.0448 -0.6117  0.1334
 3162SOL    HW110927   1.615   4.928   3.009  0.3725  0.3196  0.8597
 3162SOL    HW210928   1.701   4.821   3.073 -0.4355 -1.3092 -0.7003
 3163SOL     OW10929   7.927   3.420   4.084 -0.3273  0.0259 -0.4851
 3163SOL    HW110930   7.839   3.393   4.058 -1.6171  1.2693  2.1406
 3163SOL    HW210931   7.969   3.339   4.114 -0.4295 -0.6254 -2.0178
 3164SOL     OW10932   1.094   4.009   1.693 -0.1390  0.2550 -0.1480
 3164SOL    HW110933   1.027   4.053   1.746 -0.0114 -0.1272  0.3371
 3164SOL    HW210934   1.146   3.960   1.757 -1.0558 -1.6307 -0.7734
 3165SOL     OW10935   1.587   3.750   2.197  0.1696 -0.2670  0.5632
 3165SOL    HW110936   1.589   3.830   2.250  2.0732 -0.2571  0.5398
 3165SOL    HW210937   1.543   3.686   2.252 -3.4240  1.2521 -0.2093
 3166SOL     OW10938   2.645   5.581   4.477  1.0104 -0.1674  0.4464
 3166SOL    HW110939   2.557   5.618   4.492  0.7233 -1.4479  2.3199
 3166SOL    HW210940   2.646   5.560   4.384 -0.9482 -0.7158  0.4864
 3167SOL     OW10941   2.162   5.516   3.121 -0.3605  0.2996  0.1692
 3167SOL    HW110942   2.221   5.472   3.182 -1.3071 -0.0890  0.8353
 3167SOL    HW210943   2.150   5.604   3.159 -0.7015  0.1618  0.3941
 3168SOL     OW10944   1.692   5.866   3.647  0.1668  0.1537 -0.3331
 3168SOL    HW110945   1.701   5.944   3.592  1.0608  0.0473 -0.3623
 3168SOL    HW210946   1.782   5.846   3.675  0.0693 -1.2991 -0.9440
 3169SOL     OW10947   7.675   5.339  12.109 -0.3887 -0.0610 -0.3660
 3169SOL    HW110948   7.669   5.249  12.141 -0.6952  0.0316 -0.1565
 3169SOL    HW210949   7.768   5.352  12.091 -0.4616 -0.7372 -1.3212
 3170SOL     OW10950   1.466   7.159   3.202  0.3789 -0.1922  0.6875
 3170SOL    HW110951   1.485   7.161   3.296  1.1322 -2.4766  0.6356
 3170SOL    HW210952   1.419   7.076   3.188  0.3506  0.0626 -0.9669
 3171SOL     OW10953   0.775   3.389   3.378  0.0199 -0.2228  0.5665
 3171SOL    HW110954   0.741   3.349   3.458 -0.1352 -0.1243  0.5500
 3171SOL    HW210955   0.868   3.405   3.396 -0.0063 -0.2349  0.7114
 3172SOL     OW10956   0.130   4.094   3.137  0.6687  0.1064 -0.2826
 3172SOL    HW110957   0.158   4.005   3.113  1.1923  0.7599 -2.2983
 3172SOL    HW210958   0.089   4.128   3.057 -1.9840  0.7728  1.2356
 3173SOL     OW10959   2.707   3.568   3.938  0.3179 -0.8165  0.6413
 3173SOL    HW110960   2.795   3.584   3.972  0.3528  1.3600 -0.2936
 3173SOL    HW210961   2.674   3.495   3.990  2.0912 -0.6584  2.0871
 3174SOL     OW10962   6.521   7.094   3.117 -0.0122 -0.6345 -0.5793
 3174SOL    HW110963   6.527   7.172   3.173 -1.4199  0.9118 -2.4345
 3174SOL    HW210964   6.518   7.021   3.178 -0.5345  0.8880  1.3266
 3175SOL     OW10965   0.991   4.991   4.191  0.8897  0.0776 -0.0980
 3175SOL    HW110966   1.053   4.932   4.147  1.6936 -0.5783  1.8066
 3175SOL    HW210967   1.026   5.078   4.176  1.9089 -0.2357  0.3414
 3176SOL     OW10968   1.361   3.997   3.610 -0.3994 -0.2596 -0.1169
 3176SOL    HW110969   1.328   3.958   3.691  0.4829  1.8069  1.3116
 3176SOL    HW210970   1.287   4.047   3.575  0.0365  1.2718  1.0550
 3177SOL     OW10971   2.892   5.140   3.711  0.5001  1.0227 -0.3100
 3177SOL    HW110972   2.938   5.168   3.790  2.1658 -0.7251 -0.5994
 3177SOL    HW210973   2.914   5.047   3.701 -0.9872  0.7784 -1.9483
 3178SOL     OW10974   1.178   4.214   3.500 -0.1844 -0.0647  0.0357
 3178SOL    HW110975   1.130   4.288   3.535 -0.9448  0.4346 -1.9223
 3178SOL    HW210976   1.269   4.242   3.498 -0.7021  1.8057 -2.7829
 3179SOL     OW10977   0.366   2.801   5.048 -0.2184 -0.2181  0.5230
 3179SOL    HW110978   0.319   2.844   4.976  1.5568  0.4354 -0.3081
 3179SOL    HW210979   0.356   2.861   5.122 -0.1535  0.2165  0.1825
 3180SOL     OW10980   7.548   3.728   2.008 -0.3530 -0.0569  0.0666
 3180SOL    HW110981   7.483   3.661   2.027  0.5607 -0.9075  0.2727
 3180SOL    HW210982   7.611   3.721   2.081  0.6594 -0.1354 -0.7925
 3181SOL     OW10983   2.212   5.998   3.703 -0.1216  0.0495  0.6200
 3181SOL    HW110984   2.197   6.042   3.619 -0.4521 -0.3692  0.4599
 3181SOL    HW210985   2.293   5.948   3.690 -1.0393 -1.3298  0.0069
 3182SOL     OW10986   2.198   4.626   4.243  0.5783 -0.1970  0.3340
 3182SOL    HW110987   2.218   4.705   4.193  3.3244  0.9702  2.9771
 3182SOL    HW210988   2.128   4.652   4.302  0.4222 -0.2190  0.1598
 3183SOL     OW10989   0.097   6.532   4.913 -0.5660  0.4410  0.3970
 3183SOL    HW110990   0.062   6.573   4.992  0.4853  1.2674  0.4700
 3183SOL    HW210991   0.128   6.606   4.860  0.4373 -0.2038  0.0598
 3184SOL     OW10992   1.919   3.000   4.587 -0.1283 -0.0953  0.2713
 3184SOL    HW110993   1.885   3.009   4.498  1.1257 -0.6794 -0.2736
 3184SOL    HW210994   2.013   2.987   4.577  0.5808  2.8670  1.7946
 3185SOL     OW10995   0.557   4.756   2.842 -0.2275 -0.2214 -0.1547
 3185SOL    HW110996   0.607   4.809   2.904 -0.8572 -1.4928  1.5343
 3185SOL    HW210997   0.514   4.819   2.785  1.8300  0.9407 -0.5094
 3186SOL     OW10998   7.246   5.299   3.114 -0.3970  0.3611  0.1334
 3186SOL    HW110999   7.321   5.313   3.171 -0.4173  0.4448  0.1395
 3186SOL    HW211000   7.172   5.287   3.173 -0.9590  3.1652  0.1733
 3187SOL     OW11001   0.994   3.876   3.808 -0.2845 -0.0536 -0.1847
 3187SOL    HW111002   0.911   3.838   3.838  0.0695 -1.9099 -1.3815
 3187SOL    HW211003   1.061   3.828   3.857  0.1290  0.4400 -0.2628
 3188SOL     OW11004   1.292   4.613   3.917  0.6930 -0.4762 -0.3318
 3188SOL    HW111005   1.297   4.520   3.897  0.6319 -0.2627 -1.4128
 3188SOL    HW211006   1.206   4.640   3.885  0.2639 -0.2613  0.9646
 3189SOL     OW11007   0.902   1.985   1.279 -0.6346 -0.3673  0.1882
 3189SOL    HW111008   0.880   2.060   1.335 -2.3007 -0.2928 -0.4947
 3189SOL    HW211009   0.852   1.912   1.316  1.8796 -1.5406  1.5775
 3190SOL     OW11010   1.764   3.270   3.067 -0.0587 -0.1461 -0.0619
 3190SOL    HW111011   1.831   3.237   3.008  0.9203  1.5314  0.0269
 3190SOL    HW211012   1.765   3.365   3.053  0.4757  0.3916  2.8702
 3191SOL     OW11013   0.260   2.451   4.408 -0.0801 -0.0293 -0.0776
 3191SOL    HW111014   0.207   2.519   4.449  0.6073  0.6750 -0.3283
 3191SOL    HW211015   0.338   2.497   4.377  0.3993 -0.9346 -0.2496
 3192SOL     OW11016   7.806   4.961   4.659 -0.4217 -0.2086 -0.2431
 3192SOL    HW111017   7.790   4.990   4.749  0.7836  0.0872 -0.1053
 3192SOL    HW211018   7.879   4.899   4.666 -0.0732  0.0984 -1.0506
 3193SOL     OW11019   7.578   4.080   4.431  0.4467  0.1792  0.3277
 3193SOL    HW111020   7.493   4.124   4.425 -0.1569 -0.9598  0.1985
 3193SOL    HW211021   7.633   4.141   4.480 -0.8710  0.3114  1.7160
 3194SOL     OW11022   7.848   5.359   2.192  0.2800 -0.2418  0.4269
 3194SOL    HW111023   7.795   5.358   2.272  0.8221  1.7113  0.8687
 3194SOL    HW211024   7.784   5.361   2.121 -0.2172 -0.6075  0.8594
 3195SOL     OW11025   1.073   4.491   2.853 -0.3372 -0.5153  0.5841
 3195SOL    HW111026   1.070   4.586   2.858 -0.6831 -0.3599 -1.6051
 3195SOL    HW211027   0.992   4.462   2.897 -0.5404  0.2362  0.7141
 3196SOL     OW11028   1.070   2.070   2.089 -0.4140  0.0362 -0.4716
 3196SOL    HW111029   1.048   1.981   2.118  1.7437 -0.2171  0.5398
 3196SOL    HW211030   1.053   2.125   2.166  2.4531 -0.2064  0.4512
 3197SOL     OW11031   1.605   5.108   3.472 -0.0411  0.4026 -0.0472
 3197SOL    HW111032   1.606   5.034   3.533 -2.5353 -0.6829 -1.1875
 3197SOL    HW211033   1.614   5.185   3.528  0.3032 -0.6425  1.4064
 3198SOL     OW11034   1.534   4.685   3.784 -0.4318 -0.0219 -0.4276
 3198SOL    HW111035   1.491   4.751   3.730 -1.8805 -1.9506 -1.7992
 3198SOL    HW211036   1.462   4.646   3.835  0.7737  1.2017  2.4169
 3199SOL     OW11037   1.196   3.099   4.765  0.1198  0.0261 -0.1813
 3199SOL    HW111038   1.194   3.186   4.725  1.4276  0.4108  0.5254
 3199SOL    HW211039   1.142   3.108   4.844  1.7235  0.7485  0.8768
 3200SOL     OW11040   7.621   5.070   2.624 -0.1749  0.0505  0.3861
 3200SOL    HW111041   7.711   5.039   2.627 -0.7162 -1.5846  1.0695
 3200SOL    HW211042   7.595   5.062   2.532  0.2073  0.0206  0.2814
 3201SOL     OW11043   1.933   4.479   3.323  0.0459  0.2819 -0.7299
 3201SOL    HW111044   1.989   4.532   3.380 -0.0837  1.4904 -1.6978
 3201SOL    HW211045   1.916   4.399   3.374  0.8801  0.8243  0.4414
 3202SOL     OW11046   7.943   4.209   2.239  0.5447  0.0638 -0.2374
 3202SOL    HW111047   7.926   4.303   2.225 -0.9683 -0.1053  0.2941
 3202SOL    HW211048   7.874   4.165   2.191  1.3505 -0.8172 -0.6252
 3203SOL     OW11049   6.798   5.704   4.656  0.5627  0.0918 -0.2861
 3203SOL    HW111050   6.750   5.664   4.728 -2.0677  0.5189 -1.6592
 3203SOL    HW211051   6.798   5.638   4.587  3.1339 -0.3528  0.0335
 3204SOL     OW11052   1.781   6.056   3.902  0.2173 -0.1065  0.5718
 3204SOL    HW111053   1.832   5.991   3.853  0.0287  0.0977  0.1038
 3204SOL    HW211054   1.780   6.133   3.846 -0.7403 -0.1567  0.5056
 3205SOL     OW11055   7.777   4.404   4.299  0.1314  0.0535 -0.4356
 3205SOL    HW111056   7.843   4.473   4.289  0.0164  0.2116 -0.1275
 3205SOL    HW211057   7.714   4.422   4.230 -0.2526  0.6665  0.0575
 3206SOL     OW11058   1.197   4.861   2.479 -0.0572 -0.1430 -0.1069
 3206SOL    HW111059   1.121   4.871   2.422 -0.8208 -1.1728  0.6711
 3206SOL    HW211060   1.238   4.948   2.482 -0.3632  0.0766 -1.6757
 3207SOL     OW11061   1.631   5.394   2.645 -0.4742  0.3657 -0.4896
 3207SOL    HW111062   1.643   5.488   2.659 -1.0094  0.4430 -0.5182
 3207SOL    HW211063   1.671   5.354   2.722 -2.0304  0.7216  0.5845
 3208SOL     OW11064   0.316   5.171   1.950 -0.4685 -0.2102  0.1127
 3208SOL    HW111065   0.355   5.091   1.985  0.8764  0.7576  0.9335
 3208SOL    HW211066   0.223   5.164   1.972 -0.3227 -1.4185  0.4177
 3209SOL     OW11067   7.305   5.028   3.817  0.6780 -0.1894 -0.1415
 3209SOL    HW111068   7.376   4.996   3.761  0.7454 -1.1687  0.4711
 3209SOL    HW211069   7.338   5.015   3.906 -0.2839 -0.6770  0.1524
 3210SOL     OW11070   7.971   3.734   2.930 -0.0166 -0.1024  0.4396
 3210SOL    HW111071   7.911   3.778   2.870 -0.0585 -0.9794 -0.1659
 3210SOL    HW211072   8.037   3.693   2.873  0.1044 -0.7043  1.0037
 3211SOL     OW11073   3.775   3.536   4.813 -0.0296  0.0160 -0.2026
 3211SOL    HW111074   3.851   3.593   4.804  0.1260  0.0326  1.0422
 3211SOL    HW211075   3.807   3.449   4.791  0.4370 -0.0245  0.5909
 3212SOL     OW11076   7.920   4.440   3.024 -0.4793  0.1567  0.3270
 3212SOL    HW111077   7.902   4.390   3.103  0.0203  0.3411  0.5595
 3212SOL    HW211078   7.982   4.386   2.975 -1.3294 -0.2940 -0.2875
 3213SOL     OW11079   0.541   6.189   0.634 -0.0690  0.3084 -0.5469
 3213SOL    HW111080   0.609   6.208   0.569  1.0369  1.2025  0.8158
 3213SOL    HW211081   0.509   6.102   0.609  1.7681 -0.2803 -1.0837
 3214SOL     OW11082   6.981   6.211   2.447 -0.0117  0.0462 -0.7456
 3214SOL    HW111083   6.974   6.189   2.540  1.1898  1.0143 -0.4055
 3214SOL    HW211084   6.891   6.226   2.419 -0.2970  0.8965  0.5599
 3215SOL     OW11085   7.094   6.040   3.775  0.4122  0.0843 -0.4640
 3215SOL    HW111086   7.117   6.129   3.802  0.4996 -0.1394  0.2205
 3215SOL    HW211087   7.178   5.994   3.769  0.6067  0.6363 -3.0855
 3216SOL     OW11088   1.341   6.567   3.779  0.8694 -0.0313 -0.1515
 3216SOL    HW111089   1.276   6.634   3.761  1.3813  0.4926 -0.0970
 3216SOL    HW211090   1.292   6.494   3.816  0.3112  0.3290 -0.1789
 3217SOL     OW11091   0.019   4.236   2.852 -0.3643  0.0050  0.4189
 3217SOL    HW111092   0.106   4.205   2.825 -0.5170 -0.6378  0.6720
 3217SOL    HW211093  -0.014   4.283   2.775  1.6977  3.5076  1.4227
 3218SOL     OW11094   7.873   4.201   5.580 -0.3198 -0.5665  0.0834
 3218SOL    HW111095   7.848   4.146   5.654 -0.4649 -0.5913  0.0164
 3218SOL    HW211096   7.953   4.245   5.608 -0.4980 -0.4054  0.3366
 3219SOL     OW11097   0.743   3.630   2.624  0.7444 -0.4054  0.2345
 3219SOL    HW111098   0.779   3.676   2.547 -3.1226  0.1291 -1.4789
 3219SOL    HW211099   0.716   3.545   2.590  0.1666 -0.6733  1.3361
 3220SOL     OW11100   1.328   3.501   1.276  0.0964 -0.3390  0.2711
 3220SOL    HW111101   1.238   3.470   1.269 -0.1226  0.5148 -1.2550
 3220SOL    HW211102   1.381   3.421   1.276 -0.5216 -0.8453 -2.1374
 3221SOL     OW11103   7.704   3.720   6.601 -0.4946 -0.2323  0.0247
 3221SOL    HW111104   7.718   3.669   6.522 -2.0957 -0.7584  0.0424
 3221SOL    HW211105   7.636   3.672   6.649  1.0615 -0.4274  2.1672
 3222SOL     OW11106   1.390   4.553   2.404 -0.2601 -0.2541  0.3614
 3222SOL    HW111107   1.336   4.583   2.477 -0.3763  0.4857 -0.0202
 3222SOL    HW211108   1.334   4.563   2.327 -0.3720 -1.6385  0.2217
 3223SOL     OW11109   1.168   4.872   3.988  0.5387 -0.8163 -0.2162
 3223SOL    HW111110   1.179   4.939   3.920 -0.1261 -0.3503  0.1162
 3223SOL    HW211111   1.257   4.843   4.008  0.8078 -0.3177 -0.6527
 3224SOL     OW11112   0.218   5.324   2.962  0.3843  0.5685  0.5306
 3224SOL    HW111113   0.300   5.370   2.978  1.1705 -0.7360  0.3304
 3224SOL    HW211114   0.184   5.363   2.881  0.7573  1.1753  0.6614
 3225SOL     OW11115   7.487   4.095   2.789 -0.2511  0.3551  0.0698
 3225SOL    HW111116   7.560   4.077   2.730 -0.1061  0.4225  0.2279
 3225SOL    HW211117   7.527   4.134   2.866 -0.4001 -0.0890  0.3759
 3226SOL     OW11118   7.576   5.476   2.728 -0.0937 -0.1732  0.1814
 3226SOL    HW111119   7.527   5.553   2.701 -0.0528 -0.7645 -1.7552
 3226SOL    HW211120   7.633   5.457   2.653  1.6697 -0.6581  1.5879
 3227SOL     OW11121   7.529   5.000   2.098  0.0194  0.3423 -0.1058
 3227SOL    HW111122   7.440   5.014   2.066 -1.1080 -1.0161  2.1589
 3227SOL    HW211123   7.552   4.913   2.066  0.8920  0.9933 -1.3307
 3228SOL     OW11124   7.267   5.740   3.532 -0.5326  0.0827 -0.0132
 3228SOL    HW111125   7.332   5.671   3.545 -1.3294 -0.7446 -0.2298
 3228SOL    HW211126   7.183   5.693   3.531 -1.2094  1.2248  1.1596
 3229SOL     OW11127   1.041   5.492   2.694 -0.1881 -0.5964 -0.3795
 3229SOL    HW111128   1.000   5.406   2.691  1.5893 -1.4644 -0.7881
 3229SOL    HW211129   1.078   5.504   2.606  0.5141  0.1096  0.0055
 3230SOL     OW11130   6.694   3.984   3.725  0.1089  0.0961  0.3496
 3230SOL    HW111131   6.635   4.021   3.659 -0.7849  0.3517  1.2645
 3230SOL    HW211132   6.696   4.050   3.794  0.5232 -0.4502  0.8683
 3231SOL     OW11133   1.020   6.509   4.875 -0.5220  0.4891  0.5361
 3231SOL    HW111134   1.008   6.558   4.956  1.6735 -0.3385  1.4232
 3231SOL    HW211135   1.001   6.419   4.897 -2.0230  0.5313 -0.4509
 3232SOL     OW11136   2.054   2.359   2.231 -0.1670 -0.0136  0.1409
 3232SOL    HW111137   2.107   2.355   2.151  0.6253 -0.5197  0.6699
 3232SOL    HW211138   1.964   2.362   2.200 -0.0176 -2.4776 -0.7761
 3233SOL     OW11139   0.368   4.612   3.737  0.1714 -0.2653 -0.2802
 3233SOL    HW111140   0.337   4.682   3.795  1.6948  1.6872 -1.6911
 3233SOL    HW211141   0.460   4.631   3.724  0.4842 -2.2272 -1.2437
 3234SOL     OW11142   7.883   5.577   4.003 -0.0776  0.0638  0.1407
 3234SOL    HW111143   7.919   5.639   3.940 -0.1345 -1.2317 -1.2370
 3234SOL    HW211144   7.955   5.517   4.022 -0.4382 -0.3361  0.2788
 3235SOL     OW11145   2.586   6.043   3.416 -0.2261 -0.0006 -0.0295
 3235SOL    HW111146   2.651   6.015   3.352  0.2296 -0.4463  0.6157
 3235SOL    HW211147   2.505   6.053   3.366 -0.1278 -1.3716 -0.4863
 3236SOL     OW11148   2.221   5.378   3.649 -0.0594 -0.0642  0.5558
 3236SOL    HW111149   2.144   5.327   3.622  0.3107 -0.0888 -0.4863
 3236SOL    HW211150   2.260   5.326   3.720 -0.4139 -0.5935  0.3687
 3237SOL     OW11151   1.560   4.751  11.839  0.2431 -0.4648 -0.0409
 3237SOL    HW111152   1.614   4.788  11.909 -0.3020 -0.5824  0.4572
 3237SOL    HW211153   1.545   4.660  11.866  0.1896 -0.5662 -0.4100
 3238SOL     OW11154   0.806   6.203   5.081  0.7593 -0.5889 -0.3216
 3238SOL    HW111155   0.901   6.201   5.065  0.7488 -0.0848 -0.4587
 3238SOL    HW211156   0.791   6.286   5.127  0.2818 -0.3115 -0.9701
 3239SOL     OW11157   0.315   1.264   1.367 -0.3482  0.7347  0.3084
 3239SOL    HW111158   0.398   1.253   1.413 -0.6833  1.0816  1.0172
 3239SOL    HW211159   0.259   1.310   1.430 -0.7541  1.4162 -0.5281
 3240SOL     OW11160   7.310   4.210   1.079 -0.2613  0.3927 -0.0366
 3240SOL    HW111161   7.331   4.127   1.037  3.7345  0.5888  1.1416
 3240SOL    HW211162   7.240   4.190   1.141 -0.4822 -1.7086 -0.9045
 3241SOL     OW11163   0.845   4.862   1.917 -0.0894 -0.5815  0.2789
 3241SOL    HW111164   0.918   4.801   1.928 -0.1746 -0.8576 -0.5901
 3241SOL    HW211165   0.791   4.849   1.994  1.0885  0.0803  1.2655
 3242SOL     OW11166   2.220   5.094   3.189 -0.5111  0.3719 -0.0273
 3242SOL    HW111167   2.312   5.105   3.212 -0.5701 -1.0026  1.0422
 3242SOL    HW211168   2.190   5.182   3.167  1.2036  0.7417 -1.0514
 3243SOL     OW11169   0.830   4.181   3.434  0.3032 -0.0763  0.0092
 3243SOL    HW111170   0.783   4.258   3.466  0.5144  1.5196 -3.1304
 3243SOL    HW211171   0.762   4.117   3.416 -0.2793  0.6537 -0.4698
 3244SOL     OW11172   2.188   6.741   1.661 -0.2387  0.7877 -0.4852
 3244SOL    HW111173   2.158   6.651   1.663  0.1304  0.6384 -1.1895
 3244SOL    HW211174   2.122   6.790   1.710  0.5356 -0.1294  1.6055
 3245SOL     OW11175   7.892   4.462   2.657  0.4551 -0.1439 -0.7909
 3245SOL    HW111176   7.797   4.472   2.650  0.1940 -0.5342  1.4649
 3245SOL    HW211177   7.924   4.551   2.674  0.7005  0.2143 -2.8303
 3246SOL     OW11178   1.734   5.281   2.857 -0.0869  0.0775  0.3234
 3246SOL    HW111179   1.829   5.287   2.852 -0.1686  0.2852 -1.4040
 3246SOL    HW211180   1.714   5.291   2.950  1.6474 -1.1062  0.8614
 3247SOL     OW11181   7.339   4.945   1.273 -0.2643 -0.4702  0.1702
 3247SOL    HW111182   7.310   4.889   1.201  0.3704 -0.0508 -0.4332
 3247SOL    HW211183   7.425   4.978   1.244 -0.6152  0.7951  0.5063
 3248SOL     OW11184   0.931   4.017   3.163  0.4389  0.5632 -0.5707
 3248SOL    HW111185   0.972   3.992   3.080 -1.7305 -0.5675 -1.3822
 3248SOL    HW211186   0.852   3.964   3.168  0.5038  0.5656  2.2856
 3249SOL     OW11187   0.198   4.866   3.487  0.2439  0.3299 -0.6110
 3249SOL    HW111188   0.131   4.838   3.549  0.4372  3.2693  1.1022
 3249SOL    HW211189   0.267   4.800   3.495 -0.0763  0.2110  1.8170
 3250SOL     OW11190   3.256   3.091   4.301 -0.4461  0.0783  0.1984
 3250SOL    HW111191   3.317   3.160   4.328  1.4586 -1.3322 -0.2991
 3250SOL    HW211192   3.173   3.136   4.290  0.6638  2.2565  0.1579
 3251SOL     OW11193   1.894   6.307   3.386  0.3026  0.0246  0.1793
 3251SOL    HW111194   1.944   6.316   3.305 -0.6797  1.0713 -0.3374
 3251SOL    HW211195   1.807   6.277   3.358  0.6317 -1.9718  1.0723
 3252SOL     OW11196   1.876   3.615   4.079 -0.5988 -0.5471  0.3726
 3252SOL    HW111197   1.834   3.595   3.995 -2.3886  0.1715  1.0355
 3252SOL    HW211198   1.927   3.694   4.062 -0.0571 -1.0265 -0.2839
 3253SOL     OW11199   0.036   3.602   3.805  0.0584  0.3956 -0.2888
 3253SOL    HW111200  -0.058   3.609   3.820  0.2304  0.2280  0.9444
 3253SOL    HW211201   0.049   3.634   3.716 -1.1898  0.2052 -0.5488
 3254SOL     OW11202   2.259   4.893   0.472  0.0836 -0.5735 -0.9284
 3254SOL    HW111203   2.306   4.956   0.527  0.1512 -0.1667 -1.4480
 3254SOL    HW211204   2.190   4.945   0.430 -1.8758 -1.4569  1.0315
 3255SOL     OW11205   7.474   5.621   5.190  0.1390 -1.0879 -0.5675
 3255SOL    HW111206   7.387   5.586   5.210 -0.4076  0.1805 -0.5946
 3255SOL    HW211207   7.488   5.689   5.255  0.2566  0.0454 -1.7350
 3256SOL     OW11208   0.438   5.499   2.929 -0.3043  0.0293 -0.2025
 3256SOL    HW111209   0.473   5.582   2.896  0.4209 -0.6941 -1.3077
 3256SOL    HW211210   0.466   5.496   3.021 -0.5830  1.1230 -0.0675
 3257SOL     OW11211   0.242   5.247   2.451 -0.3577 -0.2709  0.1773
 3257SOL    HW111212   0.262   5.333   2.488 -1.2614  0.0241  0.0163
 3257SOL    HW211213   0.167   5.216   2.501 -2.8157  0.9442 -2.4615
 3258SOL     OW11214   0.760   5.184   3.185 -0.8809 -0.4892  0.1844
 3258SOL    HW111215   0.809   5.108   3.217 -1.9782 -1.3533 -0.0963
 3258SOL    HW211216   0.813   5.259   3.210  0.6194 -1.3819 -0.1933
 3259SOL     OW11217   1.838   6.692   3.117  0.3164  0.2307 -0.2178
 3259SOL    HW111218   1.857   6.759   3.184  0.0791  1.6551 -1.5176
 3259SOL    HW211219   1.857   6.736   3.034  0.2606 -1.3859 -1.1111
 3260SOL     OW11220   2.493   4.260   3.506 -0.3902  0.5719  0.3939
 3260SOL    HW111221   2.412   4.297   3.540 -0.8027  0.1776 -0.1432
 3260SOL    HW211222   2.562   4.311   3.548 -0.9166  1.0414  0.7045
 3261SOL     OW11223   2.021   4.003   5.132 -0.2364 -0.0879 -0.4936
 3261SOL    HW111224   2.017   4.096   5.111 -0.9028 -0.1087 -0.4796
 3261SOL    HW211225   2.107   3.991   5.173 -0.2705  0.5768 -0.2168
 3262SOL     OW11226   0.556   4.953   4.363  0.1111 -0.3925  0.6376
 3262SOL    HW111227   0.466   4.942   4.331  0.2152 -0.6730  0.4381
 3262SOL    HW211228   0.599   4.869   4.343  0.4173 -0.2566  0.7254
 3263SOL     OW11229   0.475   3.465   1.902  0.3848 -0.8606  0.0297
 3263SOL    HW111230   0.486   3.414   1.982 -0.2546 -0.3753  0.4388
 3263SOL    HW211231   0.406   3.528   1.923  0.3704 -0.5746 -0.8304
 3264SOL     OW11232   0.927   4.092   0.714 -0.1569  0.6011 -0.4035
 3264SOL    HW111233   0.833   4.105   0.718  0.0165  1.8905  0.0399
 3264SOL    HW211234   0.952   4.123   0.627 -0.1401  0.2942 -0.5076
 3265SOL     OW11235   0.416   4.538   2.409 -0.3715  0.5312  0.0782
 3265SOL    HW111236   0.358   4.503   2.341  0.7992 -0.0709 -0.6453
 3265SOL    HW211237   0.358   4.557   2.483 -1.7117  1.3294 -1.1149
 3266SOL     OW11238   2.167   3.581   4.572 -0.0749  0.6202  0.2050
 3266SOL    HW111239   2.093   3.524   4.592 -0.5201  0.9304 -0.5246
 3266SOL    HW211240   2.242   3.536   4.610  0.2271 -2.3845 -3.3657
 3267SOL     OW11241   7.259   5.118   3.462  0.0212 -0.1820 -0.8328
 3267SOL    HW111242   7.276   5.024   3.459 -1.9618 -0.5786 -0.6803
 3267SOL    HW211243   7.345   5.157   3.481  1.1645 -1.8269 -2.2408
 3268SOL     OW11244   1.925   4.826   2.657  0.6174  1.0370 -0.2036
 3268SOL    HW111245   1.940   4.820   2.751  0.4929  1.2245 -0.1713
 3268SOL    HW211246   1.986   4.763   2.619 -1.0782 -0.9374  0.1603
 3269SOL     OW11247   1.835   5.404   3.833  0.2651  0.5539  0.0074
 3269SOL    HW111248   1.844   5.319   3.792  0.7493 -0.6113  2.3721
 3269SOL    HW211249   1.745   5.405   3.866  0.8058  0.1128  1.6117
 3270SOL     OW11250   0.635   4.808   4.026  0.3810 -0.1743 -0.2515
 3270SOL    HW111251   0.674   4.888   4.061 -1.7246  2.0105 -2.5114
 3270SOL    HW211252   0.688   4.785   3.950 -0.0533  0.1580 -0.6622
 3271SOL     OW11253   7.898   4.249   0.839 -0.5080  0.0039  0.1551
 3271SOL    HW111254   7.884   4.178   0.778 -0.2152  0.1566 -0.0921
 3271SOL    HW211255   7.957   4.309   0.794 -1.3808  0.7978  0.0485
 3272SOL     OW11256   1.549   6.236   2.721 -0.1332 -0.1683 -0.8864
 3272SOL    HW111257   1.520   6.292   2.794  1.4008  0.1603 -0.4723
 3272SOL    HW211258   1.645   6.242   2.724  0.0862 -2.7254 -0.9254
 3273SOL     OW11259   0.295   3.288   5.316  0.5456  0.2688  0.6104
 3273SOL    HW111260   0.202   3.266   5.324  0.4249 -1.2005 -2.9515
 3273SOL    HW211261   0.326   3.292   5.406 -2.4891 -1.3795  1.8962
 3274SOL     OW11262   7.342   5.471   4.736 -0.0090 -0.2315  0.1736
 3274SOL    HW111263   7.338   5.537   4.805 -1.0607  2.2107 -2.0618
 3274SOL    HW211264   7.254   5.434   4.733  0.3462 -1.1883  0.8334
 3275SOL     OW11265   0.545   0.205   2.399  0.0526 -0.1354 -0.0356
 3275SOL    HW111266   0.464   0.162   2.373  0.1188  0.0143 -0.4932
 3275SOL    HW211267   0.545   0.200   2.495 -0.8814  0.5545  0.0137
 3276SOL     OW11268   1.201   6.174   4.011 -0.4126  0.2442 -0.6777
 3276SOL    HW111269   1.144   6.220   4.072 -0.3866  1.1714 -1.3251
 3276SOL    HW211270   1.186   6.081   4.028 -0.9640  0.4900  0.2062
 3277SOL     OW11271   1.080   2.980   4.253  0.0488 -0.1006  0.3334
 3277SOL    HW111272   1.112   3.040   4.320  1.2982 -0.7474  0.3504
 3277SOL    HW211273   1.159   2.953   4.205 -0.6000 -0.9820 -0.2838
 3278SOL     OW11274   2.053   4.697   4.462  0.3270 -0.1128  0.6099
 3278SOL    HW111275   1.973   4.645   4.458 -0.4382  1.0979 -0.6703
 3278SOL    HW211276   2.034   4.766   4.525  0.1256  0.5330 -0.1466
 3279SOL     OW11277   0.150   3.318   2.671  0.0725 -0.3939  1.3606
 3279SOL    HW111278   0.169   3.237   2.624  1.6367  0.2916  0.7456
 3279SOL    HW211279   0.073   3.297   2.725  0.1149 -2.1039  0.8129
 3280SOL     OW11280   1.120   5.848   2.631  0.2613  0.4290 -0.2126
 3280SOL    HW111281   1.214   5.867   2.633  0.2360  0.5296  0.0746
 3280SOL    HW211282   1.082   5.905   2.698 -0.1351  1.1183 -0.9970
 3281SOL     OW11283   1.661   3.717   3.812 -0.1628 -0.3380  0.2836
 3281SOL    HW111284   1.610   3.636   3.815 -0.7329  0.0278  1.1492
 3281SOL    HW211285   1.623   3.767   3.740 -0.3973 -0.4781  0.3100
 3282SOL     OW11286   6.686   5.922   3.092  0.0860 -0.3827 -0.0759
 3282SOL    HW111287   6.694   5.887   3.003  0.9595 -0.1499 -0.0934
 3282SOL    HW211288   6.691   5.845   3.148 -2.9725 -0.8726 -0.2667
 3283SOL     OW11289   7.713   6.294   4.192 -0.2138 -0.3781  0.1444
 3283SOL    HW111290   7.751   6.235   4.126 -1.4110 -0.6511 -0.3336
 3283SOL    HW211291   7.659   6.236   4.247 -1.0912  0.1969 -0.0887
 3284SOL     OW11292   1.354   3.278   1.868 -0.1263 -0.1234  0.3527
 3284SOL    HW111293   1.399   3.245   1.946  1.5039  1.1520  0.0234
 3284SOL    HW211294   1.359   3.373   1.876 -1.3179  0.0377 -0.5588
 3285SOL     OW11295   2.001   2.783   2.296  0.5104 -0.1526  0.2830
 3285SOL    HW111296   2.077   2.818   2.249 -0.0504  0.9337  0.1458
 3285SOL    HW211297   1.946   2.860   2.313 -0.5941 -0.9222  0.3122
 3286SOL     OW11298   7.332   4.866   1.717  0.3827 -0.0265 -0.0786
 3286SOL    HW111299   7.418   4.825   1.707  0.8202  1.1994 -1.7285
 3286SOL    HW211300   7.306   4.890   1.628 -1.4939  0.0186  0.4286
 3287SOL     OW11301   6.832   7.962   2.742 -0.2152 -0.0151 -0.0445
 3287SOL    HW111302   6.894   7.902   2.783 -1.1492 -0.1667  1.2398
 3287SOL    HW211303   6.758   7.907   2.717  0.6191 -0.0414 -2.6876
 3288SOL     OW11304   2.512   3.566   2.592 -0.0674  0.7432 -0.5411
 3288SOL    HW111305   2.469   3.524   2.667 -0.3492  0.6770 -0.7369
 3288SOL    HW211306   2.477   3.656   2.593 -0.8613  0.4465 -1.2028
 3289SOL     OW11307   1.666   4.933   3.746  0.3703 -0.2768 -0.0692
 3289SOL    HW111308   1.657   4.838   3.758  2.0020 -0.5410 -0.7759
 3289SOL    HW211309   1.627   4.970   3.826 -2.5415 -1.3869 -0.8391
 3290SOL     OW11310   0.167   4.713   5.506 -0.0231  0.0006  0.9525
 3290SOL    HW111311   0.073   4.707   5.522  0.0577 -0.5669  1.2131
 3290SOL    HW211312   0.207   4.651   5.567  0.6356  1.2635  1.8757
 3291SOL     OW11313   5.884   4.090   4.254  0.3610 -0.2751 -0.3772
 3291SOL    HW111314   5.794   4.065   4.279  0.8262 -0.1648  1.5753
 3291SOL    HW211315   5.930   4.098   4.337  1.5849  2.0634 -1.1997
 3292SOL     OW11316   0.200   4.671   6.407  0.3922 -0.0370 -0.2243
 3292SOL    HW111317   0.220   4.613   6.333 -1.4414  0.1580 -0.9180
 3292SOL    HW211318   0.157   4.614   6.471  1.4842 -0.0876  0.4915
 3293SOL     OW11319   0.792   5.757   5.039 -0.2545  0.1664  0.5228
 3293SOL    HW111320   0.784   5.828   5.103  0.1978  0.8787 -0.1904
 3293SOL    HW211321   0.718   5.700   5.057 -0.7673  0.9555  0.9614
 3294SOL     OW11322   1.171   2.448   5.422  0.0845  0.0217 -0.3002
 3294SOL    HW111323   1.138   2.508   5.488  0.4662 -1.2699  1.1153
 3294SOL    HW211324   1.228   2.502   5.367 -0.2685  1.1278  0.3856
 3295SOL     OW11325   2.216   4.130   3.931  0.3155 -0.1425 -0.2104
 3295SOL    HW111326   2.301   4.107   3.895  0.6563  0.1193  0.4180
 3295SOL    HW211327   2.226   4.121   4.026  0.7142  3.2100  0.1835
 3296SOL     OW11328   7.862   3.701   5.906 -0.1689  0.1720 -0.3551
 3296SOL    HW111329   7.791   3.744   5.858  0.0424  0.4785 -0.3961
 3296SOL    HW211330   7.830   3.695   5.996  0.1406  1.1947 -0.1687
 3297SOL     OW11331   0.747   3.301   6.629  0.1758  0.6232 -0.2069
 3297SOL    HW111332   0.674   3.356   6.660 -2.0929 -1.3161 -1.7191
 3297SOL    HW211333   0.788   3.269   6.709 -1.1612  1.1460  0.7313
 3298SOL     OW11334   0.185   5.882   4.209  0.0085 -1.0301 -0.1747
 3298SOL    HW111335   0.145   5.798   4.185 -0.6367 -0.6766 -0.3623
 3298SOL    HW211336   0.131   5.948   4.166  1.8841 -0.5833 -2.0170
 3299SOL     OW11337   1.334   6.312   6.842 -0.2281  0.0879  0.4658
 3299SOL    HW111338   1.397   6.267   6.898 -0.0410 -1.7785 -1.1253
 3299SOL    HW211339   1.257   6.254   6.841  0.1414 -0.4998 -1.8858
 3300SOL     OW11340   0.644   4.966   6.503  0.1536 -0.1266 -0.0377
 3300SOL    HW111341   0.702   4.982   6.428  0.1484  0.4159  0.0647
 3300SOL    HW211342   0.634   4.871   6.507  4.1539 -0.6642  2.2610
 3301SOL     OW11343   0.691   5.595   5.710  0.0926  0.3535 -0.0062
 3301SOL    HW111344   0.696   5.643   5.627 -1.5771  0.1350 -0.2770
 3301SOL    HW211345   0.659   5.508   5.684  2.0945 -0.6139  0.5875
 3302SOL     OW11346   2.166   5.831   6.622  0.2293  0.1184 -0.7522
 3302SOL    HW111347   2.251   5.802   6.653 -0.1732 -0.5437 -0.2453
 3302SOL    HW211348   2.178   5.846   6.528  1.2720  1.4269 -0.4482
 3303SOL     OW11349   1.018   4.345   6.178 -0.1902 -0.0424 -0.2494
 3303SOL    HW111350   1.080   4.416   6.164  0.6251 -0.8819 -1.0569
 3303SOL    HW211351   1.041   4.279   6.112 -1.7849 -0.4921 -0.3991
 3304SOL     OW11352   0.367   4.742   4.117 -0.1764 -0.9358  0.1581
 3304SOL    HW111353   0.315   4.753   4.038  1.4022 -0.1121 -0.8115
 3304SOL    HW211354   0.453   4.778   4.095  0.3755 -0.8805  2.1787
 3305SOL     OW11355   1.519   5.262   5.731  0.2686  0.4537 -0.0238
 3305SOL    HW111356   1.444   5.205   5.715 -0.1853  1.2809 -0.8542
 3305SOL    HW211357   1.501   5.302   5.816  1.2138 -1.5812  1.2298
 3306SOL     OW11358   7.678   7.519   3.016  0.2888 -0.2101  0.8042
 3306SOL    HW111359   7.606   7.581   3.028 -0.2207 -0.0832 -2.1397
 3306SOL    HW211360   7.756   7.574   3.010 -0.0534  0.1600 -0.9081
 3307SOL     OW11361   0.323   4.312   5.001  0.0551 -0.1493  0.2322
 3307SOL    HW111362   0.334   4.252   5.075 -0.9984 -1.2101 -0.4213
 3307SOL    HW211363   0.357   4.395   5.032  2.0080 -1.1703  1.0396
 3308SOL     OW11364   0.665   4.069   5.475  0.2567  0.4034  0.5874
 3308SOL    HW111365   0.695   4.151   5.437  1.3073  0.1535  0.8464
 3308SOL    HW211366   0.736   4.042   5.533 -0.0713 -0.6863  0.5003
 3309SOL     OW11367   0.688   4.652   4.711 -0.1573 -0.3828 -0.1735
 3309SOL    HW111368   0.709   4.651   4.804 -0.6664  0.0087 -0.0465
 3309SOL    HW211369   0.725   4.734   4.679 -1.7222  0.4988  0.1311
 3310SOL     OW11370   1.197   2.589   6.587 -0.4723  0.3933  0.1211
 3310SOL    HW111371   1.149   2.582   6.670  1.8357 -1.5083  1.4210
 3310SOL    HW211372   1.272   2.645   6.607  1.0488 -1.4584 -0.0950
 3311SOL     OW11373   7.876   3.948   3.088  0.0563  0.1502  0.0050
 3311SOL    HW111374   7.903   3.867   3.045  1.8165  0.7732 -0.1424
 3311SOL    HW211375   7.780   3.942   3.093 -0.3417  0.2037 -4.3200
 3312SOL     OW11376   2.521   5.459   3.607 -0.5401 -0.4053 -0.2719
 3312SOL    HW111377   2.588   5.393   3.589 -0.3418 -0.7128  1.4244
 3312SOL    HW211378   2.438   5.414   3.588 -0.3632 -0.7847 -0.1527
 3313SOL     OW11379   7.234   6.011   4.769  0.2147  0.0720 -0.1351
 3313SOL    HW111380   7.209   6.084   4.712 -1.2352 -0.7655 -0.6199
 3313SOL    HW211381   7.155   5.958   4.775  0.7239 -0.5198  1.6700
 3314SOL     OW11382   1.835   4.343   4.143 -0.5008  0.2511  0.2978
 3314SOL    HW111383   1.791   4.271   4.187 -1.6207  0.5738 -0.2625
 3314SOL    HW211384   1.901   4.301   4.087 -0.8192 -0.3034  0.3362
 3315SOL     OW11385   1.122   4.717   4.268  0.5125 -0.3617  0.3736
 3315SOL    HW111386   1.210   4.682   4.249  0.9599  0.6520  0.4996
 3315SOL    HW211387   1.139   4.800   4.313 -0.5157  0.1168 -0.0982
 3316SOL     OW11388   0.073   6.034   4.506  0.2632  0.2011  0.2432
 3316SOL    HW111389  -0.009   6.007   4.465  0.3204 -0.1338  0.3445
 3316SOL    HW211390   0.127   5.955   4.505  1.2540  0.8352 -1.4235
 3317SOL     OW11391   6.802   5.657   3.121 -0.1533 -0.5163  0.3900
 3317SOL    HW111392   6.887   5.699   3.136 -0.7830  1.4650 -1.1069
 3317SOL    HW211393   6.819   5.589   3.056  0.3710 -0.4913  0.5018
 3318SOL     OW11394   0.355   4.181   5.226  0.1272 -0.1828 -0.2233
 3318SOL    HW111395   0.276   4.143   5.265 -1.1790  1.6623 -0.8945
 3318SOL    HW211396   0.412   4.199   5.300  0.0413 -1.7496  0.2565
 3319SOL     OW11397   7.799   2.661   4.212 -0.3311 -0.1247 -0.0762
 3319SOL    HW111398   7.753   2.601   4.152 -2.1271 -0.9696  2.0273
 3319SOL    HW211399   7.882   2.617   4.230 -0.8563 -1.1075  0.0209
 3320SOL     OW11400   7.611   4.268   4.781 -0.4890  0.0598  0.1216
 3320SOL    HW111401   7.562   4.346   4.809 -1.1328 -0.9494  2.0639
 3320SOL    HW211402   7.652   4.293   4.699 -2.0645  1.8769 -0.1895
 3321SOL     OW11403   2.820   4.475   4.178  0.3446  0.4029  0.0380
 3321SOL    HW111404   2.877   4.398   4.184 -0.1297  0.0501  0.1071
 3321SOL    HW211405   2.841   4.514   4.093 -0.0075 -0.2911 -0.3847
 3322SOL     OW11406   1.399   4.495   4.751 -0.0255 -0.1942  0.1886
 3322SOL    HW111407   1.470   4.471   4.690 -0.3542  1.0171 -0.7091
 3322SOL    HW211408   1.420   4.448   4.832 -0.2557 -2.9149 -1.1965
 3323SOL     OW11409   7.700   2.082   5.404 -0.0878  0.2011 -0.7250
 3323SOL    HW111410   7.662   2.162   5.439 -0.1073  0.1139 -0.5404
 3323SOL    HW211411   7.736   2.106   5.319  2.9518  1.2371  0.7283
 3324SOL     OW11412   2.084   2.857   5.584 -0.3874  0.0031 -0.1165
 3324SOL    HW111413   2.038   2.925   5.535  1.5851  1.0970 -0.5526
 3324SOL    HW211414   2.136   2.810   5.518 -0.3042 -0.7373  0.4565
 3325SOL     OW11415   0.534   5.315   6.340 -0.4592  0.2308  0.0836
 3325SOL    HW111416   0.478   5.362   6.278 -1.3868 -0.4433  0.3785
 3325SOL    HW211417   0.477   5.299   6.415  1.0166  2.1790  1.6956
 3326SOL     OW11418   0.896   3.514   3.730  0.2801  0.1254  0.0739
 3326SOL    HW111419   0.941   3.433   3.707  0.0760 -0.4457  1.5931
 3326SOL    HW211420   0.843   3.492   3.807 -2.8901  0.6674 -1.7523
 3327SOL     OW11421   1.587   3.240   4.964 -0.2028 -0.7775 -0.3025
 3327SOL    HW111422   1.502   3.280   4.985  0.3638 -0.8722  2.5043
 3327SOL    HW211423   1.568   3.146   4.958 -0.3891 -0.7380 -0.3424
 3328SOL     OW11424   2.447   3.255   4.612 -0.1497 -0.2289 -0.0847
 3328SOL    HW111425   2.498   3.220   4.540  0.8940 -2.5350  1.6288
 3328SOL    HW211426   2.504   3.318   4.655 -1.0420  1.7218 -1.5862
 3329SOL     OW11427   0.857   4.600   6.917 -0.2311 -0.5342 -0.0802
 3329SOL    HW111428   0.906   4.547   6.854  1.2129 -0.1284  0.6397
 3329SOL    HW211429   0.890   4.689   6.903 -2.6299  0.2497 -1.2916
 3330SOL     OW11430   0.849   2.466   6.697  0.6459 -0.1314 -0.3400
 3330SOL    HW111431   0.780   2.509   6.747  1.8058 -1.2186  2.3585
 3330SOL    HW211432   0.808   2.388   6.660 -0.8167  1.8079 -3.2010
 3331SOL     OW11433   2.115   3.770   6.112 -0.4350  0.1696 -0.2921
 3331SOL    HW111434   2.179   3.704   6.140 -0.0031  0.3835 -0.7622
 3331SOL    HW211435   2.133   3.846   6.168  2.5310  1.7594 -3.0542
 3332SOL     OW11436   1.950   4.557   5.830 -0.2397  0.0095 -0.2709
 3332SOL    HW111437   1.991   4.482   5.872 -0.5787 -1.1802 -1.9327
 3332SOL    HW211438   2.017   4.590   5.770 -0.1749  0.9051  0.2858
 3333SOL     OW11439   1.308   2.599   4.629  0.0641  0.1750 -0.1489
 3333SOL    HW111440   1.351   2.679   4.598  0.2513 -0.2340 -0.9661
 3333SOL    HW211441   1.376   2.532   4.629 -0.1986 -0.0996  0.0877
 3334SOL     OW11442   7.900   3.164   4.965  0.2333  0.4819 -0.0223
 3334SOL    HW111443   7.853   3.135   4.887  1.1696  1.1985 -0.8683
 3334SOL    HW211444   7.892   3.091   5.027  0.9894 -0.8433 -1.4318
 3335SOL     OW11445   0.264   3.947   6.952  0.4258 -0.2303  0.1781
 3335SOL    HW111446   0.354   3.964   6.980  0.7627  1.4988 -1.6948
 3335SOL    HW211447   0.272   3.880   6.885  0.7812  1.8464 -2.0220
 3336SOL     OW11448   7.342   5.103   4.342  0.1150  0.3654  0.0735
 3336SOL    HW111449   7.392   5.145   4.412  0.4729  0.1040 -0.0221
 3336SOL    HW211450   7.297   5.031   4.385  0.1135  0.3761  0.0903
 3337SOL     OW11451   1.005   4.989   6.412 -0.4970 -0.4617 -1.0153
 3337SOL    HW111452   0.935   5.033   6.363  0.9071 -0.6606 -3.3435
 3337SOL    HW211453   1.060   4.949   6.344  2.0090 -0.1113  0.6855
 3338SOL     OW11454   1.817   3.829   3.259 -0.1023 -0.1200 -0.4843
 3338SOL    HW111455   1.791   3.911   3.216  0.3518  0.6460  0.6440
 3338SOL    HW211456   1.884   3.792   3.202 -0.3204  0.2925 -1.0179
 3339SOL     OW11457   2.219   2.283   5.266  0.3379 -0.0451 -0.2329
 3339SOL    HW111458   2.127   2.259   5.275  0.3846 -0.3149 -0.4485
 3339SOL    HW211459   2.260   2.253   5.347 -0.1073  1.7985  0.7185
 3340SOL     OW11460   2.180   4.035   4.478 -0.3747  0.1845  0.5404
 3340SOL    HW111461   2.162   4.080   4.395  0.2944 -0.7031 -0.1021
 3340SOL    HW211462   2.243   4.092   4.523  0.0675  0.1612 -0.0345
 3341SOL     OW11463   0.198   6.508   4.381  0.6268  0.5070 -0.4383
 3341SOL    HW111464   0.131   6.448   4.414  0.5641  0.1576 -1.1895
 3341SOL    HW211465   0.153   6.560   4.314  0.5816  1.6591  0.4585
 3342SOL     OW11466   1.135   4.557   4.652 -0.0155 -0.3966  0.1178
 3342SOL    HW111467   1.148   4.590   4.741 -0.3040 -1.2171  0.4783
 3342SOL    HW211468   1.209   4.498   4.637 -0.1568 -0.5314 -0.0539
 3343SOL     OW11469   1.997   3.448   5.007 -0.2152  0.1146 -0.1082
 3343SOL    HW111470   2.039   3.528   4.975 -0.2707 -0.8057 -2.7891
 3343SOL    HW211471   1.921   3.436   4.950 -2.5616  0.1791  2.7697
 3344SOL     OW11472   0.784   4.851   3.514 -0.1906 -0.4514  0.3762
 3344SOL    HW111473   0.878   4.834   3.506  0.2669  1.3135  1.5776
 3344SOL    HW211474   0.759   4.807   3.596  0.2894  1.6011  1.6959
 3345SOL     OW11475   1.607   3.919   4.832  0.1838 -0.0465 -0.3025
 3345SOL    HW111476   1.701   3.940   4.830  0.3699 -0.9438 -1.2837
 3345SOL    HW211477   1.600   3.847   4.894 -0.0405  0.7865  0.6774
 3346SOL     OW11478   1.159   5.222   6.052  0.0342 -0.3188  0.6529
 3346SOL    HW111479   1.117   5.290   6.105 -1.8860 -0.1373 -1.0145
 3346SOL    HW211480   1.098   5.148   6.055 -0.6620  0.0668 -2.0917
 3347SOL     OW11481   7.645   6.014   2.445 -0.0340 -0.0784 -0.0748
 3347SOL    HW111482   7.679   5.999   2.357  0.8403  0.4666  0.1581
 3347SOL    HW211483   7.558   5.975   2.444  0.7116 -1.8262 -0.5893
 3348SOL     OW11484   2.090   2.537   5.726  0.6643 -0.2295 -0.1372
 3348SOL    HW111485   2.035   2.612   5.746  1.2886  0.2075 -0.0481
 3348SOL    HW211486   2.070   2.474   5.796  0.0388 -0.2070 -0.2904
 3349SOL     OW11487   1.659   7.397   3.164 -0.4980  0.2422 -0.5053
 3349SOL    HW111488   1.627   7.309   3.144  0.2519 -0.0247 -0.5389
 3349SOL    HW211489   1.600   7.429   3.232 -0.9225 -0.1911 -0.6661
 3350SOL     OW11490   0.567   5.496   4.711 -0.4760 -0.2294 -0.4329
 3350SOL    HW111491   0.492   5.443   4.685 -1.1412  0.8352 -0.7580
 3350SOL    HW211492   0.643   5.438   4.702 -1.3195 -1.5544  0.5962
 3351SOL     OW11493   2.557   3.539   3.298  0.1184  0.3808  0.3968
 3351SOL    HW111494   2.554   3.634   3.286  1.8658  0.4689  0.4746
 3351SOL    HW211495   2.472   3.518   3.336 -0.7662  1.7491 -0.7048
 3352SOL     OW11496   0.255   4.890   6.058  0.1298  0.1522 -0.4153
 3352SOL    HW111497   0.336   4.841   6.041 -0.3219 -0.6064 -0.4075
 3352SOL    HW211498   0.202   4.876   5.980 -0.4114 -0.1931  0.0150
 3353SOL     OW11499   0.572   4.987   4.631 -0.2701  0.0091 -0.1503
 3353SOL    HW111500   0.554   4.969   4.539 -1.5315 -1.1217  0.2819
 3353SOL    HW211501   0.487   4.976   4.674  0.7402 -1.9864  1.5118
 3354SOL     OW11502   7.590   1.579   4.321  0.1113 -0.2905 -0.3010
 3354SOL    HW111503   7.561   1.489   4.305 -0.5343 -0.1306 -0.0527
 3354SOL    HW211504   7.593   1.619   4.234 -0.8862 -0.1749 -0.2929
 3355SOL     OW11505   1.633   3.151   7.315  0.4049 -0.0126 -0.0626
 3355SOL    HW111506   1.660   3.228   7.265 -0.0573 -0.6245 -1.3046
 3355SOL    HW211507   1.680   3.078   7.273 -1.4966 -0.8167 -0.9469
 3356SOL     OW11508   1.240   3.701   5.139  0.2667  0.3602  0.0873
 3356SOL    HW111509   1.299   3.710   5.064 -0.5283  0.7695 -0.4999
 3356SOL    HW211510   1.297   3.716   5.215  1.3481 -1.3154 -0.3296
 3357SOL     OW11511   0.813   4.398   3.848 -0.5427  0.2556 -0.2206
 3357SOL    HW111512   0.723   4.366   3.862 -0.4502  0.1959  0.2813
 3357SOL    HW211513   0.856   4.327   3.801 -0.6775  0.1608 -0.2030
 3358SOL     OW11514   0.418   6.683   5.541 -0.1273  0.3192 -0.1894
 3358SOL    HW111515   0.375   6.622   5.481  0.4567  0.6441 -0.9673
 3358SOL    HW211516   0.395   6.770   5.507 -0.8306  0.5314  0.8187
 3359SOL     OW11517   0.057   4.977   5.547 -0.2721 -0.9623  0.1043
 3359SOL    HW111518   0.115   4.914   5.591  0.7281 -2.0230 -2.5430
 3359SOL    HW211519   0.109   5.011   5.475 -0.9302  2.7309  1.1895
 3360SOL     OW11520   1.880   4.847   3.591 -0.0547 -0.0841  0.1838
 3360SOL    HW111521   1.817   4.911   3.623  0.9313  0.9680  0.0786
 3360SOL    HW211522   1.915   4.806   3.671 -0.5365 -0.3597  0.2581
 3361SOL     OW11523   1.073   2.666   5.586 -0.1847 -0.2016 -0.2785
 3361SOL    HW111524   1.098   2.757   5.571 -0.2129  0.2573  2.1348
 3361SOL    HW211525   0.981   2.662   5.560  0.1161  0.1432 -1.4599
 3362SOL     OW11526   2.275   4.843   4.080  0.6654 -0.1131 -0.4193
 3362SOL    HW111527   2.364   4.842   4.046  0.0679 -1.2343 -2.0374
 3362SOL    HW211528   2.233   4.916   4.033  0.7272  0.4588  0.3926
 3363SOL     OW11529   0.076   2.735   5.348 -0.4969 -0.2579 -0.0297
 3363SOL    HW111530   0.126   2.653   5.354 -1.8395 -1.0332  1.3814
 3363SOL    HW211531   0.142   2.802   5.330  0.8392 -1.4533  0.1908
 3364SOL     OW11532   1.096   3.912   4.307  0.0647 -0.1889 -0.3477
 3364SOL    HW111533   1.025   3.864   4.349  0.4526 -2.4283 -2.0509
 3364SOL    HW211534   1.063   3.933   4.220  1.2578 -0.7964 -0.9737
 3365SOL     OW11535   0.091   4.416   5.239 -0.2197  0.6837  0.1626
 3365SOL    HW111536   0.069   4.391   5.149 -0.6193 -1.2600  0.7463
 3365SOL    HW211537   0.053   4.503   5.250  0.8120  1.4763 -1.8873
 3366SOL     OW11538   1.851   5.624   4.559 -0.4578  0.1561 -0.2609
 3366SOL    HW111539   1.876   5.717   4.561  1.1508 -0.2312  2.3005
 3366SOL    HW211540   1.776   5.618   4.618  0.7287 -0.4543  1.2206
 3367SOL     OW11541   0.661   2.997   2.077  0.0024  0.3650  0.0014
 3367SOL    HW111542   0.691   3.081   2.043  1.2849 -0.1504 -0.2072
 3367SOL    HW211543   0.735   2.938   2.063  0.0630 -0.2292  2.3923
 3368SOL     OW11544   7.933   4.908   4.201 -0.1468 -0.1061 -0.0282
 3368SOL    HW111545   8.005   4.873   4.254  0.3365  0.5078 -0.2774
 3368SOL    HW211546   7.947   5.003   4.200  0.5851 -0.1808 -2.2960
 3369SOL     OW11547   1.250   4.040   3.268 -0.2001 -0.0102  0.3456
 3369SOL    HW111548   1.330   4.092   3.261 -0.2989  0.4911  2.3250
 3369SOL    HW211549   1.280   3.953   3.293 -0.1855 -0.3462 -0.7701
 3370SOL     OW11550   0.270   5.717   5.697 -0.0043  0.4798  0.5758
 3370SOL    HW111551   0.357   5.698   5.662 -0.5707 -0.3497 -0.4506
 3370SOL    HW211552   0.229   5.772   5.630 -1.0762 -1.0613 -0.0785
 3371SOL     OW11553   7.850   2.459   4.949 -0.1803 -0.2233  0.3757
 3371SOL    HW111554   7.863   2.553   4.937  0.2356 -0.3130  0.0877
 3371SOL    HW211555   7.770   2.439   4.901 -0.0808 -0.0754  0.1469
 3372SOL     OW11556   1.185   3.531   3.720  0.7885  0.2452 -0.4385
 3372SOL    HW111557   1.182   3.436   3.732 -0.1521  0.3610  0.3406
 3372SOL    HW211558   1.215   3.543   3.630  0.1795 -0.8057 -0.7976
 3373SOL     OW11559   1.222   3.653   3.490 -0.2294  0.2563  0.4876
 3373SOL    HW111560   1.222   3.675   3.397 -1.1657 -2.2508 -0.1877
 3373SOL    HW211561   1.178   3.727   3.532 -0.1043  1.2772 -1.0846
 3374SOL     OW11562   0.299   4.579   3.459  0.5294  0.1474  0.5601
 3374SOL    HW111563   0.229   4.514   3.450  0.2629  0.6132 -1.0085
 3374SOL    HW211564   0.327   4.571   3.550 -0.3370 -1.3000  0.7367
 3375SOL     OW11565   0.255   2.849   4.395  0.4906  0.3502  0.2077
 3375SOL    HW111566   0.347   2.826   4.404  0.1506 -0.8995  0.6327
 3375SOL    HW211567   0.221   2.850   4.484  0.5454  2.9672  0.2849
 3376SOL     OW11568   2.045   3.823   4.007 -0.2370  0.0275  0.4119
 3376SOL    HW111569   2.015   3.909   4.037 -1.1507 -0.0824 -0.1175
 3376SOL    HW211570   2.022   3.822   3.914  0.4776 -0.4936  0.2376
 3377SOL     OW11571   0.414   5.874   4.867  0.2939  0.1088 -0.2172
 3377SOL    HW111572   0.344   5.811   4.886  1.5292 -1.1322  0.3663
 3377SOL    HW211573   0.427   5.921   4.949  1.3147 -0.8875  0.2208
 3378SOL     OW11574   0.712   5.653   4.402 -0.1470  0.2363  0.0932
 3378SOL    HW111575   0.728   5.590   4.332  1.0323 -1.0148  1.4119
 3378SOL    HW211576   0.616   5.658   4.408 -0.2697  0.4053 -1.6032
 3379SOL     OW11577   0.943   4.242   4.238 -0.1316 -0.3883 -0.1356
 3379SOL    HW111578   0.859   4.252   4.193  0.0453  0.8341 -0.2252
 3379SOL    HW211579   0.981   4.162   4.201 -1.3989 -1.1682  0.1646
 3380SOL     OW11580   2.627   3.048   4.476 -0.1465  0.1361  0.3756
 3380SOL    HW111581   2.694   3.087   4.420 -0.8344  0.7868 -0.0119
 3380SOL    HW211582   2.656   2.958   4.490  0.8450  0.4359  0.2872
 3381SOL     OW11583   1.791   3.373   4.840 -0.2677 -0.0824 -0.3745
 3381SOL    HW111584   1.765   3.385   4.748 -2.1049  0.6558  0.1979
 3381SOL    HW211585   1.722   3.319   4.878  1.1867 -1.5707  0.2972
 3382SOL     OW11586   1.680   4.309   5.841  0.0932 -0.2129  0.0283
 3382SOL    HW111587   1.711   4.277   5.926 -1.9973 -1.9953  0.2193
 3382SOL    HW211588   1.650   4.230   5.796 -2.5372  1.1123 -0.7442
 3383SOL     OW11589   2.002   5.041   6.877 -0.1198  0.0644 -0.3120
 3383SOL    HW111590   1.950   4.961   6.860 -1.1230 -0.0716  2.8262
 3383SOL    HW211591   2.063   5.016   6.946  1.9625  1.1646 -1.6599
 3384SOL     OW11592   1.702   3.808   4.368  0.3488  0.0094  0.1239
 3384SOL    HW111593   1.623   3.849   4.332  1.3708  2.2224  0.2441
 3384SOL    HW211594   1.679   3.716   4.376 -1.5684  0.2486 -1.6465
 3385SOL     OW11595   2.010   4.522   5.135  0.0049 -0.2658  0.3755
 3385SOL    HW111596   2.024   4.477   5.219  0.0453 -1.7009 -0.3662
 3385SOL    HW211597   2.075   4.485   5.076 -0.9925 -0.3994 -0.6891
 3386SOL     OW11598   1.606   3.379   5.546 -0.2347 -0.6769 -0.1616
 3386SOL    HW111599   1.692   3.421   5.551 -0.1687 -0.9244  1.1140
 3386SOL    HW211600   1.616   3.296   5.592 -1.0793 -0.8570 -0.2763
 3387SOL     OW11601   0.810   6.893   7.102 -0.0092  0.1167 -0.9246
 3387SOL    HW111602   0.718   6.884   7.123  0.4778 -1.0199  0.9490
 3387SOL    HW211603   0.837   6.806   7.073  0.4853  0.4309 -1.4375
 3388SOL     OW11604   7.970   5.190   4.541  0.2453 -0.6367 -0.7125
 3388SOL    HW111605   7.916   5.188   4.620  0.9536 -2.2264 -0.2181
 3388SOL    HW211606   8.058   5.166   4.572  0.5408 -1.2274 -1.9665
 3389SOL     OW11607   0.589   1.855   6.298  0.4120 -0.5792 -0.1297
 3389SOL    HW111608   0.502   1.880   6.269  0.4715 -0.5436 -0.2763
 3389SOL    HW211609   0.632   1.939   6.317 -0.0180 -0.6256  1.2028
 3390SOL     OW11610   1.935   5.864   3.780 -0.2796  0.4517 -0.1800
 3390SOL    HW111611   2.012   5.907   3.743  1.3056  0.0892  2.4984
 3390SOL    HW211612   1.954   5.771   3.773  0.2521  0.3707  1.7742
 3391SOL     OW11613   0.479   6.675   6.029  0.0620  1.1734 -0.0874
 3391SOL    HW111614   0.448   6.762   6.054 -1.0327  0.3741  1.4787
 3391SOL    HW211615   0.481   6.678   5.933  0.4895  3.0509 -0.0593
 3392SOL     OW11616   0.438   3.898   4.755  0.7640 -0.3631 -0.5418
 3392SOL    HW111617   0.487   3.907   4.673  0.6914  0.1369 -0.5338
 3392SOL    HW211618   0.445   3.984   4.797  0.9910 -0.6797  0.0844
 3393SOL     OW11619   1.300   4.600   5.633  0.1563  0.3932  0.2698
 3393SOL    HW111620   1.218   4.645   5.654  1.0906  2.3133  0.0500
 3393SOL    HW211621   1.350   4.604   5.714  0.9019  1.3014 -0.2099
 3394SOL     OW11622   1.548   5.109   3.985 -0.0937  0.2205 -0.3596
 3394SOL    HW111623   1.544   5.175   3.916  0.2671  0.1840 -0.4178
 3394SOL    HW211624   1.639   5.111   4.014  0.5571 -1.9476 -2.0017
 3395SOL     OW11625   2.424   2.843   5.472 -0.1280  0.4334  0.3553
 3395SOL    HW111626   2.388   2.917   5.522 -1.4128  1.2214 -1.6147
 3395SOL    HW211627   2.474   2.883   5.402 -0.4008 -0.5648 -0.4308
 3396SOL     OW11628   2.114   4.188   4.246 -0.2333 -0.1485 -0.5369
 3396SOL    HW111629   2.181   4.244   4.206 -0.6346 -0.2095 -1.2930
 3396SOL    HW211630   2.063   4.248   4.301  0.7304 -0.1862  0.4469
 3397SOL     OW11631   7.329   6.966   3.898  0.6150  0.4136  0.1528
 3397SOL    HW111632   7.420   6.957   3.870  0.3598  1.0495 -0.9529
 3397SOL    HW211633   7.307   7.058   3.880  0.0242  0.5083  1.2686
 3398SOL     OW11634   7.335   2.903   5.913  0.3882 -0.2033  0.2828
 3398SOL    HW111635   7.261   2.963   5.911  0.1766 -0.4622  0.2873
 3398SOL    HW211636   7.386   2.925   5.836  0.8534  0.6594  0.8206
 3399SOL     OW11637   1.235   4.535   5.272 -0.0110  0.0058  0.5332
 3399SOL    HW111638   1.303   4.512   5.334  0.0642 -1.6519 -0.1084
 3399SOL    HW211639   1.209   4.624   5.296  0.6474 -0.2479  2.3347
 3400SOL     OW11640   1.736   5.499   5.780 -0.6356 -0.3823 -0.2273
 3400SOL    HW111641   1.778   5.553   5.848 -0.2308  0.6916 -1.2800
 3400SOL    HW211642   1.680   5.439   5.828 -1.4714  1.2997  1.0120
 3401SOL     OW11643   0.888   4.183   5.872  0.1351  0.0752 -0.0854
 3401SOL    HW111644   0.965   4.135   5.902 -0.6469 -0.7577  0.6659
 3401SOL    HW211645   0.853   4.130   5.800  0.2561  0.4376 -0.4096
 3402SOL     OW11646   0.618   3.917   4.177 -0.2300  0.1973  0.3372
 3402SOL    HW111647   0.533   3.874   4.174  0.2698 -1.1042  2.5990
 3402SOL    HW211648   0.682   3.846   4.180  0.8543  1.1220  0.2104
 3403SOL     OW11649   7.938   2.955   5.138  0.3554 -0.2109 -0.1459
 3403SOL    HW111650   7.868   2.901   5.174 -0.3384  0.8709  0.1742
 3403SOL    HW211651   7.984   2.989   5.215 -0.4133  1.1766 -0.2673
 3404SOL     OW11652   2.188   3.541   3.974  0.5246 -0.3348  0.6103
 3404SOL    HW111653   2.143   3.625   3.968  0.2177 -0.4789  0.8970
 3404SOL    HW211654   2.255   3.554   4.040  0.5519 -0.2833  0.5728
 3405SOL     OW11655   0.415   2.924   5.493  0.0806 -0.6741 -0.2775
 3405SOL    HW111656   0.377   2.837   5.486 -0.5218 -0.3304 -1.9302
 3405SOL    HW211657   0.410   2.946   5.586  0.2924 -2.4088  0.1643
 3406SOL     OW11658   0.382   4.019   5.855 -0.3595 -0.4245 -0.3991
 3406SOL    HW111659   0.445   4.090   5.838 -0.9047  0.1015 -0.2404
 3406SOL    HW211660   0.421   3.943   5.812  0.0986  0.0319 -0.8194
 3407SOL     OW11661   2.602   4.663   3.659 -0.2020  0.3231 -0.4762
 3407SOL    HW111662   2.642   4.576   3.669  2.1473  1.5390  1.8879
 3407SOL    HW211663   2.518   4.656   3.705  0.4952 -0.4129  0.7376
 3408SOL     OW11664   1.368   4.636   5.912  0.6489  0.6481  0.2208
 3408SOL    HW111665   1.316   4.594   5.981 -0.0198  0.9396 -0.0971
 3408SOL    HW211666   1.350   4.730   5.923 -3.1144  0.5793 -3.1004
 3409SOL     OW11667   7.427   3.013   5.675  0.9180  0.2479 -0.5657
 3409SOL    HW111668   7.340   3.052   5.661  0.2991 -0.9952 -0.3254
 3409SOL    HW211669   7.488   3.087   5.667 -0.0289  0.9112 -2.1878
 3410SOL     OW11670   2.623   2.557   3.532 -0.1261  0.2357  0.6864
 3410SOL    HW111671   2.641   2.564   3.625 -0.3766 -0.8848  0.8323
 3410SOL    HW211672   2.678   2.485   3.502 -0.1028  0.5327 -0.0190
 3411SOL     OW11673   1.096   3.264   4.078 -0.2649 -0.3588 -0.7779
 3411SOL    HW111674   1.010   3.303   4.060  0.0765 -0.4388 -2.7253
 3411SOL    HW211675   1.075   3.176   4.111 -0.9871  0.7990  2.1535
 3412SOL     OW11676   6.797   4.498   6.210  0.1000  0.4396  0.0922
 3412SOL    HW111677   6.741   4.463   6.280  0.3152  2.5162  1.3995
 3412SOL    HW211678   6.803   4.427   6.147 -0.7025 -1.2919  1.8406
 3413SOL     OW11679   2.394   6.187   5.686  0.4500  0.2219 -0.2088
 3413SOL    HW111680   2.489   6.194   5.691  0.5698 -1.0615 -0.4582
 3413SOL    HW211681   2.369   6.139   5.765  0.0163  0.4283 -0.2160
 3414SOL     OW11682   0.203   2.827   4.680  0.0498  0.1755  0.5250
 3414SOL    HW111683   0.281   2.871   4.715  0.4035 -1.2491  1.6487
 3414SOL    HW211684   0.134   2.847   4.743 -0.1131  0.2112  0.3333
 3415SOL     OW11685   1.500   3.547   4.093 -0.1474 -0.1442 -0.3099
 3415SOL    HW111686   1.474   3.626   4.045 -0.9059  1.3436  2.3353
 3415SOL    HW211687   1.427   3.487   4.082 -0.9693  0.7419  0.1270
 3416SOL     OW11688   1.703   2.020   3.134  0.1394 -0.5979  0.1193
 3416SOL    HW111689   1.754   2.049   3.058 -0.0828  0.3508  0.3284
 3416SOL    HW211690   1.626   1.977   3.096  0.3786 -0.7498 -0.1942
 3417SOL     OW11691   1.858   4.018   4.858 -0.4753  0.4736 -0.6694
 3417SOL    HW111692   1.870   4.113   4.854 -0.9180  0.5132 -1.4344
 3417SOL    HW211693   1.921   3.987   4.923 -0.4232  1.3064 -0.3213
 3418SOL     OW11694   0.412   3.838   6.510 -0.1594  0.1415  0.4934
 3418SOL    HW111695   0.417   3.799   6.423 -0.5188 -1.1319  1.0185
 3418SOL    HW211696   0.501   3.870   6.527  0.9424 -2.8781  1.0736
 3419SOL     OW11697   7.538   4.933   4.599  0.3324  0.1845 -0.2016
 3419SOL    HW111698   7.629   4.953   4.617  0.2460  0.4069 -0.0032
 3419SOL    HW211699   7.489   5.006   4.637  0.2019  1.1661 -2.1417
 3420SOL     OW11700   0.150   4.267   5.616  0.2482 -0.1413  0.3006
 3420SOL    HW111701   0.166   4.320   5.694 -0.7509 -0.7593  0.9584
 3420SOL    HW211702   0.208   4.304   5.549  0.4979  0.9536  1.0898
 3421SOL     OW11703   2.002   3.087   5.786  0.3359  0.3111  0.0861
 3421SOL    HW111704   1.924   3.033   5.774 -0.3745  1.6549 -1.9824
 3421SOL    HW211705   2.074   3.034   5.750 -0.3801  0.7183 -2.1047
 3422SOL     OW11706   6.718   5.619   3.894  0.3481 -0.6074  0.7834
 3422SOL    HW111707   6.680   5.705   3.877  1.4936  0.0108  1.3090
 3422SOL    HW211708   6.730   5.581   3.807 -0.4248 -0.3754  0.5611
 3423SOL     OW11709   0.988   3.632   4.918  0.3274  0.5839 -0.5546
 3423SOL    HW111710   0.957   3.698   4.856 -0.1078 -0.0191 -0.9832
 3423SOL    HW211711   0.961   3.665   5.004 -2.6858 -0.4926 -0.9624
 3424SOL     OW11712   6.962   2.886   6.177 -0.0753  0.2567  0.0930
 3424SOL    HW111713   7.005   2.848   6.253  1.7195  4.6123  1.5369
 3424SOL    HW211714   7.009   2.850   6.102  1.9350  0.0774  1.3666
 3425SOL     OW11715   0.613   3.091   5.345 -0.2293  0.0910 -0.7849
 3425SOL    HW111716   0.621   3.067   5.252  0.0766 -3.2931 -0.0431
 3425SOL    HW211717   0.524   3.066   5.368 -0.1615  0.4954 -0.0648
 3426SOL     OW11718   7.927   4.704   5.664  0.0299  0.2586 -0.3779
 3426SOL    HW111719   7.938   4.756   5.744 -1.1097 -1.1808  0.7695
 3426SOL    HW211720   7.853   4.647   5.683 -0.2912 -0.1069 -2.5060
 3427SOL     OW11721   0.660   3.305   5.930 -0.1959  0.0147  0.0467
 3427SOL    HW111722   0.676   3.219   5.968  0.7365  0.3501  0.4502
 3427SOL    HW211723   0.708   3.305   5.848  0.3951  0.3968  0.3898
 3428SOL     OW11724   7.112   4.959   5.800 -0.0263  0.3031  0.1699
 3428SOL    HW111725   7.178   4.893   5.823 -1.7613 -1.3761  0.5924
 3428SOL    HW211726   7.030   4.910   5.793 -1.1462  2.1975 -1.0049
 3429SOL     OW11727   1.593   3.895   3.576  0.0678  0.5617  1.0272
 3429SOL    HW111728   1.620   3.965   3.516  1.1007 -0.4517  0.2642
 3429SOL    HW211729   1.505   3.919   3.604 -0.7513  0.6907 -1.4874
 3430SOL     OW11730   2.549   5.583   6.409  0.4786  0.2439  0.5811
 3430SOL    HW111731   2.495   5.625   6.476  0.2391  1.0923 -0.1197
 3430SOL    HW211732   2.577   5.500   6.448 -0.6708  0.1598  1.2584
 3431SOL     OW11733   7.089   6.102   5.495  0.0926 -0.4200  0.0023
 3431SOL    HW111734   7.099   6.033   5.560 -0.2108  0.3399  0.8844
 3431SOL    HW211735   6.995   6.111   5.484  0.1438 -0.5529 -0.5544
 3432SOL     OW11736   0.207   4.347   5.942 -0.4358 -0.2215 -0.2937
 3432SOL    HW111737   0.283   4.394   5.974 -0.2078 -0.7311 -0.0653
 3432SOL    HW211738   0.203   4.268   5.996 -1.2981 -0.0617 -0.1043
 3433SOL     OW11739   0.965   0.693   8.223  0.2260 -1.0629 -0.8700
 3433SOL    HW111740   1.018   0.621   8.257  0.1002 -0.3015  1.0884
 3433SOL    HW211741   0.940   0.743   8.301 -0.1983  0.7518 -2.1034
 3434SOL     OW11742   7.646   5.006   4.198  0.1595 -0.3906  0.0688
 3434SOL    HW111743   7.739   4.986   4.200 -0.3535 -3.0172  0.8881
 3434SOL    HW211744   7.611   4.966   4.277 -1.6363  0.9013 -0.0005
 3435SOL     OW11745   0.038   6.142   5.024 -0.5109 -0.4263 -0.2861
 3435SOL    HW111746   0.017   6.051   5.044  0.8087 -0.6999 -0.0329
 3435SOL    HW211747   0.081   6.139   4.939  1.4061 -0.3492  0.6146
 3436SOL     OW11748   0.231   2.499   5.281  0.4756  0.0760  0.0033
 3436SOL    HW111749   0.288   2.423   5.274 -0.2579 -0.3391 -2.2910
 3436SOL    HW211750   0.180   2.498   5.200 -2.6020  0.5827  1.7884
 3437SOL     OW11751   0.239   5.691   5.371 -0.1338 -0.3057  0.3361
 3437SOL    HW111752   0.174   5.644   5.423 -0.7115 -0.7329 -0.7460
 3437SOL    HW211753   0.194   5.712   5.289  0.7938  0.2469 -0.0518
 3438SOL     OW11754   2.864   3.248   5.301 -0.6580  0.0307 -0.3729
 3438SOL    HW111755   2.866   3.309   5.375  2.9275 -1.0865  0.6550
 3438SOL    HW211756   2.816   3.173   5.334 -0.7623  0.3121  0.1393
 3439SOL     OW11757   0.934   4.567   5.338 -0.0029  0.5059  0.2592
 3439SOL    HW111758   0.939   4.625   5.414  3.8740  1.8053 -0.7878
 3439SOL    HW211759   0.994   4.496   5.358  0.4698  0.4513 -1.2087
 3440SOL     OW11760   0.766   3.028   4.400 -0.1675 -0.4395  0.1796
 3440SOL    HW111761   0.796   3.119   4.407 -0.9991 -0.2204  1.0003
 3440SOL    HW211762   0.818   2.980   4.464 -0.4794 -0.3417  0.5084
 3441SOL     OW11763   7.840   6.422   5.104 -0.0900  0.1684 -0.1443
 3441SOL    HW111764   7.884   6.345   5.069 -1.7104 -0.5357 -0.7436
 3441SOL    HW211765   7.882   6.438   5.189  0.6843 -0.9986 -0.2900
 3442SOL     OW11766   2.196   1.658   3.963 -0.2456  0.5950 -0.2901
 3442SOL    HW111767   2.259   1.668   4.034 -0.5681 -2.1070  0.5253
 3442SOL    HW211768   2.246   1.618   3.891  0.0015  2.9973 -1.5407
 3443SOL     OW11769   0.052   6.677   5.148 -0.4670  0.6945  0.5324
 3443SOL    HW111770   0.146   6.657   5.145 -0.7799 -0.8112 -0.6941
 3443SOL    HW211771   0.019   6.625   5.221 -0.3753  1.1356  0.8916
 3444SOL     OW11772   7.412   5.764   5.600 -0.5516  0.3828 -0.1619
 3444SOL    HW111773   7.489   5.819   5.590 -0.5643  0.3100 -0.7066
 3444SOL    HW211774   7.447   5.675   5.603 -0.3721  0.4554  2.4389
 3445SOL     OW11775   2.439   3.391   5.609  0.8374  0.1336  0.0284
 3445SOL    HW111776   2.457   3.459   5.674 -0.1402 -0.2410  0.7231
 3445SOL    HW211777   2.498   3.320   5.631  1.0626  0.3179  0.0183
 3446SOL     OW11778   0.608   3.669   4.869  0.3163 -0.4061  0.5304
 3446SOL    HW111779   0.556   3.632   4.940 -0.6501  0.2509  0.1903
 3446SOL    HW211780   0.552   3.736   4.831  0.5607 -1.1407 -1.2432
 3447SOL     OW11781   0.629   6.356   4.057  0.2135 -0.8471 -0.5945
 3447SOL    HW111782   0.572   6.287   4.024 -1.9009  0.0836  0.9190
 3447SOL    HW211783   0.690   6.310   4.116 -0.4400 -1.5805 -0.4733
 3448SOL     OW11784   2.892   3.192   4.665  0.0050  0.0364 -0.5674
 3448SOL    HW111785   2.927   3.205   4.753 -1.7710 -0.7266  0.2916
 3448SOL    HW211786   2.969   3.190   4.609  1.2213 -0.0856  1.0352
 3449SOL     OW11787   2.041   3.687   5.641 -0.1783 -0.3236  0.6605
 3449SOL    HW111788   1.969   3.648   5.692 -0.2718 -0.5225  0.3744
 3449SOL    HW211789   2.022   3.664   5.550 -0.3503  0.5541  0.4588
 3450SOL     OW11790   7.612   3.928   5.271  0.4654  0.5355  0.4341
 3450SOL    HW111791   7.617   3.873   5.193 -1.8230  1.3755 -0.3698
 3450SOL    HW211792   7.701   3.925   5.307  1.0146 -1.7536 -0.8694
 3451SOL     OW11793   0.385   6.368   3.174  0.1340 -0.0331 -0.2347
 3451SOL    HW111794   0.461   6.311   3.167  0.3697  0.2867 -0.2668
 3451SOL    HW211795   0.381   6.414   3.090  0.5277  0.7339  0.1550
 3452SOL     OW11796   0.960   5.040   6.069 -0.0027 -0.4719  0.2310
 3452SOL    HW111797   0.946   4.962   6.122 -0.5517 -0.0169  0.7723
 3452SOL    HW211798   0.881   5.092   6.082  0.9171  0.7930  0.9298
 3453SOL     OW11799   0.336   5.361   4.680  0.0322 -0.0238 -0.6630
 3453SOL    HW111800   0.313   5.268   4.677 -1.5263  0.3183 -0.2319
 3453SOL    HW211801   0.254   5.405   4.703  0.3977  1.5807 -2.1969
 3454SOL     OW11802   2.374   4.389   4.512  0.8278  0.1122 -0.2074
 3454SOL    HW111803   2.424   4.324   4.560 -0.9733 -1.4675 -0.3632
 3454SOL    HW211804   2.388   4.367   4.420 -1.8237 -1.8188 -0.2595
 3455SOL     OW11805   0.451   4.504   6.003 -0.0008  0.1851  0.1847
 3455SOL    HW111806   0.538   4.464   6.004  0.4091  1.0684  1.0097
 3455SOL    HW211807   0.467   4.595   5.980 -0.8928 -0.0111 -1.3026
 3456SOL     OW11808   0.154   4.211   6.487  0.0933  0.1709  0.1277
 3456SOL    HW111809   0.219   4.202   6.418 -0.4107  1.2655 -0.5187
 3456SOL    HW211810   0.113   4.296   6.471 -0.6352  0.0638  1.2625
 3457SOL     OW11811   1.163   4.984   4.716 -0.0070 -0.1568  0.1616
 3457SOL    HW111812   1.190   4.899   4.681  1.5071  1.1980 -2.2228
 3457SOL    HW211813   1.099   5.017   4.652  0.0821  0.8685  0.5810
 3458SOL     OW11814   1.342   3.840   5.350 -0.1861  0.2352  0.4157
 3458SOL    HW111815   1.430   3.818   5.381 -0.6180  0.5998  2.0067
 3458SOL    HW211816   1.347   3.932   5.326 -0.3012  0.4706  1.2510
 3459SOL     OW11817   0.722   6.921   4.309  0.5438  0.2537 -0.0543
 3459SOL    HW111818   0.672   7.003   4.318  0.4560  0.2423 -0.4449
 3459SOL    HW211819   0.688   6.866   4.380  1.3730  0.9399  0.9049
 3460SOL     OW11820   2.015   3.671   5.392  0.3979 -0.2922  0.0893
 3460SOL    HW111821   1.983   3.679   5.302 -0.5501 -1.8141  0.2522
 3460SOL    HW211822   2.096   3.621   5.384  0.6923  0.1878  0.0288
 3461SOL     OW11823   0.161   4.558   5.757 -0.3513 -0.0479  0.2310
 3461SOL    HW111824   0.067   4.565   5.778 -0.4238 -0.8442  0.2290
 3461SOL    HW211825   0.193   4.491   5.817 -0.4451 -1.9955 -1.7581
 3462SOL     OW11826   0.079   2.410   5.076  0.1842  0.1093  0.8740
 3462SOL    HW111827  -0.011   2.415   5.043  0.9196 -0.5124 -1.3426
 3462SOL    HW211828   0.134   2.410   4.998  2.2803  2.5748  2.1742
 3463SOL     OW11829   1.362   3.319   4.069  0.0813 -0.0731  0.8708
 3463SOL    HW111830   1.350   3.292   3.978 -0.0738  3.5010 -0.3455
 3463SOL    HW211831   1.273   3.340   4.098  0.3921  1.2295  0.9271
 3464SOL     OW11832   1.312   4.366   2.668 -0.2837 -0.4493 -0.0026
 3464SOL    HW111833   1.329   4.456   2.640  1.2573 -0.9681 -0.8438
 3464SOL    HW211834   1.248   4.375   2.739 -1.3616  1.1779 -1.0948
 3465SOL     OW11835   1.348   4.193   4.019 -0.2475  0.2746  0.2744
 3465SOL    HW111836   1.263   4.213   3.979  0.0393  2.0083  0.4731
 3465SOL    HW211837   1.403   4.268   3.998  0.7616 -0.0951  1.4839
 3466SOL     OW11838   2.727   1.692   4.729 -0.4262 -0.0465  0.1957
 3466SOL    HW111839   2.765   1.779   4.735  2.1089 -0.8906 -1.6111
 3466SOL    HW211840   2.774   1.640   4.794  0.5351 -0.7861 -1.0502
 3467SOL     OW11841   1.645   2.060   4.560  0.5894 -0.2829  0.1930
 3467SOL    HW111842   1.739   2.055   4.579  1.6304  2.2767 -3.2268
 3467SOL    HW211843   1.627   1.982   4.508  1.5036  0.4484 -1.2716
 3468SOL     OW11844   0.903   4.151   3.723  0.1145 -0.0210 -0.1906
 3468SOL    HW111845   0.880   4.139   3.630 -2.8693 -1.2035  0.5917
 3468SOL    HW211846   0.914   4.063   3.756  0.4325  0.3697  0.7634
 3469SOL     OW11847   1.317   4.804   4.560  0.5702  1.0684 -0.4110
 3469SOL    HW111848   1.311   4.711   4.579 -1.1316  1.2922  0.3136
 3469SOL    HW211849   1.350   4.808   4.470 -1.2426 -0.3189 -1.2032
 3470SOL     OW11850   0.032   3.385   4.821 -0.2413 -0.0126  0.3522
 3470SOL    HW111851  -0.005   3.335   4.894 -0.8196  2.6817  2.0339
 3470SOL    HW211852   0.075   3.460   4.862  1.5163  0.3564 -1.9691
 3471SOL     OW11853   1.951   3.930   5.952 -0.1895  0.3377  0.4248
 3471SOL    HW111854   2.000   3.883   6.020  0.8766  2.3723  1.1449
 3471SOL    HW211855   2.015   3.943   5.882 -0.6310  0.2497  0.0012
 3472SOL     OW11856   2.850   4.471   6.008  0.0736 -0.2626  0.5840
 3472SOL    HW111857   2.877   4.484   5.917 -1.9862 -0.3694 -0.0810
 3472SOL    HW211858   2.933   4.468   6.057  1.1775  1.7459 -0.9928
 3473SOL     OW11859   1.112   3.459   4.574 -0.3628  0.6871  0.6188
 3473SOL    HW111860   1.203   3.437   4.594 -0.7591 -0.6616  1.0566
 3473SOL    HW211861   1.112   3.480   4.481  0.5577  1.6615  0.8220
 3474SOL     OW11862   1.134   1.588   4.200  0.0856 -0.1517  0.0870
 3474SOL    HW111863   1.134   1.657   4.267  0.3515  1.5107 -1.5540
 3474SOL    HW211864   1.054   1.603   4.150 -0.4332 -1.7658  0.3834
 3475SOL     OW11865   0.593   3.648   4.439 -0.8097  0.1147  0.3880
 3475SOL    HW111866   0.631   3.585   4.501  0.5015  0.4301 -0.0595
 3475SOL    HW211867   0.650   3.643   4.363  0.0584  2.7029  0.7857
 3476SOL     OW11868   1.541   3.730   4.999  0.1890  0.7705 -0.3487
 3476SOL    HW111869   1.601   3.677   5.053 -0.2970  0.6001  0.0332
 3476SOL    HW211870   1.508   3.669   4.933 -0.4831  0.5500  0.1805
 3477SOL     OW11871   0.718   5.096   6.272  0.0158 -0.1605 -0.6457
 3477SOL    HW111872   0.658   5.066   6.204 -0.2855 -0.1836 -0.3703
 3477SOL    HW211873   0.677   5.176   6.306 -0.6608 -1.0101  0.6139
 3478SOL     OW11874   0.612   3.830   5.175  0.1114  0.2912  0.2221
 3478SOL    HW111875   0.530   3.850   5.130 -0.6502 -1.7911  0.5728
 3478SOL    HW211876   0.594   3.851   5.267  0.0800  0.1469  0.2491
 3479SOL     OW11877   0.033   5.776   6.361 -0.0955  0.3990  0.1217
 3479SOL    HW111878   0.028   5.761   6.456 -1.6407  2.7096  0.4830
 3479SOL    HW211879   0.123   5.805   6.346  0.1827 -0.0467  0.8563
 3480SOL     OW11880   7.509   5.214   5.081  0.0963  0.4503 -0.4668
 3480SOL    HW111881   7.421   5.176   5.094  0.5749 -0.7404 -0.5247
 3480SOL    HW211882   7.541   5.230   5.170 -0.8677  2.6445 -0.4530
 3481SOL     OW11883   2.626   3.973   3.066 -0.0561 -0.8719  0.6934
 3481SOL    HW111884   2.669   3.891   3.088  0.2122 -0.5447  1.4333
 3481SOL    HW211885   2.556   3.982   3.131 -1.1520 -1.3054 -0.3775
 3482SOL     OW11886   0.440   5.627   4.496 -0.8733 -0.0862  0.7220
 3482SOL    HW111887   0.434   5.540   4.455 -0.6282  0.7771 -1.2934
 3482SOL    HW211888   0.480   5.611   4.581  1.9105 -1.6950 -0.7262
 3483SOL     OW11889   1.525   6.011   4.643 -0.1408  0.5935  0.0485
 3483SOL    HW111890   1.443   5.964   4.653  0.3503 -0.3743 -0.3396
 3483SOL    HW211891   1.579   5.982   4.716 -0.1710  1.2989  0.3587
 3484SOL     OW11892   7.760   4.811   5.078 -0.3158  1.1012 -0.5322
 3484SOL    HW111893   7.747   4.879   5.011 -1.1592  0.7339 -0.7509
 3484SOL    HW211894   7.672   4.782   5.101  0.0176  0.3780 -0.1251
 3485SOL     OW11895   1.371   2.671   4.890 -0.1203  0.0719 -0.3768
 3485SOL    HW111896   1.292   2.642   4.844 -2.0409  1.4294  1.7821
 3485SOL    HW211897   1.395   2.753   4.847 -0.8194  0.4146 -0.1343
 3486SOL     OW11898   0.399   2.310   5.259 -0.3241 -0.4853  0.3155
 3486SOL    HW111899   0.482   2.275   5.289  0.0066  0.3471  0.4067
 3486SOL    HW211900   0.412   2.326   5.166  0.0381  0.7551  0.5570
 3487SOL     OW11901   1.282   6.510   4.777  0.0684 -0.1354 -0.0405
 3487SOL    HW111902   1.198   6.495   4.820  0.9161 -0.4009  1.6114
 3487SOL    HW211903   1.309   6.424   4.745  0.4886 -0.3934  0.9632
 3488SOL     OW11904   0.236   4.092   4.240 -0.2559  0.0116 -0.2813
 3488SOL    HW111905   0.188   4.102   4.322 -0.0033  0.8498 -0.2251
 3488SOL    HW211906   0.279   4.007   4.247  0.9044  0.6606  1.0856
 3489SOL     OW11907   7.386   7.513   5.086 -0.4135 -0.1975 -0.3059
 3489SOL    HW111908   7.308   7.458   5.084  0.3814 -1.4826  1.6093
 3489SOL    HW211909   7.434   7.485   5.165  0.8134  2.1557 -0.1257
 3490SOL     OW11910   0.433   2.008   5.429  0.1360  0.0348 -0.0622
 3490SOL    HW111911   0.472   1.984   5.345  0.1906  0.6225 -0.2122
 3490SOL    HW211912   0.340   1.986   5.419  0.1805 -0.0848 -0.2090
 3491SOL     OW11913   1.397   2.244   4.928 -0.1373 -0.0438 -0.3375
 3491SOL    HW111914   1.469   2.280   4.980 -0.6159 -1.1091  1.1348
 3491SOL    HW211915   1.319   2.288   4.960 -0.2192  0.7651 -1.6024
 3492SOL     OW11916   1.805   1.929   4.112 -0.2397  0.1763  0.3044
 3492SOL    HW111917   1.864   1.926   4.038 -0.2371 -2.8666  0.2953
 3492SOL    HW211918   1.719   1.911   4.075 -0.6316  1.0291  0.7667
 3493SOL     OW11919   1.763   3.363   4.125  0.7330 -0.3123  0.0020
 3493SOL    HW111920   1.816   3.333   4.199  2.3014 -0.3181 -1.0934
 3493SOL    HW211921   1.795   3.452   4.107 -1.0514  0.5029  0.5977
 3494SOL     OW11922   1.837   5.213   5.108 -0.2968  0.7175  0.2451
 3494SOL    HW111923   1.861   5.199   5.016 -1.1595 -0.9391  0.2250
 3494SOL    HW211924   1.905   5.167   5.158 -0.2661  0.9402  0.4119
 3495SOL     OW11925   0.218   4.604   4.875  0.6235 -0.2268  0.2922
 3495SOL    HW111926   0.131   4.625   4.908  0.4513  1.2596 -0.9652
 3495SOL    HW211927   0.278   4.655   4.929  0.5533  0.1301  0.0405
 3496SOL     OW11928   0.406   4.857   6.297  0.0493 -0.2220 -0.5229
 3496SOL    HW111929   0.328   4.806   6.323  0.0553 -2.2192 -3.7707
 3496SOL    HW211930   0.480   4.807   6.332 -0.0090 -1.7921 -2.4580
 3497SOL     OW11931   0.402   4.647   5.125  0.1156 -0.2801 -0.7500
 3497SOL    HW111932   0.309   4.652   5.147  0.7464  0.9453  2.1047
 3497SOL    HW211933   0.421   4.731   5.083  0.3728  0.5406  0.9235
 3498SOL     OW11934   1.878   4.866   5.004  0.2332 -0.8115 -0.0426
 3498SOL    HW111935   1.943   4.814   5.053 -0.0551 -1.2638 -0.1367
 3498SOL    HW211936   1.852   4.936   5.065  0.1760 -1.1333  0.3047
 3499SOL     OW11937   7.477   3.045   5.091 -0.1901 -0.3574  0.1340
 3499SOL    HW111938   7.483   3.134   5.057 -0.3196 -0.1972  0.5169
 3499SOL    HW211939   7.384   3.033   5.110 -0.1898 -0.6174 -0.0306
 3500SOL     OW11940   1.316   1.274   6.643 -0.6653 -0.3116 -0.3901
 3500SOL    HW111941   1.352   1.187   6.662 -1.8159 -0.5457  0.9506
 3500SOL    HW211942   1.223   1.257   6.626 -1.0533  0.7173  0.5969
 3501SOL     OW11943   7.786   5.343   7.042 -0.1788 -0.0669  0.0289
 3501SOL    HW111944   7.755   5.355   6.952 -0.0948 -2.5894 -0.4163
 3501SOL    HW211945   7.836   5.422   7.061  1.3327 -0.1970 -2.8213
 3502SOL     OW11946   0.483   4.664   7.534 -0.1330 -0.4425  0.1451
 3502SOL    HW111947   0.493   4.569   7.543  1.3781 -0.3540 -0.2277
 3502SOL    HW211948   0.539   4.700   7.603  0.3749  0.1708 -0.5742
 3503SOL     OW11949   1.514   4.008   5.671 -0.7393 -0.7357 -0.1648
 3503SOL    HW111950   1.556   3.926   5.645 -0.5009 -0.3606 -0.9813
 3503SOL    HW211951   1.441   3.981   5.726 -1.9888 -1.6517 -2.1633
 3504SOL     OW11952   0.877   3.844   6.103  0.5403  0.2426  0.1448
 3504SOL    HW111953   0.931   3.906   6.150  0.4111  0.7818 -0.4048
 3504SOL    HW211954   0.793   3.889   6.091  0.5750  0.1291 -0.6011
 3505SOL     OW11955   1.200   6.119   6.366 -0.0701  0.5707  0.1562
 3505SOL    HW111956   1.278   6.115   6.421  0.4134 -0.9218 -0.5857
 3505SOL    HW211957   1.127   6.128   6.428  0.5649  0.2475  0.9634
 3506SOL     OW11958   7.485   4.356   6.982  0.4801 -0.3130 -0.1279
 3506SOL    HW111959   7.536   4.435   6.961  0.1777  0.2524  1.1550
 3506SOL    HW211960   7.405   4.390   7.023  0.8627 -1.2991  1.5271
 3507SOL     OW11961   0.490   4.159   7.735 -0.1379  0.0402  0.0290
 3507SOL    HW111962   0.578   4.161   7.697  0.1703  0.0529  0.7306
 3507SOL    HW211963   0.502   4.120   7.822 -0.5720  1.4523  0.7566
 3508SOL     OW11964   0.512   5.023   6.093 -0.3710 -0.6508 -0.2673
 3508SOL    HW111965   0.445   5.089   6.076  0.0179  0.4344  2.0363
 3508SOL    HW211966   0.464   4.947   6.127 -0.7749 -1.4911 -2.5343
 3509SOL     OW11967   7.857   4.647   7.533  0.2968  0.2200 -0.1725
 3509SOL    HW111968   7.828   4.570   7.483  0.6844  0.3231 -0.5662
 3509SOL    HW211969   7.870   4.715   7.467  1.4819  0.1612 -0.0322
 3510SOL     OW11970   7.355   6.258   5.746 -0.0029  0.2519  0.1148
 3510SOL    HW111971   7.272   6.305   5.756 -0.4973 -0.5524 -0.1570
 3510SOL    HW211972   7.369   6.252   5.652  0.8877  1.2654  0.1603
 3511SOL     OW11973   2.356   5.237   7.582  0.6284 -0.0264 -0.0473
 3511SOL    HW111974   2.382   5.225   7.673 -0.6387  0.3498  0.3820
 3511SOL    HW211975   2.260   5.235   7.584  0.5856 -1.6679 -1.6091
 3512SOL     OW11976   0.473   2.795   8.007 -0.5914 -0.0759  0.3845
 3512SOL    HW111977   0.566   2.784   8.025 -0.5428  0.1435  0.2669
 3512SOL    HW211978   0.467   2.791   7.911 -0.6845  0.0704  0.3853
 3513SOL     OW11979   0.018   2.568   7.148 -0.5163  0.3537  0.7220
 3513SOL    HW111980   0.100   2.520   7.137 -0.6947  0.3998 -1.2012
 3513SOL    HW211981  -0.004   2.557   7.240  0.0331 -2.3332  0.6191
 3514SOL     OW11982   1.328   6.843   7.047  0.5974 -0.6631 -0.2368
 3514SOL    HW111983   1.242   6.806   7.064  1.0519 -0.9207  1.6456
 3514SOL    HW211984   1.361   6.794   6.971 -1.3400  0.2257 -1.7196
 3515SOL     OW11985   1.499   2.931   7.137  0.1927  0.1213  0.5975
 3515SOL    HW111986   1.522   2.848   7.095  0.0873 -0.1368  1.0392
 3515SOL    HW211987   1.515   2.997   7.070 -0.3984 -0.3222 -0.0006
 3516SOL     OW11988   0.097   5.647   7.318  0.9458 -0.0873  0.6809
 3516SOL    HW111989   0.186   5.643   7.352  0.7066  1.4936  1.5805
 3516SOL    HW211990   0.058   5.723   7.361 -0.8530 -0.7632  0.3300
 3517SOL     OW11991   0.250   2.626   6.624  0.4553 -0.0431  0.0916
 3517SOL    HW111992   0.340   2.644   6.649  0.4001  0.3833 -0.0063
 3517SOL    HW211993   0.199   2.696   6.665 -0.1627 -1.6465  2.2532
 3518SOL     OW11994   1.798   5.828   7.074 -0.2941  0.1650  0.6572
 3518SOL    HW111995   1.855   5.904   7.061  0.3302 -0.3563  0.2839
 3518SOL    HW211996   1.751   5.846   7.155 -1.7278  1.9225 -0.5017
 3519SOL     OW11997   7.978   2.912   7.459  0.2574 -0.4050 -0.1814
 3519SOL    HW111998   7.921   2.870   7.395 -1.6629  0.8513  0.6329
 3519SOL    HW211999   8.063   2.917   7.415 -1.2383  1.4853 -3.1722
 3520SOL     OW12000   2.257   4.788   7.414 -0.1300 -0.0656  0.1033
 3520SOL    HW112001   2.242   4.758   7.325 -2.6393  0.8052  0.1488
 3520SOL    HW212002   2.265   4.883   7.406 -0.3837  0.0226  0.7840
 3521SOL     OW12003   0.480   5.640   6.411 -0.4006  0.2437 -0.0632
 3521SOL    HW112004   0.514   5.604   6.330  2.2688 -0.3147  1.2007
 3521SOL    HW212005   0.557   5.663   6.462 -1.9643  0.6331  2.3134
 3522SOL     OW12006   1.484   4.387   4.430 -0.4218  0.1898 -0.6640
 3522SOL    HW112007   1.495   4.318   4.364  0.5545 -0.1024 -0.2106
 3522SOL    HW212008   1.399   4.368   4.470 -0.2585 -0.6248 -0.6851
 3523SOL     OW12009   1.401   5.490   6.988  0.2446  0.1352 -0.1240
 3523SOL    HW112010   1.410   5.523   7.078  0.9685 -0.1278 -0.0986
 3523SOL    HW212011   1.371   5.400   6.999  0.0875  0.1820 -0.1583
 3524SOL     OW12012   2.171   4.152   6.259  0.9060 -0.1867  0.1069
 3524SOL    HW112013   2.167   4.119   6.169  1.9730 -0.6170  0.2009
 3524SOL    HW212014   2.158   4.075   6.314 -0.2169  0.1526  0.3363
 3525SOL     OW12015   1.412   4.839   5.452 -0.2776 -0.3605 -0.0221
 3525SOL    HW112016   1.455   4.754   5.459 -1.6182 -0.9998  0.8071
 3525SOL    HW212017   1.326   4.819   5.414 -0.5228  0.6506 -0.0280
 3526SOL     OW12018   0.233   5.383   7.224 -0.2696  0.0404 -0.0772
 3526SOL    HW112019   0.216   5.476   7.209  0.3915  0.1895  0.0726
 3526SOL    HW212020   0.309   5.381   7.282 -1.9831 -0.5258  2.3424
 3527SOL     OW12021   1.175   4.013   5.647  0.1895 -0.3246  0.6181
 3527SOL    HW112022   1.217   3.997   5.731  1.2469 -0.7500  0.0141
 3527SOL    HW212023   1.239   4.062   5.597 -0.6559  0.4381  0.2432
 3528SOL     OW12024   2.232   5.552   6.182 -0.4877  0.0912  0.6552
 3528SOL    HW112025   2.200   5.470   6.144  0.1357 -0.2880  0.9391
 3528SOL    HW212026   2.258   5.529   6.271  0.3677  0.4337  0.5011
 3529SOL     OW12027   7.692   3.423   7.314  0.0622 -0.0619  0.3271
 3529SOL    HW112028   7.666   3.514   7.326 -0.8609 -0.4821  1.8848
 3529SOL    HW212029   7.771   3.414   7.367 -1.3255 -0.7575  2.4120
 3530SOL     OW12030   0.311   3.122   7.964  0.2920  0.3878 -0.1291
 3530SOL    HW112031   0.231   3.104   8.013  0.3100  0.6876  0.0157
 3530SOL    HW212032   0.342   3.036   7.936  0.1697  0.2289  0.2128
 3531SOL     OW12033   0.528   5.365   5.006 -0.1686  0.2069 -0.2560
 3531SOL    HW112034   0.554   5.310   4.932  0.4384 -0.8544  0.7155
 3531SOL    HW212035   0.485   5.440   4.965 -1.2588 -1.0771 -1.6378
 3532SOL     OW12036   2.629   5.032   7.928  0.0385 -0.0293  0.1372
 3532SOL    HW112037   2.603   4.943   7.951 -2.6231  0.4999 -0.4751
 3532SOL    HW212038   2.659   5.026   7.837 -1.2074 -0.1471 -0.2786
 3533SOL     OW12039   7.623   3.714   9.364  0.2922  0.1700  0.2146
 3533SOL    HW112040   7.632   3.660   9.442  0.3507 -0.7686 -0.4254
 3533SOL    HW212041   7.660   3.661   9.293 -1.1716  0.3408 -0.7291
 3534SOL     OW12042   1.935   5.113   5.933  0.1604 -0.0150  0.4333
 3534SOL    HW112043   2.012   5.115   5.990  2.2164  1.4297 -2.1566
 3534SOL    HW212044   1.971   5.127   5.845 -3.0154 -0.2359 -1.0127
 3535SOL     OW12045   0.995   5.125   5.324 -0.6285  0.2253 -0.1183
 3535SOL    HW112046   1.027   5.166   5.404  0.5264 -0.4997 -0.1776
 3535SOL    HW212047   1.032   5.178   5.253 -0.5463  0.0901 -0.1780
 3536SOL     OW12048   7.097   3.118   6.853  0.3240 -0.0344 -0.0817
 3536SOL    HW112049   7.064   3.056   6.919 -1.0413 -1.0005 -1.6111
 3536SOL    HW212050   7.053   3.200   6.874  0.8147 -0.0052  0.9090
 3537SOL     OW12051   7.968   2.571   7.441  0.2659 -0.1281  0.4689
 3537SOL    HW112052   8.059   2.585   7.466 -0.0940 -0.0746  1.8346
 3537SOL    HW212053   7.919   2.581   7.523 -1.0678  0.8218 -0.4032
 3538SOL     OW12054   3.118   4.625   6.618  0.0469 -0.2589 -0.2502
 3538SOL    HW112055   3.189   4.564   6.638 -0.6936 -1.2423 -0.5149
 3538SOL    HW212056   3.114   4.628   6.523 -1.3939 -1.6320 -0.2774
 3539SOL     OW12057   7.419   5.535   6.478  0.8223  0.5499  0.1508
 3539SOL    HW112058   7.389   5.464   6.534  0.1651 -0.3569 -1.3009
 3539SOL    HW212059   7.506   5.508   6.449 -0.5169 -1.1535 -2.6883
 3540SOL     OW12060   1.574   3.539   7.322 -0.1271 -0.1162  0.1828
 3540SOL    HW112061   1.495   3.515   7.272  0.7244  2.0296 -2.3803
 3540SOL    HW212062   1.543   3.547   7.412 -2.2967 -1.6391 -0.3349
 3541SOL     OW12063   0.502   2.093   6.885  0.0295  0.7268  0.3825
 3541SOL    HW112064   0.574   2.050   6.930  0.8963  0.4540 -1.1998
 3541SOL    HW212065   0.428   2.033   6.895  0.3956  0.3451  0.8207
 3542SOL     OW12066   1.821   2.959   6.781  0.3788 -0.0662  0.2775
 3542SOL    HW112067   1.824   2.866   6.804  2.1528 -0.6919 -2.0728
 3542SOL    HW212068   1.735   2.971   6.741  0.0783 -0.6391  0.7363
 3543SOL     OW12069   1.331   1.657   6.532  0.0406  0.4111 -0.1118
 3543SOL    HW112070   1.237   1.674   6.528 -0.3988 -1.9742 -2.6914
 3543SOL    HW212071   1.367   1.704   6.456  0.7460  0.3180  0.1545
 3544SOL     OW12072   7.611   3.954   6.485  0.1894 -0.3343 -0.3479
 3544SOL    HW112073   7.677   3.989   6.425 -0.2885  0.3562 -0.4898
 3544SOL    HW212074   7.657   3.885   6.533  0.6303 -0.7607 -1.3577
 3545SOL     OW12075   1.243   6.118   8.135  0.0124  0.1185  0.1664
 3545SOL    HW112076   1.176   6.054   8.161 -0.6789  0.6570 -0.2584
 3545SOL    HW212077   1.275   6.085   8.051 -0.7995  0.6665 -0.3636
 3546SOL     OW12078   1.895   3.158   5.041  0.4639  0.0565 -0.1575
 3546SOL    HW112079   1.820   3.217   5.041  0.6231  0.3355  1.9516
 3546SOL    HW212080   1.952   3.191   4.971 -0.3380  1.1891 -0.2979
 3547SOL     OW12081   2.148   2.875   5.950  0.7503 -0.5088  0.3560
 3547SOL    HW112082   2.071   2.852   5.898  2.1995 -0.9750 -1.7428
 3547SOL    HW212083   2.175   2.793   5.991 -0.8425  0.0148  2.5842
 3548SOL     OW12084   1.332   4.377   6.683  0.4400  0.6289 -0.5975
 3548SOL    HW112085   1.297   4.326   6.756  2.1859 -0.7927 -0.6933
 3548SOL    HW212086   1.321   4.321   6.606  1.3457  0.8509 -0.9029
 3549SOL     OW12087   7.148   5.857   7.396  0.2616 -0.1942  0.2903
 3549SOL    HW112088   7.181   5.929   7.341  1.6073 -0.4058  0.7880
 3549SOL    HW212089   7.227   5.810   7.423 -0.3583 -0.1094  2.4101
 3550SOL     OW12090   0.595   5.091   7.085 -0.3955  0.3319 -0.1447
 3550SOL    HW112091   0.519   5.119   7.136 -0.1770 -1.3757  1.2148
 3550SOL    HW212092   0.669   5.100   7.145  0.0831 -0.3841 -0.6039
 3551SOL     OW12093   6.569   7.152   6.323  0.5529  0.4408  0.4177
 3551SOL    HW112094   6.515   7.094   6.378 -0.1811 -0.2231 -0.9542
 3551SOL    HW212095   6.636   7.094   6.286 -0.2730  0.3886 -1.0776
 3552SOL     OW12096   0.684   5.793   7.028  0.1252 -0.1781  0.3113
 3552SOL    HW112097   0.601   5.747   7.024  0.3922 -0.5974 -2.0736
 3552SOL    HW212098   0.681   5.853   6.953  1.4530  0.7184  0.9420
 3553SOL     OW12099   0.438   5.192   8.318  0.4928 -0.4158 -0.0140
 3553SOL    HW112100   0.454   5.100   8.300 -0.0646 -0.8400  1.5278
 3553SOL    HW212101   0.377   5.193   8.392 -1.0306  1.1857 -1.1988
 3554SOL     OW12102   0.068   4.061   4.742 -0.4280 -0.3989 -0.7173
 3554SOL    HW112103   0.082   4.094   4.831 -0.7712  0.9655 -1.1404
 3554SOL    HW212104   0.093   4.135   4.686 -0.7135 -1.0660 -1.7331
 3555SOL     OW12105   0.740   3.309   5.636 -0.1310 -0.1100  0.3735
 3555SOL    HW112106   0.679   3.307   5.562  0.4831 -1.4823 -0.1286
 3555SOL    HW212107   0.753   3.402   5.654 -1.4688  0.2238 -0.2511
 3556SOL     OW12108   0.226   4.458   7.198 -0.6297  0.0870 -0.0219
 3556SOL    HW112109   0.152   4.494   7.148 -0.8312  1.9240  1.4981
 3556SOL    HW212110   0.268   4.535   7.236  0.8878 -1.0964  0.7678
 3557SOL     OW12111   1.279   5.310   5.394  0.1135 -0.8548 -0.5208
 3557SOL    HW112112   1.346   5.378   5.402 -0.0127 -0.8383  0.6126
 3557SOL    HW212113   1.252   5.293   5.484 -1.0944 -1.1784 -0.9219
 3558SOL     OW12114   0.706   3.655   6.541 -0.1569 -0.2527 -0.1518
 3558SOL    HW112115   0.704   3.670   6.446 -1.0611 -1.6614 -0.3900
 3558SOL    HW212116   0.683   3.739   6.580  0.9772  0.5448 -1.1449
 3559SOL     OW12117   1.649   6.389   5.373  0.2211 -0.4188  0.6191
 3559SOL    HW112118   1.685   6.478   5.374 -1.0930  0.1730 -0.6463
 3559SOL    HW212119   1.672   6.353   5.459  0.0483  1.4561  1.5211
 3560SOL     OW12120   0.695   6.226   6.524  0.6862 -0.0589  0.0539
 3560SOL    HW112121   0.706   6.131   6.533  4.2164  0.0677 -1.1900
 3560SOL    HW212122   0.727   6.262   6.607 -1.3212  0.1049  0.8100
 3561SOL     OW12123   1.526   4.505   6.093 -0.2920 -0.0184  0.5239
 3561SOL    HW112124   1.484   4.537   6.013 -0.2380 -1.2760 -0.0309
 3561SOL    HW212125   1.614   4.541   6.091  0.4673 -1.8173 -1.1590
 3562SOL     OW12126   0.759   6.566   7.349 -0.0602  0.0703 -0.0131
 3562SOL    HW112127   0.750   6.483   7.301  1.7252  0.9715 -2.0571
 3562SOL    HW212128   0.852   6.587   7.344 -0.3343  1.7656  1.2478
 3563SOL     OW12129   2.560   6.723   7.563 -0.0943 -0.2363 -0.1962
 3563SOL    HW112130   2.585   6.640   7.522 -2.5827 -1.1286 -0.1048
 3563SOL    HW212131   2.507   6.697   7.639  2.4520  1.4047  2.3693
 3564SOL     OW12132   0.600   3.648   7.353 -0.4480  0.1534 -0.0682
 3564SOL    HW112133   0.514   3.641   7.393 -0.5853 -1.8385 -0.5858
 3564SOL    HW212134   0.595   3.725   7.297 -1.1947  1.2567  1.4640
 3565SOL     OW12135   1.408   3.773   8.251  0.3872  0.2113 -0.4207
 3565SOL    HW112136   1.438   3.821   8.174  0.8000  1.7692  0.6481
 3565SOL    HW212137   1.474   3.792   8.318  0.0185 -1.0655  0.3343
 3566SOL     OW12138   1.505   2.644   3.717 -0.9808 -0.7725  0.2050
 3566SOL    HW112139   1.510   2.584   3.792 -1.5440  0.1482  1.0054
 3566SOL    HW212140   1.596   2.659   3.693 -0.7478 -0.4841  1.2049
 3567SOL     OW12141   7.605   5.848   5.806 -0.5301 -0.1215 -1.4054
 3567SOL    HW112142   7.565   5.836   5.892  1.9953  0.6068 -0.0318
 3567SOL    HW212143   7.619   5.942   5.798 -0.4739 -0.2076 -2.4874
 3568SOL     OW12144   7.623   6.396   5.736 -0.1788  0.1519 -0.1795
 3568SOL    HW112145   7.593   6.305   5.748  0.0711  0.2055  1.0183
 3568SOL    HW212146   7.546   6.443   5.707 -0.5919 -0.2436  0.2440
 3569SOL     OW12147   7.849   3.763   7.282 -0.3326 -0.0854 -0.3662
 3569SOL    HW112148   7.898   3.817   7.219 -0.7369 -1.3047 -1.7873
 3569SOL    HW212149   7.765   3.745   7.239 -0.3989 -1.4357  0.2574
 3570SOL     OW12150   0.992   3.018   5.677  0.3616 -0.2324  0.1079
 3570SOL    HW112151   0.932   2.996   5.606  0.8509 -1.6850  0.1257
 3570SOL    HW212152   1.003   3.113   5.671 -1.8873  0.0799  0.0686
 3571SOL     OW12153   0.797   4.336   6.334 -0.6169 -0.1044 -0.5443
 3571SOL    HW112154   0.869   4.326   6.272 -1.4221  2.1467 -1.9717
 3571SOL    HW212155   0.839   4.355   6.418  0.5073  1.1965 -1.3575
 3572SOL     OW12156   7.493   4.006   6.739  0.3049  0.0223 -0.0255
 3572SOL    HW112157   7.546   3.995   6.660  0.0988  0.0618 -0.1683
 3572SOL    HW212158   7.402   4.003   6.709  0.1451 -2.3452  0.4736
 3573SOL     OW12159   0.124   4.078   5.304 -0.5198  0.0641 -0.5407
 3573SOL    HW112160   0.087   4.151   5.353 -0.6575  0.0312 -0.5947
 3573SOL    HW212161   0.071   4.002   5.329 -0.0820 -0.1125 -0.1245
 3574SOL     OW12162   1.089   3.956   6.270 -0.4577 -0.7106  0.2506
 3574SOL    HW112163   1.136   3.872   6.269  1.1236  0.1395 -0.6030
 3574SOL    HW212164   1.138   4.010   6.332  0.7002  0.6845 -1.7693
 3575SOL     OW12165   1.097   2.024   8.084 -0.1826 -0.2577  0.3912
 3575SOL    HW112166   1.094   2.062   7.996  1.0497 -2.5047 -0.7129
 3575SOL    HW212167   1.171   2.067   8.126 -1.2638  1.4063  0.6695
 3576SOL     OW12168   1.277   5.524   8.682 -0.1730 -0.2835  0.0908
 3576SOL    HW112169   1.266   5.529   8.777  1.2456 -0.2878  0.2699
 3576SOL    HW212170   1.265   5.614   8.651  2.0581  0.2662  0.6230
 3577SOL     OW12171   1.200   3.703   5.821  0.2339 -0.2318 -0.2145
 3577SOL    HW112172   1.105   3.710   5.834  0.2445 -0.4959  0.0143
 3577SOL    HW212173   1.210   3.682   5.728  0.0751 -0.0589 -0.2709
 3578SOL     OW12174   0.124   3.362   6.271 -0.1511 -0.1530  0.0269
 3578SOL    HW112175   0.151   3.419   6.199  0.7583 -0.2753  0.2615
 3578SOL    HW212176   0.113   3.421   6.346 -0.4149 -0.1206 -0.0371
 3579SOL     OW12177   1.516   4.296   7.687 -0.5821  0.7120 -0.2200
 3579SOL    HW112178   1.609   4.277   7.674 -0.5240  1.3881 -0.8763
 3579SOL    HW212179   1.513   4.346   7.768 -0.6086 -0.9952  0.8764
 3580SOL     OW12180   7.875   5.152   5.099  0.1803 -0.2097  1.3486
 3580SOL    HW112181   7.963   5.150   5.063  0.1089 -0.3624  1.1809
 3580SOL    HW212182   7.878   5.219   5.167  0.5678 -0.5899  1.7153
 3581SOL     OW12183   7.351   3.884   8.418 -1.0024  0.2241 -0.0702
 3581SOL    HW112184   7.370   3.966   8.373 -2.4579  0.5572 -0.1306
 3581SOL    HW212185   7.312   3.910   8.501 -0.0617 -0.4062  0.5861
 3582SOL     OW12186   0.401   3.730   6.259  0.1746  0.0556 -0.0992
 3582SOL    HW112187   0.476   3.671   6.260  1.8117  2.0127  1.7524
 3582SOL    HW212188   0.401   3.768   6.171  1.9257  0.6343  0.1075
 3583SOL     OW12189   1.529   2.400   5.834  0.4757  0.2232  0.0634
 3583SOL    HW112190   1.473   2.478   5.834 -1.2913 -0.9828  1.1263
 3583SOL    HW212191   1.564   2.397   5.745 -1.8250  0.6260 -0.9460
 3584SOL     OW12192   1.165   2.837   7.054 -0.0136 -0.0761 -0.2729
 3584SOL    HW112193   1.153   2.883   7.137 -0.0987 -0.3234 -0.1454
 3584SOL    HW212194   1.100   2.876   6.995 -0.9330 -0.8555  0.1841
 3585SOL     OW12195   2.313   3.707   5.671 -0.3213 -0.4035 -0.3430
 3585SOL    HW112196   2.303   3.774   5.738  0.4372 -0.6837  0.0674
 3585SOL    HW212197   2.224   3.682   5.647 -0.6090  0.7408 -0.4972
 3586SOL     OW12198   0.714   4.431   5.998  0.3614 -0.4040 -0.4489
 3586SOL    HW112199   0.789   4.442   5.939  1.5970  0.3421  1.1821
 3586SOL    HW212200   0.722   4.503   6.061 -1.7479 -0.3116 -0.2163
 3587SOL     OW12201   1.423   5.139   5.967 -0.1463 -0.3580 -0.0790
 3587SOL    HW112202   1.338   5.171   5.997 -0.9377  1.4925 -3.7329
 3587SOL    HW212203   1.482   5.214   5.979 -0.5942  0.6168 -3.1504
 3588SOL     OW12204   7.889   5.893   6.089 -0.0389  0.0587  0.0186
 3588SOL    HW112205   7.921   5.811   6.051 -0.5180 -0.8737  1.5199
 3588SOL    HW212206   7.936   5.901   6.172 -0.5485  0.9076  0.2404
 3589SOL     OW12207   7.863   3.250   5.863 -0.0396 -0.2243 -0.3196
 3589SOL    HW112208   7.952   3.275   5.839  0.4427 -1.2318  0.3818
 3589SOL    HW212209   7.839   3.182   5.800 -0.6001  0.5612 -0.9712
 3590SOL     OW12210   1.224   3.489   4.849 -0.4423 -0.1788  0.1836
 3590SOL    HW112211   1.148   3.529   4.892 -0.2771  0.3147  0.0260
 3590SOL    HW212212   1.249   3.417   4.906 -1.6929 -1.0403 -0.3123
 3591SOL     OW12213   0.235   2.725   6.930 -0.4199 -0.0594  0.4749
 3591SOL    HW112214   0.166   2.659   6.930 -0.7982  0.3215 -0.2736
 3591SOL    HW212215   0.189   2.808   6.921  0.1383  0.1754 -0.3802
 3592SOL     OW12216   2.429   4.133   6.360 -0.0697  0.2319 -0.5990
 3592SOL    HW112217   2.427   4.056   6.418  0.1652  1.2693  0.8381
 3592SOL    HW212218   2.341   4.138   6.324 -0.2897 -0.3100 -0.1518
 3593SOL     OW12219   0.879   4.409   7.647 -0.4129  0.2458  0.5894
 3593SOL    HW112220   0.949   4.380   7.705 -1.4522 -0.4661  1.5206
 3593SOL    HW212221   0.887   4.504   7.645  0.1042  0.2238  1.2955
 3594SOL     OW12222   7.840   4.315   8.071 -0.6958  0.2148 -0.1518
 3594SOL    HW112223   7.892   4.285   7.997 -1.5753 -2.8804  0.3654
 3594SOL    HW212224   7.898   4.304   8.147 -0.7868  0.5637 -0.0304
 3595SOL     OW12225   1.767   6.481   6.335 -0.0496 -0.2792  0.3837
 3595SOL    HW112226   1.793   6.402   6.384 -0.7085 -0.2114  0.8529
 3595SOL    HW212227   1.710   6.448   6.265  2.5141 -0.6274 -1.6772
 3596SOL     OW12228   0.650   4.209   5.087 -0.1532  0.1669 -0.1407
 3596SOL    HW112229   0.608   4.277   5.036  1.2190  0.6910 -0.6104
 3596SOL    HW212230   0.637   4.235   5.178 -0.9469  0.2346 -0.2687
 3597SOL     OW12231   7.656   3.986   8.704  0.1245 -0.5512  0.3126
 3597SOL    HW112232   7.611   3.909   8.670 -1.6387  0.7072 -0.3943
 3597SOL    HW212233   7.658   4.047   8.630  0.4202  0.5045  1.1593
 3598SOL     OW12234   0.697   6.352   6.771 -0.2661  0.1382 -0.1676
 3598SOL    HW112235   0.634   6.375   6.839 -0.4965 -1.5557  0.2305
 3598SOL    HW212236   0.777   6.398   6.797 -0.1307 -1.0260  1.7158
 3599SOL     OW12237   0.863   3.847   5.358  0.2810 -0.1667  0.7033
 3599SOL    HW112238   0.889   3.790   5.285 -0.9053 -0.4851  0.5134
 3599SOL    HW212239   0.781   3.887   5.329 -0.4761 -0.6745  2.0427
 3600SOL     OW12240   0.051   2.906   6.057 -0.0545  0.3059  0.0543
 3600SOL    HW112241  -0.016   2.848   6.096  0.0814 -0.3496 -0.6636
 3600SOL    HW212242   0.034   2.991   6.097 -1.3105  0.1491 -0.0736
 3601SOL     OW12243   0.455   2.440   7.764 -0.0790  0.1893  0.6092
 3601SOL    HW112244   0.508   2.360   7.768  1.5725  1.2414  0.9457
 3601SOL    HW212245   0.518   2.509   7.744 -1.7807  1.1528 -1.8692
 3602SOL     OW12246   7.688   6.182   6.991 -0.3796 -0.2736  0.1912
 3602SOL    HW112247   7.612   6.142   7.033 -0.6581 -0.4820 -0.4936
 3602SOL    HW212248   7.684   6.274   7.015 -1.9743  0.1292 -1.4358
 3603SOL     OW12249   7.631   5.144   5.603 -0.2902 -0.1942 -0.0854
 3603SOL    HW112250   7.631   5.234   5.636  0.8406 -0.1375 -0.2020
 3603SOL    HW212251   7.546   5.109   5.630 -1.2230  1.2408 -1.0035
 3604SOL     OW12252   7.709   2.517   5.198  0.3662 -0.0617  0.6643
 3604SOL    HW112253   7.786   2.537   5.144 -0.2341  0.0549 -0.1808
 3604SOL    HW212254   7.731   2.550   5.285  1.6940 -1.0028  0.7193
 3605SOL     OW12255   0.918   4.793   6.174  0.0654  0.3072  0.1778
 3605SOL    HW112256   0.999   4.745   6.186  0.0785  0.2743 -0.0458
 3605SOL    HW212257   0.852   4.741   6.219  0.5477  1.4882  2.4261
 3606SOL     OW12258   2.058   5.036   5.257  0.2636 -0.1480 -0.0019
 3606SOL    HW112259   2.041   4.942   5.262 -0.7884  0.0499  0.2507
 3606SOL    HW212260   2.098   5.057   5.342  2.5301 -0.7313 -0.8467
 3607SOL     OW12261   0.087   3.793   5.143  0.3994 -0.0982 -0.0817
 3607SOL    HW112262   0.064   3.754   5.228 -2.4934 -1.2179 -1.2382
 3607SOL    HW212263   0.055   3.883   5.149 -1.9414 -0.8134 -0.6507
 3608SOL     OW12264   7.086   4.857   4.291  0.4544 -0.2468 -0.4876
 3608SOL    HW112265   7.059   4.948   4.281  1.1124 -0.3154 -4.6608
 3608SOL    HW212266   7.135   4.855   4.373 -0.9243  2.7633  0.5343
 3609SOL     OW12267   0.523   3.790   9.245 -0.4929  0.4898  0.0485
 3609SOL    HW112268   0.486   3.712   9.203  1.3948 -0.5067  0.1456
 3609SOL    HW212269   0.553   3.844   9.172  1.2618 -0.4686  0.0193
 3610SOL     OW12270   7.464   4.108   8.317 -0.5024  0.2708 -0.1375
 3610SOL    HW112271   7.396   4.169   8.287 -0.8277 -0.0797 -0.1254
 3610SOL    HW212272   7.530   4.111   8.248  0.2153  1.7632  0.5531
 3611SOL     OW12273   7.243   5.415   7.169 -0.3616  0.1552  0.0624
 3611SOL    HW112274   7.273   5.448   7.253 -1.6988 -0.8467  0.9648
 3611SOL    HW212275   7.322   5.415   7.114  0.1722  2.4528  0.7429
 3612SOL     OW12276   7.167   4.618   8.934 -0.1881  0.3775  0.6500
 3612SOL    HW112277   7.223   4.610   8.857  0.5252  2.1723  0.9325
 3612SOL    HW212278   7.106   4.689   8.913 -1.5363 -0.6701  0.8604
 3613SOL     OW12279   7.550   4.929   7.566 -0.0749  0.1189 -0.1765
 3613SOL    HW112280   7.492   4.854   7.581 -2.0122  1.5308 -0.2598
 3613SOL    HW212281   7.491   5.002   7.549  1.7704  1.4862 -1.0760
 3614SOL     OW12282   2.142   3.316   5.858 -0.5558  0.0713  0.3807
 3614SOL    HW112283   2.080   3.385   5.882 -0.3273  0.0647  0.9954
 3614SOL    HW212284   2.087   3.241   5.836 -0.7716  0.1152  0.7673
 3615SOL     OW12285   1.237   3.395   5.880  0.1944  0.2230  0.4355
 3615SOL    HW112286   1.281   3.315   5.851 -1.5017 -0.4925 -0.3489
 3615SOL    HW212287   1.262   3.461   5.815  0.3561 -0.0969  0.1691
 3616SOL     OW12288   0.632   4.192   6.841  0.1353 -0.0047 -0.0519
 3616SOL    HW112289   0.574   4.250   6.890  0.3589 -0.4541  0.7612
 3616SOL    HW212290   0.606   4.204   6.749 -0.3597  0.7669  0.1825
 3617SOL     OW12291   1.525   4.929   6.107 -0.0300 -0.2530 -0.0359
 3617SOL    HW112292   1.477   4.994   6.057  0.6245  0.9336  0.8200
 3617SOL    HW212293   1.592   4.897   6.047 -0.6089 -0.4440 -0.5893
 3618SOL     OW12294   1.442   3.720   5.960  0.3148  0.6473  0.2013
 3618SOL    HW112295   1.376   3.671   5.911  0.7267  0.5107 -0.2284
 3618SOL    HW212296   1.502   3.654   5.993  1.7681  0.9210 -1.7086
 3619SOL     OW12297   0.963   5.394   7.550 -0.1729 -0.5418  0.2232
 3619SOL    HW112298   0.878   5.393   7.506 -0.0497 -1.4561 -0.0232
 3619SOL    HW212299   1.002   5.309   7.528  0.9027 -0.0438  0.1369
 3620SOL     OW12300   7.545   3.047   6.778 -0.4911  0.2339  0.0536
 3620SOL    HW112301   7.493   2.996   6.840  1.3363 -0.7933  0.8192
 3620SOL    HW212302   7.613   3.087   6.832  1.5026 -1.1510 -1.2924
 3621SOL     OW12303   1.465   5.787   6.705  0.6134 -1.0823  0.0890
 3621SOL    HW112304   1.476   5.811   6.613 -0.7182 -0.6318  0.0181
 3621SOL    HW212305   1.521   5.848   6.753 -2.2058  1.9874 -0.1443
 3622SOL     OW12306   1.079   4.113   7.414  0.4873 -0.2775  0.1503
 3622SOL    HW112307   1.085   4.043   7.480 -2.4504  1.2590  2.2645
 3622SOL    HW212308   1.147   4.175   7.440 -0.8512  0.4804  2.0972
 3623SOL     OW12309   0.828   4.509   7.935  0.5633  0.2521  0.3786
 3623SOL    HW112310   0.877   4.575   7.885 -1.3896  0.4155 -1.4789
 3623SOL    HW212311   0.865   4.425   7.906 -0.3959  0.3527 -1.3282
 3624SOL     OW12312   2.952   5.813   7.351  0.6756  0.1944 -0.6414
 3624SOL    HW112313   2.865   5.792   7.317 -0.6944  0.5298  2.2934
 3624SOL    HW212314   2.997   5.729   7.355 -0.5387 -0.4548  0.2578
 3625SOL     OW12315   1.761   5.760   8.323  0.3222 -0.1415  0.3348
 3625SOL    HW112316   1.710   5.728   8.248  0.8484  0.5274 -0.3343
 3625SOL    HW212317   1.816   5.829   8.286 -0.8643  1.6598  1.7167
 3626SOL     OW12318   1.354   3.005   6.043 -0.0682 -0.3203  0.8276
 3626SOL    HW112319   1.428   3.024   6.100  0.4123 -0.5309  0.2838
 3626SOL    HW212320   1.377   3.044   5.958  0.1235 -1.6852  0.2184
 3627SOL     OW12321   1.824   4.107   4.568  0.0100 -0.3483  0.0983
 3627SOL    HW112322   1.823   4.013   4.587 -1.3165 -0.4954 -0.5771
 3627SOL    HW212323   1.750   4.141   4.617  1.0354  0.5403  1.0941
 3628SOL     OW12324   0.537   3.938   7.031 -0.2166 -0.0502  0.0003
 3628SOL    HW112325   0.571   3.939   7.120 -0.1489 -0.8307 -0.0067
 3628SOL    HW212326   0.592   3.999   6.983 -0.5713  0.7579  0.5980
 3629SOL     OW12327   7.001   5.150   7.351  0.8741 -0.0413 -0.2780
 3629SOL    HW112328   7.006   5.235   7.308  0.6508 -0.3378 -0.8967
 3629SOL    HW212329   6.976   5.089   7.282  0.7644 -0.5685  0.2174
 3630SOL     OW12330   0.550   3.561   5.843 -0.2454 -0.0348  0.7792
 3630SOL    HW112331   0.586   3.573   5.755 -1.2890 -0.4919  0.2768
 3630SOL    HW212332   0.606   3.494   5.882 -0.6139 -0.8540 -0.0507
 3631SOL     OW12333   0.748   4.592   6.288  0.3855  0.3917 -0.1470
 3631SOL    HW112334   0.698   4.633   6.359 -1.7856  0.8804 -1.8721
 3631SOL    HW212335   0.741   4.498   6.305 -1.7692  0.4053 -0.6851
 3632SOL     OW12336   0.948   1.186   9.525  0.1012  0.6327  0.0400
 3632SOL    HW112337   0.990   1.270   9.540 -0.2636  0.7972  0.1487
 3632SOL    HW212338   0.986   1.155   9.442  1.5472  0.0756  0.8630
 3633SOL     OW12339   5.491   4.902   5.667  0.2150 -0.6546  0.5223
 3633SOL    HW112340   5.450   4.875   5.585 -1.7245  1.5004  0.6934
 3633SOL    HW212341   5.429   4.876   5.735  0.2452  0.5223  1.0176
 3634SOL     OW12342   1.548   5.162   7.168 -0.2462  0.5491  0.2938
 3634SOL    HW112343   1.559   5.151   7.262 -0.5061 -1.6030  0.1377
 3634SOL    HW212344   1.453   5.167   7.155 -0.1961  1.2336  0.1755
 3635SOL     OW12345   0.704   4.894   5.691 -0.1834  0.3468  0.3254
 3635SOL    HW112346   0.663   4.974   5.723 -1.0108 -0.5152  1.4889
 3635SOL    HW212347   0.743   4.854   5.769  0.2996 -0.3500 -0.2568
 3636SOL     OW12348   6.771   5.411   6.963 -0.0546 -0.0484 -0.2229
 3636SOL    HW112349   6.811   5.478   6.907 -0.7838 -0.6395 -1.4965
 3636SOL    HW212350   6.839   5.390   7.028  0.0246  2.2214  0.4939
 3637SOL     OW12351   0.274   3.152   7.274 -0.3821  0.4560  0.2873
 3637SOL    HW112352   0.185   3.164   7.306 -0.6487  0.0994 -0.3130
 3637SOL    HW212353   0.267   3.156   7.179  0.3009  0.8062  0.2386
 3638SOL     OW12354   0.173   4.630   9.264 -0.1929 -0.0461 -0.3160
 3638SOL    HW112355   0.226   4.686   9.208  0.3351 -0.0996  0.1237
 3638SOL    HW212356   0.207   4.542   9.249 -1.0901 -0.2772 -1.0840
 3639SOL     OW12357   0.666   3.957   6.551  0.7203  0.1599 -0.0909
 3639SOL    HW112358   0.647   4.047   6.577  0.0204 -0.2451  0.8736
 3639SOL    HW212359   0.740   3.964   6.491  0.8783  1.3455  0.2215
 3640SOL     OW12360   1.610   4.429   6.668 -0.4753  0.1028  0.2151
 3640SOL    HW112361   1.522   4.425   6.630 -0.3896  1.1604 -0.1241
 3640SOL    HW212362   1.598   4.475   6.752 -0.4708 -1.1182  0.9045
 3641SOL     OW12363   0.067   5.152   7.185  0.0283  0.2385  0.8017
 3641SOL    HW112364   0.130   5.224   7.191  1.0766 -0.6056  0.2563
 3641SOL    HW212365   0.119   5.077   7.158 -0.8201 -1.0413  2.5592
 3642SOL     OW12366   7.210   4.568   7.371 -0.3647  0.3331 -0.1149
 3642SOL    HW112367   7.192   4.661   7.387 -0.7556  0.3845 -0.8380
 3642SOL    HW212368   7.124   4.528   7.361 -0.2449 -0.3025  1.1769
 3643SOL     OW12369   1.225   4.458   7.267 -0.2801  0.4421  0.7233
 3643SOL    HW112370   1.176   4.531   7.305 -0.9395  0.0397  0.6645
 3643SOL    HW212371   1.237   4.397   7.340 -2.4852 -0.8289  0.0962
 3644SOL     OW12372   7.573   3.046   6.499  0.0515  0.1525 -0.0430
 3644SOL    HW112373   7.516   3.120   6.517 -0.9613 -0.0761 -2.0771
 3644SOL    HW212374   7.604   3.018   6.585 -3.4130 -0.1299  1.2440
 3645SOL     OW12375   0.555   5.932   6.377 -0.8384  0.0583  0.0636
 3645SOL    HW112376   0.599   5.885   6.307 -0.1986  0.2424  0.3258
 3645SOL    HW212377   0.535   5.865   6.443 -1.8526 -0.1904 -0.4834
 3646SOL     OW12378   7.327   2.122   7.632 -0.1985  0.5282 -0.0964
 3646SOL    HW112379   7.358   2.036   7.605  3.1542  1.7387 -0.5114
 3646SOL    HW212380   7.355   2.131   7.723 -1.3093  0.8793  0.2317
 3647SOL     OW12381   2.285   4.725   7.121 -0.2653  0.1680  0.0573
 3647SOL    HW112382   2.362   4.764   7.080 -0.3710 -1.0169 -1.3730
 3647SOL    HW212383   2.304   4.631   7.122 -1.9676 -0.2469 -1.0470
 3648SOL     OW12384   3.313   5.195   7.679  0.0733  0.5031 -0.2549
 3648SOL    HW112385   3.220   5.198   7.656  0.0938  0.4098 -0.3516
 3648SOL    HW212386   3.358   5.202   7.595  0.1667  1.3959 -0.1466
 3649SOL     OW12387   3.567   6.388   5.810  0.1290 -0.0774 -0.1052
 3649SOL    HW112388   3.619   6.323   5.857 -1.1724 -1.1923 -0.1602
 3649SOL    HW212389   3.484   6.391   5.856 -0.6015 -0.0373 -1.3668
 3650SOL     OW12390   1.294   4.301   7.484  0.4988  0.3703 -0.0118
 3650SOL    HW112391   1.252   4.329   7.565  0.5474  0.4614 -0.0177
 3650SOL    HW212392   1.384   4.281   7.508  0.8271  1.4722 -0.2444
 3651SOL     OW12393   0.274   4.755   7.105  0.0535  0.5694  0.0351
 3651SOL    HW112394   0.181   4.761   7.123  0.0904  2.8347 -0.2625
 3651SOL    HW212395   0.316   4.759   7.191 -0.0803  1.6007  0.0631
 3652SOL     OW12396   0.660   4.781   6.778 -0.2151 -0.9339  0.4696
 3652SOL    HW112397   0.638   4.708   6.836 -0.4028 -1.9212 -0.8048
 3652SOL    HW212398   0.744   4.813   6.812 -0.2103 -1.6298  1.1497
 3653SOL     OW12399   1.805   6.366   7.497  0.2348  0.0526  0.3353
 3653SOL    HW112400   1.771   6.426   7.563 -0.1509  1.8475 -1.3846
 3653SOL    HW212401   1.894   6.397   7.480 -0.1603  0.5684 -0.9695
 3654SOL     OW12402   1.259   5.929   8.966  0.5655  0.1700 -0.3751
 3654SOL    HW112403   1.227   5.871   8.898  0.4765 -0.1870 -0.0332
 3654SOL    HW212404   1.344   5.892   8.992  1.3119  1.1590 -1.3386
 3655SOL     OW12405   1.267   3.798   6.414  0.0596  0.2456 -0.0648
 3655SOL    HW112406   1.241   3.851   6.490  0.2796 -1.5694  1.3450
 3655SOL    HW212407   1.363   3.800   6.417  0.0928 -1.2170  0.7795
 3656SOL     OW12408   1.210   3.730   7.321  0.1021  0.2419 -0.3492
 3656SOL    HW112409   1.293   3.756   7.281  1.0828 -1.2406  0.6382
 3656SOL    HW212410   1.222   3.638   7.343 -1.4579  0.2581  0.6847
 3657SOL     OW12411   0.510   5.737   5.480 -0.2004  0.0979 -0.0274
 3657SOL    HW112412   0.548   5.815   5.438 -1.7025  0.5472 -0.5990
 3657SOL    HW212413   0.427   5.723   5.435 -0.1560 -1.6032  0.3669
 3658SOL     OW12414   1.869   6.135   7.658 -0.2614  0.0199  0.2809
 3658SOL    HW112415   1.795   6.156   7.714 -0.6120 -0.2092 -0.0887
 3658SOL    HW212416   1.866   6.201   7.588  0.2813  0.4175  0.6217
 3659SOL     OW12417   0.610   2.512   8.616  0.1456 -0.3737 -0.2429
 3659SOL    HW112418   0.653   2.427   8.622 -0.4991 -0.6575  0.5370
 3659SOL    HW212419   0.569   2.525   8.702  0.6264  0.9385 -0.1789
 3660SOL     OW12420   7.839   2.331   4.360 -0.3169  0.3741 -0.2837
 3660SOL    HW112421   7.879   2.403   4.311 -0.7875  0.9137  0.1074
 3660SOL    HW212422   7.849   2.255   4.303  0.6362  0.6361 -0.4924
 3661SOL     OW12423   0.487   6.417   6.306  0.2917  0.0148 -0.4506
 3661SOL    HW112424   0.447   6.333   6.327  0.0020 -0.1498 -1.5633
 3661SOL    HW212425   0.521   6.450   6.389 -1.8325 -0.0163  0.4970
 3662SOL     OW12426   7.300   4.455   7.939  0.2784 -0.0719 -0.0947
 3662SOL    HW112427   7.386   4.426   7.967 -0.0489 -0.0062  1.0273
 3662SOL    HW212428   7.307   4.550   7.933  0.2734 -0.0620  0.0502
 3663SOL     OW12429   0.981   4.374   5.105 -0.4407 -0.2612 -0.2239
 3663SOL    HW112430   0.974   4.284   5.136 -1.3964  0.4502  1.7505
 3663SOL    HW212431   0.951   4.428   5.178  0.5232  1.7054 -1.1905
 3664SOL     OW12432   1.084   5.080   4.954 -0.0141  0.0288  0.2982
 3664SOL    HW112433   1.118   5.046   4.872  2.2639  0.3312  1.0247
 3664SOL    HW212434   1.147   5.149   4.979 -2.3877  2.2063  0.7151
 3665SOL     OW12435   0.647   5.268   8.445 -0.1664 -0.2218  0.4265
 3665SOL    HW112436   0.581   5.232   8.385 -0.6944 -0.4752  1.1373
 3665SOL    HW212437   0.609   5.351   8.475 -0.2881 -0.4903  1.0336
 3666SOL     OW12438   7.808   6.226   5.434  0.3142  0.3027 -0.4486
 3666SOL    HW112439   7.890   6.262   5.469 -0.7582  1.5580  0.8778
 3666SOL    HW212440   7.753   6.303   5.417 -0.3864 -0.4735 -1.9348
 3667SOL     OW12441   0.533   3.428   7.181 -0.3341  0.0018 -0.0196
 3667SOL    HW112442   0.584   3.486   7.237 -1.8476  1.2926  0.1100
 3667SOL    HW212443   0.507   3.484   7.107  0.5428 -1.3102 -1.3622
 3668SOL     OW12444   7.943   5.555   7.110 -0.1678  0.2795  0.5328
 3668SOL    HW112445   8.007   5.583   7.043 -0.5679 -1.1000 -0.4836
 3668SOL    HW212446   7.977   5.590   7.192  1.3577  0.4642 -0.1394
 3669SOL     OW12447   3.281   4.969   6.858 -0.1344 -0.4243  0.2801
 3669SOL    HW112448   3.253   5.046   6.809 -0.5736  0.4217  1.7699
 3669SOL    HW212449   3.327   5.006   6.934 -0.1286 -1.6422  0.8890
 3670SOL     OW12450   7.697   4.087   4.106 -0.4283 -0.1055 -0.6728
 3670SOL    HW112451   7.668   4.139   4.181  0.5498  1.7047 -1.4788
 3670SOL    HW212452   7.790   4.072   4.122 -0.5500 -1.0548 -0.7996
 3671SOL     OW12453   2.467   4.799   6.679  0.0298 -0.0706 -0.1658
 3671SOL    HW112454   2.483   4.888   6.646  0.4574  0.4335  1.3018
 3671SOL    HW212455   2.554   4.760   6.685 -0.0874 -0.3151 -0.0827
 3672SOL     OW12456   0.244   1.801   8.166  0.3177 -0.2979 -0.0436
 3672SOL    HW112457   0.211   1.785   8.077  0.1558 -0.7688  0.0977
 3672SOL    HW212458   0.293   1.884   8.159 -1.2335  0.6439 -0.1675
 3673SOL     OW12459   7.900   2.841   5.569 -0.0460 -0.4171  0.2907
 3673SOL    HW112460   7.951   2.882   5.639  0.3192  0.3931 -0.4382
 3673SOL    HW212461   7.965   2.815   5.504 -0.4469 -0.5383 -0.0671
 3674SOL     OW12462   1.144   3.377   6.576 -0.1773  0.0885 -0.0459
 3674SOL    HW112463   1.151   3.447   6.511 -0.7924 -0.0077 -0.2126
 3674SOL    HW212464   1.134   3.423   6.660  0.4143  0.2089 -0.0369
 3675SOL     OW12465   0.979   2.702   4.638 -0.7979 -0.1167  0.9321
 3675SOL    HW112466   0.983   2.683   4.544 -0.4913  1.5755  0.5696
 3675SOL    HW212467   1.067   2.684   4.670 -0.9706 -0.9519  0.9755
 3676SOL     OW12468   7.870   4.955   7.059  0.6102 -0.1301 -0.1613
 3676SOL    HW112469   7.935   4.887   7.076 -0.7295 -1.2284  0.7058
 3676SOL    HW212470   7.829   4.928   6.977  0.3747 -0.1368 -0.0412
 3677SOL     OW12471   6.446   5.824   6.929 -0.2511 -0.0549  0.0225
 3677SOL    HW112472   6.518   5.788   6.981  0.4233  0.7384 -0.3373
 3677SOL    HW212473   6.423   5.754   6.868 -0.5932 -0.7433  0.9177
 3678SOL     OW12474   0.597   3.592   5.547 -0.0693  0.3263  0.2785
 3678SOL    HW112475   0.589   3.681   5.511  2.3713  0.3501 -0.4005
 3678SOL    HW212476   0.605   3.536   5.471 -1.5820 -0.5334  0.7107
 3679SOL     OW12477   0.323   5.941   7.297  0.2139 -0.3877  0.1893
 3679SOL    HW112478   0.334   5.959   7.391  1.0945 -1.2782  0.2681
 3679SOL    HW212479   0.321   6.028   7.257 -1.8041  0.0988  1.1634
 3680SOL     OW12480   2.717   4.315   7.602 -0.2267  0.0515  0.2845
 3680SOL    HW112481   2.704   4.223   7.627 -1.2109 -0.5480 -2.1601
 3680SOL    HW212482   2.811   4.322   7.585 -0.0525 -0.3367  1.0255
 3681SOL     OW12483   0.764   3.266   6.912 -0.4588 -0.4163  0.6722
 3681SOL    HW112484   0.692   3.239   6.969 -0.6004 -2.4603 -0.3656
 3681SOL    HW212485   0.772   3.360   6.925 -2.5066 -0.3469  1.7390
 3682SOL     OW12486   1.604   3.024   5.537 -0.4949 -0.4065  0.1432
 3682SOL    HW112487   1.542   3.060   5.600 -0.5095 -2.1349  1.1589
 3682SOL    HW212488   1.580   2.932   5.529  0.5059 -0.5839 -1.2038
 3683SOL     OW12489   6.468   2.153   5.961 -0.4647  0.3332  0.2847
 3683SOL    HW112490   6.522   2.127   6.036 -2.5295 -2.6854  0.9125
 3683SOL    HW212491   6.519   2.125   5.884  0.7857  1.6289  0.6162
 3684SOL     OW12492   0.999   4.265   7.880 -0.1630 -0.3159  0.0921
 3684SOL    HW112493   1.018   4.188   7.826 -1.1861 -0.2359 -0.3953
 3684SOL    HW212494   0.991   4.229   7.969  0.9452 -0.5304  0.1189
 3685SOL     OW12495   1.127   3.945   6.965 -0.5601 -0.1572  0.6867
 3685SOL    HW112496   1.109   4.007   7.035  1.7331  1.2695  0.1162
 3685SOL    HW212497   1.222   3.934   6.967 -0.8212 -3.4543  0.5455
 3686SOL     OW12498   1.534   4.524   6.938  0.1387 -0.3131 -0.0237
 3686SOL    HW112499   1.541   4.508   7.032 -1.6904  0.7935  0.3394
 3686SOL    HW212500   1.444   4.500   6.916  0.9292 -2.0020 -1.8365
 3687SOL     OW12501   1.607   3.603   8.980  0.5462  0.1187  0.5103
 3687SOL    HW112502   1.550   3.620   9.056  1.1114  1.1840  0.7168
 3687SOL    HW212503   1.551   3.554   8.919  0.1417 -0.9376  1.6875
 3688SOL     OW12504   1.460   3.063   5.222  0.1151  0.3122 -0.0912
 3688SOL    HW112505   1.416   3.095   5.302 -1.2023 -0.0094 -0.6569
 3688SOL    HW212506   1.542   3.026   5.254 -0.1091  0.7335  1.0512
 3689SOL     OW12507   7.983   3.462   7.901 -0.1739 -0.0301 -0.3839
 3689SOL    HW112508   7.985   3.475   7.996 -0.6742 -1.3824 -0.1753
 3689SOL    HW212509   8.058   3.406   7.883 -0.1225  0.1663 -0.7920
 3690SOL     OW12510   0.365   6.429   5.388 -0.3964 -0.0288 -0.2346
 3690SOL    HW112511   0.295   6.377   5.348  0.9350 -1.5311 -0.6900
 3690SOL    HW212512   0.386   6.382   5.469  0.1162  0.3891 -0.1179
 3691SOL     OW12513   7.840   6.377   8.266  0.3912  0.4620 -0.2231
 3691SOL    HW112514   7.834   6.373   8.361  0.1458  0.2715 -0.2467
 3691SOL    HW212515   7.849   6.286   8.238  1.2212  0.5667 -0.3358
 3692SOL     OW12516   0.485   4.846   5.535  0.5701  0.3066  0.3579
 3692SOL    HW112517   0.460   4.937   5.523 -1.2767  0.0814  1.9840
 3692SOL    HW212518   0.570   4.849   5.578 -0.4567  1.3417  2.4245
 3693SOL     OW12519   0.762   3.787   7.569 -0.0910 -0.1422  0.2648
 3693SOL    HW112520   0.839   3.831   7.531 -0.7013  0.2232 -0.5741
 3693SOL    HW212521   0.709   3.762   7.494 -2.7043  3.0480  0.8184
 3694SOL     OW12522   2.038   3.535   5.958  0.7249 -0.3999  0.5991
 3694SOL    HW112523   2.072   3.624   5.968 -0.2624  0.1782 -0.8922
 3694SOL    HW212524   1.946   3.540   5.983  0.4730 -0.8281 -0.1951
 3695SOL     OW12525   6.056   4.091   5.915 -0.0116  0.4336 -0.4759
 3695SOL    HW112526   6.011   4.075   5.832  0.7540  0.0805 -0.8295
 3695SOL    HW212527   6.008   4.039   5.979 -1.5138  1.8397 -0.3894
 3696SOL     OW12528   2.091   3.712   4.890 -0.3766  0.3470  0.0060
 3696SOL    HW112529   2.168   3.664   4.858  0.3401  0.1145  1.9297
 3696SOL    HW212530   2.048   3.743   4.811  1.5846  0.3075 -1.1624
 3697SOL     OW12531   7.539   4.606   5.916 -0.2382 -0.0261  0.4612
 3697SOL    HW112532   7.515   4.516   5.942  1.4385  0.0908  2.7422
 3697SOL    HW212533   7.594   4.595   5.839  0.4566 -1.0601  1.0700
 3698SOL     OW12534   0.326   4.219   6.265 -0.5357 -0.4928  0.1043
 3698SOL    HW112535   0.273   4.175   6.199 -1.5093  1.4312 -0.4488
 3698SOL    HW212536   0.412   4.228   6.224 -0.5398 -1.1834 -0.0655
 3699SOL     OW12537   1.805   3.318   6.522 -0.0039  0.2349 -0.3649
 3699SOL    HW112538   1.762   3.400   6.547  1.6223  1.2494 -0.6828
 3699SOL    HW212539   1.746   3.249   6.550 -0.8797  1.4918  0.9920
 3700SOL     OW12540   1.289   1.783   6.820 -0.2477  0.3956  0.3011
 3700SOL    HW112541   1.194   1.793   6.816 -0.1787  0.9083 -0.2348
 3700SOL    HW212542   1.316   1.772   6.729  0.2416  0.5708  0.4203
 3701SOL     OW12543   0.643   3.976   6.093 -0.1877  0.0802 -0.2662
 3701SOL    HW112544   0.618   4.067   6.112 -0.5036  0.0758 -0.6432
 3701SOL    HW212545   0.564   3.937   6.055  0.4607  0.1511 -1.7616
 3702SOL     OW12546   1.167   5.592   6.846  0.5979 -0.2909  0.3260
 3702SOL    HW112547   1.161   5.681   6.880  1.4176 -0.6116  1.3577
 3702SOL    HW212548   1.119   5.539   6.909  0.5302 -0.6470 -0.0224
 3703SOL     OW12549   1.283   2.451   6.048  0.6511  0.0556 -0.4271
 3703SOL    HW112550   1.315   2.540   6.037  0.0760  0.0195 -2.9380
 3703SOL    HW212551   1.257   2.423   5.960 -2.7443 -1.2339  0.8026
 3704SOL     OW12552   0.618   3.089   5.075  0.3392  0.3901  0.2685
 3704SOL    HW112553   0.701   3.123   5.042  0.8162 -0.8624  0.1234
 3704SOL    HW212554   0.555   3.158   5.055  1.0371  0.6747 -1.1357
 3705SOL     OW12555   1.253   2.117   7.416 -0.4549 -0.3167  0.6800
 3705SOL    HW112556   1.330   2.104   7.362  0.0347  0.6509  1.1116
 3705SOL    HW212557   1.193   2.048   7.390 -0.2292  0.1006 -1.0846
 3706SOL     OW12558   7.350   4.840   6.613  0.1086  0.9389 -0.4271
 3706SOL    HW112559   7.257   4.822   6.612  0.0143  0.7919  2.3703
 3706SOL    HW212560   7.390   4.758   6.642  0.8159  1.6980  0.8462
 3707SOL     OW12561   0.605   4.183   5.779 -0.1266 -0.0670  0.5247
 3707SOL    HW112562   0.647   4.199   5.694 -1.4473  0.8591  0.0112
 3707SOL    HW212563   0.651   4.241   5.840  0.4476 -0.3084  0.3215
 3708SOL     OW12564   6.693   3.271   7.351  0.1603  0.4237  0.0633
 3708SOL    HW112565   6.630   3.215   7.305  1.9931 -1.2532 -0.5272
 3708SOL    HW212566   6.664   3.269   7.443 -0.7285 -0.1933 -0.2169
 3709SOL     OW12567   6.406   4.768   8.288  0.2230 -0.6293  0.3702
 3709SOL    HW112568   6.408   4.773   8.192  0.2706 -0.1170  0.3937
 3709SOL    HW212569   6.496   4.790   8.314 -0.4248  2.1682  0.6329
 3710SOL     OW12570   6.453   5.534   9.341  0.5260  0.9758 -0.4515
 3710SOL    HW112571   6.408   5.451   9.358 -0.0010  1.0596 -1.3763
 3710SOL    HW212572   6.545   5.510   9.332  0.8203  0.8744  2.0740
 3711SOL     OW12573   2.373   6.003   8.885  0.5945 -0.0714 -0.3291
 3711SOL    HW112574   2.408   6.016   8.797  0.6861  0.4912 -0.2105
 3711SOL    HW212575   2.335   5.915   8.883  1.8947 -0.6567 -0.4968
 3712SOL     OW12576   2.413   4.687   9.100 -0.4107  0.0433 -0.1027
 3712SOL    HW112577   2.507   4.706   9.095 -0.2573 -0.7672 -0.3833
 3712SOL    HW212578   2.372   4.754   9.044  0.1996 -0.9111 -1.7651
 3713SOL     OW12579   0.003   4.142   7.691 -1.2153 -0.0980  0.2573
 3713SOL    HW112580  -0.075   4.190   7.718 -1.4522 -0.5713  0.4026
 3713SOL    HW212581   0.066   4.211   7.670 -2.3955  0.3617 -2.1042
 3714SOL     OW12582   1.425   2.640   8.197  0.0468  0.1118  0.2730
 3714SOL    HW112583   1.413   2.697   8.121  0.4553 -0.8806 -0.5673
 3714SOL    HW212584   1.516   2.653   8.224 -0.1814  0.6840  0.7949
 3715SOL     OW12585   6.640   4.880   7.333 -0.1185 -0.3574  0.4151
 3715SOL    HW112586   6.694   4.958   7.347 -0.5613  0.4099 -1.8051
 3715SOL    HW212587   6.565   4.892   7.392  0.1053  0.6220  0.5183
 3716SOL     OW12588   1.173   4.829  10.367 -0.5092  0.7145 -0.2167
 3716SOL    HW112589   1.266   4.825  10.345 -0.3745  0.9617  0.2929
 3716SOL    HW212590   1.130   4.777  10.299 -0.1081  1.4207 -1.0236
 3717SOL     OW12591   1.547   4.457   8.936  0.6112 -0.3254  0.0311
 3717SOL    HW112592   1.467   4.405   8.932 -0.3346  1.0530  0.0524
 3717SOL    HW212593   1.614   4.402   8.896 -0.0474 -2.0244  1.1425
 3718SOL     OW12594   7.679   5.772   8.565  0.2887  0.0118  0.1169
 3718SOL    HW112595   7.688   5.836   8.636 -0.8990  0.9512 -0.5508
 3718SOL    HW212596   7.763   5.726   8.565  0.3899  0.0908  2.0206
 3719SOL     OW12597   2.324   4.114   9.198  0.1215  0.4593 -1.1661
 3719SOL    HW112598   2.264   4.186   9.183  0.6621  0.8441 -1.5127
 3719SOL    HW212599   2.406   4.142   9.159  0.6334  0.0951 -0.3936
 3720SOL     OW12600   1.006   5.998   9.073 -0.1485  0.3633 -0.1789
 3720SOL    HW112601   1.017   6.092   9.066 -0.4057  0.3798 -0.4116
 3720SOL    HW212602   1.073   5.961   9.016  0.0324  0.4036  0.0099
 3721SOL     OW12603   2.130   5.634   9.343 -0.5267 -0.2669  0.3357
 3721SOL    HW112604   2.219   5.607   9.322 -1.1169 -1.7300 -0.4716
 3721SOL    HW212605   2.122   5.722   9.308  0.2606 -0.5431 -0.5808
 3722SOL     OW12606   1.623   5.777   8.561 -0.2057  0.5180  0.4291
 3722SOL    HW112607   1.663   5.793   8.475 -2.0591  1.3951 -0.3328
 3722SOL    HW212608   1.559   5.848   8.571 -0.7086 -0.1264  2.1099
 3723SOL     OW12609   0.367   6.581   9.554  0.4913  0.4659  0.2677
 3723SOL    HW112610   0.387   6.610   9.465 -0.4586  0.8461  0.1699
 3723SOL    HW212611   0.275   6.557   9.552  1.0446 -1.9216  0.5321
 3724SOL     OW12612   1.302   5.253   9.051 -0.2149 -0.2195  0.7950
 3724SOL    HW112613   1.331   5.218   8.967 -1.2032  0.0385  0.3240
 3724SOL    HW212614   1.380   5.253   9.106 -0.1148 -2.9334  0.7563
 3725SOL     OW12615   0.674   5.550   8.956  0.1902  0.1850  0.3647
 3725SOL    HW112616   0.601   5.576   9.012 -0.1666 -0.3886  0.1649
 3725SOL    HW212617   0.731   5.499   9.013  0.2966  0.3910  0.4455
 3726SOL     OW12618   2.337   6.246   8.996  0.3269 -0.1911  0.0052
 3726SOL    HW112619   2.414   6.299   8.974  1.1905 -1.6855 -0.7470
 3726SOL    HW212620   2.358   6.159   8.962 -0.8339 -1.1492  1.6024
 3727SOL     OW12621   2.899   6.617  10.052  0.0956 -0.1402 -0.2801
 3727SOL    HW112622   2.870   6.700  10.015  0.5889 -0.0898 -0.5573
 3727SOL    HW212623   2.818   6.568  10.067 -0.1155 -0.2444 -1.6220
 3728SOL     OW12624   1.263   3.210   8.089 -0.0165 -0.1306 -0.1084
 3728SOL    HW112625   1.233   3.134   8.140  1.1415 -0.8674 -0.5003
 3728SOL    HW212626   1.257   3.284   8.150 -1.2223 -0.5052  0.2585
 3729SOL     OW12627   1.839   4.479   7.489 -0.2104 -0.1860  0.3883
 3729SOL    HW112628   1.874   4.564   7.461  1.1724 -0.5186  1.0411
 3729SOL    HW212629   1.751   4.499   7.519  1.2727  1.7645  4.0664
 3730SOL     OW12630   1.366   2.754   7.968  0.5068 -0.0209 -0.1877
 3730SOL    HW112631   1.336   2.674   7.925 -0.9880  0.6915 -0.5613
 3730SOL    HW212632   1.404   2.806   7.897  2.1070 -0.6397  0.1699
 3731SOL     OW12633   0.878   4.019   6.411 -0.1138  0.6341  0.1573
 3731SOL    HW112634   0.939   4.004   6.339  0.0603  0.7474  0.2792
 3731SOL    HW212635   0.914   4.094   6.457 -0.2880  0.6336  0.2946
 3732SOL     OW12636   1.114   5.252   6.572 -0.5157  0.1322 -0.1481
 3732SOL    HW112637   1.207   5.233   6.564 -0.2968  1.4188 -0.8779
 3732SOL    HW212638   1.071   5.180   6.526  0.1126 -0.4038  0.0903
 3733SOL     OW12639   7.300   3.963   7.526  0.0463  0.2203  0.2586
 3733SOL    HW112640   7.307   4.014   7.446  0.0749  0.1499  0.2165
 3733SOL    HW212641   7.262   4.023   7.590 -3.0943 -0.5911 -0.6445
 3734SOL     OW12642   2.553   3.858   9.415  0.4036  0.5159 -0.3356
 3734SOL    HW112643   2.577   3.779   9.463 -0.3959  0.6388  0.2941
 3734SOL    HW212644   2.510   3.913   9.480 -1.5261  0.3029 -1.3612
 3735SOL     OW12645   1.733   4.268   8.442  0.0349 -0.1089  0.2597
 3735SOL    HW112646   1.721   4.267   8.347 -0.7886  0.6882  0.3467
 3735SOL    HW212647   1.649   4.239   8.478 -0.5861  2.1886  0.7985
 3736SOL     OW12648   0.861   5.201   8.627 -0.2036  0.3204 -0.6449
 3736SOL    HW112649   0.792   5.221   8.564 -1.2269 -0.8367  0.0639
 3736SOL    HW212650   0.935   5.255   8.600 -0.4194 -0.5029 -3.1418
 3737SOL     OW12651   0.325   5.031   9.831 -0.2361 -0.5668 -0.3333
 3737SOL    HW112652   0.291   4.992   9.911  0.2581 -2.0656 -0.8203
 3737SOL    HW212653   0.326   4.959   9.768  1.2561  0.0867 -1.0984
 3738SOL     OW12654   1.545   5.404   8.633  0.1440  0.1872 -0.5817
 3738SOL    HW112655   1.582   5.392   8.721  0.5242 -1.7811 -0.9662
 3738SOL    HW212656   1.452   5.420   8.649  0.1471 -0.4901  0.1880
 3739SOL     OW12657   0.145   3.965   7.262  0.3842  0.2835 -0.0110
 3739SOL    HW112658   0.132   4.044   7.315 -2.1589 -0.1015  0.0796
 3739SOL    HW212659   0.191   3.995   7.184  1.1317  1.5014  0.8692
 3740SOL     OW12660   1.748   4.292   8.747  0.0620  0.4903  0.5283
 3740SOL    HW112661   1.696   4.278   8.667  0.0084 -0.2270  0.6790
 3740SOL    HW212662   1.787   4.206   8.765 -0.9900  0.2865  2.0264
 3741SOL     OW12663   0.571   5.699   7.760 -0.3576 -0.2666 -0.1761
 3741SOL    HW112664   0.621   5.728   7.836 -0.1091 -2.1734  0.4310
 3741SOL    HW212665   0.609   5.747   7.686 -0.1879  1.1373  0.7886
 3742SOL     OW12666   0.506   4.309   8.351  0.1823 -0.0586 -0.0370
 3742SOL    HW112667   0.600   4.303   8.362  0.0186 -1.1867  1.0092
 3742SOL    HW212668   0.472   4.227   8.387 -1.1848  0.2586 -0.5222
 3743SOL     OW12669   1.695   7.034  10.233  0.6302  0.0672 -0.1081
 3743SOL    HW112670   1.604   7.004  10.231  0.7764 -0.4833  0.9744
 3743SOL    HW212671   1.744   6.966  10.188  0.5260  0.3256 -0.6212
 3744SOL     OW12672   1.929   6.846   7.693 -0.4547 -0.0933 -0.4067
 3744SOL    HW112673   1.869   6.859   7.620 -0.6238  2.1432  0.0921
 3744SOL    HW212674   1.947   6.933   7.726  2.6116 -0.7014 -0.1537
 3745SOL     OW12675   0.304   3.317   8.267  0.3153  0.6604  0.2483
 3745SOL    HW112676   0.305   3.277   8.180 -1.6971  0.9207  0.0633
 3745SOL    HW212677   0.388   3.292   8.306  0.1987 -1.5747 -0.8130
 3746SOL     OW12678   7.532   4.311   7.956  0.5509  0.0198 -0.7399
 3746SOL    HW112679   7.542   4.225   7.996  0.8663 -0.0661 -1.0000
 3746SOL    HW212680   7.517   4.293   7.863 -1.5137  0.1606 -0.4671
 3747SOL     OW12681   3.652   5.875   7.132  0.0292 -0.4676 -0.5318
 3747SOL    HW112682   3.614   5.852   7.047  1.6686 -0.0337 -1.4262
 3747SOL    HW212683   3.632   5.800   7.188 -1.1089 -0.7453 -1.2764
 3748SOL     OW12684   0.532   5.759   9.108 -0.0519 -0.2672 -0.7299
 3748SOL    HW112685   0.601   5.816   9.141 -0.8517  0.2537  0.1170
 3748SOL    HW212686   0.495   5.807   9.034 -0.5467  0.2110 -0.1847
 3749SOL     OW12687   0.691   5.266   8.847 -0.3686 -0.2150  0.0153
 3749SOL    HW112688   0.738   5.258   8.764 -1.2714 -1.0545 -0.4334
 3749SOL    HW212689   0.758   5.291   8.910  0.2198  1.0776 -1.0804
 3750SOL     OW12690   7.617   5.696  10.767 -0.6008 -0.0971 -0.4064
 3750SOL    HW112691   7.565   5.750  10.826  1.2659  1.7510 -0.3472
 3750SOL    HW212692   7.676   5.758  10.723  1.8770 -2.0807 -0.1097
 3751SOL     OW12693   1.278   4.030   8.463  0.0476 -0.1640  0.1409
 3751SOL    HW112694   1.237   4.095   8.520 -1.0158 -0.0924 -0.6721
 3751SOL    HW212695   1.317   4.081   8.392 -1.9436 -0.4032 -1.2333
 3752SOL     OW12696   1.037   4.507   6.424 -0.4100  0.3043  0.2140
 3752SOL    HW112697   1.082   4.500   6.340 -0.9418  3.3547 -0.4358
 3752SOL    HW212698   1.043   4.599   6.448 -3.6037  0.3180  1.6119
 3753SOL     OW12699   0.341   6.197   9.101  0.3243  0.1914 -0.9616
 3753SOL    HW112700   0.404   6.220   9.169  0.8402  2.3500 -2.0686
 3753SOL    HW212701   0.394   6.188   9.021 -0.4150 -1.0822 -1.3387
 3754SOL     OW12702   7.239   6.049   9.799 -0.9033  0.2827  0.0161
 3754SOL    HW112703   7.196   5.966   9.775  0.2259 -0.8635  1.6893
 3754SOL    HW212704   7.237   6.049   9.895  1.3699  0.9526  0.1093
 3755SOL     OW12705   2.062   2.570   8.061 -0.2606  0.4866  0.2474
 3755SOL    HW112706   2.108   2.593   7.981 -0.8914  0.1544 -0.2155
 3755SOL    HW212707   1.990   2.514   8.033  0.0916 -0.4717  1.1439
 3756SOL     OW12708   7.976   3.931   8.220 -0.2233 -0.0880  0.6798
 3756SOL    HW112709   7.992   3.953   8.128  2.6770  1.6111  1.4750
 3756SOL    HW212710   8.033   3.857   8.238  0.3790  0.5443  1.4546
 3757SOL     OW12711   1.711   5.478   8.179 -0.3158 -0.3852  0.0537
 3757SOL    HW112712   1.659   5.464   8.099 -0.6796 -1.1425  0.4083
 3757SOL    HW212713   1.646   5.492   8.247 -0.0910 -1.7286  0.5785
 3758SOL     OW12714   7.189   4.870   7.659 -0.4941 -0.0843  0.0532
 3758SOL    HW112715   7.215   4.961   7.640  2.5197 -0.8248  0.2021
 3758SOL    HW212716   7.191   4.827   7.574  0.6602 -0.5722  0.3142
 3759SOL     OW12717   1.715   4.556   8.182 -0.1679 -0.1006  0.6231
 3759SOL    HW112718   1.676   4.623   8.125  0.1237  0.0091  0.5502
 3759SOL    HW212719   1.769   4.605   8.243 -0.3351 -0.2341  0.8826
 3760SOL     OW12720   7.729   7.280   9.477 -0.1905 -0.0837 -0.0804
 3760SOL    HW112721   7.765   7.204   9.432 -0.8051 -1.5722  1.8257
 3760SOL    HW212722   7.798   7.306   9.538 -0.4215  0.1989  0.0597
 3761SOL     OW12723   1.497   4.310   8.087 -0.2373 -0.3290 -0.4161
 3761SOL    HW112724   1.517   4.286   7.997 -1.8786  0.1135 -0.9353
 3761SOL    HW212725   1.442   4.388   8.080  0.7932  0.5818  1.0383
 3762SOL     OW12726   0.201   6.791   9.307 -0.0164  0.1412  0.3548
 3762SOL    HW112727   0.120   6.795   9.358 -0.9793  0.2740 -1.1159
 3762SOL    HW212728   0.182   6.842   9.228  1.1823 -0.5713 -0.4288
 3763SOL     OW12729   1.016   5.072   8.130 -0.0321  1.0562 -0.1953
 3763SOL    HW112730   0.926   5.048   8.149  0.1913  0.5833  0.2868
 3763SOL    HW212731   1.030   5.044   8.040  0.2297 -0.6837  0.3569
 3764SOL     OW12732   1.131   3.134   7.699 -0.5200 -0.1030  0.1246
 3764SOL    HW112733   1.209   3.172   7.740 -1.3378  0.2846  1.3999
 3764SOL    HW212734   1.097   3.203   7.642 -1.5854  0.8957  1.8753
 3765SOL     OW12735   1.295   4.643   9.400  0.2104  0.4667 -0.6425
 3765SOL    HW112736   1.268   4.606   9.316 -0.7185 -0.9495  0.2323
 3765SOL    HW212737   1.231   4.711   9.419 -1.7895 -1.5685  0.5031
 3766SOL     OW12738   1.713   5.074   7.606  0.3640 -0.2336 -0.0389
 3766SOL    HW112739   1.785   5.122   7.649  2.3082 -0.8446 -2.3974
 3766SOL    HW212740   1.691   5.004   7.667  0.3714  1.1202  1.5982
 3767SOL     OW12741   0.230   3.402   9.232 -0.5155  0.1765  0.8948
 3767SOL    HW112742   0.229   3.406   9.136  1.6609  1.5475  0.8514
 3767SOL    HW212743   0.172   3.472   9.260 -1.5126 -0.5155  0.6155
 3768SOL     OW12744   0.937   3.685   7.946  0.5834 -0.2646 -0.2190
 3768SOL    HW112745   0.997   3.612   7.931  1.0659  0.2283 -0.7156
 3768SOL    HW212746   0.922   3.722   7.859 -2.1867 -1.7061 -0.4514
 3769SOL     OW12747   0.820   5.938  10.635  0.4498  0.0357 -0.1758
 3769SOL    HW112748   0.883   5.866  10.633  0.7120  0.1521  1.7156
 3769SOL    HW212749   0.766   5.921  10.713 -0.2828  1.2349 -0.3818
 3770SOL     OW12750   0.036   2.704   8.164  0.0674 -0.2515  1.0616
 3770SOL    HW112751   0.036   2.610   8.182 -0.3988 -0.7277 -1.1311
 3770SOL    HW212752   0.127   2.731   8.175  0.0004 -0.6364  2.9868
 3771SOL     OW12753   7.944   5.251  10.540  0.6844  0.6700  0.0468
 3771SOL    HW112754   7.939   5.155  10.541 -0.4294  0.7010  1.7833
 3771SOL    HW212755   8.010   5.271  10.475  2.4624 -1.3740  1.1110
 3772SOL     OW12756   1.118   7.099   8.350  0.3470  0.3937 -0.2665
 3772SOL    HW112757   1.174   7.033   8.391 -1.3957 -0.3636  0.9878
 3772SOL    HW212758   1.123   7.174   8.409 -2.4315 -0.8140  1.7261
 3773SOL     OW12759   6.435   4.387   7.901  0.1734 -0.2308  0.0753
 3773SOL    HW112760   6.531   4.386   7.902  0.1645 -0.7108  0.8677
 3773SOL    HW212761   6.413   4.361   7.811  0.7730  2.2282 -0.8965
 3774SOL     OW12762   1.803   4.183   9.741 -0.1238  0.0722 -0.2511
 3774SOL    HW112763   1.743   4.255   9.719 -1.3146 -0.4805  1.0624
 3774SOL    HW212764   1.884   4.205   9.695 -0.6955  1.8738 -0.4754
 3775SOL     OW12765   0.305   3.387   7.477 -0.0008  0.1209 -0.5165
 3775SOL    HW112766   0.277   3.382   7.385  1.2592 -1.8941 -0.8478
 3775SOL    HW212767   0.239   3.338   7.525  0.5946 -0.8938 -0.7049
 3776SOL     OW12768   1.838   3.152  10.285 -0.0700 -0.9557 -0.0983
 3776SOL    HW112769   1.811   3.060  10.277 -3.2247  0.0070 -2.6682
 3776SOL    HW212770   1.921   3.156  10.238 -0.0481 -2.4282 -0.2456
 3777SOL     OW12771   2.541   6.477   9.271  0.1584  0.0704 -0.3170
 3777SOL    HW112772   2.552   6.556   9.219 -0.0955 -0.5479 -1.3420
 3777SOL    HW212773   2.446   6.469   9.283  0.2258  0.3007  0.3896
 3778SOL     OW12774   1.755   5.466   7.501 -0.2294  0.3272 -0.2250
 3778SOL    HW112775   1.831   5.511   7.466 -0.7064 -0.2659 -2.1675
 3778SOL    HW212776   1.763   5.376   7.469 -3.1302  0.8668 -3.1095
 3779SOL     OW12777   1.545   7.001   8.454 -0.2748  0.3982  0.0810
 3779SOL    HW112778   1.592   7.084   8.452  0.7556 -0.1358 -3.0306
 3779SOL    HW212779   1.614   6.934   8.453 -1.0918 -0.5632  1.9903
 3780SOL     OW12780   0.691   3.293   7.980 -0.4262  0.2640  0.3424
 3780SOL    HW112781   0.626   3.363   7.986  1.2035  2.0322 -1.2487
 3780SOL    HW212782   0.641   3.216   7.952 -1.8830  1.5253 -0.7090
 3781SOL     OW12783   6.575   5.151   8.894 -0.3249  0.1772 -0.2576
 3781SOL    HW112784   6.638   5.165   8.823 -0.3630  0.5460 -0.2190
 3781SOL    HW212785   6.529   5.070   8.870  0.7176 -0.5518  0.1147
 3782SOL     OW12786   0.613   5.459   8.660  0.3254  0.1051  0.0468
 3782SOL    HW112787   0.624   5.444   8.754 -0.4659  0.8120  0.2658
 3782SOL    HW212788   0.657   5.542   8.644  0.6162 -0.1041 -0.2443
 3783SOL     OW12789   1.170   3.938   8.016  0.1297 -0.0874  0.5415
 3783SOL    HW112790   1.157   3.978   8.102 -0.3357  0.3509  0.2730
 3783SOL    HW212791   1.099   3.874   8.009  0.5002 -0.5197  0.7111
 3784SOL     OW12792   1.198   2.909   9.224 -0.0052  0.4215  0.5789
 3784SOL    HW112793   1.114   2.953   9.236 -0.7784 -0.6535 -0.6187
 3784SOL    HW212794   1.175   2.820   9.197  1.5227  0.3238 -0.5205
 3785SOL     OW12795   2.277   4.871   8.963 -0.1589  0.4330  0.1796
 3785SOL    HW112796   2.334   4.946   8.945  0.0921 -0.1096 -1.4330
 3785SOL    HW212797   2.190   4.908   8.970 -0.2245  0.7676 -1.9117
 3786SOL     OW12798   0.165   5.153   8.201  0.1384  1.0423  0.1939
 3786SOL    HW112799   0.180   5.246   8.219  0.9015  0.9814 -0.0822
 3786SOL    HW212800   0.229   5.131   8.133 -0.5543  0.4975 -0.2983
 3787SOL     OW12801   0.205   6.654   7.329  0.3974 -0.4761 -0.3144
 3787SOL    HW112802   0.181   6.652   7.421  1.1626 -0.3916 -0.1114
 3787SOL    HW212803   0.301   6.651   7.328  0.4065 -0.2676 -1.0964
 3788SOL     OW12804   1.105   6.134   6.858  0.3104 -0.4669  0.3542
 3788SOL    HW112805   1.158   6.084   6.920 -0.0699  2.0696  2.8997
 3788SOL    HW212806   1.024   6.154   6.906  0.6019  2.8485 -0.3069
 3789SOL     OW12807   0.126   3.823   7.493  0.6828 -0.0354 -0.4612
 3789SOL    HW112808   0.194   3.760   7.518 -1.6380 -2.0384  1.3787
 3789SOL    HW212809   0.156   3.858   7.409  4.8321  0.6487  1.0646
 3790SOL     OW12810   7.284   5.066   8.944 -0.2201  0.0518  0.3426
 3790SOL    HW112811   7.201   5.053   8.989 -0.9994  0.4880 -0.9061
 3790SOL    HW212812   7.313   5.153   8.970 -0.5249  0.1906  0.2140
 3791SOL     OW12813   1.235   2.941   8.204  0.3837  0.1431  0.1710
 3791SOL    HW112814   1.240   2.992   8.285 -1.7938  0.7634 -0.0009
 3791SOL    HW212815   1.325   2.934   8.173  0.9846  2.0569  1.3455
 3792SOL     OW12816   1.174   6.539   9.020 -0.5728  0.0696 -0.3581
 3792SOL    HW112817   1.226   6.568   9.095 -1.7004 -2.2131  1.4206
 3792SOL    HW212818   1.239   6.518   8.953  0.7270 -0.8378  1.1085
 3793SOL     OW12819   1.069   3.858   8.735  0.2445  0.4389 -0.0709
 3793SOL    HW112820   1.041   3.943   8.768 -0.0158  1.0875 -1.8868
 3793SOL    HW212821   1.041   3.796   8.803 -0.9147  1.6340  0.5844
 3794SOL     OW12822   3.437   5.034  10.308 -0.1670  0.1189  0.7316
 3794SOL    HW112823   3.509   4.989  10.263  0.4816  1.7764  0.0471
 3794SOL    HW212824   3.397   4.966  10.362 -0.5602 -1.8191 -1.7969
 3795SOL     OW12825   1.457   5.146   8.496 -0.0563 -0.2724 -0.4861
 3795SOL    HW112826   1.466   5.241   8.501  0.6008 -0.3356 -0.3294
 3795SOL    HW212827   1.545   5.113   8.515 -0.6067 -0.9682  1.0328
 3796SOL     OW12828   1.760   3.532   5.741 -0.4536  0.0129 -0.3759
 3796SOL    HW112829   1.809   3.530   5.824  0.7854 -0.4717 -1.1031
 3796SOL    HW212830   1.699   3.459   5.748  0.9784 -1.2533 -0.6619
 3797SOL     OW12831   0.568   6.217   7.311  0.7723 -0.3369 -0.1531
 3797SOL    HW112832   0.498   6.278   7.337 -0.1168 -1.0327 -0.8627
 3797SOL    HW212833   0.621   6.207   7.390  0.1108  0.2700  0.3816
 3798SOL     OW12834   0.904   7.200   8.247  0.4697  0.5233  0.1439
 3798SOL    HW112835   0.897   7.151   8.165  0.0878  0.2109  0.3552
 3798SOL    HW212836   0.982   7.165   8.290  0.7124  0.7410 -0.1221
 3799SOL     OW12837   1.291   2.524   7.858 -0.0638 -0.4975  0.8277
 3799SOL    HW112838   1.245   2.458   7.807 -1.7158  0.4582  1.0029
 3799SOL    HW212839   1.380   2.524   7.824 -0.6972 -1.0551 -0.8980
 3800SOL     OW12840   7.673   3.894   7.557  0.1872 -0.2570  0.0823
 3800SOL    HW112841   7.591   3.898   7.608 -0.5069  0.4444 -1.0483
 3800SOL    HW212842   7.680   3.981   7.517  0.6898 -0.8001 -1.0385
 3801SOL     OW12843   2.915   5.870   8.956 -0.0457  0.8146 -0.0568
 3801SOL    HW112844   2.890   5.907   9.040 -1.0112 -1.2115  0.6017
 3801SOL    HW212845   2.999   5.828   8.972 -0.1817  0.5103 -0.1371
 3802SOL     OW12846   0.839   6.232   9.191 -0.2523 -0.2201  0.1970
 3802SOL    HW112847   0.890   6.262   9.266  1.6639 -1.4744 -0.5432
 3802SOL    HW212848   0.882   6.272   9.116 -1.2609 -0.1663 -0.3720
 3803SOL     OW12849   0.840   6.260   9.871  0.2428 -0.3365 -0.4034
 3803SOL    HW112850   0.766   6.201   9.854  0.4779 -0.6936 -0.2186
 3803SOL    HW212851   0.918   6.205   9.858  0.4699 -0.0249 -0.3743
 3804SOL     OW12852   2.102   5.286   7.376  0.4015  0.3742 -0.0826
 3804SOL    HW112853   2.109   5.380   7.361  0.4756  0.4621  0.4837
 3804SOL    HW212854   2.008   5.271   7.387  0.5074  0.6229  1.2964
 3805SOL     OW12855   1.932   5.847   9.028 -0.0355  0.5318 -0.5802
 3805SOL    HW112856   1.896   5.909   8.964 -0.0106  2.1194  0.8856
 3805SOL    HW212857   1.870   5.850   9.101 -0.3024 -1.5885 -0.6692
 3806SOL     OW12858   2.649   5.058   9.646  0.3173 -0.3092 -0.0217
 3806SOL    HW112859   2.589   5.075   9.719  0.9445 -0.4635  0.5309
 3806SOL    HW212860   2.654   5.142   9.600 -0.0761 -0.2097  0.1074
 3807SOL     OW12861   0.704   4.015   9.683 -0.2801 -0.2689  0.2487
 3807SOL    HW112862   0.612   3.995   9.666 -0.6938 -0.4735  2.4874
 3807SOL    HW212863   0.726   3.966   9.762  1.6688  0.0567 -0.0334
 3808SOL     OW12864   0.069   5.272   7.722 -0.6433 -0.1699 -0.4910
 3808SOL    HW112865   0.073   5.244   7.631 -1.0045  2.1994 -1.3060
 3808SOL    HW212866   0.148   5.235   7.761 -1.6358 -3.1873 -1.0769
 3809SOL     OW12867   6.512   4.527   9.263 -0.2305 -0.2152 -0.3171
 3809SOL    HW112868   6.434   4.495   9.307 -0.8510  0.3849 -0.9349
 3809SOL    HW212869   6.528   4.464   9.193 -1.0966  0.4598 -1.1584
 3810SOL     OW12870   0.581   4.109   8.027  0.3072  0.2579  0.4024
 3810SOL    HW112871   0.571   4.014   8.033  0.9644  0.1863  0.4256
 3810SOL    HW212872   0.674   4.122   8.007  0.0247  0.8529 -0.5797
 3811SOL     OW12873   7.099   5.941   8.945 -0.2357  0.0519 -0.0518
 3811SOL    HW112874   7.105   6.000   8.871  0.3943  0.1296  0.0522
 3811SOL    HW212875   7.188   5.907   8.956  0.0002  1.0493  1.4822
 3812SOL     OW12876   1.376   4.577   8.357  0.4343 -0.3600  0.7699
 3812SOL    HW112877   1.306   4.612   8.302  2.4048  1.4995 -0.7401
 3812SOL    HW212878   1.431   4.528   8.296  0.9920 -0.9703  1.7408
 3813SOL     OW12879   0.504   3.508   8.520  0.0194 -0.7644 -0.2031
 3813SOL    HW112880   0.520   3.517   8.426 -0.6009  1.6341 -0.1444
 3813SOL    HW212881   0.585   3.539   8.561 -0.5932  0.5861  0.0326
 3814SOL     OW12882   1.135   5.927   9.305  0.0751 -0.0912  0.5118
 3814SOL    HW112883   1.102   5.974   9.381 -0.2240  1.6047 -0.6287
 3814SOL    HW212884   1.082   5.958   9.232 -0.8646 -2.9886 -0.1839
 3815SOL     OW12885   0.908   4.651   9.339 -0.3599 -0.1792  0.1119
 3815SOL    HW112886   0.976   4.719   9.337 -0.1860 -0.3403  0.3612
 3815SOL    HW212887   0.913   4.609   9.253 -1.8358  1.4302 -0.8015
 3816SOL     OW12888   7.997   3.522   7.363  0.3684  0.1659 -0.4452
 3816SOL    HW112889   7.993   3.526   7.458 -0.3412  0.1123 -0.4711
 3816SOL    HW212890   7.946   3.598   7.333 -1.0641 -0.8947 -0.7933
 3817SOL     OW12891   0.729   6.727   8.468  0.3509 -0.4672 -0.0455
 3817SOL    HW112892   0.720   6.655   8.405 -1.7512 -0.2694 -0.0590
 3817SOL    HW212893   0.697   6.804   8.421 -1.3389 -0.3358  1.2019
 3818SOL     OW12894   1.319   4.128   8.829 -0.5820  0.2527  0.2561
 3818SOL    HW112895   1.362   4.147   8.912  0.4492  2.1376 -0.6593
 3818SOL    HW212896   1.348   4.040   8.806  0.4607  0.3727  1.0707
 3819SOL     OW12897   3.158   4.534   9.996  0.0302  0.1702  0.0750
 3819SOL    HW112898   3.078   4.510   9.949  0.3345  0.8515 -0.7989
 3819SOL    HW212899   3.199   4.602   9.943  1.8841 -1.0654 -0.1930
 3820SOL     OW12900   2.507   4.414   8.098  0.1225  0.0311 -0.3067
 3820SOL    HW112901   2.530   4.337   8.046 -1.4125 -0.8838  0.3024
 3820SOL    HW212902   2.489   4.482   8.033 -1.0149 -0.8737 -0.9831
 3821SOL     OW12903   6.878   4.851   8.179  0.0784 -0.5894 -0.9443
 3821SOL    HW112904   6.831   4.914   8.125  0.5852  2.1365  1.5814
 3821SOL    HW212905   6.946   4.817   8.121 -1.1354  0.0048 -2.8193
 3822SOL     OW12906   0.290   4.772   9.028  0.2914 -0.0028 -0.2173
 3822SOL    HW112907   0.295   4.707   8.958  0.1002  1.8002 -1.9792
 3822SOL    HW212908   0.295   4.856   8.984  0.4188  1.2228  1.9804
 3823SOL     OW12909   1.143   4.270   8.231 -0.0598 -0.0216  0.0600
 3823SOL    HW112910   1.066   4.213   8.221 -0.5144  0.6022 -0.0672
 3823SOL    HW212911   1.118   4.351   8.186  0.9166 -0.0406 -0.5362
 3824SOL     OW12912   7.962   5.640   8.425  0.2496  0.4960  0.0015
 3824SOL    HW112913   8.005   5.725   8.417 -0.9826  1.1282 -0.1364
 3824SOL    HW212914   7.982   5.611   8.514 -0.2305  1.4542  0.4409
 3825SOL     OW12915   0.798   4.984   9.152 -0.5951  0.8009  0.0413
 3825SOL    HW112916   0.890   4.982   9.176 -0.4992  1.0886 -0.2924
 3825SOL    HW212917   0.754   4.932   9.219 -0.3926  1.9391  1.0878
 3826SOL     OW12918   0.579   5.651  10.135 -0.1833  0.3705  0.2543
 3826SOL    HW112919   0.533   5.673  10.216  1.6573 -1.3461  1.8723
 3826SOL    HW212920   0.635   5.726  10.117 -1.3228  1.1795 -0.0296
 3827SOL     OW12921   7.562   5.368   7.222 -0.0451  0.0536 -0.3546
 3827SOL    HW112922   7.647   5.400   7.190  0.6199 -0.4398  0.8300
 3827SOL    HW212923   7.527   5.442   7.273  1.2265 -0.7763  1.8978
 3828SOL     OW12924   0.039   4.954   8.338 -0.0090  0.5224  0.4854
 3828SOL    HW112925   0.039   5.034   8.286  0.4301 -0.0165 -0.3633
 3828SOL    HW212926   0.099   4.895   8.292 -0.7767 -0.5064  0.7637
 3829SOL     OW12927   7.239   3.250   8.542  0.3993  0.1072  0.2117
 3829SOL    HW112928   7.172   3.264   8.475  1.2156 -0.8712 -0.8482
 3829SOL    HW212929   7.228   3.158   8.568  1.1797  0.0015  0.1854
 3830SOL     OW12930   1.905   5.145   8.691  0.2763 -0.1111  0.4122
 3830SOL    HW112931   1.819   5.120   8.656  0.3406 -0.9095  0.7992
 3830SOL    HW212932   1.968   5.100   8.635  0.3988 -0.6782  0.9948
 3831SOL     OW12933   2.576   6.375   7.690 -0.2045 -0.5174 -0.2381
 3831SOL    HW112934   2.575   6.332   7.605  0.4910 -2.4023  0.6321
 3831SOL    HW212935   2.668   6.387   7.710 -0.2825 -1.5390  0.8826
 3832SOL     OW12936   6.608   5.505   8.703  0.0327 -0.4618 -0.6422
 3832SOL    HW112937   6.689   5.546   8.732 -0.0685 -0.8308  0.1945
 3832SOL    HW212938   6.613   5.415   8.736 -0.3349 -0.7315 -1.3124
 3833SOL     OW12939   2.299   4.815   9.586  0.2601 -0.3158 -0.5229
 3833SOL    HW112940   2.324   4.776   9.501  0.3196 -1.6428  0.0727
 3833SOL    HW212941   2.348   4.764   9.650 -0.1130  0.4002  0.3506
 3834SOL     OW12942   0.383   5.142  11.275 -0.2690 -0.8411 -0.7122
 3834SOL    HW112943   0.414   5.174  11.360 -0.4504 -1.1570 -0.5274
 3834SOL    HW212944   0.451   5.081  11.247 -0.2186 -0.7516 -0.7832
 3835SOL     OW12945   0.562   3.483   8.251 -0.0245 -0.2042  0.0278
 3835SOL    HW112946   0.639   3.509   8.200 -0.0718  0.0667  0.0888
 3835SOL    HW212947   0.490   3.484   8.188 -0.1334  0.4025  0.1516
 3836SOL     OW12948   1.326   5.551   9.555 -0.5270  0.2905  0.4737
 3836SOL    HW112949   1.334   5.529   9.462 -0.4526  3.3197 -0.3113
 3836SOL    HW212950   1.394   5.497   9.598  1.5200  1.0194 -1.6339
 3837SOL     OW12951   2.551   6.182   8.336  0.5478  0.4223  0.0137
 3837SOL    HW112952   2.516   6.217   8.418 -0.4047  2.8909 -1.3554
 3837SOL    HW212953   2.549   6.255   8.275 -0.9061 -1.8227 -2.9202
 3838SOL     OW12954   0.632   4.645   7.791 -0.0837  0.2914 -0.4991
 3838SOL    HW112955   0.691   4.607   7.856  1.3546 -1.0414 -2.4949
 3838SOL    HW212956   0.667   4.733   7.775  0.9526 -0.2291 -1.1451
 3839SOL     OW12957   0.070   4.087   8.591 -0.2036 -0.2354  0.7438
 3839SOL    HW112958   0.020   4.082   8.673 -0.1020  0.4144  0.8506
 3839SOL    HW212959   0.015   4.041   8.527 -0.4476 -0.4430  1.0948
 3840SOL     OW12960   0.509   4.581   8.342 -0.7293  0.0555 -0.0998
 3840SOL    HW112961   0.491   4.491   8.369 -2.8618  0.8278  1.3094
 3840SOL    HW212962   0.590   4.604   8.387  0.2645 -1.3560 -1.0695
 3841SOL     OW12963   0.785   4.468   9.509  0.2153  0.5481  0.0670
 3841SOL    HW112964   0.779   4.418   9.427 -1.6871 -0.2524  0.6514
 3841SOL    HW212965   0.857   4.530   9.493  1.4970 -1.1926 -1.3119
 3842SOL     OW12966   7.706   5.729   9.095 -0.0468 -0.0056 -0.0263
 3842SOL    HW112967   7.732   5.811   9.054  0.2723  0.0870  0.3464
 3842SOL    HW212968   7.716   5.663   9.026 -0.3544  0.2732 -0.3416
 3843SOL     OW12969   7.779   6.882   7.688  0.2822  0.9276  0.2319
 3843SOL    HW112970   7.778   6.889   7.592  0.8146  0.7618  0.2085
 3843SOL    HW212971   7.733   6.960   7.718 -1.8964 -0.1027 -0.1914
 3844SOL     OW12972   1.482   5.260   6.466  0.4719  0.4123  0.0689
 3844SOL    HW112973   1.559   5.209   6.440  1.3779  0.5831  2.1519
 3844SOL    HW212974   1.415   5.194   6.485  0.5312  0.1928 -0.4547
 3845SOL     OW12975   2.788   3.804   9.089  0.2936  0.6725  0.2431
 3845SOL    HW112976   2.813   3.889   9.051 -0.9436 -0.1149 -2.5771
 3845SOL    HW212977   2.693   3.808   9.095  0.1413 -0.8012 -0.7593
 3846SOL     OW12978   0.889   2.933   7.566 -0.5159  0.2421 -0.4310
 3846SOL    HW112979   0.815   2.992   7.582  1.2107  2.0640  1.5243
 3846SOL    HW212980   0.959   2.990   7.535  0.7303 -1.0523 -0.1178
 3847SOL     OW12981   7.445   6.243   9.926  0.0657  0.2834  0.0871
 3847SOL    HW112982   7.448   6.160   9.879 -2.0057  0.5236 -0.5710
 3847SOL    HW212983   7.502   6.301   9.876  0.0169 -0.2224 -0.5695
 3848SOL     OW12984   0.959   2.101   8.342 -0.1337 -0.5539  0.2548
 3848SOL    HW112985   0.906   2.180   8.333 -0.6217 -0.8676  0.3002
 3848SOL    HW212986   1.035   2.117   8.286 -1.0003 -0.6917 -1.0163
 3849SOL     OW12987   0.810   4.012   7.890 -0.4130  0.5314  0.1502
 3849SOL    HW112988   0.857   4.022   7.806 -0.7286  0.6052 -0.0174
 3849SOL    HW212989   0.873   3.967   7.947 -0.2659  0.2963 -0.1902
 3850SOL     OW12990   1.122   7.570   7.538  0.2290 -0.5406 -0.4526
 3850SOL    HW112991   1.120   7.495   7.597 -0.8720 -1.1672 -1.2437
 3850SOL    HW212992   1.088   7.536   7.455  0.2461  0.7024 -0.9872
 3851SOL     OW12993   6.433   4.106   9.723 -0.4019  0.1660  0.0777
 3851SOL    HW112994   6.383   4.054   9.660  0.4345 -0.3762 -0.1622
 3851SOL    HW212995   6.521   4.112   9.685 -0.2216  0.9304  0.5807
 3852SOL     OW12996   2.174   5.085   7.721 -0.1051 -0.2755 -0.4538
 3852SOL    HW112997   2.225   5.006   7.703  0.6610  0.4408 -1.4964
 3852SOL    HW212998   2.191   5.104   7.813 -0.1840 -1.2323 -0.2258
 3853SOL     OW12999   0.316   4.974   8.036 -0.1919  0.1364 -0.0996
 3853SOL    HW113000   0.305   4.906   7.970  1.4177  1.5716 -1.9788
 3853SOL    HW213001   0.376   4.935   8.101  2.1365  0.2065 -2.0513
 3854SOL     OW13002   0.811   2.728   6.566 -0.3316  0.8212 -0.3683
 3854SOL    HW113003   0.827   2.741   6.473 -0.4406  0.8443 -0.3843
 3854SOL    HW213004   0.857   2.646   6.587  0.9356  1.5690 -0.1161
 3855SOL     OW13005   0.215   6.356   8.119  0.2943  0.0609 -0.0954
 3855SOL    HW113006   0.151   6.372   8.188 -0.7500  0.8452 -1.2070
 3855SOL    HW213007   0.285   6.307   8.162 -0.6247 -0.0306  1.3581
 3856SOL     OW13008   1.700   5.295   9.382  0.0083  0.7129 -0.2260
 3856SOL    HW113009   1.619   5.271   9.337 -0.7321  0.4950  1.1677
 3856SOL    HW213010   1.750   5.214   9.385 -0.4698  0.4350  0.3992
 3857SOL     OW13011   0.672   5.232   8.079  0.5835 -0.0513 -0.0440
 3857SOL    HW113012   0.581   5.257   8.065 -0.0203 -0.4318  2.6023
 3857SOL    HW213013   0.718   5.315   8.097  0.8980  0.1883 -1.8023
 3858SOL     OW13014   2.917   5.014   8.580  0.1181 -0.4740  0.3984
 3858SOL    HW113015   3.010   4.994   8.589  0.8319  1.8750 -0.9975
 3858SOL    HW213016   2.904   5.093   8.632 -0.0252  1.7917 -2.8085
 3859SOL     OW13017   2.084   6.443   7.749  0.4219  0.5917 -0.4668
 3859SOL    HW113018   2.135   6.521   7.728 -1.1501  1.6113 -0.6355
 3859SOL    HW213019   2.041   6.419   7.667  0.6219 -0.2678 -0.3303
 3860SOL     OW13020   1.879   4.520   8.695 -0.7476  0.2732  0.6437
 3860SOL    HW113021   1.833   4.435   8.694 -0.0847 -0.0937  0.8308
 3860SOL    HW213022   1.873   4.549   8.786  1.2370 -0.8179  1.1828
 3861SOL     OW13023   6.972   4.893   8.436  0.5932 -0.0796 -0.3836
 3861SOL    HW113024   7.053   4.938   8.411  1.7900 -1.6652  0.4394
 3861SOL    HW213025   6.935   4.862   8.353  0.6311  0.9402 -0.7947
 3862SOL     OW13026   6.521   3.288   8.241  0.3023 -0.0212 -0.0012
 3862SOL    HW113027   6.471   3.288   8.160 -0.4791  1.4815  0.4530
 3862SOL    HW213028   6.586   3.356   8.230  1.9463 -1.5747 -0.3568
 3863SOL     OW13029   2.782   5.451   9.245  0.1752 -0.1805 -0.1756
 3863SOL    HW113030   2.869   5.483   9.222 -0.2929  2.0387  0.9377
 3863SOL    HW213031   2.764   5.487   9.332 -2.0223 -0.1926 -0.5538
 3864SOL     OW13032   7.543   6.647   9.725 -0.3915  0.4809 -0.4737
 3864SOL    HW113033   7.485   6.605   9.788  0.1457  2.5417  1.4976
 3864SOL    HW213034   7.484   6.676   9.655 -0.7260 -3.9241 -2.3708
 3865SOL     OW13035   1.514   6.246   9.162  0.2116 -0.2975 -0.1902
 3865SOL    HW113036   1.466   6.245   9.079  0.3365 -1.5421 -0.2731
 3865SOL    HW213037   1.541   6.155   9.174  1.9050  0.2260  0.2334
 3866SOL     OW13038   7.637   5.219  10.476  0.5374 -0.4873 -0.0492
 3866SOL    HW113039   7.707   5.245  10.416  0.6373  0.0780  0.3061
 3866SOL    HW213040   7.631   5.290  10.539  1.6729 -1.8845  1.7325
 3867SOL     OW13041   1.745   6.035   8.725 -0.3551 -0.0058 -0.0120
 3867SOL    HW113042   1.686   5.962   8.708  1.2435 -1.4139  0.1862
 3867SOL    HW213043   1.702   6.087   8.793 -2.0123 -0.1293 -0.9106
 3868SOL     OW13044   2.564   5.167   9.918 -0.4788 -0.7141  0.9212
 3868SOL    HW113045   2.503   5.216   9.864 -1.7102 -2.2912  0.7866
 3868SOL    HW213046   2.565   5.213  10.002 -0.5942  0.2445  0.4045
 3869SOL     OW13047   1.914   5.303   8.196  0.1789 -0.0958 -0.0015
 3869SOL    HW113048   1.856   5.376   8.174 -0.0872  0.2818  1.8067
 3869SOL    HW213049   1.978   5.341   8.256  3.0860 -0.2121 -2.7659
 3870SOL     OW13050   6.488   4.673   7.817  0.3374  0.3107 -0.4710
 3870SOL    HW113051   6.531   4.657   7.902  0.9570  0.0573 -0.8260
 3870SOL    HW213052   6.519   4.602   7.761  0.3570  0.7841 -1.0657
 3871SOL     OW13053   1.322   4.715   7.081  0.2904 -0.3600 -0.4586
 3871SOL    HW113054   1.294   4.789   7.028 -0.4942  0.7110  1.3357
 3871SOL    HW213055   1.285   4.638   7.038 -0.2630  0.4476 -1.4593
 3872SOL     OW13056   0.853   3.981   7.361  0.0508 -0.6717  0.5422
 3872SOL    HW113057   0.929   4.038   7.371 -1.4357  1.2465  1.6762
 3872SOL    HW213058   0.884   3.908   7.308  2.3155  0.7036 -0.1515
 3873SOL     OW13059   7.023   5.043   9.059 -0.1656 -0.0169  0.3623
 3873SOL    HW113060   7.041   5.132   9.090  0.2095  0.7792 -1.9668
 3873SOL    HW213061   6.934   5.025   9.088 -0.3470  1.2161  0.6389
 3874SOL     OW13062   1.570   4.739   7.202 -0.2189 -0.4989 -0.5664
 3874SOL    HW113063   1.480   4.746   7.170  0.6112 -0.3970 -3.0781
 3874SOL    HW213064   1.589   4.645   7.201 -0.1770 -0.4917 -0.4375
 3875SOL     OW13065   2.003   5.104   8.019  0.3341  0.5524  0.3692
 3875SOL    HW113066   1.969   5.125   7.932  2.3540  1.9414 -0.1438
 3875SOL    HW213067   1.976   5.178   8.074 -0.6699 -0.1732  0.8822
 3876SOL     OW13068   2.443   4.886   8.350  0.3508  0.6664  0.1013
 3876SOL    HW113069   2.411   4.841   8.272 -1.7178  0.7594  0.8161
 3876SOL    HW213070   2.478   4.968   8.318  0.1833  0.3938 -0.8026
 3877SOL     OW13071   1.866   5.544   9.254  0.6663 -0.9590  0.5496
 3877SOL    HW113072   1.957   5.572   9.262  0.6553 -0.7049 -0.1485
 3877SOL    HW213073   1.865   5.456   9.291  1.1953 -0.9630  0.5675
 3878SOL     OW13074   1.618   5.021   7.952  0.2383 -0.1335 -0.4174
 3878SOL    HW113075   1.540   4.977   7.919 -1.2384  2.3566 -0.5502
 3878SOL    HW213076   1.635   4.979   8.036 -1.5393 -0.4865 -0.1779
 3879SOL     OW13077   7.983   6.729   8.690  0.1677 -0.0959  0.4863
 3879SOL    HW113078   7.973   6.645   8.646 -0.4839 -0.6757  1.7090
 3879SOL    HW213079   7.966   6.711   8.782 -1.8382  1.6989  0.5561
 3880SOL     OW13080   7.843   2.759   9.105  0.4023 -0.5336 -0.0526
 3880SOL    HW113081   7.891   2.702   9.046  0.9393 -2.6275  2.2411
 3880SOL    HW213082   7.910   2.800   9.159 -0.0691  1.4062 -0.8382
 3881SOL     OW13083   2.477   6.402   8.183 -0.1913 -0.6115  0.2940
 3881SOL    HW113084   2.424   6.383   8.105 -0.9795  0.4863  0.5367
 3881SOL    HW213085   2.564   6.423   8.148 -0.3418 -0.8558 -0.2366
 3882SOL     OW13086   0.909   4.277   9.251 -0.0392  0.3297  0.4747
 3882SOL    HW113087   0.872   4.196   9.286 -0.9118  0.0877 -0.9312
 3882SOL    HW213088   0.887   4.276   9.158  1.9521  1.0696 -0.0747
 3883SOL     OW13089   0.612   4.387  10.331  0.2737 -0.0237 -0.4509
 3883SOL    HW113090   0.566   4.457  10.376 -0.3034 -0.5457 -0.2152
 3883SOL    HW213091   0.594   4.403  10.238  0.7033  0.5192 -0.4487
 3884SOL     OW13092   0.086   3.942  10.112 -0.5715 -0.3391 -0.2617
 3884SOL    HW113093   0.166   3.908  10.151 -1.1663 -0.3298  1.0185
 3884SOL    HW213094   0.025   3.868  10.114 -1.0088  0.0228 -0.0035
 3885SOL     OW13095   1.125   3.428   8.229  0.0857 -0.4334  0.7726
 3885SOL    HW113096   1.108   3.465   8.316  0.9012 -1.3034  1.3131
 3885SOL    HW213097   1.042   3.387   8.205 -1.1657  2.3913 -0.2334
 3886SOL     OW13098   5.235   5.373   8.095  0.1097 -0.1663 -0.3435
 3886SOL    HW113099   5.182   5.340   8.022  0.0164  1.0436 -0.8459
 3886SOL    HW213100   5.305   5.310   8.105  0.3231 -0.1694 -1.7265
 3887SOL     OW13101   2.494   5.648   7.972 -0.4910 -0.0193 -0.0357
 3887SOL    HW113102   2.566   5.707   7.950 -0.9265  0.7044  0.3974
 3887SOL    HW213103   2.419   5.706   7.982 -0.9627 -0.6735  0.2716
 3888SOL     OW13104   2.121   7.139   8.066 -0.0252 -0.0936  0.5808
 3888SOL    HW113105   2.182   7.107   8.132 -0.2290 -0.4929  0.5814
 3888SOL    HW213106   2.045   7.168   8.116  0.2733  0.6658  0.5996
 3889SOL     OW13107   1.297   6.515   9.501 -0.1743  0.1830 -0.0770
 3889SOL    HW113108   1.248   6.441   9.539  1.1911 -1.2855 -1.0232
 3889SOL    HW213109   1.387   6.500   9.529  0.0828  1.7101 -0.0291
 3890SOL     OW13110   7.839   4.698   9.824  0.7322  0.2739  0.0828
 3890SOL    HW113111   7.848   4.656   9.739  2.0601 -0.3811  0.5129
 3890SOL    HW213112   7.778   4.641   9.872 -0.1654  0.7484 -0.4733
 3891SOL     OW13113   2.277   5.138   9.459 -0.2587  0.1021  0.3030
 3891SOL    HW113114   2.257   5.089   9.379  1.8917  0.7656 -0.7108
 3891SOL    HW213115   2.312   5.073   9.519  0.6736  0.0347 -0.2991
 3892SOL     OW13116   7.748   7.131  10.071 -0.1233  0.5298  0.5684
 3892SOL    HW113117   7.719   7.213  10.032 -1.2848 -1.0220 -2.0326
 3892SOL    HW213118   7.839   7.121  10.042 -0.6742 -0.1314 -1.0209
 3893SOL     OW13119   0.780   3.552   7.709 -0.1357  0.0964 -0.2698
 3893SOL    HW113120   0.786   3.633   7.659 -2.6958  0.3841 -0.2365
 3893SOL    HW213121   0.687   3.530   7.709  0.4496 -2.9440 -0.4013
 3894SOL     OW13122   0.104   6.365   9.061 -1.0374  0.3208  0.2811
 3894SOL    HW113123   0.050   6.334   9.134  0.4245 -0.5996  1.0142
 3894SOL    HW213124   0.171   6.298   9.050 -1.8150 -0.1200 -2.6577
 3895SOL     OW13125   0.494   4.885   8.333 -0.0892 -0.4172  0.1922
 3895SOL    HW113126   0.513   4.792   8.324  0.9845 -0.3476  1.4954
 3895SOL    HW213127   0.439   4.891   8.412  1.0640  0.1708  0.9857
 3896SOL     OW13128   3.067   6.436   8.087  0.1938  0.2511  0.3190
 3896SOL    HW113129   3.141   6.454   8.146  0.0848  0.8573  0.2771
 3896SOL    HW213130   3.061   6.514   8.032  0.2553 -0.2899 -0.4620
 3897SOL     OW13131   0.961   4.831  10.041 -0.6555  0.1244  0.6596
 3897SOL    HW113132   0.868   4.853  10.048 -0.5433  0.8398  0.0339
 3897SOL    HW213133   0.980   4.838   9.947  0.5267  2.0843  0.9874
 3898SOL     OW13134   0.981   3.568   6.188  0.3801 -0.1102 -0.5285
 3898SOL    HW113135   0.934   3.489   6.160 -0.3773  0.4446 -0.8376
 3898SOL    HW213136   0.918   3.639   6.178  0.1724  0.2100  2.1928
 3899SOL     OW13137   1.913   5.336   7.017 -0.8238 -0.0091  0.1557
 3899SOL    HW113138   1.950   5.260   7.061  2.8963  2.1664  1.1867
 3899SOL    HW213139   1.947   5.330   6.927  1.4363  1.4702  0.8363
 3900SOL     OW13140   0.801   4.200  10.958 -0.3111 -0.6533 -0.0633
 3900SOL    HW113141   0.755   4.160  10.884 -2.3231 -0.1033  0.8099
 3900SOL    HW213142   0.840   4.126  11.005  0.7226 -1.0309 -1.4703
 3901SOL     OW13143   1.128   5.273   8.600 -1.0119 -0.0190  0.0877
 3901SOL    HW113144   1.144   5.311   8.513 -1.4745 -0.6180 -0.2685
 3901SOL    HW213145   1.185   5.323   8.658 -0.9319  0.6101 -0.5073
 3902SOL     OW13146   1.031   5.344   9.601  0.4425  0.5689  0.1231
 3902SOL    HW113147   1.057   5.269   9.655 -1.5951  0.4078  0.9745
 3902SOL    HW213148   1.061   5.321   9.513 -3.5271 -3.3658 -0.6001
 3903SOL     OW13149   0.417   2.377   8.221  0.2716  0.1489 -0.3988
 3903SOL    HW113150   0.490   2.324   8.188  1.9028  2.4596 -0.7538
 3903SOL    HW213151   0.393   2.433   8.147 -1.3525  0.0093 -0.0146
 3904SOL     OW13152   7.046   5.788   8.392  0.2692 -0.1355 -0.0841
 3904SOL    HW113153   7.007   5.712   8.436 -0.5417 -0.4219 -1.2419
 3904SOL    HW213154   7.138   5.764   8.380  0.0790 -0.8412 -0.2019
 3905SOL     OW13155   6.847   7.635   9.870 -0.3065  0.3189  0.0608
 3905SOL    HW113156   6.941   7.630   9.851 -0.5681 -3.0725 -1.0570
 3905SOL    HW213157   6.840   7.613   9.963 -0.0450 -1.5367 -0.3203
 3906SOL     OW13158   0.430   3.425   7.994  0.4653 -0.0090 -0.4580
 3906SOL    HW113159   0.355   3.374   7.963 -0.8359  1.0805  0.7500
 3906SOL    HW213160   0.427   3.506   7.943  0.9671 -0.0426 -0.5504
 3907SOL     OW13161   0.003   3.269   8.767  0.5330 -0.2690  0.4714
 3907SOL    HW113162  -0.037   3.188   8.737 -1.1575  0.9902 -0.8631
 3907SOL    HW213163   0.087   3.272   8.721 -0.0279 -0.5764 -0.6016
 3908SOL     OW13164   2.269   6.579   8.648 -0.3458  0.2928  0.0184
 3908SOL    HW113165   2.333   6.531   8.594  0.6931  0.7344  0.8250
 3908SOL    HW213166   2.236   6.647   8.589  0.9062  0.8792 -0.0460
 3909SOL     OW13167   1.228   0.078   8.050 -0.4351 -0.4258 -0.1011
 3909SOL    HW113168   1.259   0.121   7.971  0.1918 -0.0303  0.3494
 3909SOL    HW213169   1.300   0.087   8.112 -1.2378  0.0202  0.7875
 3910SOL     OW13170   0.230   3.702   8.113 -0.0821  0.0762  0.2374
 3910SOL    HW113171   0.301   3.683   8.052  1.6718  0.9679  1.8889
 3910SOL    HW213172   0.246   3.645   8.188 -0.2332  1.2847  1.2390
 3911SOL     OW13173   1.132   3.504   7.932 -0.5125  0.4035  0.5081
 3911SOL    HW113174   1.224   3.531   7.932 -1.1530  3.0159 -1.0196
 3911SOL    HW213175   1.121   3.455   8.013  2.1688  0.1121  0.8021
 3912SOL     OW13176   1.284   5.025   8.175  0.2464 -0.2085 -0.0929
 3912SOL    HW113177   1.202   5.070   8.155  0.7769  1.1101  0.5958
 3912SOL    HW213178   1.341   5.093   8.210  2.4471 -0.5590 -2.6128
 3913SOL     OW13179   0.419   6.235   8.842  0.0625 -0.5939 -0.4564
 3913SOL    HW113180   0.352   6.298   8.870  0.2831 -0.3054 -0.5678
 3913SOL    HW213181   0.498   6.288   8.832  0.2107 -0.8642 -0.7106
 3914SOL     OW13182   7.504   3.963   9.359  0.0503  0.0135  0.4604
 3914SOL    HW113183   7.425   3.948   9.411  0.2811 -1.6633  0.3755
 3914SOL    HW213184   7.556   3.884   9.371  0.4229 -0.1283 -1.7596
 3915SOL     OW13185   0.764   3.602   8.628 -0.0099  0.8377 -0.6846
 3915SOL    HW113186   0.770   3.552   8.709  0.5156  1.8470 -0.0790
 3915SOL    HW213187   0.711   3.679   8.651 -0.3024  0.8720 -1.4351
 3916SOL     OW13188   0.320   2.521   8.001  0.0741  0.2605  0.5272
 3916SOL    HW113189   0.374   2.521   7.922 -1.0198  0.6538 -0.2490
 3916SOL    HW213190   0.271   2.604   7.997  0.0040  0.2925  1.6199
 3917SOL     OW13191   0.445   7.150   5.770 -0.3949 -0.2779  0.0292
 3917SOL    HW113192   0.468   7.176   5.681 -0.2768 -0.2314  0.0732
 3917SOL    HW213193   0.354   7.179   5.780 -0.4034 -0.2700 -0.0711
 3918SOL     OW13194   0.843   5.439   8.115  0.6577 -0.0508 -0.6022
 3918SOL    HW113195   0.858   5.415   8.206  0.0103  0.2214 -0.4191
 3918SOL    HW213196   0.910   5.505   8.096  1.3581 -0.7445 -0.5999
 3919SOL     OW13197   7.274   6.430   9.717  0.2794 -0.1108  0.3371
 3919SOL    HW113198   7.304   6.340   9.726 -0.3391 -0.2930  0.6244
 3919SOL    HW213199   7.295   6.454   9.627  0.9081 -0.3706  0.4142
 3920SOL     OW13200   0.013   4.618  10.246  0.5418 -0.3501  0.1893
 3920SOL    HW113201  -0.036   4.538  10.261 -0.1676  0.2584  1.2541
 3920SOL    HW213202   0.098   4.589  10.213 -0.0956 -1.4703 -0.5258
 3921SOL     OW13203   7.132   4.994   9.937 -0.3078  0.5285  0.1684
 3921SOL    HW113204   7.184   4.996   9.856  2.1630  0.1100  1.6309
 3921SOL    HW213205   7.129   5.085   9.965 -0.0539  0.5070  0.2664
 3922SOL     OW13206   0.827   5.552  12.040 -0.2483 -0.1242  0.3043
 3922SOL    HW113207   0.887   5.611  12.087  0.3587  1.1790 -1.9741
 3922SOL    HW213208   0.856   5.464  12.065  0.5391  0.4906  1.7140
 3923SOL     OW13209   2.584   6.773   9.414 -0.3008 -0.0211 -0.1313
 3923SOL    HW113210   2.491   6.754   9.410 -0.3539  0.2424 -0.1505
 3923SOL    HW213211   2.603   6.783   9.507 -0.4776  0.8440 -0.1885
 3924SOL     OW13212   0.245   3.306   9.989 -0.1093  0.2416  0.0558
 3924SOL    HW113213   0.253   3.229  10.045 -0.9568  0.4970  0.5544
 3924SOL    HW213214   0.153   3.331   9.997  0.4440  2.1027  0.9409
 3925SOL     OW13215   2.326   3.577   9.718  0.2660  0.7296  0.0991
 3925SOL    HW113216   2.419   3.585   9.699 -0.0857  1.3117 -1.5415
 3925SOL    HW213217   2.295   3.509   9.659 -0.2209 -0.0205  1.1906
 3926SOL     OW13218   0.560   5.048  10.360 -0.6482  0.3130 -0.5072
 3926SOL    HW113219   0.595   5.028  10.273  3.9624  2.6729  0.5332
 3926SOL    HW213220   0.551   4.963  10.402 -2.6193 -0.8648 -3.0042
 3927SOL     OW13221   2.761   4.367  11.365 -0.4633 -0.1242 -0.1908
 3927SOL    HW113222   2.719   4.430  11.306 -0.2585  0.3439  0.1540
 3927SOL    HW213223   2.779   4.290  11.310 -0.4340  0.2372 -0.6937
 3928SOL     OW13224   0.856   5.524  11.625 -0.2246  0.8671  0.0745
 3928SOL    HW113225   0.810   5.584  11.683  1.9488  1.7347  1.0306
 3928SOL    HW213226   0.947   5.554  11.627  0.4132 -0.7051 -1.7350
 3929SOL     OW13227   2.031   5.684   8.413  0.3265 -0.2337 -0.0970
 3929SOL    HW113228   1.943   5.722   8.414  0.6452  0.5452  1.0351
 3929SOL    HW213229   2.019   5.593   8.439 -0.0613  0.1182  1.0133
 3930SOL     OW13230   7.296   2.834   7.556  0.4499  0.0641 -0.2526
 3930SOL    HW113231   7.201   2.833   7.566  0.4844  0.4179  0.1391
 3930SOL    HW213232   7.322   2.921   7.586  0.7425  0.5674 -1.8792
 3931SOL     OW13233   2.080   3.497   0.120 -0.5075 -0.2174 -0.0742
 3931SOL    HW113234   2.092   3.565   0.054 -2.2377 -0.0718 -0.2844
 3931SOL    HW213235   2.137   3.426   0.093 -0.0135  0.4608 -0.8479
 3932SOL     OW13236   0.557   4.679  11.532  0.3318  0.1219  0.4089
 3932SOL    HW113237   0.468   4.714  11.529  0.7663  1.3239  0.8345
 3932SOL    HW213238   0.571   4.643  11.445 -0.7949 -0.6885  0.5395
 3933SOL     OW13239   1.609   4.623  10.965 -0.0843  0.1450 -0.0696
 3933SOL    HW113240   1.621   4.637  11.059 -1.0851 -0.0497  0.1026
 3933SOL    HW213241   1.623   4.529  10.952  0.5138  0.2471 -0.2005
 3934SOL     OW13242   2.396   4.421   9.055 -0.1281 -0.2005 -0.0110
 3934SOL    HW113243   2.306   4.407   9.083 -0.3017 -1.4406 -1.0699
 3934SOL    HW213244   2.410   4.515   9.065 -0.1885 -0.4332  3.9926
 3935SOL     OW13245   7.802   5.148  10.172 -0.6476 -0.1320 -0.2205
 3935SOL    HW113246   7.739   5.103  10.117 -1.5805 -1.0622  1.5159
 3935SOL    HW213247   7.834   5.080  10.232  1.3383  0.5293 -0.4757
 3936SOL     OW13248   1.880   4.542   9.199  0.0176 -0.2986  0.0752
 3936SOL    HW113249   1.935   4.607   9.244  0.0022 -0.5183  0.4126
 3936SOL    HW213250   1.885   4.567   9.106 -1.0345  0.9993  0.3227
 3937SOL     OW13251   7.661   3.720  10.549  0.1441 -0.1696 -0.3783
 3937SOL    HW113252   7.611   3.692  10.472 -0.2412 -2.6762  0.6651
 3937SOL    HW213253   7.617   3.800  10.578 -2.1660 -1.2738 -0.5811
 3938SOL     OW13254   0.265   4.854  10.053  0.0675 -0.0506 -0.1156
 3938SOL    HW113255   0.303   4.767  10.062  1.6607  0.5169 -1.0336
 3938SOL    HW213256   0.190   4.841   9.995 -1.1063 -1.1537  1.5679
 3939SOL     OW13257   1.982   4.839   9.966 -0.2495  0.2583 -0.1875
 3939SOL    HW113258   1.961   4.805   9.880  0.0231  0.0350 -0.1685
 3939SOL    HW213259   1.917   4.799  10.025  0.6177 -0.9455 -0.0251
 3940SOL     OW13260   1.303   3.427  11.151  0.5561  0.0563  0.0483
 3940SOL    HW113261   1.345   3.513  11.151 -0.1820  0.4333 -0.7839
 3940SOL    HW213262   1.329   3.388  11.067  1.2365 -0.7183  0.6086
 3941SOL     OW13263   0.738   4.977   8.041 -0.0531  0.0154 -0.0234
 3941SOL    HW113264   0.717   5.069   8.056  1.7307  0.4693 -0.0814
 3941SOL    HW213265   0.717   4.934   8.124 -1.4850  0.3264 -0.1947
 3942SOL     OW13266   2.360   4.972  10.540 -0.2932 -0.1290  0.3342
 3942SOL    HW113267   2.289   4.968  10.604  0.2154 -1.1848  0.8498
 3942SOL    HW213268   2.434   4.930  10.583  0.5260  0.5445 -0.3725
 3943SOL     OW13269   1.338   7.699   9.847 -0.6148 -0.0619  0.0889
 3943SOL    HW113270   1.302   7.785   9.870 -0.5023 -0.0414  0.1858
 3943SOL    HW213271   1.401   7.680   9.916 -1.8217 -0.9572  1.0015
 3944SOL     OW13272   1.417   6.866  10.952  0.0038 -0.0629 -0.0970
 3944SOL    HW113273   1.444   6.780  10.986  0.3301  0.0718 -0.0068
 3944SOL    HW213274   1.383   6.912  11.029  0.4033  0.1098 -0.0195
 3945SOL     OW13275   1.609   3.888   9.977  0.4109 -0.4988  0.0972
 3945SOL    HW113276   1.645   3.964  10.022  0.3567  0.1691 -0.9292
 3945SOL    HW213277   1.673   3.868   9.909 -0.6410  0.0821 -1.1117
 3946SOL     OW13278   7.931   4.476  10.937 -0.6616  0.3535 -0.0620
 3946SOL    HW113279   7.984   4.409  10.981 -2.4166  0.0705  1.8279
 3946SOL    HW213280   7.858   4.427  10.899 -0.5636  0.9231 -1.0046
 3947SOL     OW13281   1.167   5.222  10.751 -0.2739 -0.2711  0.3872
 3947SOL    HW113282   1.088   5.173  10.730  0.0205  0.2799 -2.3862
 3947SOL    HW213283   1.214   5.228  10.668  1.7275  1.0950  1.5454
 3948SOL     OW13284   1.335   4.032  10.419  0.3247  0.6131 -0.4132
 3948SOL    HW113285   1.353   3.997  10.506  0.0172  0.6792 -0.3220
 3948SOL    HW213286   1.253   3.990  10.393 -0.0603  1.2827 -0.2913
 3949SOL     OW13287   1.531   4.081   9.757  0.3764  0.4630  0.0412
 3949SOL    HW113288   1.623   4.106   9.763  0.7025 -0.2002 -1.6079
 3949SOL    HW213289   1.532   3.986   9.746 -0.6524  0.1302  2.3113
 3950SOL     OW13290   7.707   4.340   8.818 -0.0999 -0.2764 -0.4852
 3950SOL    HW113291   7.694   4.431   8.793 -0.2293 -0.3052 -0.5216
 3950SOL    HW213292   7.620   4.307   8.837 -0.2082 -0.7250 -1.6368
 3951SOL     OW13293   1.825   6.111  10.024  0.4311  0.0696 -0.0790
 3951SOL    HW113294   1.780   6.165   9.958  1.4717 -0.0066 -0.8680
 3951SOL    HW213295   1.833   6.168  10.100  0.0589  0.4801 -0.3436
 3952SOL     OW13296   1.249   3.537  10.788 -0.2643  0.5768  0.4015
 3952SOL    HW113297   1.199   3.591  10.728  0.2833  0.1469 -0.4785
 3952SOL    HW213298   1.304   3.598  10.836 -0.0406  0.8644 -0.2036
 3953SOL     OW13299   1.382   3.812  11.402 -0.0209  0.5944  0.4822
 3953SOL    HW113300   1.408   3.744  11.465  0.7081  1.9769  1.7544
 3953SOL    HW213301   1.461   3.828  11.351 -0.4626 -0.1563 -0.4491
 3954SOL     OW13302   7.987   5.776   9.468  0.0541 -0.3259 -0.1511
 3954SOL    HW113303   8.081   5.795   9.471  0.2375 -1.0340 -1.0678
 3954SOL    HW213304   7.977   5.714   9.396 -0.9266 -1.3614  0.8466
 3955SOL     OW13305   1.577   6.675  10.127  0.4374  0.5493 -0.7227
 3955SOL    HW113306   1.546   6.740  10.065 -0.0402 -0.0073 -1.0717
 3955SOL    HW213307   1.516   6.680  10.200  1.4654  1.7797  0.1051
 3956SOL     OW13308   7.161   3.554  11.049 -0.2103  0.4923  0.1669
 3956SOL    HW113309   7.080   3.594  11.018  0.5452  1.2913 -0.8592
 3956SOL    HW213310   7.224   3.626  11.051  1.0857 -0.5280 -1.3248
 3957SOL     OW13311   1.718   2.679   9.693  0.2139  0.2887 -0.4993
 3957SOL    HW113312   1.666   2.599   9.684  0.2010  0.1416  0.6981
 3957SOL    HW213313   1.656   2.750   9.674 -0.6423  0.1496  1.4736
 3958SOL     OW13314   2.628   6.925   8.824  0.2853  0.7588 -0.4986
 3958SOL    HW113315   2.570   6.849   8.835  0.2358  0.5938 -1.8260
 3958SOL    HW213316   2.570   7.001   8.831  0.4722  0.7560  1.8117
 3959SOL     OW13317   0.791   3.506   9.956 -0.0606  0.5789 -0.2025
 3959SOL    HW113318   0.821   3.478  10.043 -0.5831 -1.0272 -0.4879
 3959SOL    HW213319   0.732   3.579   9.973  1.7120  1.9116  0.5738
 3960SOL     OW13320   1.607   3.727  10.504  0.3426  0.4349 -0.0975
 3960SOL    HW113321   1.629   3.634  10.510 -2.4699 -0.2793  1.1764
 3960SOL    HW213322   1.562   3.735  10.419 -0.0176  0.4524  0.0911
 3961SOL     OW13323   7.930   4.145  11.253  0.4228  0.4965 -0.5604
 3961SOL    HW113324   7.861   4.088  11.219  0.4827  0.6978 -1.0235
 3961SOL    HW213325   7.975   4.178  11.176  1.6846 -0.4090 -0.2329
 3962SOL     OW13326   7.496   1.819   8.637  0.1506  0.2417 -0.5112
 3962SOL    HW113327   7.464   1.907   8.660  1.6229  0.3847  1.2489
 3962SOL    HW213328   7.424   1.761   8.657 -0.9307  1.0443 -1.9131
 3963SOL     OW13329   0.903   3.709  11.675 -0.2819 -0.5537  0.3148
 3963SOL    HW113330   0.873   3.740  11.761  1.6382 -0.2963  0.9432
 3963SOL    HW213331   0.998   3.705  11.683 -0.1279 -1.5697 -1.4767
 3964SOL     OW13332   7.108   5.028  11.377 -0.0470 -0.1230  0.1168
 3964SOL    HW113333   7.197   5.002  11.352 -0.1822 -0.3355 -0.1527
 3964SOL    HW213334   7.062   5.037  11.293 -0.7828 -1.8074  0.3119
 3965SOL     OW13335   6.063   6.836   9.492 -0.2059 -0.2068  0.0786
 3965SOL    HW113336   6.036   6.867   9.405  0.6401  0.1275 -0.0728
 3965SOL    HW213337   6.093   6.746   9.477  0.4814  0.0461 -0.0821
 3966SOL     OW13338   1.394   4.283   9.162  0.1797 -0.3368  0.7486
 3966SOL    HW113339   1.404   4.375   9.187  0.5516 -0.6528  1.8549
 3966SOL    HW213340   1.303   4.262   9.183  0.2071 -0.3219  0.8864
 3967SOL     OW13341   2.760   5.542  10.133  0.0408 -0.2851  0.1238
 3967SOL    HW113342   2.850   5.518  10.155  0.6610  0.7417 -1.1736
 3967SOL    HW213343   2.747   5.628  10.174 -0.7076 -0.8573  1.1402
 3968SOL     OW13344   1.180   4.447   9.570  0.3769 -0.1294  0.4847
 3968SOL    HW113345   1.245   4.411   9.630  1.2013  0.6231  0.0640
 3968SOL    HW213346   1.224   4.520   9.527 -1.4467  1.9169  1.8333
 3969SOL     OW13347   0.701   3.802   9.466 -0.1293  0.0092 -0.1546
 3969SOL    HW113348   0.668   3.813   9.377  1.2543  0.9843 -0.5852
 3969SOL    HW213349   0.795   3.787   9.455 -0.1333 -1.1276  1.0969
 3970SOL     OW13350   0.225   4.468   9.594 -0.6275 -0.1512 -0.1196
 3970SOL    HW113351   0.268   4.443   9.512  1.4267  0.3703  0.7383
 3970SOL    HW213352   0.135   4.490   9.568 -0.0322  0.0330 -2.2341
 3971SOL     OW13353   0.407   5.265   8.856 -0.3692  0.2087 -0.2015
 3971SOL    HW113354   0.492   5.306   8.838 -0.6667  0.7905 -0.2822
 3971SOL    HW213355   0.376   5.308   8.936 -1.4956  1.4285 -1.2497
 3972SOL     OW13356   1.646   2.861  10.554 -0.5562 -0.1909 -0.3882
 3972SOL    HW113357   1.728   2.884  10.511  0.3737  0.4147  1.6020
 3972SOL    HW213358   1.654   2.767  10.572  1.0683  0.3689  2.3767
 3973SOL     OW13359   1.282   4.524  11.827  0.2192 -0.2966 -0.4894
 3973SOL    HW113360   1.364   4.509  11.875 -0.8621 -0.0745  1.5327
 3973SOL    HW213361   1.294   4.476  11.745  2.1784 -0.6797 -0.0380
 3974SOL     OW13362   1.819   4.783   7.845  0.4226  0.3796  0.1696
 3974SOL    HW113363   1.764   4.768   7.769 -0.4459 -0.7206  0.9926
 3974SOL    HW213364   1.766   4.838   7.903  0.0847 -0.8157  1.0349
 3975SOL     OW13365   0.549   2.588  10.622 -0.7519  0.6811  0.8940
 3975SOL    HW113366   0.615   2.520  10.636 -0.3530  1.3180  2.2863
 3975SOL    HW213367   0.596   2.670  10.636 -0.9916  1.3369 -1.7218
 3976SOL     OW13368   1.699   7.529   9.831 -0.6702 -0.2948  0.2626
 3976SOL    HW113369   1.662   7.593   9.892 -2.3138 -0.7549 -0.1981
 3976SOL    HW213370   1.636   7.525   9.759  1.2198  0.2442 -1.5177
 3977SOL     OW13371   6.372   3.975   8.810 -0.4917  0.0015 -0.3646
 3977SOL    HW113372   6.324   3.952   8.889  0.3222 -0.2675  0.0731
 3977SOL    HW213373   6.305   3.999   8.746 -1.1334  1.2498  0.7225
 3978SOL     OW13374   2.888   7.090   7.849 -0.4590  0.5668 -0.5508
 3978SOL    HW113375   2.981   7.085   7.825 -0.5900  0.1644 -0.9853
 3978SOL    HW213376   2.878   7.027   7.920 -1.0438 -1.8593 -2.6314
 3979SOL     OW13377   0.645   6.481  10.342  0.6157  0.3319  0.3119
 3979SOL    HW113378   0.668   6.398  10.301  0.5972  0.1592  0.6517
 3979SOL    HW213379   0.610   6.457  10.427 -1.2142  0.5537 -0.3311
 3980SOL     OW13380   7.965   2.797   9.496  0.4233  0.3329 -0.4173
 3980SOL    HW113381   7.885   2.778   9.545  1.2206 -1.0906  0.4067
 3980SOL    HW213382   7.950   2.883   9.457 -1.1849  0.4356  0.3648
 3981SOL     OW13383   6.653   4.368   9.646 -0.4619  0.2167 -0.4340
 3981SOL    HW113384   6.683   4.440   9.702 -0.9395 -1.4805  2.1384
 3981SOL    HW213385   6.572   4.400   9.608 -0.7141  1.0330  0.7241
 3982SOL     OW13386   1.521   3.618   9.969 -0.0242  0.0687  0.2793
 3982SOL    HW113387   1.428   3.619   9.991 -0.0579 -1.3363  0.2673
 3982SOL    HW213388   1.539   3.707   9.938 -1.8018 -0.1783 -1.6234
 3983SOL     OW13389   2.695   2.072  10.723 -0.1544 -0.4554 -0.7934
 3983SOL    HW113390   2.681   2.098  10.632  3.0496 -0.1702 -1.3504
 3983SOL    HW213391   2.769   2.127  10.752  0.2989 -2.0353  1.2716
 3984SOL     OW13392   1.529   3.363  11.700 -0.2203  0.2277 -0.0744
 3984SOL    HW113393   1.507   3.450  11.666  0.5774 -0.2649 -2.0125
 3984SOL    HW213394   1.582   3.323  11.630 -0.9606 -1.9950  0.5510
 3985SOL     OW13395   1.813   4.317  11.627 -0.2062  0.1102  0.1242
 3985SOL    HW113396   1.878   4.280  11.687  1.7127  0.0348 -1.8236
 3985SOL    HW213397   1.857   4.393  11.589 -0.2070 -1.2704 -2.9958
 3986SOL     OW13398   2.252   4.474  11.663 -0.0529 -0.1415  0.1052
 3986SOL    HW113399   2.194   4.500  11.591  0.6968  0.2247 -0.3777
 3986SOL    HW213400   2.337   4.458  11.621  0.8682  1.7673  1.1123
 3987SOL     OW13401   0.329   6.252  12.035 -0.0844  0.5161 -0.0196
 3987SOL    HW113402   0.395   6.233  11.969 -1.4636  0.5349 -1.4519
 3987SOL    HW213403   0.267   6.310  11.991 -2.1979 -1.1730  0.5733
 3988SOL     OW13404   3.873   3.515  11.482 -0.5900  0.1009  0.3169
 3988SOL    HW113405   3.958   3.472  11.483  0.1432  1.4644 -0.3797
 3988SOL    HW213406   3.861   3.548  11.571 -2.2456 -3.3932  1.6016
 3989SOL     OW13407   0.618   3.956   9.050  0.0817 -0.1773  0.1450
 3989SOL    HW113408   0.528   3.987   9.034  0.4838  0.8418 -0.2198
 3989SOL    HW213409   0.668   4.036   9.066  1.5267 -0.4687 -2.4902
 3990SOL     OW13410   1.489   3.658  10.240  0.2395  0.1247 -0.3054
 3990SOL    HW113411   1.541   3.619  10.170  0.3419  2.4562 -1.6126
 3990SOL    HW213412   1.398   3.647  10.211  0.2911  1.2992 -0.9646
 3991SOL     OW13413   5.956   6.015   8.421  0.4693  0.2489 -0.0325
 3991SOL    HW113414   5.886   6.042   8.482  2.0118  0.7908  1.5762
 3991SOL    HW213415   5.989   6.097   8.385  0.0548 -0.0313 -1.0799
 3992SOL     OW13416   1.079   6.792   9.303 -0.1651  0.7687  0.3493
 3992SOL    HW113417   1.150   6.749   9.256 -2.1132 -2.3478 -0.0712
 3992SOL    HW213418   1.110   6.798   9.393  0.0610 -2.3977  0.6201
 3993SOL     OW13419   1.940   4.647   8.943 -0.0014 -0.6428  0.2132
 3993SOL    HW113420   2.032   4.650   8.917 -0.4091  1.8864 -1.3443
 3993SOL    HW213421   1.918   4.738   8.962 -2.5167 -0.9613 -0.7849
 3994SOL     OW13422   1.294   3.080   9.767 -0.3487  0.5685 -0.1104
 3994SOL    HW113423   1.295   3.007   9.829 -1.4140  0.6371  0.0114
 3994SOL    HW213424   1.386   3.105   9.757  0.0911 -1.1457 -0.5807
 3995SOL     OW13425   7.466   2.690  10.241 -0.0519  0.4799  0.0333
 3995SOL    HW113426   7.387   2.743  10.254 -1.6755 -1.8842  0.3734
 3995SOL    HW213427   7.467   2.672  10.147  0.8759  1.6119 -0.1916
 3996SOL     OW13428   1.128   5.840  11.081 -0.0095 -0.0673 -0.0010
 3996SOL    HW113429   1.180   5.883  11.148  1.7530 -1.6848 -0.2482
 3996SOL    HW213430   1.045   5.887  11.081  0.4479  0.8693  2.3211
 3997SOL     OW13431   1.622   4.660  10.536  0.6105  0.0204  0.1370
 3997SOL    HW113432   1.687   4.678  10.468  0.3439  1.0933  0.1386
 3997SOL    HW213433   1.565   4.593  10.498  1.2132 -0.3128 -0.1955
 3998SOL     OW13434   1.484   5.920  11.054 -0.0317 -0.1560  0.1121
 3998SOL    HW113435   1.452   5.963  11.134 -1.2180  0.4842 -0.6725
 3998SOL    HW213436   1.542   5.985  11.014 -0.1493 -0.1237 -0.0049
 3999SOL     OW13437   2.537   2.679  11.253 -0.2274  0.8571  0.1111
 3999SOL    HW113438   2.592   2.741  11.206  0.6743  0.1762  0.2443
 3999SOL    HW213439   2.523   2.607  11.192  0.0372  0.4759  0.4875
 4000SOL     OW13440   2.013   4.460   9.509  0.5251  0.1022  0.2345
 4000SOL    HW113441   1.919   4.442   9.514  0.8030 -1.4997  0.0915
 4000SOL    HW213442   2.018   4.547   9.469 -0.8957  0.3767  0.5864
 4001SOL     OW13443   0.034   4.234   9.354 -0.0848 -0.4017 -0.5178
 4001SOL    HW113444  -0.051   4.225   9.398 -0.0658  0.7351 -0.2159
 4001SOL    HW213445   0.025   4.183   9.274 -1.4023  0.4762 -0.9708
 4002SOL     OW13446   1.676   2.835   8.801 -0.3173  0.1246 -0.0038
 4002SOL    HW113447   1.759   2.876   8.776 -0.1784 -0.7719 -1.0856
 4002SOL    HW213448   1.618   2.908   8.823  0.1551  0.8525 -1.1421
 4003SOL     OW13449   1.881   4.598   8.406  0.1942 -0.5277  0.2550
 4003SOL    HW113450   1.843   4.594   8.494 -1.6310 -0.5835 -0.4821
 4003SOL    HW213451   1.958   4.542   8.411  0.8864  0.5028  2.1400
 4004SOL     OW13452   0.973   4.174  10.189  0.3243 -0.4879  0.1094
 4004SOL    HW113453   0.911   4.138  10.126 -0.6439  0.9197  0.2020
 4004SOL    HW213454   1.031   4.230  10.137  1.7490 -2.0243 -0.0198
 4005SOL     OW13455   2.873   3.408  11.464 -0.5648 -0.1819 -0.3962
 4005SOL    HW113456   2.867   3.411  11.369 -0.3990 -0.1812 -0.4057
 4005SOL    HW213457   2.926   3.484  11.488  0.5817 -0.9646 -0.3938
 4006SOL     OW13458   0.474   5.319   9.353 -0.2406 -0.6009  0.6632
 4006SOL    HW113459   0.562   5.294   9.324 -0.7218 -0.7651 -0.7377
 4006SOL    HW213460   0.435   5.237   9.385 -0.1162 -0.6654  0.6483
 4007SOL     OW13461   0.386   3.801   8.458 -0.9269  0.7423 -0.1308
 4007SOL    HW113462   0.448   3.763   8.521 -0.1727  2.0660 -0.0385
 4007SOL    HW213463   0.340   3.726   8.421 -1.9099 -0.0715  2.4968
 4008SOL     OW13464   1.697   4.928   8.907 -0.0352 -0.1224 -0.3466
 4008SOL    HW113465   1.686   4.896   8.817 -3.2489 -0.1953 -0.0451
 4008SOL    HW213466   1.667   4.856   8.962  0.5990  0.4076  0.7230
 4009SOL     OW13467   0.654   4.854   7.373  0.4484 -0.3245 -0.1547
 4009SOL    HW113468   0.561   4.838   7.385 -0.1092  2.1818 -0.6564
 4009SOL    HW213469   0.679   4.796   7.301 -0.8454 -0.6446 -0.3619
 4010SOL     OW13470   2.235   4.318   0.028 -0.3398 -0.0283  0.1014
 4010SOL    HW113471   2.243   4.388   0.092 -0.4163 -0.9651  1.1525
 4010SOL    HW213472   2.300   4.252   0.054  1.6812  0.7876 -2.4451
 4011SOL     OW13473   7.195   3.250  10.157  0.3337  0.0262 -0.2024
 4011SOL    HW113474   7.124   3.286  10.210  0.0922 -0.9435  0.1718
 4011SOL    HW213475   7.206   3.160  10.190  1.5154  0.0524 -0.4752
 4012SOL     OW13476   1.059   5.783  11.428  0.2769  0.0511  0.2465
 4012SOL    HW113477   1.074   5.691  11.450 -0.2630 -0.8077 -2.5853
 4012SOL    HW213478   1.083   5.831  11.508  0.5004 -2.5163  1.8349
 4013SOL     OW13479   1.532   3.978  11.245  0.0800 -0.0528  0.2775
 4013SOL    HW113480   1.596   3.999  11.313  1.7597  1.0990 -1.5447
 4013SOL    HW213481   1.478   4.057  11.238  0.1235 -0.0393  0.0750
 4014SOL     OW13482   2.928   3.956   9.794 -0.0256 -0.0806 -0.0606
 4014SOL    HW113483   2.958   4.012   9.865 -1.6703 -1.4539  1.8409
 4014SOL    HW213484   3.006   3.908   9.766  0.3575 -0.9015  2.1966
 4015SOL     OW13485   1.196   3.856  10.957 -0.0968  0.1490 -0.0251
 4015SOL    HW113486   1.184   3.937  10.908  0.5546  1.0940  1.3087
 4015SOL    HW213487   1.270   3.812  10.914 -0.2792  0.3957 -0.5916
 4016SOL     OW13488   2.466   3.245  10.583 -0.2040  0.0068 -0.3255
 4016SOL    HW113489   2.389   3.282  10.540  0.2564  1.0198 -0.3079
 4016SOL    HW213490   2.463   3.152  10.562 -1.5124  0.0066 -0.1997
 4017SOL     OW13491   2.988   5.509   9.071  0.1332  0.3220  0.3793
 4017SOL    HW113492   2.986   5.597   9.110  0.1429  0.6064 -0.2613
 4017SOL    HW213493   3.071   5.506   9.023 -0.2871  0.2957 -0.3562
 4018SOL     OW13494   7.775   2.976  10.757 -0.2328 -0.0412  0.6145
 4018SOL    HW113495   7.785   2.913  10.828  0.0756 -1.5355 -0.6781
 4018SOL    HW213496   7.818   2.934  10.682  0.1326  1.8015 -0.2689
 4019SOL     OW13497   1.606   3.565  10.783  0.1832 -0.8722 -0.0305
 4019SOL    HW113498   1.632   3.570  10.691  1.4167  2.0835  0.3727
 4019SOL    HW213499   1.612   3.472  10.805  0.1616 -1.6153 -2.8195
 4020SOL     OW13500   6.741   4.167  10.483  0.4684  0.1201 -0.1115
 4020SOL    HW113501   6.744   4.253  10.440  1.3234 -0.0970 -0.5060
 4020SOL    HW213502   6.759   4.187  10.575  0.6712  0.3666 -0.2024
 4021SOL     OW13503   1.778   3.879   7.376  0.6398  0.4316  0.0676
 4021SOL    HW113504   1.789   3.956   7.319  2.2407  0.8543  0.8903
 4021SOL    HW213505   1.767   3.915   7.464  2.3457 -0.2715  0.6024
 4022SOL     OW13506   6.562   6.007   9.544  0.1112 -0.2070  0.7477
 4022SOL    HW113507   6.576   5.913   9.534  0.3188  0.1147 -3.6580
 4022SOL    HW213508   6.651   6.044   9.549  0.1215 -0.0881 -0.1824
 4023SOL     OW13509   0.012   5.058   9.745  0.1546  0.0797  0.1439
 4023SOL    HW113510   0.058   5.134   9.710  1.8931 -1.7276 -1.8203
 4023SOL    HW213511  -0.035   5.091   9.821 -0.6049  3.4717 -1.5808
 4024SOL     OW13512   7.223   3.708   9.761  0.3516 -0.0641  0.2185
 4024SOL    HW113513   7.252   3.618   9.772  0.0889  0.0383  2.0244
 4024SOL    HW213514   7.301   3.755   9.731  0.7326 -0.7122  0.1912
 4025SOL     OW13515   7.505   4.272   9.733 -0.0969  0.4517  0.0092
 4025SOL    HW113516   7.591   4.267   9.693  0.5508  0.5482  1.3203
 4025SOL    HW213517   7.470   4.357   9.707  1.0977  1.3286  1.1296
 4026SOL     OW13518   1.882   4.658   9.756  0.1265  0.2543  0.3056
 4026SOL    HW113519   1.835   4.589   9.709  0.1234  0.2210  0.3566
 4026SOL    HW213520   1.925   4.709   9.687  1.4803 -0.7728  0.3254
 4027SOL     OW13521   0.975   4.302  11.509 -0.6369 -0.0558  0.0773
 4027SOL    HW113522   0.888   4.338  11.489 -2.2585 -3.6053  0.0650
 4027SOL    HW213523   0.989   4.234  11.444  2.6251  0.9462 -0.4400
 4028SOL     OW13524   0.610   4.758  10.762 -0.3366 -0.1336 -0.6399
 4028SOL    HW113525   0.655   4.734  10.843 -1.0456 -0.0889 -0.2210
 4028SOL    HW213526   0.608   4.677  10.711 -2.1631 -0.8723  0.4965
 4029SOL     OW13527   7.971   2.630  11.127  0.2845  0.6320  0.5535
 4029SOL    HW113528   7.883   2.600  11.106  1.1478 -1.0128 -0.9529
 4029SOL    HW213529   7.977   2.621  11.222 -1.3343  1.3000  0.7402
 4030SOL     OW13530   2.892   2.135   0.173  0.1133  0.4420  0.2059
 4030SOL    HW113531   2.949   2.062   0.195 -1.4933 -0.7060  0.7117
 4030SOL    HW213532   2.854   2.162   0.257  1.3403  2.4986  0.1850
 4031SOL     OW13533   1.813   5.332   8.865  0.0780 -0.0985  0.2854
 4031SOL    HW113534   1.872   5.286   8.806  0.4790  0.1237  0.5089
 4031SOL    HW213535   1.805   5.420   8.828 -0.4813 -0.2636  0.0025
 4032SOL     OW13536   1.171   4.372  11.030 -0.2650 -0.3668  0.0265
 4032SOL    HW113537   1.079   4.352  11.046 -0.0174  0.0920  2.4615
 4032SOL    HW213538   1.192   4.439  11.095  1.7323 -0.2944 -0.6388
 4033SOL     OW13539   0.950   3.585  12.153  0.3499  1.0859 -0.2502
 4033SOL    HW113540   0.919   3.663  12.200  1.3754  0.6736  1.2042
 4033SOL    HW213541   0.946   3.609  12.061 -2.4039  1.7160 -0.0437
 4034SOL     OW13542   7.251   4.877  10.650 -0.1762 -0.4821 -0.5781
 4034SOL    HW113543   7.283   4.941  10.586 -0.2435  2.5228  2.1498
 4034SOL    HW213544   7.330   4.834  10.682  0.7779  2.7573  1.9209
 4035SOL     OW13545   6.417   4.455  10.939  0.9389  0.4233 -0.1465
 4035SOL    HW113546   6.347   4.467  10.875  1.8408  0.0509 -1.2218
 4035SOL    HW213547   6.497   4.450  10.887  1.9178  1.8906  1.1168
 4036SOL     OW13548   7.383   4.450   9.526  0.3489  0.1168 -0.3808
 4036SOL    HW113549   7.352   4.536   9.554 -1.0736  0.2123 -2.1196
 4036SOL    HW213550   7.434   4.467   9.447  1.1096 -0.5347 -0.0449
 4037SOL     OW13551   0.742   4.857  10.501 -0.1427 -0.6461  0.1408
 4037SOL    HW113552   0.816   4.804  10.532 -0.1085 -1.2499 -0.9332
 4037SOL    HW213553   0.744   4.935  10.557  0.6014 -1.1809  0.8875
 4038SOL     OW13554   1.785   4.782   9.392 -0.1453  0.6135 -0.4761
 4038SOL    HW113555   1.748   4.695   9.405 -1.1903  1.0857 -0.2016
 4038SOL    HW213556   1.870   4.766   9.351 -0.3832 -0.5262 -0.5507
 4039SOL     OW13557   7.848   3.238  10.910  0.4065 -0.9251 -0.5049
 4039SOL    HW113558   7.787   3.285  10.966  0.8450 -0.7957 -0.1320
 4039SOL    HW213559   7.805   3.154  10.892 -0.1760 -0.5656 -0.8032
 4040SOL     OW13560   0.353   3.545  10.081  0.1936 -0.2146  0.3829
 4040SOL    HW113561   0.301   3.473  10.048  0.5556 -1.5136  2.4526
 4040SOL    HW213562   0.435   3.504  10.111  0.1782  0.9159  2.1397
 4041SOL     OW13563   0.435   6.083  11.819  0.4638 -0.5646 -0.1152
 4041SOL    HW113564   0.384   6.004  11.799  1.2745 -1.5829  1.6164
 4041SOL    HW213565   0.496   6.056  11.888 -0.0527  1.8582  1.4375
 4042SOL     OW13566   3.125   3.015   0.278 -0.0158 -0.3044  0.2775
 4042SOL    HW113567   3.075   2.947   0.323 -1.8786  0.7889 -0.0284
 4042SOL    HW213568   3.108   3.095   0.328  0.1329  0.4015 -0.7518
 4043SOL     OW13569   0.810   5.310  11.441 -0.0055  0.1503 -0.4133
 4043SOL    HW113570   0.834   5.392  11.485  0.7648  0.1705 -0.8533
 4043SOL    HW213571   0.735   5.333  11.387  0.0969  0.5285 -0.3998
 4044SOL     OW13572   1.288   3.945   9.626  0.2872  0.2695 -0.0321
 4044SOL    HW113573   1.296   3.976   9.716  0.2239  1.0469 -0.2870
 4044SOL    HW213574   1.193   3.932   9.613  0.2488  0.6637 -0.1508
 4045SOL     OW13575   0.394   4.291   8.096 -0.3655  0.0104  0.4073
 4045SOL    HW113576   0.427   4.286   8.186  0.2130 -0.9528  0.1556
 4045SOL    HW213577   0.444   4.225   8.048 -1.9560 -0.7802 -0.2257
 4046SOL     OW13578   0.660   5.900  10.840  0.0313  0.0149 -0.2361
 4046SOL    HW113579   0.602   5.836  10.882 -0.8610  0.1990 -1.1549
 4046SOL    HW213580   0.616   5.984  10.853 -1.2804 -0.1239 -3.1343
 4047SOL     OW13581   0.577   4.522  11.286  0.0962  0.2560 -0.2414
 4047SOL    HW113582   0.568   4.594  11.223  2.5716  0.5636 -0.3636
 4047SOL    HW213583   0.522   4.452  11.251 -1.1394  1.5378 -0.9673
 4048SOL     OW13584   0.250   5.483  10.748  0.0135 -0.7666 -0.3649
 4048SOL    HW113585   0.288   5.570  10.755 -1.2784  0.0225 -2.3480
 4048SOL    HW213586   0.314   5.432  10.698  0.2747 -0.6390 -0.1619
 4049SOL     OW13587   1.000   2.774  11.592  0.2539  0.5294 -0.3488
 4049SOL    HW113588   1.086   2.738  11.615 -0.0310 -0.0379 -0.1326
 4049SOL    HW213589   0.943   2.747  11.664  0.2209  2.2712  0.3330
 4050SOL     OW13590   2.411   3.955   0.991  0.3993 -0.0218 -0.0864
 4050SOL    HW113591   2.455   3.972   1.074  0.4997  1.2461 -0.3876
 4050SOL    HW213592   2.325   3.921   1.016  0.1970  0.9261  0.5499
 4051SOL     OW13593   6.623   4.898   6.758  0.0137 -0.0853  0.2904
 4051SOL    HW113594   6.667   4.983   6.748  2.9894 -1.3270  1.5298
 4051SOL    HW213595   6.634   4.856   6.673 -0.2670  0.2386  0.0895
 4052SOL     OW13596   0.578   6.511  10.056  0.2748  0.0227  0.0758
 4052SOL    HW113597   0.515   6.459  10.105 -0.0097  0.1744 -0.1284
 4052SOL    HW213598   0.573   6.477   9.966 -0.1743  0.6421 -0.1358
 4053SOL     OW13599   1.021   2.980   9.864  0.1676 -0.0893 -0.7283
 4053SOL    HW113600   1.064   2.987   9.949 -2.7106  1.1048  0.7821
 4053SOL    HW213601   1.051   2.897   9.828 -0.6366 -2.0487  2.7650
 4054SOL     OW13602   0.914   4.384  11.206 -0.1021  0.6487  0.0076
 4054SOL    HW113603   0.870   4.457  11.250  0.1188  1.0245 -0.3820
 4054SOL    HW213604   0.844   4.338  11.160 -0.3169  0.3209  0.6480
 4055SOL     OW13605   7.426   4.546   9.048 -0.1645  0.4265  0.4580
 4055SOL    HW113606   7.460   4.565   8.961 -0.0675 -0.9971  0.1544
 4055SOL    HW213607   7.334   4.573   9.044 -0.1237  0.5031 -0.0405
 4056SOL     OW13608   0.506   3.556  11.569  0.6729 -0.2593  0.2935
 4056SOL    HW113609   0.587   3.583  11.526 -0.0870 -0.9271 -1.6766
 4056SOL    HW213610   0.436   3.599  11.518 -0.2845 -1.4076  0.5938
 4057SOL     OW13611   1.660   4.218  10.438 -0.5363  0.3895  0.2301
 4057SOL    HW113612   1.707   4.150  10.390 -1.6815 -0.3893  0.1755
 4057SOL    HW213613   1.634   4.281  10.370 -0.5056  0.2747  0.1118
 4058SOL     OW13614   0.601   3.449  10.177  0.6276 -0.2758 -0.1206
 4058SOL    HW113615   0.655   3.528  10.184  0.1257  0.1553 -1.0208
 4058SOL    HW213616   0.541   3.455  10.251  0.3643  0.3732 -0.3764
 4059SOL     OW13617   2.100   3.607  10.476 -0.3598  0.1181 -0.7161
 4059SOL    HW113618   2.125   3.528  10.430 -1.7410  0.7685 -2.7354
 4059SOL    HW213619   2.140   3.678  10.426 -2.5952  0.8986 -1.5088
 4060SOL     OW13620   7.215   5.071  10.284  0.1113 -0.1513 -0.1637
 4060SOL    HW113621   7.134   5.021  10.271 -0.6171  0.5117  1.5169
 4060SOL    HW213622   7.197   5.156  10.246 -0.1027  0.0942  0.4787
 4061SOL     OW13623   7.072   2.900   8.300  0.0784 -0.1019  0.4724
 4061SOL    HW113624   7.042   2.940   8.382 -2.6618 -0.2367 -0.3647
 4061SOL    HW213625   7.048   2.807   8.309 -0.2946 -0.1027 -0.4801
 4062SOL     OW13626   0.266   5.850   9.425  0.0192  0.3150 -1.1199
 4062SOL    HW113627   0.343   5.893   9.461 -0.9714  0.0973  1.4976
 4062SOL    HW213628   0.230   5.913   9.362  0.6830  1.7074 -0.1518
 4063SOL     OW13629   6.094   5.095   8.856  0.6328  0.2551  0.1415
 4063SOL    HW113630   6.164   5.131   8.912  2.4272 -0.8979 -1.2286
 4063SOL    HW213631   6.117   5.003   8.847 -0.0749  0.2254 -1.7760
 4064SOL     OW13632   0.799   2.696   8.998  0.5753  0.3217  0.1020
 4064SOL    HW113633   0.810   2.735   8.911  1.1506 -0.9025 -0.4085
 4064SOL    HW213634   0.879   2.646   9.012  0.1374 -0.1579  0.9957
 4065SOL     OW13635   0.957   3.031  11.507 -0.1264  0.1588 -0.3898
 4065SOL    HW113636   0.964   2.941  11.538 -2.2494  0.7019  2.1093
 4065SOL    HW213637   0.930   3.024  11.416  0.1766 -1.7182 -0.3672
 4066SOL     OW13638   7.710   4.681   9.044 -0.2172 -0.4410 -0.3399
 4066SOL    HW113639   7.720   4.630   8.965  0.5940 -0.8121 -0.0103
 4066SOL    HW213640   7.616   4.679   9.063 -0.2619 -1.3576 -0.6217
 4067SOL     OW13641   1.820   4.695  10.147 -0.6144  0.3550  0.1877
 4067SOL    HW113642   1.741   4.733  10.109 -0.0733 -0.0483 -1.3864
 4067SOL    HW213643   1.801   4.601  10.151 -0.7951  0.4210  1.2874
 4068SOL     OW13644   1.556   5.890   9.117 -0.3826 -0.4589 -0.3327
 4068SOL    HW113645   1.647   5.918   9.116 -0.3079 -0.4739  1.6707
 4068SOL    HW213646   1.560   5.795   9.129 -0.5976 -0.2205  2.1600
 4069SOL     OW13647   7.389   4.135  10.733 -0.3165 -0.2170 -0.2344
 4069SOL    HW113648   7.438   4.210  10.700 -0.2470 -0.0028  0.3488
 4069SOL    HW213649   7.448   4.060  10.721  0.3868  0.1159  0.9647
 4070SOL     OW13650   0.675   4.728  10.275 -0.1451  0.2048 -0.1727
 4070SOL    HW113651   0.625   4.780  10.212 -1.7413  1.0960  1.7174
 4070SOL    HW213652   0.707   4.792  10.339  0.2734 -0.8128  0.6657
 4071SOL     OW13653   0.865   3.521   7.298 -0.3491  0.7025  0.2755
 4071SOL    HW113654   0.839   3.509   7.207  0.6105  0.5386  0.0043
 4071SOL    HW213655   0.867   3.616   7.310 -0.9303  0.7172  0.2681
 4072SOL     OW13656   6.657   5.107  10.412 -0.3209 -0.1024 -0.0210
 4072SOL    HW113657   6.595   5.178  10.397  0.4148  0.6353  0.3562
 4072SOL    HW213658   6.723   5.117  10.344 -0.1461 -0.3539  0.1084
 4073SOL     OW13659   2.040   7.477  12.213  0.3206  0.4577 -0.1002
 4073SOL    HW113660   1.975   7.428  12.263 -1.0003  0.6098 -1.5729
 4073SOL    HW213661   2.120   7.473  12.266 -0.4271 -1.1503  0.9894
 4074SOL     OW13662   0.817   3.964  10.321  0.0296  0.1783 -0.2267
 4074SOL    HW113663   0.763   4.008  10.386  2.4220  0.1876  1.8835
 4074SOL    HW213664   0.899   4.012  10.320  0.5921 -0.6768 -2.2739
 4075SOL     OW13665   0.786   4.493  10.075  0.2419 -0.8664  0.3147
 4075SOL    HW113666   0.708   4.442  10.054  0.1812 -0.1319 -1.4524
 4075SOL    HW213667   0.756   4.559  10.138 -0.0110 -2.0052  1.4240
 4076SOL     OW13668   1.953   5.520  11.453  0.1775 -0.7660 -0.0252
 4076SOL    HW113669   1.964   5.556  11.541 -0.5219 -1.1562  0.2337
 4076SOL    HW213670   2.038   5.533  11.411  0.3725 -0.1325  0.5420
 4077SOL     OW13671   7.704   4.598  10.793 -0.5908  0.4600 -0.2508
 4077SOL    HW113672   7.798   4.584  10.808 -0.9792 -1.1798  0.9746
 4077SOL    HW213673   7.683   4.540  10.720 -0.6877  0.7048 -0.4178
 4078SOL     OW13674   1.739   2.858   8.298  0.4702  0.3047  0.2919
 4078SOL    HW113675   1.737   2.763   8.304  2.1053  0.2025 -0.1448
 4078SOL    HW213676   1.768   2.887   8.384  0.0972  0.3984  0.3848
 4079SOL     OW13677   1.352   3.881   8.727 -0.1524  0.2322  0.6076
 4079SOL    HW113678   1.345   3.933   8.647  2.7112 -0.6934 -0.3601
 4079SOL    HW213679   1.264   3.844   8.739 -0.8933  1.0807 -1.5791
 4080SOL     OW13680   3.228   5.043   8.969 -0.2486  0.1407  0.2496
 4080SOL    HW113681   3.318   5.018   8.992 -0.2571  0.4218  0.5993
 4080SOL    HW213682   3.178   5.028   9.050 -0.6929 -0.8638 -0.1925
 4081SOL     OW13683   1.526   4.623  11.233  0.0740  0.0954  0.0027
 4081SOL    HW113684   1.548   4.572  11.310  1.5711  1.4513  0.5291
 4081SOL    HW213685   1.518   4.713  11.265  0.8096  0.6976 -1.4101
 4082SOL     OW13686   1.479   4.928   9.291 -0.0215 -0.0718  0.1880
 4082SOL    HW113687   1.548   4.872   9.327  0.7373  0.2915 -0.6607
 4082SOL    HW213688   1.425   4.952   9.367  0.7385 -0.4256  0.8507
 4083SOL     OW13689   0.620   5.227   9.698  0.0322  0.7464  0.0616
 4083SOL    HW113690   0.642   5.297   9.760 -0.5688  0.0399  1.0947
 4083SOL    HW213691   0.547   5.181   9.739  1.4588 -1.5210  0.2049
 4084SOL     OW13692   7.018   4.305  11.240  0.3579  0.1012  0.3353
 4084SOL    HW113693   7.032   4.381  11.183  2.5146 -1.4800 -1.4373
 4084SOL    HW213694   7.105   4.280  11.269 -0.3174 -1.5365  1.0956
 4085SOL     OW13695   2.687   4.305  10.124  0.2161 -0.7068 -0.3331
 4085SOL    HW113696   2.747   4.244  10.167 -1.3199 -2.0845 -0.0592
 4085SOL    HW213697   2.625   4.330  10.193  0.0630  0.1878 -0.7703
 4086SOL     OW13698   1.462   5.852  10.326  0.1920  0.0577 -0.0341
 4086SOL    HW113699   1.405   5.895  10.390  0.3862  0.3640 -0.0668
 4086SOL    HW213700   1.550   5.880  10.350  0.2705  0.1164 -0.3927
 4087SOL     OW13701   2.743   2.700  10.201 -0.0698 -0.6505 -0.1130
 4087SOL    HW113702   2.735   2.646  10.122 -0.1313 -0.2123 -0.4111
 4087SOL    HW213703   2.713   2.644  10.272 -0.9432 -0.7342 -0.5292
 4088SOL     OW13704   0.427   5.750  11.744 -0.2461  0.0512 -0.2690
 4088SOL    HW113705   0.449   5.702  11.665  0.1852 -3.6608  1.8717
 4088SOL    HW213706   0.512   5.769  11.785 -0.5081 -0.7289  0.6784
 4089SOL     OW13707   1.594   3.622   9.431  0.2271  0.5662 -0.0140
 4089SOL    HW113708   1.681   3.662   9.439  0.6447 -0.4145  0.6006
 4089SOL    HW213709   1.609   3.529   9.449 -0.9526  0.3808  0.0811
 4090SOL     OW13710   0.034   5.685  10.645 -0.2479  1.0241 -0.1723
 4090SOL    HW113711   0.059   5.601  10.686 -0.4952  0.3169 -1.4373
 4090SOL    HW213712   0.052   5.672  10.552 -2.8669  1.4066 -0.7842
 4091SOL     OW13713   1.357   4.297  10.313 -0.0726  0.6003  0.2466
 4091SOL    HW113714   1.280   4.350  10.333  0.3569  1.3670 -0.1057
 4091SOL    HW213715   1.338   4.212  10.354  0.1445  1.6528  2.7183
 4092SOL     OW13716   0.372   2.882  10.382  0.2555  0.0883 -0.2916
 4092SOL    HW113717   0.386   2.974  10.407  0.8122 -0.2496  0.7067
 4092SOL    HW213718   0.412   2.875  10.296 -0.9695  1.0944 -0.9798
 4093SOL     OW13719   7.426   4.361  10.033 -0.2417 -0.0044  0.5512
 4093SOL    HW113720   7.378   4.402   9.961 -0.9138 -1.3289  0.2113
 4093SOL    HW213721   7.435   4.269  10.006  1.2637 -0.0769  1.2531
 4094SOL     OW13722   2.279   4.035  10.112 -0.1282  0.2531 -0.6480
 4094SOL    HW113723   2.250   4.108  10.166  1.6943  0.8161 -0.3728
 4094SOL    HW213724   2.215   3.966  10.130 -1.8442  1.7272 -0.8686
 4095SOL     OW13725   6.588   2.612   8.649 -0.2884 -0.0752 -0.5001
 4095SOL    HW113726   6.521   2.586   8.712  0.2236  1.1772  0.5955
 4095SOL    HW213727   6.540   2.658   8.580 -0.6135  0.4479  0.0655
 4096SOL     OW13728   1.509   4.502   9.791 -0.2035 -0.1546  0.3140
 4096SOL    HW113729   1.436   4.441   9.784 -2.2364  2.2542 -1.6053
 4096SOL    HW213730   1.571   4.474   9.723  0.0296 -1.4139  1.0297
 4097SOL     OW13731   6.807   2.984   8.966  0.7971 -0.1739  0.2760
 4097SOL    HW113732   6.874   3.034   9.011 -0.3326 -1.1219  3.2216
 4097SOL    HW213733   6.724   3.019   8.999 -0.1545 -0.4240 -1.6879
 4098SOL     OW13734   1.414   4.248  11.143 -0.3369  0.0453  0.0995
 4098SOL    HW113735   1.340   4.300  11.112  0.9544  0.7260 -2.0772
 4098SOL    HW213736   1.432   4.187  11.071  1.8508  0.6197  0.0835
 4099SOL     OW13737   1.515   4.375  11.685  0.3708  0.0856  0.2016
 4099SOL    HW113738   1.604   4.351  11.661  0.8233  1.8531 -0.0104
 4099SOL    HW213739   1.493   4.317  11.758  1.7551 -0.2566  0.3601
 4100SOL     OW13740   1.416   3.688  11.734 -0.7372 -0.2657  0.1869
 4100SOL    HW113741   1.440   3.705  11.825 -0.0554  0.4980 -0.1310
 4100SOL    HW213742   1.499   3.681  11.688 -1.0820 -0.4611 -0.4187
 4101SOL     OW13743   0.435   6.155   9.824 -0.3865 -0.3648  0.0409
 4101SOL    HW113744   0.373   6.126   9.891 -0.1915 -1.9907 -0.4481
 4101SOL    HW213745   0.412   6.105   9.746  1.2342 -0.6641 -0.2844
 4102SOL     OW13746   0.763   3.873   9.891 -0.0965 -0.1416  0.8188
 4102SOL    HW113747   0.692   3.808   9.883 -0.4592  0.2900  0.4582
 4102SOL    HW213748   0.842   3.820   9.904  0.4196 -1.0334 -4.0562
 4103SOL     OW13749   7.513   4.040   9.968  0.1455  0.4598 -0.2464
 4103SOL    HW113750   7.554   4.072   9.888  1.1035  0.1119  0.1035
 4103SOL    HW213751   7.548   3.952   9.981 -1.8013 -0.4522 -0.7150
 4104SOL     OW13752   0.290   4.332   9.368 -0.4909  0.1790  0.2923
 4104SOL    HW113753   0.322   4.369   9.285  0.2405  1.7430  1.2226
 4104SOL    HW213754   0.206   4.293   9.346 -0.1645  0.2739 -1.2540
 4105SOL     OW13755   1.676   3.820   7.991  0.2265 -0.3747 -0.5006
 4105SOL    HW113756   1.712   3.781   8.070  0.8268 -2.3042 -1.6685
 4105SOL    HW213757   1.740   3.885   7.964 -0.2103  0.6489  0.8119
 4106SOL     OW13758   2.443   4.396  12.162 -0.0617  0.6413 -0.1186
 4106SOL    HW113759   2.445   4.481  12.118 -0.4492  1.5345  1.5351
 4106SOL    HW213760   2.530   4.359  12.146 -0.6229  0.2392 -2.8361
 4107SOL     OW13761   7.470   5.609   7.674  0.3844 -0.0526  0.2610
 4107SOL    HW113762   7.545   5.580   7.622 -0.5384  0.1078 -1.2130
 4107SOL    HW213763   7.447   5.532   7.727  0.7732 -0.5396 -0.2547
 4108SOL     OW13764   1.439   6.496   8.914  0.0530  0.2253  0.0845
 4108SOL    HW113765   1.519   6.471   8.960  0.2803  0.4706 -0.1733
 4108SOL    HW213766   1.467   6.514   8.825  0.0098  1.9301  0.3808
 4109SOL     OW13767   1.336   3.297  10.898 -0.0358  0.2375  0.0604
 4109SOL    HW113768   1.307   3.378  10.857 -0.5408  1.2793  2.3098
 4109SOL    HW213769   1.304   3.228  10.840  0.8438  1.5977 -2.1820
 4110SOL     OW13770   2.086   4.763   8.322  0.1143 -0.6964  0.1426
 4110SOL    HW113771   1.995   4.743   8.345  0.4166 -1.8629  0.3839
 4110SOL    HW213772   2.081   4.800   8.234 -0.7641  0.9916  0.8511
 4111SOL     OW13773   0.156   6.078  10.138 -0.1046 -0.1828  0.8244
 4111SOL    HW113774   0.118   6.150  10.188 -0.1240  0.0334  0.5054
 4111SOL    HW213775   0.221   6.039  10.196 -0.2957 -0.0882  1.1042
 4112SOL     OW13776   7.913   6.488  11.821 -0.3263  0.0310  0.9105
 4112SOL    HW113777   7.836   6.482  11.764 -0.4739  1.0370  0.9754
 4112SOL    HW213778   7.952   6.401  11.819 -0.3049  0.0491 -0.7725
 4113SOL     OW13779   6.029   6.054  10.469 -0.0710 -0.0218 -0.4930
 4113SOL    HW113780   5.981   6.107  10.405  0.6417  2.1995  0.6835
 4113SOL    HW213781   5.963   6.031  10.535 -0.1747  0.3660 -0.4562
 4114SOL     OW13782   0.480   5.207  11.875  0.3924 -0.2600 -0.4529
 4114SOL    HW113783   0.387   5.229  11.868  1.1539  3.6032 -0.9325
 4114SOL    HW213784   0.496   5.203  11.970  0.2080  2.1582 -0.2454
 4115SOL     OW13785   4.246   1.786  10.347 -0.3118  0.2115 -0.2508
 4115SOL    HW113786   4.217   1.707  10.302 -0.2105 -1.7140  2.8087
 4115SOL    HW213787   4.196   1.787  10.429  1.2708  2.1428  0.7728
 4116SOL     OW13788   0.143   3.909   9.830 -0.8505  0.4779 -0.2117
 4116SOL    HW113789   0.060   3.956   9.831 -0.6257  0.8640  0.7747
 4116SOL    HW213790   0.167   3.899   9.922  0.4027  0.7587 -0.4878
 4117SOL     OW13791   2.873   3.823  10.132 -0.3369  0.0452  0.2819
 4117SOL    HW113792   2.948   3.812  10.073 -1.0704 -0.5224 -0.5754
 4117SOL    HW213793   2.892   3.766  10.206  1.6141  2.3299  1.7266
 4118SOL     OW13794   0.658   4.598  11.851 -0.3763  0.0605 -0.2441
 4118SOL    HW113795   0.700   4.527  11.803 -0.9733 -0.0590 -0.6013
 4118SOL    HW213796   0.720   4.620  11.921 -0.2264 -0.8833 -0.0659
 4119SOL     OW13797   1.148   5.258   9.367  0.8167 -0.1373  0.1057
 4119SOL    HW113798   1.109   5.199   9.303 -0.4273 -0.0238  0.7301
 4119SOL    HW213799   1.204   5.316   9.315  1.7910 -1.6050 -0.5557
 4120SOL     OW13800   0.578   3.235   9.992 -0.5979  0.6237 -0.3585
 4120SOL    HW113801   0.625   3.168  10.042 -1.1164 -0.1619 -0.9048
 4120SOL    HW213802   0.576   3.311  10.050 -0.5966 -0.0515  0.5450
 4121SOL     OW13803   7.934   4.671  11.182 -0.2361  0.3050  0.1025
 4121SOL    HW113804   7.928   4.605  11.252 -1.1902 -1.0072 -1.1479
 4121SOL    HW213805   7.980   4.625  11.111 -0.8702  1.0114 -0.7751
 4122SOL     OW13806   1.388   6.077   6.552  0.1521  0.5465 -0.0122
 4122SOL    HW113807   1.463   6.125   6.587  1.2203 -1.1650  0.1705
 4122SOL    HW213808   1.427   6.009   6.497 -1.3343  0.4097 -0.9541
 4123SOL     OW13809   0.114   4.860  10.330  0.0941 -0.2044  0.5346
 4123SOL    HW113810   0.163   4.895  10.256 -2.6311  1.9888 -0.3857
 4123SOL    HW213811   0.069   4.783  10.295 -0.2814  0.1478  0.2407
 4124SOL     OW13812   2.925   2.561  10.536  0.0780  0.0402 -0.1381
 4124SOL    HW113813   2.889   2.519  10.458 -1.0943  1.7997 -0.6114
 4124SOL    HW213814   2.870   2.530  10.608 -0.7180  0.6333 -0.4712
 4125SOL     OW13815   1.052   2.630   9.012 -0.8726  0.3870 -0.2018
 4125SOL    HW113816   1.098   2.582   9.081 -2.0259 -2.3433 -1.1737
 4125SOL    HW213817   1.114   2.630   8.938 -0.8442  0.4645 -0.1784
 4126SOL     OW13818   1.744   2.746   9.301 -0.0023  0.3348  0.7082
 4126SOL    HW113819   1.819   2.776   9.249  0.0519  1.1084  1.2117
 4126SOL    HW213820   1.777   2.670   9.349 -0.1944 -0.7005 -0.7308
 4127SOL     OW13821   0.611   4.505   9.752 -0.0427  0.1265  0.0056
 4127SOL    HW113822   0.617   4.411   9.766 -1.1576 -0.3463 -2.2194
 4127SOL    HW213823   0.647   4.519   9.664 -1.5739  1.4807 -0.4759
 4128SOL     OW13824   0.667   6.535   9.385 -0.7877 -0.2103 -0.0673
 4128SOL    HW113825   0.740   6.556   9.328 -1.6115 -0.3552 -1.2215
 4128SOL    HW213826   0.605   6.608   9.372 -1.4429 -0.7781 -0.1858
 4129SOL     OW13827   0.846   4.689  12.008 -0.5616 -0.4123  0.4488
 4129SOL    HW113828   0.865   4.736  12.089  0.3164 -2.3545  1.4558
 4129SOL    HW213829   0.932   4.675  11.967 -0.7420 -1.4251  0.3746
 4130SOL     OW13830   6.558   5.498  12.382 -0.5319  0.0115  0.2762
 4130SOL    HW113831   6.598   5.483  12.468 -0.0533 -2.2737 -0.2588
 4130SOL    HW213832   6.464   5.499  12.398 -0.4042  1.1050  1.0027
 4131SOL     OW13833   6.881   3.818   0.298 -0.4252  0.4158 -0.1470
 4131SOL    HW113834   6.850   3.791   0.384  1.1050 -0.6684  0.1136
 4131SOL    HW213835   6.938   3.893   0.316  0.6180 -0.3691 -0.0740
 4132SOL     OW13836   0.181   4.540  10.764 -0.1732  0.1489 -0.0091
 4132SOL    HW113837   0.233   4.548  10.684  1.4449  1.3581  1.0930
 4132SOL    HW213838   0.103   4.592  10.747 -0.1976 -0.2044 -1.0500
 4133SOL     OW13839   2.821   4.195  11.007 -0.2343  0.0314 -0.5570
 4133SOL    HW113840   2.871   4.271  10.978 -0.4224  0.6189  0.6060
 4133SOL    HW213841   2.879   4.149  11.068 -0.4667 -0.2573 -0.5496
 4134SOL     OW13842   1.134   3.600  11.900  0.3641  0.0485  0.2685
 4134SOL    HW113843   1.222   3.633  11.918 -0.1764  0.9765  1.2952
 4134SOL    HW213844   1.148   3.508  11.876  1.5784  0.0955  0.7068
 4135SOL     OW13845   0.836   5.394  10.803  0.0072  0.7257 -0.4539
 4135SOL    HW113846   0.872   5.381  10.891  0.7590  1.1326 -0.7023
 4135SOL    HW213847   0.746   5.425  10.819 -0.2363 -0.2409  0.1584
 4136SOL     OW13848   2.632   3.601  11.934  0.6315 -0.2504  0.1904
 4136SOL    HW113849   2.652   3.686  11.975  0.0739 -0.2252  0.4129
 4136SOL    HW213850   2.568   3.561  11.993  1.1446 -0.9770  0.2625
 4137SOL     OW13851   1.865   5.314   0.225  0.1941 -0.0265 -0.2661
 4137SOL    HW113852   1.793   5.295   0.166 -0.2794  2.0366 -0.4321
 4137SOL    HW213853   1.926   5.365   0.172  1.2263 -0.7240  0.2137
 4138SOL     OW13854   7.427   5.450  12.116  0.0488 -0.4540  0.0963
 4138SOL    HW113855   7.440   5.534  12.073  0.1722 -1.3163 -1.6194
 4138SOL    HW213856   7.510   5.405  12.107 -0.4504 -1.3219 -0.3314
 4139SOL     OW13857   2.500   4.378  10.320 -0.4062 -0.0452  0.0369
 4139SOL    HW113858   2.557   4.363  10.395  0.9108  2.5534 -0.3470
 4139SOL    HW213859   2.453   4.458  10.341 -0.3533  0.4867 -1.7091
 4140SOL     OW13860   1.213   6.117  11.909  0.0572 -0.3903  0.8011
 4140SOL    HW113861   1.213   6.161  11.994  0.0238 -1.5861  1.4482
 4140SOL    HW213862   1.172   6.179  11.849 -0.2598  0.3243  1.7359
 4141SOL     OW13863   1.124   4.666  10.170 -0.6890  0.3473  0.5094
 4141SOL    HW113864   1.203   4.672  10.116 -1.0550  0.1080 -0.0668
 4141SOL    HW213865   1.056   4.709  10.118 -0.7853  1.1841  1.3142
 4142SOL     OW13866   0.045   6.738  11.851  0.1440  0.2846  0.2300
 4142SOL    HW113867   0.009   6.653  11.824  1.1072  0.1276 -0.6211
 4142SOL    HW213868   0.139   6.729  11.837  0.0770  2.1359 -1.6918
 4143SOL     OW13869   0.714   5.941  12.335 -0.4541 -0.0083  0.1365
 4143SOL    HW113870   0.775   5.977  12.269  0.7800 -1.2486  0.5472
 4143SOL    HW213871   0.771   5.900  12.399 -1.6534  0.9720  1.9011
 4144SOL     OW13872   0.223   5.254  11.997  0.3267  0.1679  0.3465
 4144SOL    HW113873   0.295   5.249  12.061  2.3087  0.4995 -1.7429
 4144SOL    HW213874   0.173   5.174  12.012  0.5242  0.3795  2.4891
 4145SOL     OW13875   2.056   4.250  11.346  0.1262 -0.6622  0.3315
 4145SOL    HW113876   2.034   4.326  11.401 -0.6345  0.2895 -1.2280
 4145SOL    HW213877   1.980   4.193  11.353 -0.1283 -0.3695 -0.0073
 4146SOL     OW13878   2.326   3.343   0.120 -0.6133  0.3654 -0.1787
 4146SOL    HW113879   2.272   3.268   0.143  0.6325 -0.2972  0.6802
 4146SOL    HW213880   2.416   3.310   0.119 -0.1180  1.6349 -0.6765
 4147SOL     OW13881   2.226   4.378  11.917  0.8730  0.2149 -0.0458
 4147SOL    HW113882   2.145   4.420  11.947 -0.5122 -2.1775 -0.2471
 4147SOL    HW213883   2.248   4.423  11.835 -0.0544  1.0948  0.1759
 4148SOL     OW13884   2.050   7.079  10.574 -0.2796  0.1673 -0.4238
 4148SOL    HW113885   2.111   7.033  10.632  0.2587  0.3921 -0.8026
 4148SOL    HW213886   2.095   7.083  10.490  0.1512  2.2758 -0.1505
 4149SOL     OW13887   6.726   5.319  12.194 -0.3293  0.3278  0.1090
 4149SOL    HW113888   6.708   5.342  12.103  3.6923  1.7822 -0.5632
 4149SOL    HW213889   6.680   5.385  12.246 -1.9595  0.0020 -0.8696
 4150SOL     OW13890   7.900   6.369   0.354 -0.6253 -0.4411 -0.2027
 4150SOL    HW113891   7.847   6.341   0.279  0.2617 -2.3285 -0.1980
 4150SOL    HW213892   7.966   6.427   0.317 -1.6179  0.5466 -0.4736
 4151SOL     OW13893   1.735   4.327   0.031 -0.3399 -0.2232  0.2048
 4151SOL    HW113894   1.785   4.302  -0.046 -0.9081 -0.9024  0.0491
 4151SOL    HW213895   1.739   4.251   0.089 -1.6960 -0.5437 -0.0751
 4152SOL     OW13896   1.171   3.718  11.628  0.2665  0.0946 -0.0381
 4152SOL    HW113897   1.180   3.801  11.582  1.8854 -1.1003 -2.0609
 4152SOL    HW213898   1.257   3.703  11.667 -0.4219 -0.0024  1.4970
 4153SOL     OW13899   1.638   3.693  11.591 -0.5909 -0.0067  0.3967
 4153SOL    HW113900   1.678   3.780  11.594  0.1408 -0.3400  0.3743
 4153SOL    HW213901   1.648   3.666  11.499 -0.5538 -0.2436  0.4721
 4154SOL     OW13902   1.674   5.685  10.661  0.1987  0.3334 -0.0412
 4154SOL    HW113903   1.724   5.633  10.724  2.3910  2.0308 -0.2622
 4154SOL    HW213904   1.641   5.621  10.598 -0.7349 -1.2188  1.8901
 4155SOL     OW13905   3.196   5.855   0.014 -0.0969  0.2761  0.0195
 4155SOL    HW113906   3.142   5.914  -0.038 -0.2930  0.1001  0.0193
 4155SOL    HW213907   3.286   5.874  -0.012  0.1230  2.6910  2.1350
 4156SOL     OW13908   0.726   3.212  11.575 -0.2677  0.3081 -0.2523
 4156SOL    HW113909   0.778   3.281  11.616 -1.6463 -0.2353  2.6829
 4156SOL    HW213910   0.785   3.137  11.570 -0.2144  0.1867  1.5089
 4157SOL     OW13911   3.861   4.012  11.626  0.4357  0.0464 -0.0573
 4157SOL    HW113912   3.823   3.932  11.590 -0.3069  0.4022 -0.0637
 4157SOL    HW213913   3.805   4.035  11.699 -0.1395  1.2923 -0.8631
 4158SOL     OW13914   1.483   3.345  11.351  0.0159  0.5687  0.4780
 4158SOL    HW113915   1.425   3.278  11.388  1.2806 -0.7439  0.1881
 4158SOL    HW213916   1.427   3.395  11.293 -0.9452 -0.3585  0.5617
 4159SOL     OW13917   0.389   2.038  12.176  0.4206 -0.1927  0.1860
 4159SOL    HW113918   0.305   2.081  12.197  0.4772  0.3563 -0.6795
 4159SOL    HW213919   0.373   1.946  12.193 -0.6246 -0.2054 -0.7345
 4160SOL     OW13920   7.766   4.196   9.489  0.1571 -0.4090  0.3323
 4160SOL    HW113921   7.689   4.195   9.433  0.4153 -0.6269 -0.0221
 4160SOL    HW213922   7.796   4.105   9.491  0.0392 -0.4430  0.9832
 4161SOL     OW13923   0.350   4.083  12.495 -0.2980  0.1082  0.6467
 4161SOL    HW113924   0.431   4.064  12.447  0.7550  1.5660  1.7445
 4161SOL    HW213925   0.295   4.128  12.430  0.9288  1.6520  0.6058
 4162SOL     OW13926   1.706   5.771  10.123 -0.5048 -0.6348 -0.4830
 4162SOL    HW113927   1.799   5.788  10.107 -0.3659 -1.3164 -0.4059
 4162SOL    HW213928   1.689   5.813  10.207 -0.5101  0.3447 -0.9550
 4163SOL     OW13929   2.835   2.963  11.658  0.5359  0.0485 -0.0625
 4163SOL    HW113930   2.924   2.944  11.628  0.2707  0.9434 -1.5323
 4163SOL    HW213931   2.829   3.059  11.656 -0.4838 -0.0000 -0.0932
 4164SOL     OW13932   1.051   6.186  12.466  0.2130 -0.1474 -0.1330
 4164SOL    HW113933   1.100   6.143  12.395  0.4545 -1.9242  1.0461
 4164SOL    HW213934   1.118   6.219  12.525  0.0221 -0.4216  0.2450
 4165SOL     OW13935   1.999   3.654   1.270 -0.2745 -0.1364 -0.6544
 4165SOL    HW113936   1.967   3.620   1.354  1.4372 -0.2140  0.0068
 4165SOL    HW213937   1.980   3.584   1.208 -2.9235  0.5031 -0.7011
 4166SOL     OW13938   0.768   4.134  11.859  0.2051 -0.1482  0.0316
 4166SOL    HW113939   0.857   4.169  11.868  0.1327 -0.0324  0.2854
 4166SOL    HW213940   0.765   4.100  11.769 -0.0748  1.4975 -0.6252
 4167SOL     OW13941   1.529   4.593  11.509 -0.0398 -0.7348 -0.3511
 4167SOL    HW113942   1.510   4.535  11.583 -1.8943  0.3050  0.0507
 4167SOL    HW213943   1.447   4.641  11.495  1.2938  1.4898 -0.9433
 4168SOL     OW13944   1.861   3.808  11.264 -0.2823 -0.5103  0.1037
 4168SOL    HW113945   1.852   3.885  11.209 -2.5204  0.3902  1.5639
 4168SOL    HW213946   1.946   3.770  11.240  0.3337  1.7013 -1.4968
 4169SOL     OW13947   1.877   4.503  12.226 -0.4700 -0.3915  0.2366
 4169SOL    HW113948   1.949   4.563  12.204  0.2440 -0.8453  1.2374
 4169SOL    HW213949   1.874   4.441  12.154 -0.6658  0.3527 -0.4060
 4170SOL     OW13950   0.883   3.392  11.713 -0.3491  0.1804 -0.0028
 4170SOL    HW113951   0.845   3.354  11.792 -1.8692  1.6334  0.0163
 4170SOL    HW213952   0.895   3.485  11.734  1.9237  0.0565 -0.5272
 4171SOL     OW13953   2.190   5.401  10.901  0.1769 -0.2894 -0.0673
 4171SOL    HW113954   2.131   5.409  10.826 -1.6320 -0.9090  1.2298
 4171SOL    HW213955   2.180   5.483  10.949 -1.6045 -1.3322  1.4787
 4172SOL     OW13956   0.531   4.397  10.065  0.5832 -0.3501  0.7958
 4172SOL    HW113957   0.465   4.439  10.009  2.0437  0.6055 -0.3064
 4172SOL    HW213958   0.526   4.304  10.042  0.6940 -0.0691 -0.4601
 4173SOL     OW13959   0.896   4.703  10.658  0.0386  0.3385  0.0760
 4173SOL    HW113960   0.852   4.734  10.737 -1.5286  0.6596 -0.8776
 4173SOL    HW213961   0.884   4.608  10.660 -0.9657  0.4394 -0.2860
 4174SOL     OW13962   3.239   1.707  12.202  0.2872  0.0261 -0.4499
 4174SOL    HW113963   3.163   1.745  12.159 -0.8195 -0.6923  0.7860
 4174SOL    HW213964   3.289   1.667  12.131 -0.8992 -0.1588 -1.2095
 4175SOL     OW13965   0.258   4.821  10.870  0.8449 -0.3895  0.2761
 4175SOL    HW113966   0.250   4.911  10.837  0.0598  0.4943  2.6677
 4175SOL    HW213967   0.199   4.770  10.815 -0.3962  0.9875  0.2655
 4176SOL     OW13968   0.662   5.073  12.046  0.0662 -0.1699 -0.1743
 4176SOL    HW113969   0.733   5.037  12.100 -0.5247  0.5365  1.1445
 4176SOL    HW213970   0.603   5.114  12.110 -0.6445  0.7503 -1.3856
 4177SOL     OW13971   1.136   4.324   0.258  0.7663 -0.8127 -0.0018
 4177SOL    HW113972   1.218   4.278   0.276  0.0003 -2.0481  0.4474
 4177SOL    HW213973   1.099   4.280   0.181  0.4945 -0.3095 -0.1642
 4178SOL     OW13974   0.542   3.286   9.345  0.2847  0.0769  0.0025
 4178SOL    HW113975   0.571   3.198   9.371 -2.7906 -1.0605  0.0831
 4178SOL    HW213976   0.519   3.277   9.253 -1.5903  0.2777  0.4112
 4179SOL     OW13977   0.778   4.838  11.511 -0.1974  0.3677 -0.2656
 4179SOL    HW113978   0.792   4.869  11.601 -1.3630 -0.1223  0.1069
 4179SOL    HW213979   0.702   4.780  11.518 -0.1920  0.1920 -1.5464
 4180SOL     OW13980   0.678   3.063   1.719 -0.1400  0.3607  0.4660
 4180SOL    HW113981   0.727   3.111   1.786 -1.1326  1.7493  0.2313
 4180SOL    HW213982   0.685   3.117   1.640 -1.9754  0.5787  0.4098
 4181SOL     OW13983   7.888   3.801  12.086  0.2121  0.0607 -0.0584
 4181SOL    HW113984   7.982   3.802  12.107  0.0783 -1.2537  0.6775
 4181SOL    HW213985   7.881   3.738  12.015 -0.2574 -0.6941  0.6471
 4182SOL     OW13986   1.736   3.833   9.324 -0.0076  0.0768  0.0838
 4182SOL    HW113987   1.660   3.776   9.311  0.3152 -0.4517  0.4680
 4182SOL    HW213988   1.708   3.918   9.289 -0.0680 -0.6037 -1.6339
 4183SOL     OW13989   1.077   4.687  11.810 -0.1389  0.3638 -0.0869
 4183SOL    HW113990   1.121   4.770  11.791  1.9383 -0.8712 -1.0319
 4183SOL    HW213991   1.148   4.623  11.815 -1.2914 -0.8688  4.0067
 4184SOL     OW13992   1.419   4.514   0.335 -0.1277 -0.5791  0.5117
 4184SOL    HW113993   1.380   4.562   0.262 -0.3042 -0.7904  0.4648
 4184SOL    HW213994   1.367   4.434   0.342  0.5530 -1.0640  0.1865
 4185SOL     OW13995   0.970   3.972  11.092 -0.0267  0.2669  0.2537
 4185SOL    HW113996   0.904   3.955  11.159 -1.5702  0.4589 -1.1490
 4185SOL    HW213997   0.990   3.885  11.056 -1.5097  0.4347 -1.0821
 4186SOL     OW13998   1.134   5.956  10.433 -0.0510 -0.3243  0.2263
 4186SOL    HW113999   1.047   5.994  10.437 -0.9459 -2.1087 -0.9676
 4186SOL    HW214000   1.141   5.901  10.511  0.0796 -0.0560  0.4052
 4187SOL     OW14001   7.720   4.947  10.006  0.2495  0.1278  0.1862
 4187SOL    HW114002   7.740   4.862  10.044  1.6651 -0.2982 -1.3843
 4187SOL    HW214003   7.743   4.938   9.914 -2.3331  1.3478 -0.6623
 4188SOL     OW14004   1.481   2.559  10.239  0.0982 -0.6092  0.6533
 4188SOL    HW114005   1.393   2.588  10.215 -0.0391 -1.7249 -0.2930
 4188SOL    HW214006   1.479   2.554  10.334 -1.0204 -1.0211  0.6290
 4189SOL     OW14007   7.551   2.992  11.192  0.1125 -0.1904  0.1925
 4189SOL    HW114008   7.512   3.071  11.154 -0.2196 -0.0267  0.8491
 4189SOL    HW214009   7.610   3.024  11.259 -2.4040 -0.4795  2.7626
 4190SOL     OW14010   2.997   3.865   1.572 -0.3687  0.1110 -0.5292
 4190SOL    HW114011   3.069   3.830   1.625 -0.8883  1.4263  1.1428
 4190SOL    HW214012   3.037   3.936   1.522 -0.2734  0.1104 -0.4555
 4191SOL     OW14013   2.370   4.060  10.893 -0.4533  0.5075 -0.4777
 4191SOL    HW114014   2.341   4.143  10.854  0.6640  0.6444 -1.0556
 4191SOL    HW214015   2.431   4.024  10.830 -0.6527 -0.6008 -0.0579
 4192SOL     OW14016   0.586   4.116   1.996 -0.1219 -0.3371  0.1234
 4192SOL    HW114017   0.633   4.183   1.946  0.7749 -2.1481 -1.6153
 4192SOL    HW214018   0.514   4.090   1.939 -0.7919 -0.4737  1.0153
 4193SOL     OW14019   2.124   3.254   0.850 -0.1159 -0.0618  0.5049
 4193SOL    HW114020   2.162   3.294   0.773  0.7885  0.0262  0.9850
 4193SOL    HW214021   2.136   3.318   0.920  1.1199 -1.0265  1.2213
 4194SOL     OW14022   3.854   2.208  10.140  0.3401  0.3010 -0.4272
 4194SOL    HW114023   3.795   2.279  10.114  0.4004  0.1529 -0.9798
 4194SOL    HW214024   3.916   2.248  10.200 -1.5289  0.0622  1.8439
 4195SOL     OW14025   1.534   2.873   9.643 -0.9864  0.2659 -0.0881
 4195SOL    HW114026   1.516   2.909   9.730 -1.5381  0.4455 -0.2669
 4195SOL    HW214027   1.553   2.950   9.589 -2.5028  0.3543 -0.5509
 4196SOL     OW14028   0.204   5.987  11.062  0.2414 -0.0872  0.2624
 4196SOL    HW114029   0.212   5.925  11.134  0.3611 -0.6325 -0.2126
 4196SOL    HW214030   0.111   5.984  11.039  0.3707 -0.6325 -0.2230
 4197SOL     OW14031   4.235   2.861   9.694 -0.2666  0.2147  0.1998
 4197SOL    HW114032   4.272   2.796   9.633  0.6436  0.8109  0.1001
 4197SOL    HW214033   4.213   2.810   9.772  1.9259 -0.0008  0.7558
 4198SOL     OW14034   1.902   4.488   9.956  0.3419 -0.4008 -0.3838
 4198SOL    HW114035   1.891   4.544   9.880 -0.7194 -0.5228 -0.3300
 4198SOL    HW214036   1.959   4.417   9.926  1.3464  0.4594 -0.5680
 4199SOL     OW14037   3.430   2.999  11.506 -0.1470  0.0361  0.5905
 4199SOL    HW114038   3.381   3.048  11.440  0.3647 -0.8167 -0.4594
 4199SOL    HW214039   3.363   2.961  11.563 -0.5955  0.7956  0.5919
 4200SOL     OW14040   1.108   3.620   1.044  0.4431  0.0398 -0.0017
 4200SOL    HW114041   1.159   3.656   0.971  2.3924  1.2328  1.8150
 4200SOL    HW214042   1.131   3.527   1.046  0.6939  0.0857 -0.6580
 4201SOL     OW14043   1.574   5.218  12.255 -0.5268 -0.3484 -0.2857
 4201SOL    HW114044   1.491   5.187  12.292 -0.6789 -1.0883 -1.2193
 4201SOL    HW214045   1.603   5.285  12.317 -2.4166  0.8095 -0.5614
 4202SOL     OW14046   3.115   2.720   1.426  0.5170 -0.0858  0.0098
 4202SOL    HW114047   3.133   2.780   1.354 -0.8297 -0.1414 -0.4001
 4202SOL    HW214048   3.030   2.747   1.460  1.0100 -0.2251  1.4290
 4203SOL     OW14049   4.117   2.770  11.396 -0.0434  0.3411 -0.0929
 4203SOL    HW114050   4.066   2.697  11.363 -1.9518  1.1497  0.9074
 4203SOL    HW214051   4.172   2.732  11.465 -1.1862 -0.1382  0.5819
 4204SOL     OW14052   0.113   5.989  10.733 -0.4934 -0.2454  0.1175
 4204SOL    HW114053   0.091   5.896  10.737 -0.8129 -0.1179  2.4388
 4204SOL    HW214054   0.209   5.992  10.729 -0.4898 -0.6632 -0.1296
 4205SOL     OW14055   7.513   3.114   0.623 -0.1573 -0.4482  0.5411
 4205SOL    HW114056   7.580   3.060   0.666  1.1854 -0.1647 -1.0721
 4205SOL    HW214057   7.453   3.050   0.583  2.1814 -0.9915 -2.5432
 4206SOL     OW14058   2.105   4.479   0.332  0.2981  0.1486  0.6457
 4206SOL    HW114059   2.157   4.550   0.294  1.4024 -0.6308  0.6737
 4206SOL    HW214060   2.014   4.502   0.309  0.8399  0.0476 -1.9658
 4207SOL     OW14061   2.404   5.848   0.054  0.1538  0.1518  0.2286
 4207SOL    HW114062   2.366   5.795   0.123  0.8171 -0.5996  0.0312
 4207SOL    HW214063   2.484   5.801   0.028  1.0039  1.4728  0.3618
 4208SOL     OW14064   3.235   3.490  11.102 -0.3191 -0.3755 -0.2854
 4208SOL    HW114065   3.261   3.401  11.129 -1.1820 -0.9169 -1.1857
 4208SOL    HW214066   3.187   3.525  11.176  2.3138  0.4060  1.1808
 4209SOL     OW14067   0.229   4.143  10.483 -0.1947 -0.2396  0.1030
 4209SOL    HW114068   0.195   4.176  10.566 -0.2535 -2.6021  1.1013
 4209SOL    HW214069   0.251   4.222  10.433  1.0797  1.3170  2.8514
 4210SOL     OW14070   1.155   2.971  12.417 -0.4768  0.0075 -0.6899
 4210SOL    HW114071   1.168   2.914  12.341 -0.7039 -0.9400 -0.0327
 4210SOL    HW214072   1.233   2.958  12.471 -0.9541 -0.4021 -0.0870
 4211SOL     OW14073   2.672   3.789  11.703 -0.6511  0.4255  0.4377
 4211SOL    HW114074   2.597   3.738  11.734  0.0503 -0.9411 -0.0075
 4211SOL    HW214075   2.675   3.773  11.609 -0.4378  1.3436  0.2821
 4212SOL     OW14076   0.131   3.095  12.466 -0.0068 -0.0634 -0.0350
 4212SOL    HW114077   0.170   3.141  12.392  0.1402  1.4941  0.9834
 4212SOL    HW214078   0.204   3.050  12.508  0.1340  0.1442 -0.0581
 4213SOL     OW14079   6.868   5.159  11.480  0.1890  0.2696  0.1354
 4213SOL    HW114080   6.837   5.070  11.495 -1.3287  0.6176 -0.6607
 4213SOL    HW214081   6.946   5.167  11.535 -1.5339 -0.4598  2.9238
 4214SOL     OW14082   1.828   4.528   0.199 -0.0825 -0.0131  0.4126
 4214SOL    HW114083   1.844   4.436   0.174 -0.2017 -0.1062  0.6791
 4214SOL    HW214084   1.792   4.567   0.120  1.7822  0.3025 -0.3541
 4215SOL     OW14085   1.146   4.015   1.242 -0.2382  0.8101  0.0671
 4215SOL    HW114086   1.184   4.102   1.254 -0.6600  0.8415  1.3125
 4215SOL    HW214087   1.058   4.022   1.280 -0.7788  0.2021 -1.0188
 4216SOL     OW14088   1.873   3.470  11.714  0.4266  0.0344  0.4769
 4216SOL    HW114089   1.834   3.459  11.628  0.6128 -1.1813  0.5296
 4216SOL    HW214090   1.957   3.423  11.708  0.0912 -0.7386  1.5377
 4217SOL     OW14091   0.841   2.028  10.310 -0.4087  0.0242 -0.7008
 4217SOL    HW114092   0.932   2.044  10.286 -0.9290  0.6930 -2.4005
 4217SOL    HW214093   0.796   2.110  10.291 -1.1957  0.1043  1.2523
 4218SOL     OW14094   0.354   4.305   1.328  0.2789 -0.1613 -0.3510
 4218SOL    HW114095   0.323   4.385   1.287  1.4381 -0.0812 -1.1147
 4218SOL    HW214096   0.334   4.316   1.421  0.8191  1.2129 -0.3764
 4219SOL     OW14097   4.209   3.809  11.900  0.0377  0.9587 -0.2016
 4219SOL    HW114098   4.208   3.719  11.932  0.1818  0.6900 -0.9523
 4219SOL    HW214099   4.263   3.856  11.964  0.0553  0.4955  0.1306
 4220SOL     OW14100   2.804   4.364   0.998 -0.5428  0.6032 -0.3079
 4220SOL    HW114101   2.888   4.356   1.043 -0.0855  2.6107 -0.7315
 4220SOL    HW214102   2.748   4.298   1.040  0.9954 -0.2292  0.5087
 4221SOL     OW14103   1.702   4.250   0.769 -0.0770  0.3692 -0.3725
 4221SOL    HW114104   1.679   4.166   0.810 -0.1936  1.1830  1.2839
 4221SOL    HW214105   1.789   4.235   0.731 -0.4435 -0.7293 -0.8282
 4222SOL     OW14106   0.877   5.626   1.337  0.7208  0.6107  0.0634
 4222SOL    HW114107   0.962   5.585   1.327  0.0228 -0.9616  0.2170
 4222SOL    HW214108   0.864   5.631   1.432 -0.2563 -1.2117  0.0648
 4223SOL     OW14109   0.145   4.058  11.813  0.3558 -0.1565  0.1365
 4223SOL    HW114110   0.126   3.969  11.782  1.8087 -0.4576  0.0263
 4223SOL    HW214111   0.227   4.081  11.769  0.2184  1.0849  0.4971
 4224SOL     OW14112   0.067   3.641  12.416  0.0855 -0.1063  0.4814
 4224SOL    HW114113   0.076   3.737  12.419  3.4194 -0.3139  2.0231
 4224SOL    HW214114   0.130   3.613  12.349 -1.9916 -1.2200 -1.1022
 4225SOL     OW14115   0.120   6.025   0.065 -0.3298  0.0349  0.2093
 4225SOL    HW114116   0.030   6.003   0.090 -0.9988 -1.0730 -2.7689
 4225SOL    HW214117   0.114   6.115   0.033 -0.1459  0.3196  0.9609
 4226SOL     OW14118   0.930   6.154  10.528 -0.1286  0.1370  0.2515
 4226SOL    HW114119   1.009   6.175  10.578 -0.5499  1.8022  0.2705
 4226SOL    HW214120   0.889   6.083  10.578  1.7582 -1.3726 -0.2293
 4227SOL     OW14121   7.665   6.731   0.184  0.9239 -0.1142  0.0843
 4227SOL    HW114122   7.680   6.732   0.089 -0.0260  1.1353 -0.0767
 4227SOL    HW214123   7.603   6.660   0.198  0.0771  0.5179 -0.4041
 4228SOL     OW14124   2.017   3.831  12.273  0.1006  0.1646  0.7509
 4228SOL    HW114125   2.054   3.912  12.307  1.7458 -0.7591  1.2846
 4228SOL    HW214126   1.934   3.857  12.232  0.6474  2.1058  0.8004
 4229SOL     OW14127   1.207   5.256   2.134  0.2051 -0.0276  0.3432
 4229SOL    HW114128   1.138   5.312   2.169 -0.1290 -1.0958  1.4790
 4229SOL    HW214129   1.283   5.314   2.127 -0.4965  0.8934  0.1501
 4230SOL     OW14130   7.977   3.725   9.583  0.2542  0.8274  0.2327
 4230SOL    HW114131   8.037   3.663   9.625  0.4250 -0.3143 -1.5705
 4230SOL    HW214132   8.010   3.734   9.493 -0.1128  3.1255  0.2619
 4231SOL     OW14133   1.039   4.212   0.485 -0.3452  0.1365  0.2535
 4231SOL    HW114134   1.100   4.139   0.494  0.5884  0.9409  0.6035
 4231SOL    HW214135   1.075   4.265   0.413 -0.6721  0.5700  0.4038
 4232SOL     OW14136   0.981   6.018  12.151 -0.1085  0.0289  0.1423
 4232SOL    HW114137   1.022   6.091  12.198  0.0632 -0.2477  0.4329
 4232SOL    HW214138   0.931   6.059  12.081  2.9576  0.2887 -2.1091
 4233SOL     OW14139   0.678   5.997  11.249 -0.2819  0.5268  0.2179
 4233SOL    HW114140   0.692   6.040  11.164  3.3487  0.0669  0.4147
 4233SOL    HW214141   0.613   6.051  11.293 -1.4981  1.3765 -2.4320
 4234SOL     OW14142   1.896   4.204  12.344 -0.1515  0.1357 -0.0927
 4234SOL    HW114143   1.879   4.199  12.250  1.5265  0.7171 -0.4614
 4234SOL    HW214144   1.991   4.194  12.351 -0.0801  1.6423  1.4204
 4235SOL     OW14145   2.397   4.583  12.469  0.3306  0.1732 -0.0864
 4235SOL    HW114146   2.337   4.607  12.539 -0.8188  1.0504 -1.3189
 4235SOL    HW214147   2.339   4.557  12.396  1.4280  0.9591 -1.2780
 4236SOL     OW14148   0.850   5.201  10.614  0.1389 -0.6396  0.6738
 4236SOL    HW114149   0.857   5.269  10.682  0.9422 -0.4008  0.3708
 4236SOL    HW214150   0.863   5.119  10.661 -0.1687 -0.5331  0.9429
 4237SOL     OW14151   1.753   4.689  11.635 -0.2583 -0.4025  0.4575
 4237SOL    HW114152   1.688   4.731  11.691 -1.7004  0.9257 -2.0513
 4237SOL    HW214153   1.702   4.655  11.561  1.6628 -1.2628 -0.5289
 4238SOL     OW14154   1.658   7.080   0.228  0.1142  0.2224  0.3480
 4238SOL    HW114155   1.627   7.026   0.300 -0.4847  0.8716  0.5889
 4238SOL    HW214156   1.723   7.138   0.267  0.2616  0.1395  0.2280
 4239SOL     OW14157   7.834   6.244  11.625  0.0698 -0.3472  0.0776
 4239SOL    HW114158   7.887   6.274  11.552 -0.0319 -0.3264  0.0130
 4239SOL    HW214159   7.791   6.164  11.593 -0.6352  0.1229 -0.1711
 4240SOL     OW14160   1.236   4.658  11.508  0.5011  0.0849 -0.2123
 4240SOL    HW114161   1.163   4.704  11.468  0.9665  0.1141 -1.0635
 4240SOL    HW214162   1.200   4.574  11.535  0.0265  0.3176 -0.1115
 4241SOL     OW14163   1.309   4.138  11.478 -0.0425  0.1430  0.5068
 4241SOL    HW114164   1.388   4.163  11.430 -0.0634 -0.0570  0.3671
 4241SOL    HW214165   1.237   4.153  11.417 -0.1792  0.8921  0.8325
 4242SOL     OW14166   2.146   4.264  11.010 -0.2147  0.2695  0.0464
 4242SOL    HW114167   2.119   4.181  11.049 -0.2249  0.7847  1.1722
 4242SOL    HW214168   2.083   4.280  10.940  0.9970 -1.6805 -1.6047
 4243SOL     OW14169   1.756   4.327  11.963 -0.1679 -0.3792  0.1263
 4243SOL    HW114170   1.808   4.266  12.015 -0.6570  0.1174  1.2043
 4243SOL    HW214171   1.763   4.293  11.873  1.4682 -0.6965  0.3342
 4244SOL     OW14172   2.795   4.987   1.258  0.6196  0.0213  0.4618
 4244SOL    HW114173   2.821   5.069   1.300  2.5415  0.7609 -1.9403
 4244SOL    HW214174   2.776   5.011   1.168  1.3128 -2.2066 -0.3430
 4245SOL     OW14175   2.093   3.140  10.572  0.3430  0.4129 -0.2785
 4245SOL    HW114176   2.099   3.224  10.619 -1.2906  1.1059 -1.2205
 4245SOL    HW214177   2.097   3.164  10.480 -0.4371 -0.5028 -0.5695
 4246SOL     OW14178   7.616   4.711   0.601  0.6041  0.0496 -0.2032
 4246SOL    HW114179   7.555   4.637   0.598  1.3211 -0.6755  1.4374
 4246SOL    HW214180   7.564   4.787   0.577 -1.0003 -0.5296  1.2573
 4247SOL     OW14181   2.419   6.141  11.589 -0.1733 -0.5557  0.0988
 4247SOL    HW114182   2.437   6.196  11.665 -3.3068  0.5697  0.1921
 4247SOL    HW214183   2.410   6.203  11.516  0.8196 -1.4397 -0.8211
 4248SOL     OW14184   0.805   2.361  12.382 -0.5514  0.1262 -0.3643
 4248SOL    HW114185   0.800   2.429  12.315  1.5978  0.5732 -0.1414
 4248SOL    HW214186   0.714   2.333  12.394 -1.4082  2.3697 -1.0314
 4249SOL     OW14187   6.095   4.432   0.239 -0.4869 -0.2237  0.1608
 4249SOL    HW114188   6.023   4.371   0.255 -0.0840 -0.5688  0.6927
 4249SOL    HW214189   6.109   4.428   0.144 -0.1007 -1.3875  0.2494
 4250SOL     OW14190   1.113   3.961  10.293  0.1385  1.2064  0.1635
 4250SOL    HW114191   1.069   3.884  10.257 -0.7523  1.4646  0.6911
 4250SOL    HW214192   1.099   4.030  10.228 -0.3217  1.3108  0.3688
 4251SOL     OW14193   3.209   3.061   2.179 -0.1890 -0.2206  0.2030
 4251SOL    HW114194   3.210   3.007   2.258 -0.4435  0.1630  0.4766
 4251SOL    HW214195   3.121   3.052   2.144 -0.3272  0.2454  0.4176
 4252SOL     OW14196   2.165   4.766   1.772 -0.5758  0.9678 -0.5468
 4252SOL    HW114197   2.134   4.690   1.820  1.3489  0.2283 -0.3858
 4252SOL    HW214198   2.221   4.812   1.833 -0.5570  1.7187 -1.1152
 4253SOL     OW14199   2.502   4.509   0.351  0.0729  0.2157  0.6031
 4253SOL    HW114200   2.555   4.588   0.357 -0.2304  0.4781 -0.0257
 4253SOL    HW214201   2.522   4.474   0.264 -0.5491  0.1484  0.4838
 4254SOL     OW14202   1.367   4.024  11.733 -0.3496  0.0962  0.1566
 4254SOL    HW114203   1.355   3.931  11.717 -1.4288  0.5014 -1.7443
 4254SOL    HW214204   1.343   4.066  11.650 -0.1610  2.0828  1.0404
 4255SOL     OW14205   0.386   5.170  10.521 -0.2812 -0.6163 -0.3062
 4255SOL    HW114206   0.428   5.128  10.446  0.1133 -0.4881 -0.1611
 4255SOL    HW214207   0.387   5.102  10.589  0.8577 -0.2097  0.1074
 4256SOL     OW14208   7.293   4.826  11.037  0.1143  0.0277  0.1882
 4256SOL    HW114209   7.311   4.892  11.104 -0.7173  0.4756 -0.0252
 4256SOL    HW214210   7.378   4.809  10.997  0.1770  1.7489 -0.4736
 4257SOL     OW14211   1.685   3.079  11.236  0.0514 -0.0941 -0.9479
 4257SOL    HW114212   1.674   3.121  11.322  0.5427 -0.0371 -0.9120
 4257SOL    HW214213   1.605   3.102  11.189 -0.1944 -0.0718 -0.5269
 4258SOL     OW14214   2.163   5.029  11.902 -0.2253  0.3627  0.5523
 4258SOL    HW114215   2.203   5.116  11.901 -0.4250  0.4583 -0.3130
 4258SOL    HW214216   2.069   5.045  11.893 -0.1405  0.0365 -1.5476
 4259SOL     OW14217   2.245   5.510  11.337  0.2561 -0.3302 -1.1201
 4259SOL    HW114218   2.242   5.428  11.385 -0.3593 -0.7345 -1.8296
 4259SOL    HW214219   2.323   5.554  11.370 -1.4237  0.5678  2.0473
 4260SOL     OW14220   7.900   5.470  11.724 -0.6642  0.0630 -0.4809
 4260SOL    HW114221   7.829   5.414  11.754  0.1368 -0.4189  0.5850
 4260SOL    HW214222   7.928   5.431  11.641 -2.1980  0.7820 -1.3821
 4261SOL     OW14223   2.875   4.544   1.424 -0.5889  0.0144 -0.1147
 4261SOL    HW114224   2.894   4.625   1.378 -0.1671  0.5830  1.0166
 4261SOL    HW214225   2.949   4.486   1.404 -1.1232 -0.2784 -1.3051
 4262SOL     OW14226   2.404   3.475  12.084 -0.1014 -0.5721  0.2444
 4262SOL    HW114227   2.387   3.409  12.150  0.3640  0.6597  1.6404
 4262SOL    HW214228   2.327   3.532  12.085 -0.3131 -0.8133 -0.6502
 4263SOL     OW14229   1.795   3.755  11.813 -0.1601 -0.1444  0.0674
 4263SOL    HW114230   1.807   3.674  11.763 -0.8264 -0.1334 -0.1256
 4263SOL    HW214231   1.700   3.766  11.816 -0.0895  0.3123  0.6100
 4264SOL     OW14232   0.652   5.774  10.498  0.0021 -0.3360  0.2737
 4264SOL    HW114233   0.694   5.688  10.493 -0.9358 -0.7794 -0.2875
 4264SOL    HW214234   0.723   5.834  10.520  0.6752 -1.2527  0.6725
 4265SOL     OW14235   1.388   6.427  11.795  0.3031  0.6770  0.1393
 4265SOL    HW114236   1.320   6.362  11.775  0.4281  0.5647  0.0743
 4265SOL    HW214237   1.395   6.479  11.715  1.6949 -0.5684 -0.5943
 4266SOL     OW14238   0.558   4.623   0.880 -0.0975 -0.2574 -0.4361
 4266SOL    HW114239   0.601   4.557   0.826  0.6308  0.9177 -1.3590
 4266SOL    HW214240   0.626   4.652   0.941  0.1644  0.8893 -1.2329
 4267SOL     OW14241   1.095   5.231  11.187  0.3696  0.1590 -0.9575
 4267SOL    HW114242   1.128   5.155  11.236 -0.0438 -0.6900 -1.9544
 4267SOL    HW214243   1.173   5.283  11.167  0.8308 -0.6712 -1.3609
 4268SOL     OW14244   1.469   3.920  10.618  0.2955  0.1275  0.0846
 4268SOL    HW114245   1.532   3.992  10.616 -0.2679  0.6336 -1.7489
 4268SOL    HW214246   1.513   3.849  10.571  0.0901 -0.0463  0.1522
 4269SOL     OW14247   1.240   4.288  11.999  0.1624  0.4296 -0.2691
 4269SOL    HW114248   1.303   4.313  12.067 -0.3268 -0.0217  0.3687
 4269SOL    HW214249   1.211   4.370  11.961  0.2170  0.7073  0.2824
 4270SOL     OW14250   0.932   4.334  12.050  0.1961  0.0052 -0.1855
 4270SOL    HW114251   0.919   4.398  11.980  0.9674  1.9131  1.3214
 4270SOL    HW214252   0.982   4.263  12.009  0.8782  1.1970 -1.5073
 4271SOL     OW14253   0.717   4.445   0.704 -0.2142  0.2064  0.1561
 4271SOL    HW114254   0.712   4.349   0.701  0.8519  0.0869  1.4060
 4271SOL    HW214255   0.810   4.464   0.691 -0.0042  0.9067  2.3046
 4272SOL     OW14256   2.903   5.097  11.960 -0.5012 -0.0565 -0.5693
 4272SOL    HW114257   2.967   5.028  11.947  0.6971  0.7888  0.5951
 4272SOL    HW214258   2.869   5.082  12.048 -0.3399  0.7360 -0.3642
 4273SOL     OW14259   0.372   3.963   0.441  0.3602 -0.0640 -0.3579
 4273SOL    HW114260   0.337   3.894   0.497 -1.5975  0.8729 -0.3629
 4273SOL    HW214261   0.369   3.926   0.353  1.5036 -0.7759 -0.1277
 4274SOL     OW14262   2.172   2.884   0.207 -0.6116  0.2445  0.5082
 4274SOL    HW114263   2.204   2.802   0.243 -0.2663 -1.4298 -3.1935
 4274SOL    HW214264   2.093   2.860   0.159 -0.9854  2.2591  0.0093
 4275SOL     OW14265   0.503   3.091  11.196 -0.3897 -0.1590  0.3660
 4275SOL    HW114266   0.519   3.137  11.278 -1.1167 -0.1444  0.5074
 4275SOL    HW214267   0.566   3.019  11.196  0.1867  0.3391  0.5323
 4276SOL     OW14268   2.113   4.699  12.209  0.0517  0.4451  0.3435
 4276SOL    HW114269   2.126   4.615  12.254 -3.1285  0.4239  1.5267
 4276SOL    HW214270   2.140   4.682  12.119 -0.1138 -1.7563  0.6365
 4277SOL     OW14271   1.458   4.914   0.220 -0.1083  0.1525 -0.0673
 4277SOL    HW114272   1.463   5.008   0.201  0.0876  0.1365 -0.0955
 4277SOL    HW214273   1.519   4.901   0.292  0.1420 -0.0194 -0.3096
 4278SOL     OW14274   0.090   3.954   0.298 -0.3697  0.0102 -0.1998
 4278SOL    HW114275   0.171   3.903   0.294  0.3740  1.2263 -2.4058
 4278SOL    HW214276   0.081   3.976   0.391  1.1346 -1.2255  0.2907
 4279SOL     OW14277   3.018   5.055   0.220 -0.4719 -0.3991  0.2117
 4279SOL    HW114278   3.085   5.120   0.242 -0.3181 -0.3714 -0.3469
 4279SOL    HW214279   3.067   4.980   0.186 -0.6815 -0.6358  0.4217
 4280SOL     OW14280   7.133   4.762  11.836 -0.1362 -0.2099  0.0443
 4280SOL    HW114281   7.074   4.837  11.841  1.0473  0.6731  1.0512
 4280SOL    HW214282   7.148   4.736  11.927  0.2552 -1.0406 -0.2442
 4281SOL     OW14283   2.801   4.547  11.608  1.2258  0.1163 -0.1696
 4281SOL    HW114284   2.889   4.582  11.593  0.0174  2.9474 -1.2874
 4281SOL    HW214285   2.787   4.487  11.535  1.9289  0.2769 -0.4475
 4282SOL     OW14286   1.887   5.029  11.965  0.0387 -0.5413 -0.0668
 4282SOL    HW114287   1.819   5.065  11.908 -2.6558 -2.5816  1.5779
 4282SOL    HW214288   1.903   5.096  12.030 -1.3641 -0.4728  0.2288
 4283SOL     OW14289   3.057   5.358  12.474  0.0244 -0.0693 -0.6427
 4283SOL    HW114290   3.044   5.435  12.528  0.5157 -0.7259  0.4357
 4283SOL    HW214291   3.094   5.392  12.392  2.7051  0.6689  0.7312
 4284SOL     OW14292   0.196   6.446  11.919 -0.2139  0.1419 -0.2063
 4284SOL    HW114293   0.238   6.513  11.866  1.4540 -0.2516  0.5665
 4284SOL    HW214294   0.124   6.492  11.963 -2.4400  0.2496 -3.5389
 4285SOL     OW14295   0.940   5.242   2.793 -0.5704 -0.1938 -0.1707
 4285SOL    HW114296   0.888   5.309   2.838 -0.4287 -0.6116  0.6400
 4285SOL    HW214297   0.979   5.191   2.864 -0.5023 -0.9990 -0.7772
 4286SOL     OW14298   2.677   4.242  12.324 -0.8440  0.3080 -0.4376
 4286SOL    HW114299   2.604   4.184  12.303  0.1322 -0.9681 -0.4493
 4286SOL    HW214300   2.752   4.183  12.333  0.2322  1.6037 -0.6416
 4287SOL     OW14301   0.781   6.225  12.039 -0.4707 -0.4157  0.4198
 4287SOL    HW114302   0.747   6.286  11.973 -1.0021 -0.0190  1.0474
 4287SOL    HW214303   0.774   6.273  12.122  1.0661 -0.5423  0.6640
 4288SOL     OW14304   5.009   3.594  11.699  0.4129  0.2331 -0.2618
 4288SOL    HW114305   4.957   3.657  11.650  2.0729  1.6118 -0.3578
 4288SOL    HW214306   5.083   3.574  11.641  0.6468 -0.7237  0.3394
 4289SOL     OW14307   0.635   6.485   2.397 -0.0880  0.3918 -0.1774
 4289SOL    HW114308   0.587   6.407   2.370  0.6123 -0.2807  0.4910
 4289SOL    HW214309   0.569   6.555   2.395 -0.6681 -0.1559 -0.9956
 4290SOL     OW14310   0.961   5.025   3.267  0.4746  0.6080  0.6760
 4290SOL    HW114311   0.973   4.949   3.210 -0.0670 -0.2052  1.6118
 4290SOL    HW214312   0.981   4.993   3.355 -2.0693  0.8574  1.4376
 4291SOL     OW14313   1.380   6.231  11.564 -0.3005 -0.4450  0.5852
 4291SOL    HW114314   1.297   6.236  11.612 -0.5088 -1.4088  0.3484
 4291SOL    HW214315   1.424   6.155  11.600 -1.1381 -2.1442 -1.7466
 4292SOL     OW14316   1.626   5.280   3.151  0.0485 -0.2854  0.0416
 4292SOL    HW114317   1.630   5.208   3.214 -0.1764 -1.2746 -1.0317
 4292SOL    HW214318   1.704   5.332   3.168  0.3477 -0.9332  0.6769
 4293SOL     OW14319   0.869   6.183  11.491  0.3464 -0.5809 -0.9230
 4293SOL    HW114320   0.816   6.126  11.547 -0.2458 -1.1892 -2.0663
 4293SOL    HW214321   0.931   6.224  11.551 -0.7193 -0.6663  0.2858
 4294SOL     OW14322   1.809   7.777   0.778 -0.2370  0.4310 -0.2401
 4294SOL    HW114323   1.903   7.785   0.796  0.2680  1.6418 -2.8633
 4294SOL    HW214324   1.803   7.704   0.717 -0.9057  0.7485 -0.5622
 4295SOL     OW14325   1.121   6.280  12.193  0.0734  0.4386  0.5324
 4295SOL    HW114326   1.098   6.334  12.269 -0.0642  0.2309  0.6404
 4295SOL    HW214327   1.074   6.321  12.120  0.0084  0.4952  0.6049
 4296SOL     OW14328   0.417   5.148  12.415  0.8308  0.4378  0.5272
 4296SOL    HW114329   0.404   5.151  12.510  1.5300 -0.3638  0.6632
 4296SOL    HW214330   0.473   5.071  12.402  0.0561  0.0531 -0.6127
 4297SOL     OW14331   0.264   1.019  12.326 -0.3960 -0.2390 -0.3996
 4297SOL    HW114332   0.227   0.958  12.262  0.1325  0.2622 -1.2045
 4297SOL    HW214333   0.351   0.983  12.345 -0.7426 -0.6716  0.4563
 4298SOL     OW14334   1.548   6.307   1.080  0.0509  0.5337 -0.5356
 4298SOL    HW114335   1.600   6.227   1.088 -1.9030 -0.8002 -0.5333
 4298SOL    HW214336   1.488   6.305   1.155 -0.2114  1.8900 -0.6724
 4299SOL     OW14337   0.269   6.083   1.392  0.1763 -0.1596  0.2316
 4299SOL    HW114338   0.315   6.091   1.308 -2.7487 -1.1841 -1.6068
 4299SOL    HW214339   0.270   6.172   1.428  0.8603  0.4655 -1.2391
 4300SOL     OW14340   6.685   0.871  11.321 -0.2268 -0.1989 -0.7441
 4300SOL    HW114341   6.655   0.837  11.406  1.3876 -1.5213 -0.6377
 4300SOL    HW214342   6.780   0.880  11.332 -0.0134 -0.2903 -2.3596
 4301SOL     OW14343   0.531   6.803   1.583 -0.5887  0.4453  0.0894
 4301SOL    HW114344   0.597   6.737   1.605 -1.3049 -0.1786  0.4146
 4301SOL    HW214345   0.545   6.873   1.647 -0.8209 -0.0932  0.7462
 4302SOL     OW14346   0.406   7.984  11.198  0.1543 -0.2354  0.1143
 4302SOL    HW114347   0.343   7.963  11.130 -0.4550 -1.6126  1.0557
 4302SOL    HW214348   0.444   8.068  11.171  1.5004 -1.6686 -3.0355
 4303SOL     OW14349   0.197   6.273   0.414  0.0034  0.0961  0.1649
 4303SOL    HW114350   0.237   6.211   0.352 -0.0430 -1.5502  1.6910
 4303SOL    HW214351   0.260   6.344   0.421  0.7302 -0.4490 -0.5799
 4304SOL     OW14352   0.090   5.614  12.126 -0.0671  0.4732 -0.1851
 4304SOL    HW114353   0.142   5.660  12.191 -0.1924 -0.5258  0.6545
 4304SOL    HW214354   0.149   5.599  12.053  1.1346 -1.3896  1.0839
 4305SOL     OW14355   1.876   6.216   0.070  0.2637 -0.1877  0.0964
 4305SOL    HW114356   1.930   6.211   0.149 -0.4299 -1.0382  0.5297
 4305SOL    HW214357   1.788   6.234   0.102  0.2633  1.1897 -0.6055
 4306SOL     OW14358   0.492   4.985  10.705  0.0473  0.3819 -0.2408
 4306SOL    HW114359   0.539   4.901  10.710  1.2390  0.9417 -1.5607
 4306SOL    HW214360   0.526   5.035  10.779 -1.0312 -0.4164  0.8623
 4307SOL     OW14361   1.439   4.064   0.076 -0.2386  0.3261 -0.2601
 4307SOL    HW114362   1.407   4.011   0.150  2.3226  2.0505  2.3132
 4307SOL    HW214363   1.518   4.018   0.047 -0.6875  0.1982 -1.3087
 4308SOL     OW14364   1.388   7.767   0.347 -0.1050  0.0848 -0.1797
 4308SOL    HW114365   1.313   7.816   0.313 -1.5360 -0.8104  1.5244
 4308SOL    HW214366   1.411   7.706   0.276 -0.2264  1.1575 -1.1633
 4309SOL     OW14367   0.177   4.123   1.131  0.2236  0.6040  0.1060
 4309SOL    HW114368   0.215   4.199   1.088  0.8311  1.3133  1.8251
 4309SOL    HW214369   0.230   4.111   1.210  0.1767 -1.6393 -0.1337
 4310SOL     OW14370   1.342   6.156   1.909 -0.2691  0.4338  0.2369
 4310SOL    HW114371   1.282   6.161   1.983 -0.6592 -1.0874  0.0583
 4310SOL    HW214372   1.361   6.063   1.899  1.7832  0.8232 -0.0062
 4311SOL     OW14373   0.856   7.098   0.579 -0.4019 -0.3644  0.8175
 4311SOL    HW114374   0.784   7.105   0.641 -0.8040  0.2291  0.2999
 4311SOL    HW214375   0.933   7.077   0.632 -0.2959  2.2342  1.8262
 4312SOL     OW14376   0.430   5.469   0.570  0.0674 -0.2543  0.7810
 4312SOL    HW114377   0.413   5.380   0.541  0.3788  0.2010 -0.9625
 4312SOL    HW214378   0.344   5.509   0.578 -0.0228 -0.0510 -0.8257
 4313SOL     OW14379   1.242   6.995   0.724 -0.2983  0.1576 -0.0922
 4313SOL    HW114380   1.301   6.955   0.788 -0.7212 -0.5204 -0.1227
 4313SOL    HW214381   1.207   7.072   0.769  1.4503  1.2344 -0.4665
 4314SOL     OW14382   2.235   4.952  12.275  0.2900  0.0480 -0.0524
 4314SOL    HW114383   2.232   4.890  12.347  0.2398  0.4068  0.2572
 4314SOL    HW214384   2.164   4.925  12.217 -0.2740  0.3179  0.4999
 4315SOL     OW14385   0.455   7.526   2.591  0.7528  0.3575 -0.4516
 4315SOL    HW114386   0.490   7.550   2.677  1.0931 -0.2645 -0.4055
 4315SOL    HW214387   0.367   7.562   2.589  1.1851  1.4493 -0.3296
 4316SOL     OW14388   7.135   5.406   3.578  0.1650 -0.0624 -0.3631
 4316SOL    HW114389   7.106   5.421   3.488 -0.5942 -1.1157 -0.3153
 4316SOL    HW214390   7.175   5.319   3.576  0.8276  0.2219  0.1697
 4317SOL     OW14391   0.967   6.638  12.176 -0.2931  0.0199  0.3760
 4317SOL    HW114392   0.892   6.692  12.152 -0.7460 -1.1681 -1.0373
 4317SOL    HW214393   0.972   6.572  12.107  2.4379  0.4384  0.0308
 4318SOL     OW14394   2.105   7.489   0.784 -0.2683  0.5493 -0.1496
 4318SOL    HW114395   2.057   7.408   0.801 -1.1043  0.6767 -1.7710
 4318SOL    HW214396   2.098   7.538   0.866 -1.1776 -0.3017  0.3022
 4319SOL     OW14397   7.016   5.579  12.256 -0.1042 -0.1894 -0.3761
 4319SOL    HW114398   7.102   5.618  12.241 -0.5655  0.6723 -0.8319
 4319SOL    HW214399   6.972   5.582  12.171 -0.0874 -1.9309 -0.5019
 4320SOL     OW14400   1.134   5.127  11.982  0.3531 -0.1478 -0.1491
 4320SOL    HW114401   1.218   5.085  11.999  3.0014  2.6215 -4.3763
 4320SOL    HW214402   1.086   5.065  11.928  0.2135 -1.2096  1.1527
 4321SOL     OW14403   0.446   0.215   1.224 -0.5252 -0.1683 -0.3948
 4321SOL    HW114404   0.538   0.238   1.237 -0.6672 -0.3085  0.9954
 4321SOL    HW214405   0.413   0.281   1.163  0.2655  0.4206 -0.1990
 4322SOL     OW14406   1.037   5.948   1.181 -1.0785  0.3608  0.1031
 4322SOL    HW114407   0.975   5.882   1.149  0.1333 -0.9119  0.2721
 4322SOL    HW214408   1.045   5.930   1.275 -0.9256  0.9212  0.2015
 4323SOL     OW14409   1.626   0.043   2.534 -0.4704 -0.7792 -0.1621
 4323SOL    HW114410   1.616  -0.047   2.503  0.3766 -0.9062 -0.0884
 4323SOL    HW214411   1.683   0.085   2.470  2.0618 -1.2966  1.5940
 4324SOL     OW14412   1.141   5.592   1.407 -0.2063  0.3341 -0.3756
 4324SOL    HW114413   1.150   5.497   1.409 -0.9955  0.1388  3.7755
 4324SOL    HW214414   1.219   5.625   1.452 -0.8344  1.4706 -0.0661
 4325SOL     OW14415   1.072   4.858   3.475  0.0760  0.2673 -0.7491
 4325SOL    HW114416   1.124   4.845   3.554 -0.9147  0.7855 -0.0010
 4325SOL    HW214417   1.137   4.861   3.404  0.9816 -0.0437  0.0496
 4326SOL     OW14418   0.950   5.080   0.668  0.9410  0.0469 -0.0293
 4326SOL    HW114419   1.009   5.093   0.741  0.5596  2.1831 -0.0445
 4326SOL    HW214420   0.914   5.167   0.650 -2.5598 -1.1761  0.2782
 4327SOL     OW14421   7.799   7.247   1.219 -0.3452  0.2757  0.0373
 4327SOL    HW114422   7.852   7.316   1.257 -0.2978  1.4811 -2.0665
 4327SOL    HW214423   7.828   7.241   1.128 -0.9130 -1.9698 -0.0652
 4328SOL     OW14424   7.880   0.483   1.944  0.4387 -0.5886 -0.0065
 4328SOL    HW114425   7.797   0.520   1.913  0.4034 -0.8789 -0.2557
 4328SOL    HW214426   7.921   0.555   1.991 -0.7462 -0.9487  1.6635
 4329SOL     OW14427   0.064   3.756   0.486 -0.1550  0.5270  0.4092
 4329SOL    HW114428   0.075   3.702   0.564 -2.4174  0.6189  0.8535
 4329SOL    HW214429   0.094   3.700   0.414 -3.2706 -1.8456  0.7299
 4330SOL     OW14430   1.832   6.512   2.770  0.8305 -0.0757 -0.4972
 4330SOL    HW114431   1.804   6.451   2.839  1.2093  0.5364  0.2115
 4330SOL    HW214432   1.758   6.572   2.760  0.4289 -0.6790 -1.2455
 4331SOL     OW14433   2.072   7.594   2.363 -0.1376 -0.7285  0.4095
 4331SOL    HW114434   2.164   7.568   2.357  0.7319  2.1842 -0.8285
 4331SOL    HW214435   2.027   7.539   2.300  1.0485 -1.1924 -0.0548
 4332SOL     OW14436   7.527   3.821   0.065  0.0213 -0.1676 -0.5844
 4332SOL    HW114437   7.490   3.826   0.153 -0.4063 -1.6055 -0.6745
 4332SOL    HW214438   7.611   3.867   0.073 -0.4497  0.5808  0.3234
 4333SOL     OW14439   7.797   6.425   0.856  0.0167  0.4240  0.3889
 4333SOL    HW114440   7.716   6.476   0.858  0.3458  0.9345  1.8200
 4333SOL    HW214441   7.769   6.336   0.878 -0.1608  0.5838  0.8122
 4334SOL     OW14442   0.880   0.609   1.845 -0.0264 -0.0716  0.0125
 4334SOL    HW114443   0.879   0.700   1.814 -0.0446  0.0859  0.4675
 4334SOL    HW214444   0.818   0.608   1.917 -1.4969 -0.8947 -1.2151
 4335SOL     OW14445   0.988   6.862   0.235  0.3272  0.1439  0.6033
 4335SOL    HW114446   0.905   6.873   0.189  0.6832 -0.9000 -0.3195
 4335SOL    HW214447   1.052   6.908   0.180  1.0445 -2.4739 -0.9241
 4336SOL     OW14448   1.084   7.214   0.830 -0.2580  0.0588 -0.7863
 4336SOL    HW114449   1.079   7.263   0.747 -1.3507  0.7427 -0.3338
 4336SOL    HW214450   1.111   7.280   0.894  1.2776 -0.6212 -0.6908
 4337SOL     OW14451   1.015   5.069   0.045  0.5476  0.2930  0.1615
 4337SOL    HW114452   0.993   5.135  -0.021  1.8679 -0.5201 -1.1564
 4337SOL    HW214453   1.055   5.118   0.116 -0.6717  1.1646  0.2607
 4338SOL     OW14454   0.628   5.315   0.044 -0.0029 -0.5595 -0.2432
 4338SOL    HW114455   0.543   5.285   0.011  0.0296  0.3145 -1.1747
 4338SOL    HW214456   0.607   5.367   0.121 -0.3928  0.2596 -0.8874
 4339SOL     OW14457   1.584   6.352   2.198 -0.0319 -0.1533  0.0138
 4339SOL    HW114458   1.499   6.380   2.162 -1.0889 -0.2024  2.2668
 4339SOL    HW214459   1.643   6.425   2.179 -0.7389  0.1787 -1.0079
 4340SOL     OW14460   1.485   6.126  12.203 -0.2665 -0.0453 -0.2306
 4340SOL    HW114461   1.442   6.053  12.159 -0.8084  0.1900 -0.1043
 4340SOL    HW214462   1.484   6.197  12.138 -0.4847  0.1021 -0.0684
 4341SOL     OW14463   0.805   4.009   0.306  0.0849 -0.3755 -0.2709
 4341SOL    HW114464   0.735   4.016   0.371  0.4664 -0.5404  0.1684
 4341SOL    HW214465   0.873   4.068   0.339  0.8216 -1.4471  0.1957
 4342SOL     OW14466   2.082   5.310   0.980 -0.6969 -0.1210  0.3569
 4342SOL    HW114467   2.155   5.318   0.918 -1.0791  2.4615  0.1265
 4342SOL    HW214468   2.004   5.315   0.926 -1.0222  0.6477  0.8742
 4343SOL     OW14469   0.688   0.813  11.290 -0.1968  0.3542  0.2065
 4343SOL    HW114470   0.651   0.792  11.204  0.2506 -1.2765  0.3947
 4343SOL    HW214471   0.777   0.843  11.272 -1.1238  3.1786 -0.1442
 4344SOL     OW14472   1.209   5.666   0.683 -0.2915 -0.1214 -0.1589
 4344SOL    HW114473   1.305   5.673   0.683 -0.0791 -2.1615  1.0406
 4344SOL    HW214474   1.189   5.599   0.618 -0.7403 -0.8400  0.6821
 4345SOL     OW14475   0.918   6.922   2.657 -0.0885  0.2823 -0.3715
 4345SOL    HW114476   0.971   6.998   2.680 -0.6737  0.5289  0.2036
 4345SOL    HW214477   0.877   6.945   2.574 -0.4876  0.7161 -0.0577
 4346SOL     OW14478   0.111   6.712   0.423  0.7244 -0.4201  0.3007
 4346SOL    HW114479   0.122   6.658   0.501 -1.4655 -0.5699  0.5858
 4346SOL    HW214480   0.123   6.652   0.350  0.6295 -0.7748  0.5712
 4347SOL     OW14481   0.096   5.439   1.206  0.3660 -0.3195 -0.0572
 4347SOL    HW114482   0.155   5.364   1.194  0.0294 -0.6115  0.1250
 4347SOL    HW214483   0.085   5.474   1.118  0.7902 -0.2796 -0.0982
 4348SOL     OW14484   2.329   4.233   3.076 -0.3172  0.0843  0.1991
 4348SOL    HW114485   2.373   4.161   3.122 -0.6167 -2.1860 -2.7197
 4348SOL    HW214486   2.264   4.190   3.021 -2.1337  2.8610 -0.0198
 4349SOL     OW14487   7.983   4.699  12.396  0.2810  0.4023  0.0846
 4349SOL    HW114488   8.010   4.790  12.383 -0.2604  0.6057  0.3488
 4349SOL    HW214489   7.905   4.705  12.452  1.1122 -0.2952  1.3729
 4350SOL     OW14490   0.420   5.822   2.613 -0.2177  0.0821 -0.1384
 4350SOL    HW114491   0.327   5.803   2.601 -0.2525 -0.2132  0.5168
 4350SOL    HW214492   0.446   5.869   2.534 -1.7191  3.1882  1.0547
 4351SOL     OW14493   0.907   7.816   0.841  0.4485  0.2676 -0.1115
 4351SOL    HW114494   0.853   7.893   0.824  0.7859  0.4318 -0.4744
 4351SOL    HW214495   0.922   7.817   0.936  0.1291  0.4279 -0.0631
 4352SOL     OW14496   2.240   4.528   0.785 -0.7394 -0.7393 -0.2253
 4352SOL    HW114497   2.262   4.584   0.711  2.0194 -0.1422  0.8976
 4352SOL    HW214498   2.248   4.438   0.751 -1.9445 -0.4873 -1.2204
 4353SOL     OW14499   1.569   7.251   1.652 -0.1206 -0.5183  0.7141
 4353SOL    HW114500   1.570   7.316   1.723 -0.9647  0.6909 -0.3267
 4353SOL    HW214501   1.657   7.256   1.614 -0.5427  1.0005 -0.1611
 4354SOL     OW14502   0.559   5.715   0.997  0.3083 -0.1866  0.1925
 4354SOL    HW114503   0.523   5.634   0.961  0.4324 -0.4707  0.6996
 4354SOL    HW214504   0.551   5.778   0.925  1.3304 -0.9491 -0.6216
 4355SOL     OW14505   2.920   4.922  11.665 -0.4118 -0.1922  0.1624
 4355SOL    HW114506   2.995   4.928  11.605  0.1117  1.0439  0.8968
 4355SOL    HW214507   2.958   4.888  11.746 -0.7266  0.0065  0.3924
 4356SOL     OW14508   7.173   7.117  11.372 -0.1508  0.4544  0.0544
 4356SOL    HW114509   7.227   7.185  11.332  1.4503 -1.1522 -0.6248
 4356SOL    HW214510   7.088   7.125  11.327  0.8464  0.2774 -1.9936
 4357SOL     OW14511   1.584   3.651   0.083 -0.0425 -0.2920  0.5315
 4357SOL    HW114512   1.663   3.601   0.066 -0.1075 -0.0822 -0.4576
 4357SOL    HW214513   1.513   3.597   0.049 -0.0388  0.8008 -1.3768
 4358SOL     OW14514   1.926   6.517   0.284  0.6575 -0.1761 -0.0767
 4358SOL    HW114515   1.895   6.543   0.371 -0.4128  0.5143 -0.6296
 4358SOL    HW214516   2.021   6.513   0.292  0.5333 -0.8111  1.3005
 4359SOL     OW14517   0.398   6.170   1.153 -0.0918 -0.0216  0.0775
 4359SOL    HW114518   0.376   6.103   1.088 -0.2496  0.8403 -0.7762
 4359SOL    HW214519   0.490   6.153   1.174 -0.2600 -0.7889  0.2221
 4360SOL     OW14520   0.591   0.196   3.529 -0.3073 -0.1695  0.6359
 4360SOL    HW114521   0.538   0.204   3.450 -2.0204 -0.6199  1.6715
 4360SOL    HW214522   0.618   0.286   3.548  3.3675 -0.3979 -2.4318
 4361SOL     OW14523   0.296   5.627   1.498 -0.0190 -0.0037  0.4411
 4361SOL    HW114524   0.303   5.553   1.558 -0.0959  0.1941  0.6905
 4361SOL    HW214525   0.300   5.704   1.553  2.0162  0.2475  0.0228
 4362SOL     OW14526   1.774   7.715   1.457  0.1340  0.4336  0.2028
 4362SOL    HW114527   1.697   7.762   1.486  0.8786  2.0939 -0.4274
 4362SOL    HW214528   1.747   7.623   1.457 -1.3365  0.8175  1.5004
 4363SOL     OW14529   1.107   4.158  11.266  0.0083 -0.3288 -0.5640
 4363SOL    HW114530   1.097   4.090  11.199 -0.5655  0.2912 -1.1305
 4363SOL    HW214531   1.069   4.236  11.226  1.5356  0.5877 -0.3025
 4364SOL     OW14532   0.515   4.752   2.291  0.3789 -0.1371  0.0276
 4364SOL    HW114533   0.475   4.673   2.327 -0.7915  0.3248 -0.2113
 4364SOL    HW214534   0.490   4.822   2.352  1.8222 -0.0085  0.5145
 4365SOL     OW14535   7.756   4.884  12.339  0.0501  0.0566  0.4006
 4365SOL    HW114536   7.832   4.931  12.306  0.8778 -2.3436 -1.4088
 4365SOL    HW214537   7.721   4.838  12.263 -0.5939 -2.3195  2.0141
 4366SOL     OW14538   0.378   4.789  12.466 -0.0195  0.1274  0.0579
 4366SOL    HW114539   0.372   4.698  12.437  0.2764 -0.3624  1.4267
 4366SOL    HW214540   0.308   4.834  12.419  0.9907 -0.3812 -2.0305
 4367SOL     OW14541   0.635   4.659   1.164  0.1883 -0.1549 -0.2535
 4367SOL    HW114542   0.729   4.659   1.146  0.3910 -1.3339  0.6648
 4367SOL    HW214543   0.615   4.749   1.187  1.1622  0.0478 -0.1671
 4368SOL     OW14544   0.340   7.144   0.812 -0.1694  0.0127  0.3678
 4368SOL    HW114545   0.353   7.069   0.754 -1.8664 -0.0793  0.0655
 4368SOL    HW214546   0.426   7.159   0.851  0.5389 -1.1701 -0.6635
 4369SOL     OW14547   1.164   7.367   1.051  0.2523 -0.0987  0.0985
 4369SOL    HW114548   1.179   7.335   1.139 -1.8761  0.6358  0.7979
 4369SOL    HW214549   1.203   7.455   1.050  1.5657 -0.6682 -0.1876
 4370SOL     OW14550   0.422   5.406   1.208 -0.0773  0.0819  0.9839
 4370SOL    HW114551   0.467   5.487   1.232  0.2386  0.1107  0.3324
 4370SOL    HW214552   0.441   5.345   1.279  0.9930  0.0996  0.7249
 4371SOL     OW14553   7.414   7.792  11.969  0.2476 -0.0679 -0.4765
 4371SOL    HW114554   7.410   7.848  11.891  1.1045  0.4230 -0.1817
 4371SOL    HW214555   7.362   7.839  12.034 -1.2954 -0.9596 -1.0211
 4372SOL     OW14556   1.151   7.535   0.277  0.0918 -0.1877  0.2352
 4372SOL    HW114557   1.204   7.593   0.223  0.5160 -0.2827  0.5477
 4372SOL    HW214558   1.188   7.448   0.264 -0.8689 -0.4848 -0.6427
 4373SOL     OW14559   1.860   4.904   0.436  0.0444  0.2236 -0.3278
 4373SOL    HW114560   1.791   4.939   0.492  0.3694  1.0521 -0.4287
 4373SOL    HW214561   1.856   4.809   0.449 -1.2666  0.2371 -0.5246
 4374SOL     OW14562   0.698   5.890  10.128  0.3614 -0.4504  0.6837
 4374SOL    HW114563   0.673   5.954  10.195 -0.9146 -0.3478  0.1455
 4374SOL    HW214564   0.704   5.941  10.047  0.0641 -0.8764  0.3885
 4375SOL     OW14565   0.616   7.498  12.124 -0.2344 -0.3987 -0.3010
 4375SOL    HW114566   0.681   7.551  12.171  1.3354  0.4100 -3.1826
 4375SOL    HW214567   0.562   7.460  12.194  1.1092  1.7258  2.0675
 4376SOL     OW14568   0.425   6.662   1.955 -0.0439  0.6012  0.5236
 4376SOL    HW114569   0.346   6.690   2.002  0.1786  0.4153  1.0129
 4376SOL    HW214570   0.497   6.696   2.008  0.2226 -0.3913  0.8105
 4377SOL     OW14571   2.093   7.241   1.646  0.6121  0.3004 -0.0200
 4377SOL    HW114572   2.112   7.323   1.693  2.7872 -0.2055  0.0887
 4377SOL    HW214573   2.168   7.185   1.665  0.7435 -0.5496 -2.7027
 4378SOL     OW14574   0.702   6.252   0.417  0.2799  0.9331  0.0667
 4378SOL    HW114575   0.794   6.249   0.392  0.6403 -0.7594  1.3423
 4378SOL    HW214576   0.680   6.345   0.419  2.3899  1.4719  1.1954
 4379SOL     OW14577   0.458   7.312   0.469  0.3272  0.7626 -0.5421
 4379SOL    HW114578   0.527   7.326   0.534  1.4925 -1.2118 -1.2555
 4379SOL    HW214579   0.409   7.394   0.468  0.5630  1.0526  2.4321
 4380SOL     OW14580   1.517   4.914   0.483  0.1633 -0.1247  0.3487
 4380SOL    HW114581   1.574   4.841   0.506  1.6172 -0.1610 -2.8103
 4380SOL    HW214582   1.555   4.990   0.526 -0.2594 -0.8559  2.1131
 4381SOL     OW14583   0.292   5.933   3.371 -0.1675  0.1250  0.3253
 4381SOL    HW114584   0.225   5.990   3.333 -0.1022  0.5599  0.8399
 4381SOL    HW214585   0.243   5.860   3.409 -0.3089  0.1676  0.2246
 4382SOL     OW14586   6.911   6.873   0.747  0.1269 -0.1034  0.5905
 4382SOL    HW114587   6.871   6.922   0.675  0.1884  0.8057  1.1596
 4382SOL    HW214588   7.005   6.873   0.726  0.2061  0.5796  0.8940
 4383SOL     OW14589   7.395   0.520   1.735  0.5593 -0.4648 -0.5102
 4383SOL    HW114590   7.419   0.458   1.667  0.8279 -1.2491  0.2779
 4383SOL    HW214591   7.371   0.465   1.810  1.4433  0.3712  0.4236
 4384SOL     OW14592   0.749   5.371   1.736  0.0049 -0.2734 -0.3836
 4384SOL    HW114593   0.765   5.410   1.822 -0.7513 -0.5326 -0.1182
 4384SOL    HW214594   0.772   5.279   1.746 -1.3464 -0.6068 -0.0559
 4385SOL     OW14595   0.693   6.921   1.078 -0.0755  0.3730  0.3746
 4385SOL    HW114596   0.726   6.944   1.165  0.0360 -1.6493  0.8985
 4385SOL    HW214597   0.762   6.950   1.018  0.1956  1.0718  1.0036
 4386SOL     OW14598   0.086   5.558  10.167 -0.6129 -0.3065  0.4235
 4386SOL    HW114599   0.043   5.480  10.201 -1.8730 -0.2441 -0.9436
 4386SOL    HW214600   0.108   5.536  10.077  1.4368  0.0150  0.7785
 4387SOL     OW14601   7.863   7.507  11.739 -0.3049  0.7446  0.0237
 4387SOL    HW114602   7.771   7.530  11.745 -0.4052  0.8201 -1.4399
 4387SOL    HW214603   7.864   7.423  11.694  0.3743  1.1666 -0.7699
 4388SOL     OW14604   1.203   6.817  12.124 -0.4576 -0.2009 -0.5811
 4388SOL    HW114605   1.200   6.748  12.191 -2.0410  0.9676  0.6402
 4388SOL    HW214606   1.261   6.883  12.160 -0.9320  0.2163 -0.5724
 4389SOL     OW14607   1.422   4.860   1.003 -0.0579  0.2926  0.3224
 4389SOL    HW114608   1.430   4.925   0.933 -0.4527  1.0427  0.9590
 4389SOL    HW214609   1.433   4.910   1.083 -2.3364 -0.0481  0.9207
 4390SOL     OW14610   2.070   6.691   2.212 -0.5242  0.2236 -0.2510
 4390SOL    HW114611   2.066   6.739   2.295  0.1336  0.4138 -0.3236
 4390SOL    HW214612   2.162   6.696   2.186 -0.7199  0.1204 -0.9723
 4391SOL     OW14613   0.026   7.484   2.010 -0.7726 -0.0547 -0.1400
 4391SOL    HW114614   0.033   7.549   2.080 -1.4223 -1.9029  1.7501
 4391SOL    HW214615  -0.066   7.485   1.985 -0.5881  0.4290 -0.8360
 4392SOL     OW14616   7.241   6.227   2.402 -0.1426 -0.2346  0.1124
 4392SOL    HW114617   7.289   6.294   2.451 -1.6363  2.0723 -1.3800
 4392SOL    HW214618   7.149   6.254   2.408 -0.6600 -1.3827 -1.7188
 4393SOL     OW14619   3.437   4.933   1.378  0.2805  0.2778  0.0605
 4393SOL    HW114620   3.435   4.907   1.470  2.4442  0.1093  0.1263
 4393SOL    HW214621   3.483   4.862   1.334 -2.5576 -0.6909 -1.6064
 4394SOL     OW14622   1.800   6.502   2.120 -0.2062 -0.4552 -0.4336
 4394SOL    HW114623   1.857   6.573   2.148 -0.6708 -0.2596  0.0301
 4394SOL    HW214624   1.786   6.518   2.026 -0.7175  0.3562 -0.2233
 4395SOL     OW14625   1.009   7.226   0.289  0.0743 -0.0837 -0.2006
 4395SOL    HW114626   0.921   7.244   0.321  0.4776  1.3332  0.1719
 4395SOL    HW214627   0.995   7.189   0.202 -0.9457 -1.9042  0.6718
 4396SOL     OW14628   1.843   7.044   0.552  0.3061  0.4337  0.4116
 4396SOL    HW114629   1.813   7.008   0.636 -1.6198  1.8955  0.4427
 4396SOL    HW214630   1.762   7.065   0.506  1.2571  3.3605 -0.1414
 4397SOL     OW14631   1.897   5.683   2.058 -0.3679 -0.1599 -0.0740
 4397SOL    HW114632   1.988   5.656   2.069 -0.4183 -0.4070 -0.2581
 4397SOL    HW214633   1.883   5.749   2.127 -0.3306 -0.8179  0.5743
 4398SOL     OW14634   2.819   4.296  12.005 -0.5429  0.4907  0.0394
 4398SOL    HW114635   2.803   4.327  12.094 -1.4623 -0.2925  0.1622
 4398SOL    HW214636   2.850   4.206  12.016 -0.1210  0.5771 -0.4067
 4399SOL     OW14637   1.195   6.084   1.016 -0.3037  0.4173  0.6702
 4399SOL    HW114638   1.140   6.029   1.072 -1.6651  0.5371 -0.4705
 4399SOL    HW214639   1.213   6.030   0.939 -1.8242  1.5448 -0.5590
 4400SOL     OW14640   0.091   6.152   0.881  0.2584  0.1844  0.1932
 4400SOL    HW114641   0.116   6.127   0.970  0.4968 -0.4732 -0.0591
 4400SOL    HW214642   0.164   6.206   0.850  0.7836 -0.6766 -0.0802
 4401SOL     OW14643   1.484   6.599   1.853 -0.8026  0.1790  0.1242
 4401SOL    HW114644   1.558   6.660   1.859 -2.6037  2.3529  3.3069
 4401SOL    HW214645   1.522   6.514   1.875  1.0695  0.8710 -0.2275
 4402SOL     OW14646   1.108   6.378   2.349 -0.6943 -0.4516 -0.0609
 4402SOL    HW114647   1.022   6.388   2.309 -1.5992  0.5111  1.9414
 4402SOL    HW214648   1.094   6.317   2.421  0.1564  0.1024  0.5950
 4403SOL     OW14649   1.766   4.034  12.497 -0.3788  0.4883  0.3036
 4403SOL    HW114650   1.703   4.016  12.427 -1.5397  0.4574  1.3275
 4403SOL    HW214651   1.826   4.098  12.458  0.2053 -1.0051 -1.3630
 4404SOL     OW14652   1.388   6.865   0.025  0.5438 -0.0113 -0.4408
 4404SOL    HW114653   1.367   6.796  -0.038  1.4721 -0.1318 -0.6351
 4404SOL    HW214654   1.436   6.819   0.095 -0.0064  0.2124  0.0930
 4405SOL     OW14655   0.263   5.515   0.009  0.6958 -0.6891 -0.5976
 4405SOL    HW114656   0.258   5.489   0.101  0.5861 -1.4642 -0.8186
 4405SOL    HW214657   0.236   5.438  -0.040  1.6705 -0.5987 -1.3179
 4406SOL     OW14658   0.831   5.825   1.018  0.8144  0.4543  0.0332
 4406SOL    HW114659   0.800   5.915   1.024 -3.6092 -0.7613 -1.1260
 4406SOL    HW214660   0.870   5.819   0.931  0.4064  1.0762 -0.2015
 4407SOL     OW14661   2.956   6.177   0.223  0.8741  0.1730 -0.6447
 4407SOL    HW114662   3.051   6.189   0.212  0.9842 -0.0385  0.0402
 4407SOL    HW214663   2.946   6.083   0.238  0.6686  0.3494  0.3608
 4408SOL     OW14664   1.091   6.762   2.064 -0.7010  0.8429  0.2088
 4408SOL    HW114665   1.156   6.744   1.995 -0.3799  1.0452  0.4554
 4408SOL    HW214666   1.135   6.736   2.145 -0.7762  1.3714  0.4188
 4409SOL     OW14667   2.287   5.317   0.787  0.4423  0.4865 -0.2564
 4409SOL    HW114668   2.299   5.246   0.724  0.7987  0.0178  0.3280
 4409SOL    HW214669   2.311   5.396   0.739 -0.4302  0.2847 -1.0693
 4410SOL     OW14670   0.890   6.432   2.070 -0.3275 -0.4507  0.5872
 4410SOL    HW114671   0.841   6.514   2.066 -0.1683 -0.3743  0.1265
 4410SOL    HW214672   0.962   6.445   2.008  0.2474 -0.5777  1.2254
 4411SOL     OW14673   0.200   6.702   2.093  0.3459 -0.1295 -0.2419
 4411SOL    HW114674   0.203   6.706   2.189 -0.5770 -0.0764 -0.2092
 4411SOL    HW214675   0.133   6.766   2.069 -2.0231 -2.6598 -0.7309
 4412SOL     OW14676   0.059   6.543   0.210 -0.0385  0.6035  0.0540
 4412SOL    HW114677   0.143   6.518   0.170 -0.4932 -1.0604  0.0555
 4412SOL    HW214678   0.001   6.559   0.135 -0.1201  0.2507  0.0374
 4413SOL     OW14679   1.088   5.323   1.394  0.5152  0.4937 -0.0356
 4413SOL    HW114680   1.003   5.294   1.361 -0.7433  3.2697  0.4487
 4413SOL    HW214681   1.098   5.280   1.478 -0.1251 -0.3151 -0.3666
 4414SOL     OW14682   2.763   5.275   3.486 -0.3174  0.5290  0.1261
 4414SOL    HW114683   2.684   5.223   3.473 -0.5980  0.1299  2.8600
 4414SOL    HW214684   2.812   5.228   3.553  2.3946  0.6646 -1.5924
 4415SOL     OW14685   1.965   6.644   1.938 -0.2365  0.3025  0.5035
 4415SOL    HW114686   2.024   6.587   1.888  0.3326  1.3761 -0.1021
 4415SOL    HW214687   2.010   6.658   2.022 -0.7626 -0.7715  0.9791
 4416SOL     OW14688   7.067   7.387  12.323 -0.0658 -0.2491 -0.4583
 4416SOL    HW114689   7.021   7.470  12.314  0.3252  0.0360  0.1091
 4416SOL    HW214690   7.152   7.402  12.282 -0.4268 -0.7401 -1.4080
 4417SOL     OW14691   2.473   7.228  12.001  0.1951 -1.0403  0.0181
 4417SOL    HW114692   2.516   7.264  12.079 -0.9150 -0.3957  0.3689
 4417SOL    HW214693   2.507   7.139  11.994  1.1483 -0.7444  0.5916
 4418SOL     OW14694   1.272   5.758   1.128  0.0985 -0.1233  0.3508
 4418SOL    HW114695   1.197   5.811   1.153 -0.5903  0.6882 -2.9303
 4418SOL    HW214696   1.235   5.674   1.103  0.6281 -0.5899  1.0926
 4419SOL     OW14697   7.701   6.021   2.836 -0.1686  0.2667  0.2754
 4419SOL    HW114698   7.658   6.066   2.909 -0.8994  0.0733 -0.0354
 4419SOL    HW214699   7.712   5.931   2.867  1.1372  0.5849  0.8293
 4420SOL     OW14700   0.454   6.681   2.408  0.0003 -0.4104 -0.1683
 4420SOL    HW114701   0.456   6.693   2.503 -0.9006 -0.3856 -0.1391
 4420SOL    HW214702   0.361   6.679   2.386  0.1959 -0.4728 -1.0478
 4421SOL     OW14703   0.291   6.763   0.840 -0.7082 -0.3097  0.1433
 4421SOL    HW114704   0.248   6.689   0.884  1.0613 -1.5908 -0.1711
 4421SOL    HW214705   0.310   6.825   0.911  0.5489 -1.5706  0.9676
 4422SOL     OW14706   0.858   5.194   1.005 -0.0901  0.0484 -0.4355
 4422SOL    HW114707   0.952   5.212   0.992  0.1381  0.6721  1.6130
 4422SOL    HW214708   0.815   5.233   0.929  1.1393  1.8943 -0.2581
 4423SOL     OW14709   3.187   5.279   0.263 -0.5712 -0.5672  0.9056
 4423SOL    HW114710   3.271   5.323   0.253 -0.6013 -0.0482  2.6161
 4423SOL    HW214711   3.145   5.288   0.177  0.8970 -0.3932  0.1789
 4424SOL     OW14712   7.873   0.596   2.516 -0.1451  0.1801  0.2128
 4424SOL    HW114713   7.846   0.685   2.494  0.0337 -0.0441 -0.9904
 4424SOL    HW214714   7.930   0.570   2.444 -1.1717 -1.3392 -0.0901
 4425SOL     OW14715   7.522   4.399   1.778  0.1060  0.0569  0.2803
 4425SOL    HW114716   7.527   4.443   1.863  1.8690  1.6473 -0.5775
 4425SOL    HW214717   7.567   4.315   1.791  0.8000  0.5049  0.7918
 4426SOL     OW14718   0.946   7.061   3.136  0.0051 -0.3791  0.0154
 4426SOL    HW114719   1.034   7.053   3.174  0.5907 -1.4630 -1.4712
 4426SOL    HW214720   0.893   6.997   3.184  0.4044 -0.7718 -0.0562
 4427SOL     OW14721   0.798   6.295  12.352 -0.7202 -0.3178  0.5338
 4427SOL    HW114722   0.785   6.387  12.376  0.2989 -0.3745  1.3687
 4427SOL    HW214723   0.879   6.270  12.396  0.7652 -0.7113 -2.1716
 4428SOL     OW14724   7.861   7.589   1.314 -0.3196 -0.2728  0.1207
 4428SOL    HW114725   7.902   7.576   1.228  0.6606  0.7959  0.3967
 4428SOL    HW214726   7.935   7.591   1.376 -1.0601 -1.8061  1.1086
 4429SOL     OW14727   7.410   6.087  11.686 -0.0178 -0.1585  0.1896
 4429SOL    HW114728   7.491   6.068  11.638  1.0969  1.0568  1.4931
 4429SOL    HW214729   7.350   6.017  11.660  0.6610  0.1567 -2.5571
 4430SOL     OW14730   2.200   0.039  11.410 -0.0440  0.0663 -0.1600
 4430SOL    HW114731   2.268   0.009  11.349  0.9283 -0.3603  1.0810
 4430SOL    HW214732   2.199   0.134  11.400  0.1893  0.0150 -0.7446
 4431SOL     OW14733   0.974   5.798   0.774 -0.2080  0.1251  0.8178
 4431SOL    HW114734   1.045   5.741   0.746  0.2591  0.7380  0.7153
 4431SOL    HW214735   0.987   5.878   0.723 -1.8810 -0.2953 -0.3593
 4432SOL     OW14736   0.271   5.129   3.604  0.0375 -0.2488  1.0739
 4432SOL    HW114737   0.359   5.114   3.569 -0.5038 -0.7987 -0.1372
 4432SOL    HW214738   0.278   5.108   3.697  0.8526 -1.6987  0.7143
 4433SOL     OW14739   0.314   7.508   1.488 -0.0939 -0.1492 -0.7073
 4433SOL    HW114740   0.386   7.553   1.533 -0.1248 -0.0616 -0.7445
 4433SOL    HW214741   0.235   7.550   1.521 -0.0702  0.6936 -1.6741
 4434SOL     OW14742   1.125   0.123   2.232  0.7519  0.4145 -0.5352
 4434SOL    HW114743   1.119   0.042   2.282  2.3154  0.3609 -0.3772
 4434SOL    HW214744   1.219   0.133   2.213  0.1810 -0.1691 -4.4899
 4435SOL     OW14745   0.716   6.948  11.134  0.8374 -0.1845 -0.1160
 4435SOL    HW114746   0.668   7.010  11.188 -0.2952 -0.8674 -0.3184
 4435SOL    HW214747   0.802   6.941  11.176  0.4541  0.3476  0.7777
 4436SOL     OW14748   1.821   5.856  11.562  0.3120 -0.3222  0.7853
 4436SOL    HW114749   1.872   5.935  11.581  0.1045  0.5118 -1.7904
 4436SOL    HW214750   1.880   5.800  11.513 -1.3332  1.1539 -3.3168
 4437SOL     OW14751   0.628   6.549   0.269  0.8657 -0.0562 -0.0962
 4437SOL    HW114752   0.718   6.518   0.255  0.9768 -0.5082  1.4222
 4437SOL    HW214753   0.579   6.510   0.197  1.1300 -3.3696  1.3010
 4438SOL     OW14754   7.130   7.382   0.695  0.1677 -0.0665 -0.1082
 4438SOL    HW114755   7.052   7.424   0.731 -0.2743  0.1564 -1.2737
 4438SOL    HW214756   7.178   7.351   0.772 -0.1262  1.4361  0.7275
 4439SOL     OW14757   1.073   7.909  11.445 -0.0688 -0.0918  0.0779
 4439SOL    HW114758   1.003   7.843  11.450  0.8930 -1.1296  0.0987
 4439SOL    HW214759   1.071   7.940  11.355 -0.0467 -0.6968 -0.1361
 4440SOL     OW14760   1.500   0.669   0.478 -0.1756 -0.1126  0.0441
 4440SOL    HW114761   1.496   0.746   0.422  0.2350 -0.3744 -0.3499
 4440SOL    HW214762   1.409   0.654   0.505 -0.0434  1.7213  1.8108
 4441SOL     OW14763   7.989   0.284  11.907  0.4681 -0.4270  0.8899
 4441SOL    HW114764   8.038   0.202  11.913 -0.0692 -0.7815  0.5883
 4441SOL    HW214765   7.974   0.296  11.813  3.9808  2.1309  0.4502
 4442SOL     OW14766   3.025   5.427   1.242 -0.3755  0.1085  0.9020
 4442SOL    HW114767   3.081   5.375   1.186 -1.0191  2.1097 -1.8152
 4442SOL    HW214768   2.956   5.367   1.271 -1.1193 -0.6474 -2.1123
 4443SOL     OW14769   2.282   7.554   1.250  0.1126  0.0546 -0.6579
 4443SOL    HW114770   2.236   7.593   1.325  0.5947 -0.6559  0.0213
 4443SOL    HW214771   2.315   7.630   1.201  0.5790  0.5296  0.3550
 4444SOL     OW14772   0.376   5.762  12.003  0.4157  0.4580 -0.0979
 4444SOL    HW114773   0.343   5.672  12.001  0.7192  0.3481 -2.1153
 4444SOL    HW214774   0.400   5.780  11.912 -0.5984  2.9328  0.0603
 4445SOL     OW14775   0.424   6.912   1.041 -0.3578 -0.4486  0.4676
 4445SOL    HW114776   0.414   6.896   1.135  0.4765  2.3282  1.1352
 4445SOL    HW214777   0.519   6.914   1.027 -0.4733 -0.8258 -0.4612
 4446SOL     OW14778   0.546   0.968   1.672 -0.4840  0.4319 -0.0965
 4446SOL    HW114779   0.614   0.901   1.682 -1.2730 -0.1329  2.1925
 4446SOL    HW214780   0.466   0.924   1.698 -1.0761  2.1849  1.1953
 4447SOL     OW14781   7.867   7.446  12.050 -0.0904 -0.0825 -0.8114
 4447SOL    HW114782   7.855   7.454  11.955  0.1339 -0.3374 -0.8595
 4447SOL    HW214783   7.944   7.391  12.060 -1.0084 -1.3426 -0.4689
 4448SOL     OW14784   0.825   7.559   1.986 -0.5648 -0.1261  0.0138
 4448SOL    HW114785   0.779   7.642   1.972  0.2189  0.2847 -0.1460
 4448SOL    HW214786   0.873   7.571   2.067 -0.0131 -0.2230 -0.2940
 4449SOL     OW14787   1.015   7.190   2.721  0.0789  0.1729  0.0938
 4449SOL    HW114788   0.940   7.220   2.773 -0.3336  0.6698 -0.7617
 4449SOL    HW214789   1.009   7.241   2.640 -0.6853 -2.2403 -1.4668
 4450SOL     OW14790   0.543   0.960   3.282  0.1746  0.0307  0.2822
 4450SOL    HW114791   0.488   1.011   3.342 -1.5085  1.1765 -2.0502
 4450SOL    HW214792   0.487   0.888   3.253  0.2312  0.5894 -1.3165
 4451SOL     OW14793   1.012   7.403   0.635 -0.1943  0.4464  0.3702
 4451SOL    HW114794   1.064   7.481   0.618  0.3032 -0.0266 -0.3233
 4451SOL    HW214795   0.991   7.369   0.548 -1.2961  0.3797  0.6456
 4452SOL     OW14796   7.313   5.099   0.981  0.3417 -0.0279  0.2765
 4452SOL    HW114797   7.371   5.122   1.054  0.4630 -1.8078  0.7881
 4452SOL    HW214798   7.227   5.132   1.008  0.9246  1.9961 -0.1720
 4453SOL     OW14799   0.845   6.652   0.949 -0.0266 -0.0465 -0.1112
 4453SOL    HW114800   0.890   6.710   1.011  0.0983  0.5974 -0.7829
 4453SOL    HW214801   0.913   6.592   0.919  0.6646  1.4556 -1.7613
 4454SOL     OW14802   1.131   5.079   0.485 -0.3854  0.8359 -0.0084
 4454SOL    HW114803   1.200   5.022   0.519 -1.1936 -1.1049 -1.4382
 4454SOL    HW214804   1.059   5.069   0.546 -0.2084  1.0694  0.2425
 4455SOL     OW14805   7.585   6.892  10.906  0.6654 -0.2475 -0.2462
 4455SOL    HW114806   7.577   6.797  10.899 -0.2413 -0.3798  1.9024
 4455SOL    HW214807   7.497   6.926  10.887  0.7682  0.1006 -0.1239
 4456SOL     OW14808   0.576   7.028   2.588  0.6683  0.0572 -0.1996
 4456SOL    HW114809   0.599   7.120   2.573 -0.2046  0.0737 -1.6559
 4456SOL    HW214810   0.633   6.979   2.529  0.5578 -0.2638 -0.0403
 4457SOL     OW14811   1.745   4.680   0.861 -0.1555  0.2961 -0.0616
 4457SOL    HW114812   1.832   4.639   0.868  0.1994  1.2343  1.7252
 4457SOL    HW214813   1.756   4.765   0.902 -1.6732  0.8899 -0.8230
 4458SOL     OW14814   1.159   5.623  11.664  0.0850 -0.4471 -0.0401
 4458SOL    HW114815   1.226   5.561  11.694  1.5648  2.2297  2.7234
 4458SOL    HW214816   1.119   5.655  11.744 -1.8664  0.8789 -1.4592
 4459SOL     OW14817   0.848   6.083   0.900  0.1078  0.7443 -0.0182
 4459SOL    HW114818   0.889   6.136   0.969  1.5208  0.6805 -0.7839
 4459SOL    HW214819   0.912   6.081   0.829  0.0067 -1.7988 -0.1225
 4460SOL     OW14820   6.613   6.873  12.167 -0.1036  0.4728 -0.4532
 4460SOL    HW114821   6.680   6.898  12.230 -0.3316  0.7497 -0.3228
 4460SOL    HW214822   6.636   6.922  12.088 -0.2804  0.7368 -0.3409
 4461SOL     OW14823   0.806   5.151  12.334 -0.0121  0.5613 -0.1183
 4461SOL    HW114824   0.732   5.095  12.356 -0.3738  1.4232  0.9498
 4461SOL    HW214825   0.781   5.238  12.366  1.1861  1.0000 -0.3162
 4462SOL     OW14826   1.129   5.353   2.453 -0.3671 -0.1746 -0.6806
 4462SOL    HW114827   1.152   5.435   2.409 -0.3253  1.3766  2.0205
 4462SOL    HW214828   1.207   5.330   2.503 -0.9133 -1.0628 -0.2171
 4463SOL     OW14829   1.711   6.724   1.506 -0.5401 -0.0948  0.4199
 4463SOL    HW114830   1.768   6.774   1.564 -0.7791  1.1232 -0.3739
 4463SOL    HW214831   1.743   6.634   1.513  1.1646  0.4753  0.3788
 4464SOL     OW14832   0.453   5.939   2.859 -0.2260  0.2290  0.9857
 4464SOL    HW114833   0.430   6.032   2.851  1.9957  0.7620  0.1139
 4464SOL    HW214834   0.409   5.897   2.785  0.6500  1.0194 -0.0116
 4465SOL     OW14835   0.840   7.527   0.814 -0.3438  0.2002  0.1322
 4465SOL    HW114836   0.857   7.619   0.797 -1.6196  0.0373 -2.5535
 4465SOL    HW214837   0.894   7.480   0.751 -0.2901 -0.8657  0.9416
 4466SOL     OW14838   7.693   5.361   1.324 -0.2354 -0.0408  0.0845
 4466SOL    HW114839   7.685   5.394   1.234  0.3459 -0.6379 -0.1997
 4466SOL    HW214840   7.787   5.368   1.343 -0.2754 -0.4614  0.4331
 4467SOL     OW14841   0.711   4.861   1.503  0.2904  0.3262  0.1249
 4467SOL    HW114842   0.675   4.864   1.415  0.0373 -0.1077  0.2117
 4467SOL    HW214843   0.667   4.933   1.549  0.6352  0.7355 -0.1782
 4468SOL     OW14844   3.325   4.291   0.294  0.7180  0.4528 -0.0875
 4468SOL    HW114845   3.269   4.348   0.345  1.8072  0.2389  1.4340
 4468SOL    HW214846   3.349   4.220   0.354  0.9091 -0.5982 -1.3370
 4469SOL     OW14847   6.526   4.664  11.675 -0.1298 -0.1613  0.4430
 4469SOL    HW114848   6.471   4.732  11.714 -0.3334 -0.2790  0.3631
 4469SOL    HW214849   6.605   4.710  11.647  0.7558 -0.3464  2.4875
 4470SOL     OW14850   1.713   4.858   1.430  0.1622 -0.0421  0.4443
 4470SOL    HW114851   1.714   4.798   1.505 -2.3616 -2.5329 -1.3110
 4470SOL    HW214852   1.628   4.902   1.436  0.2662  0.2971 -0.5443
 4471SOL     OW14853   2.169   5.581   1.397  0.3765 -0.2257 -0.0523
 4471SOL    HW114854   2.103   5.545   1.457  0.8230 -0.3252  0.3790
 4471SOL    HW214855   2.135   5.559   1.310 -0.9567  1.0844  0.0913
 4472SOL     OW14856   1.033   4.681   0.842  0.3078 -0.2474 -0.3204
 4472SOL    HW114857   1.059   4.744   0.909 -1.5879 -0.9529  1.1729
 4472SOL    HW214858   0.972   4.728   0.787  2.2719  0.4998 -1.9997
 4473SOL     OW14859   2.090   5.822  11.425  0.2115  0.0155 -0.2140
 4473SOL    HW114860   2.162   5.879  11.453  0.5361 -0.7276  0.5159
 4473SOL    HW214861   2.063   5.857  11.341  1.6078  0.1559 -0.6353
 4474SOL     OW14862   0.487   6.279   2.678 -0.0833 -0.3109  0.8107
 4474SOL    HW114863   0.546   6.347   2.708 -0.9930  0.6672  0.4545
 4474SOL    HW214864   0.433   6.258   2.755 -1.4569  1.1747  0.3087
 4475SOL     OW14865   1.132   7.890  11.747 -0.0187  0.0316 -0.0493
 4475SOL    HW114866   1.213   7.841  11.728 -0.3584 -0.0003 -1.5612
 4475SOL    HW214867   1.111   7.933  11.664 -1.2709  0.4655  0.4817
 4476SOL     OW14868   7.907   7.701   1.738 -0.2654  0.2795  0.0741
 4476SOL    HW114869   7.950   7.719   1.822  2.7712  2.4101 -1.7439
 4476SOL    HW214870   7.849   7.776   1.725  0.9095  1.0908 -0.6488
 4477SOL     OW14871   1.593   5.758   3.194 -0.1958  0.2187  0.4911
 4477SOL    HW114872   1.520   5.705   3.164 -0.0472 -0.1288  0.7453
 4477SOL    HW214873   1.588   5.756   3.289  0.5525 -0.3908  0.5300
 4478SOL     OW14874   0.301   0.130   1.464 -0.3408 -0.2226  0.2018
 4478SOL    HW114875   0.360   0.147   1.391 -1.0086 -0.3983 -0.3866
 4478SOL    HW214876   0.346   0.166   1.540 -0.2471  1.1851 -0.5016
 4479SOL     OW14877   0.646   6.583   4.745 -0.2746  0.4543 -0.4450
 4479SOL    HW114878   0.621   6.520   4.812 -1.7299  0.7016 -0.7088
 4479SOL    HW214879   0.731   6.616   4.773  0.3234 -1.3139 -0.0979
 4480SOL     OW14880   1.488   4.185   1.653 -0.0539 -0.3097 -0.2665
 4480SOL    HW114881   1.412   4.239   1.631  1.4001  0.8615 -2.8623
 4480SOL    HW214882   1.468   4.100   1.614  0.4867  0.3945 -2.1658
 4481SOL     OW14883   7.670   5.526  12.329  0.0387 -0.1380  0.0119
 4481SOL    HW114884   7.761   5.522  12.358  0.0945  0.3643 -0.0820
 4481SOL    HW214885   7.665   5.463  12.257 -0.2774 -1.9526  1.5564
 4482SOL     OW14886   1.140   6.414   1.420  1.0113 -0.0952  0.9069
 4482SOL    HW114887   1.191   6.372   1.489  0.9780  0.0595  1.0284
 4482SOL    HW214888   1.107   6.495   1.461  2.5341  0.9636  0.1445
 4483SOL     OW14889   0.109   6.667   3.212  0.4161  0.2483  0.0120
 4483SOL    HW114890   0.116   6.602   3.281 -1.1914  0.2791  0.2464
 4483SOL    HW214891   0.199   6.683   3.184  0.9273 -1.1764  0.7715
 4484SOL     OW14892   1.880   6.285   0.992  0.9778 -0.0861 -0.0575
 4484SOL    HW114893   1.883   6.359   1.053 -1.2528  0.5603 -0.6340
 4484SOL    HW214894   1.813   6.228   1.028  1.0901 -0.7129 -0.8304
 4485SOL     OW14895   1.039   4.409  12.296 -0.0065  0.4542  0.3371
 4485SOL    HW114896   0.959   4.396  12.347  0.3008  1.2227  1.0484
 4485SOL    HW214897   1.011   4.399  12.205 -1.1314  1.7204  0.5109
 4486SOL     OW14898   1.523   5.272   0.440 -0.0304  0.2605 -0.2855
 4486SOL    HW114899   1.588   5.331   0.477 -0.6952  0.8080  0.0262
 4486SOL    HW214900   1.462   5.255   0.512 -0.6856  0.4016 -0.8037
 4487SOL     OW14901   0.681   7.645   0.476  0.9006 -0.1338 -0.5325
 4487SOL    HW114902   0.737   7.665   0.551  1.8353  0.4659 -1.3562
 4487SOL    HW214903   0.741   7.613   0.409 -0.0150 -1.3958 -0.7931
 4488SOL     OW14904   7.523   6.721  12.335 -1.0303 -0.3925  0.2858
 4488SOL    HW114905   7.534   6.807  12.294  1.6314 -0.4582  0.6530
 4488SOL    HW214906   7.553   6.659  12.269  1.4068 -0.6358  1.4855
 4489SOL     OW14907   0.335   5.204   0.170  0.0639 -0.5517 -0.5605
 4489SOL    HW114908   0.298   5.119   0.196 -0.2242 -0.5521 -0.9436
 4489SOL    HW214909   0.286   5.268   0.220 -0.6756 -0.5349 -1.2763
 4490SOL     OW14910   0.968   4.576   3.130  0.3940 -0.0765 -0.4230
 4490SOL    HW114911   0.986   4.597   3.221  0.6184  1.2656 -0.7566
 4490SOL    HW214912   0.938   4.658   3.091 -0.9711 -0.9265 -1.2529
 4491SOL     OW14913   3.175   4.849   0.127 -0.1231  0.0885 -0.1382
 4491SOL    HW114914   3.187   4.782   0.060  0.4008 -0.1467  0.1803
 4491SOL    HW214915   3.202   4.806   0.209 -1.1779  0.2240  0.2943
 4492SOL     OW14916   7.078   6.161   0.172 -0.5424  0.1443 -0.0607
 4492SOL    HW114917   7.115   6.224   0.234  0.7289  1.9609 -2.4793
 4492SOL    HW214918   6.984   6.178   0.174 -0.6788 -0.6118  2.0911
 4493SOL     OW14919   7.965   7.008   0.520 -0.2519  0.5565 -0.1224
 4493SOL    HW114920   7.935   7.075   0.582 -2.1193  0.1637 -0.5356
 4493SOL    HW214921   7.920   6.928   0.549 -0.8648  0.2884 -1.7480
 4494SOL     OW14922   0.872   6.591   2.355 -0.2618  0.4189 -0.2425
 4494SOL    HW114923   0.914   6.563   2.274  1.0604 -1.7102  1.0890
 4494SOL    HW214924   0.786   6.549   2.354 -0.7865  1.4624 -1.0904
 4495SOL     OW14925   6.939   5.355   3.750  0.0026 -0.8302 -0.6414
 4495SOL    HW114926   7.015   5.380   3.697  1.6591 -0.4373  1.7596
 4495SOL    HW214927   6.966   5.274   3.793 -1.3903 -1.2623 -0.5319
 4496SOL     OW14928   7.816   5.136   0.978 -0.6203  0.0759 -0.7032
 4496SOL    HW114929   7.807   5.136   1.074  0.7947 -0.2437 -0.5407
 4496SOL    HW214930   7.822   5.229   0.955 -3.1917  0.2783 -0.7638
 4497SOL     OW14931   1.505   6.460   3.521  0.7560  0.2442 -0.3658
 4497SOL    HW114932   1.469   6.488   3.605  2.0211 -1.5296  0.8209
 4497SOL    HW214933   1.578   6.520   3.505  0.8524  0.2557  0.0912
 4498SOL     OW14934   0.744   6.061   3.743 -0.1811  0.1519 -0.1805
 4498SOL    HW114935   0.812   6.096   3.685  0.6858 -0.2285  0.5890
 4498SOL    HW214936   0.673   6.037   3.684  0.7402 -0.3686 -1.1266
 4499SOL     OW14937   7.900   6.239   3.790  0.1243 -0.0988 -0.4426
 4499SOL    HW114938   7.899   6.151   3.752  0.6361  0.0130 -0.7142
 4499SOL    HW214939   7.808   6.256   3.813 -0.1326 -0.3102 -1.2914
 4500SOL     OW14940   3.197   5.155   1.770  0.0210 -0.4652 -0.7878
 4500SOL    HW114941   3.236   5.145   1.857 -0.4066 -1.2584 -0.6804
 4500SOL    HW214942   3.230   5.239   1.739 -1.9395  1.1389  1.2166
 4501SOL     OW14943   2.725   6.135   4.487  0.7614  0.0401  0.3573
 4501SOL    HW114944   2.749   6.093   4.405 -1.0517 -0.6842  0.1554
 4501SOL    HW214945   2.630   6.134   4.488  0.7090  1.7340  1.6217
 4502SOL     OW14946   7.794   4.130   4.956  0.8887  0.0750 -0.1161
 4502SOL    HW114947   7.699   4.137   4.945  0.9581  0.7302 -0.3543
 4502SOL    HW214948   7.814   4.040   4.931  0.1188 -0.6352  1.6275
 4503SOL     OW14949   0.648   6.262   0.883  0.1698 -0.5318  0.1930
 4503SOL    HW114950   0.606   6.251   0.797  1.7161 -0.4170 -0.6023
 4503SOL    HW214951   0.716   6.195   0.886  1.1788  0.4774  0.6573
 4504SOL     OW14952   0.450   5.365   4.369  0.0564 -0.4003 -0.2276
 4504SOL    HW114953   0.534   5.321   4.378  0.2800 -0.1271 -0.9473
 4504SOL    HW214954   0.385   5.296   4.387  0.3920  0.0023  3.2239
 4505SOL     OW14955   0.092   0.018   2.588  0.0547 -0.2086  0.2944
 4505SOL    HW114956   0.116   0.080   2.519  0.6765  0.2624  0.9130
 4505SOL    HW214957   0.145   0.045   2.663  0.1232 -1.3227  0.6601
 4506SOL     OW14958   2.111   7.826   3.886 -0.0658 -0.3047 -0.4953
 4506SOL    HW114959   2.151   7.845   3.801  1.8406  0.1192  0.4430
 4506SOL    HW214960   2.082   7.911   3.917  0.0686 -0.3168 -0.3357
 4507SOL     OW14961   6.401   6.703   3.935 -0.7285 -0.2115 -0.7145
 4507SOL    HW114962   6.359   6.617   3.932  1.9494 -1.6303 -0.7869
 4507SOL    HW214963   6.401   6.727   4.027 -0.8519 -0.6324 -0.6043
 4508SOL     OW14964   1.196   6.159   2.502  0.1261 -0.2418  0.1612
 4508SOL    HW114965   1.217   6.125   2.589 -0.3882 -1.3326 -0.1226
 4508SOL    HW214966   1.280   6.187   2.466  0.3842 -0.0647  0.8879
 4509SOL     OW14967   7.046   7.031   1.103  0.2695  0.3286 -0.2055
 4509SOL    HW114968   6.976   7.034   1.169  2.0081 -0.0751  1.7531
 4509SOL    HW214969   7.033   6.948   1.058 -0.3226  0.1171  0.3370
 4510SOL     OW14970   0.932   7.423   3.974 -0.0997  0.0267  0.0877
 4510SOL    HW114971   0.991   7.402   3.901 -0.0491 -0.3481  0.2338
 4510SOL    HW214972   0.852   7.454   3.931  0.2190  0.5771 -0.1086
 4511SOL     OW14973   7.559   7.056   1.550 -0.1542 -0.3060  0.2337
 4511SOL    HW114974   7.535   7.126   1.611 -1.3589  0.4458 -1.0396
 4511SOL    HW214975   7.583   7.101   1.470  0.8363 -1.3039 -0.0644
 4512SOL     OW14976   0.381   5.666   4.142  0.3283 -0.3350 -0.0095
 4512SOL    HW114977   0.325   5.597   4.176 -0.4424  0.0424 -0.4704
 4512SOL    HW214978   0.331   5.746   4.156  1.6509  0.2834  1.4855
 4513SOL     OW14979   7.858   7.451   4.808  0.3552  0.2267 -0.2043
 4513SOL    HW114980   7.765   7.470   4.819  0.0122 -0.3735 -1.8797
 4513SOL    HW214981   7.864   7.356   4.816  0.9503  0.3216  0.6226
 4514SOL     OW14982   6.958   7.320   1.693  0.0864  0.0581  0.3790
 4514SOL    HW114983   6.948   7.350   1.603 -0.8933  2.1060  1.1091
 4514SOL    HW214984   6.997   7.394   1.739 -1.9374  0.0889  2.1954
 4515SOL     OW14985   1.923   7.722   4.824 -0.3250  0.5761  0.3564
 4515SOL    HW114986   1.838   7.677   4.826  0.3081 -0.7306 -0.6910
 4515SOL    HW214987   1.987   7.652   4.834  0.6444  1.5360  0.9779
 4516SOL     OW14988   0.970   6.175   1.836 -0.4354  0.6601 -0.2880
 4516SOL    HW114989   0.990   6.099   1.891  0.5169  1.3035  0.2910
 4516SOL    HW214990   0.973   6.141   1.746  1.2843  0.2407 -0.1137
 4517SOL     OW14991   0.966   5.383   2.174  1.1328 -0.2073  0.6562
 4517SOL    HW114992   0.917   5.418   2.099  1.8867  0.5935  0.5270
 4517SOL    HW214993   0.942   5.440   2.247 -0.1863 -1.4351  1.2307
 4518SOL     OW14994   7.010   0.681   2.370 -0.0600  0.7086 -0.1656
 4518SOL    HW114995   7.031   0.590   2.348 -1.9711  0.0242  0.6392
 4518SOL    HW214996   6.938   0.675   2.432 -1.9175  2.7983 -1.9028
 4519SOL     OW14997   7.559   7.234   2.634 -1.0220 -0.2063  0.0827
 4519SOL    HW114998   7.628   7.169   2.634 -1.2170 -0.4165 -0.0034
 4519SOL    HW214999   7.530   7.238   2.542  0.0007  1.0850 -0.2070
 4520SOL     OW15000   7.854   6.503   3.553 -0.1332  0.3353  0.2767
 4520SOL    HW115001   7.873   6.524   3.644 -0.2087  0.0920  0.3507
 4520SOL    HW215002   7.822   6.585   3.515 -0.8181  0.2528  0.6665
 4521SOL     OW15003   6.709   6.642   4.254  0.2746 -0.0680  0.0586
 4521SOL    HW115004   6.642   6.710   4.251  0.4801  0.0869 -1.6091
 4521SOL    HW215005   6.792   6.690   4.248  0.4801 -0.3772  0.3905
 4522SOL     OW15006   0.268   7.881   3.066  0.1491  0.6966 -0.4763
 4522SOL    HW115007   0.270   7.936   2.988  1.7190  0.0436 -0.9350
 4522SOL    HW215008   0.288   7.941   3.138  2.5312  0.6703 -1.0495
 4523SOL     OW15009   1.635   6.093   4.133 -0.4845  0.8885  0.3806
 4523SOL    HW115010   1.582   6.167   4.104 -2.3108 -0.9462 -1.2739
 4523SOL    HW215011   1.693   6.076   4.059  0.2143  0.8972  0.9198
 4524SOL     OW15012   6.122   7.306   2.978 -0.2171  0.3221 -0.0735
 4524SOL    HW115013   6.172   7.226   2.964  1.7161  1.1950  1.4794
 4524SOL    HW215014   6.178   7.361   3.032 -2.2812  1.9653  0.5443
 4525SOL     OW15015   1.458   5.675   2.002 -0.2088 -0.5114  0.1332
 4525SOL    HW115016   1.474   5.591   1.961  0.5664 -1.1315  1.6293
 4525SOL    HW215017   1.508   5.672   2.083  0.7153  1.8134 -0.2749
 4526SOL     OW15018   1.534   6.397   4.339 -0.3960 -0.0639  0.2518
 4526SOL    HW115019   1.560   6.488   4.357  1.0705  0.1194 -2.1685
 4526SOL    HW215020   1.490   6.402   4.254  1.6694 -1.8187 -1.0202
 4527SOL     OW15021   7.097   6.967   5.050 -0.4576 -0.4560 -0.0310
 4527SOL    HW115022   7.147   7.025   4.992  0.6039 -0.3455  0.9541
 4527SOL    HW215023   7.137   6.881   5.039 -0.8157 -0.6185 -0.0923
 4528SOL     OW15024   7.832   6.121   2.637 -0.7766 -0.2352 -0.2660
 4528SOL    HW115025   7.804   6.088   2.722  0.3990 -1.0508 -0.1679
 4528SOL    HW215026   7.767   6.087   2.575 -1.4407  0.0734  0.2557
 4529SOL     OW15027   2.485   6.011   1.573 -0.7404  0.2742 -0.4527
 4529SOL    HW115028   2.462   5.987   1.663 -1.0287  1.2782 -0.2467
 4529SOL    HW215029   2.579   6.025   1.575 -0.5055 -1.1267 -0.6560
 4530SOL     OW15030   2.641   7.304   1.045  0.2638  0.2968  0.0694
 4530SOL    HW115031   2.723   7.257   1.062  0.2527  0.6086  1.0495
 4530SOL    HW215032   2.619   7.344   1.129 -2.3707 -2.0251  0.6030
 4531SOL     OW15033   0.860   0.639   3.899  0.4645 -0.4143  0.2175
 4531SOL    HW115034   0.914   0.686   3.836 -1.2998  0.1084 -0.9960
 4531SOL    HW215035   0.771   0.669   3.881 -0.5515 -3.0088  0.4513
 4532SOL     OW15036   1.750   7.077   2.540  0.2603  0.4267 -0.2346
 4532SOL    HW115037   1.694   7.083   2.462  0.7760  0.7170 -0.5884
 4532SOL    HW215038   1.746   7.165   2.578 -0.9660 -0.0304  0.7648
 4533SOL     OW15039   0.922   6.508   2.839 -0.3736  0.0312 -0.2890
 4533SOL    HW115040   0.965   6.475   2.760 -0.6976 -1.9386  0.3200
 4533SOL    HW215041   0.908   6.431   2.894  0.1709  1.3791  1.8779
 4534SOL     OW15042   0.894   4.844   3.067 -0.3498  0.2460  0.0878
 4534SOL    HW115043   0.855   4.831   2.980  1.5848  0.2536 -0.8200
 4534SOL    HW215044   0.821   4.831   3.127 -1.4271 -1.2600 -1.4417
 4535SOL     OW15045   6.687   6.360   1.614  0.0006  0.2503 -0.2212
 4535SOL    HW115046   6.758   6.401   1.564 -0.1050 -0.2125 -0.7690
 4535SOL    HW215047   6.723   6.276   1.642  0.5697  1.1078  1.7739
 4536SOL     OW15048   3.300   6.554   4.563 -0.2734 -0.1177  0.2581
 4536SOL    HW115049   3.280   6.613   4.491  0.6705  0.0781  0.1440
 4536SOL    HW215050   3.317   6.469   4.521 -0.2326 -0.1281  0.2951
 4537SOL     OW15051   7.247   6.399   3.308  0.2924  0.2357  0.0533
 4537SOL    HW115052   7.318   6.450   3.347  0.3056  0.6643 -0.5214
 4537SOL    HW215053   7.263   6.403   3.213  1.1444 -2.0588  0.0257
 4538SOL     OW15054   7.419   6.632   2.565 -0.1192 -0.1679  0.4609
 4538SOL    HW115055   7.328   6.600   2.565  0.1090 -0.9551  2.1541
 4538SOL    HW215056   7.421   6.700   2.632  0.8830 -1.3131  1.6401
 4539SOL     OW15057   6.930   7.975   2.267  0.3154 -0.3944  0.0694
 4539SOL    HW115058   6.912   7.930   2.349  1.1396  0.6142  0.8362
 4539SOL    HW215059   7.022   8.001   2.273  0.8241 -1.5193 -1.7942
 4540SOL     OW15060   2.561   7.715   1.939 -0.1604  0.4215  0.5193
 4540SOL    HW115061   2.510   7.721   2.020  0.9835  5.5448  1.2074
 4540SOL    HW215062   2.497   7.727   1.869 -0.6848 -0.4636  0.8209
 4541SOL     OW15063   3.525   7.019   2.363 -0.2436 -0.3195 -0.2409
 4541SOL    HW115064   3.503   6.927   2.345 -1.5395 -0.2192  0.6838
 4541SOL    HW215065   3.561   7.051   2.280 -0.7815 -1.3748 -0.9129
 4542SOL     OW15066   7.712   6.549   1.660 -0.3588 -0.0686 -0.0871
 4542SOL    HW115067   7.709   6.642   1.683 -0.8145 -0.4130  1.3605
 4542SOL    HW215068   7.802   6.523   1.678 -0.5998 -0.2306  0.9257
 4543SOL     OW15069   2.160   5.298   2.133 -0.4863  0.5876  0.0569
 4543SOL    HW115070   2.193   5.353   2.062  0.9502  2.7701  2.2416
 4543SOL    HW215071   2.084   5.345   2.167 -1.4683 -0.6896 -0.2897
 4544SOL     OW15072   6.787   6.559   2.589 -0.3903  0.0486  0.0545
 4544SOL    HW115073   6.706   6.525   2.627 -0.4631 -0.7359 -0.7613
 4544SOL    HW215074   6.768   6.652   2.572 -0.3371  0.4385  1.9136
 4545SOL     OW15075   7.915   1.537   3.219  0.7826  0.3853  0.3284
 4545SOL    HW115076   7.934   1.578   3.135  2.5518  0.8209  0.8851
 4545SOL    HW215077   7.981   1.573   3.279 -0.6808  0.4157  2.0278
 4546SOL     OW15078   1.119   6.415   1.895 -0.5783  0.1433 -0.0522
 4546SOL    HW115079   1.083   6.331   1.865 -0.4228 -0.2622  0.8690
 4546SOL    HW215080   1.114   6.471   1.818 -1.7719 -0.3547 -0.3682
 4547SOL     OW15081   7.521   5.199   3.557 -0.1997 -0.3350  0.8006
 4547SOL    HW115082   7.555   5.217   3.644  1.0072 -0.0803  0.3059
 4547SOL    HW215083   7.529   5.283   3.511  0.9771 -0.9204 -0.1129
 4548SOL     OW15084   7.020   5.276   2.074  0.5818  0.5504 -0.0153
 4548SOL    HW115085   7.000   5.293   1.982  0.4367  0.3202 -0.0286
 4548SOL    HW215086   7.048   5.361   2.108 -1.1320  1.0893  0.1818
 4549SOL     OW15087   0.117   5.776   2.806 -0.9234 -0.3598  0.7801
 4549SOL    HW115088   0.111   5.725   2.725  1.5336  0.0136  0.2934
 4549SOL    HW215089   0.125   5.711   2.875  2.2347 -0.8060  0.1632
 4550SOL     OW15090   0.642   6.955   4.617 -0.0904  0.5240  0.4758
 4550SOL    HW115091   0.563   7.007   4.628 -0.0641  0.7240 -0.2589
 4550SOL    HW215092   0.687   6.994   4.542  0.3825  0.0064  0.4808
 4551SOL     OW15093   0.112   5.607   2.576  0.1800 -0.1934  0.5394
 4551SOL    HW115094   0.046   5.570   2.517 -0.6629 -0.1857  1.4528
 4551SOL    HW215095   0.155   5.675   2.523  0.2977 -1.0126 -0.4556
 4552SOL     OW15096   7.381   4.468   3.408  0.3016 -0.2794 -0.0901
 4552SOL    HW115097   7.308   4.425   3.363  0.8651 -1.5510  0.1489
 4552SOL    HW215098   7.406   4.540   3.351 -0.0040 -0.9098 -1.0554
 4553SOL     OW15099   0.496   7.534   1.844  0.9850 -0.0445  0.7095
 4553SOL    HW115100   0.527   7.593   1.775  2.6469 -1.2107  0.3927
 4553SOL    HW215101   0.400   7.534   1.834  1.1858 -0.6106 -1.9896
 4554SOL     OW15102   0.767   6.930   2.427 -0.7746  0.2053  0.2022
 4554SOL    HW115103   0.751   6.870   2.354 -0.5329 -0.3661  0.6145
 4554SOL    HW215104   0.790   7.013   2.386 -1.1385  0.0255 -0.3730
 4555SOL     OW15105   0.074   5.726   3.533 -0.4138 -0.2684 -0.0635
 4555SOL    HW115106   0.023   5.806   3.547 -1.7107 -0.9101 -0.9073
 4555SOL    HW215107   0.012   5.655   3.550  1.3034 -1.2400  3.0847
 4556SOL     OW15108   7.779   0.420   2.705  0.1763 -0.0088 -0.7202
 4556SOL    HW115109   7.689   0.450   2.714  0.4204  0.4602  0.3996
 4556SOL    HW215110   7.815   0.474   2.635  0.0453  0.9787 -0.0558
 4557SOL     OW15111   7.178   5.717   2.230  0.6153 -0.6482  0.0310
 4557SOL    HW115112   7.125   5.638   2.247 -1.5358  0.7792  0.3523
 4557SOL    HW215113   7.265   5.695   2.265 -0.5697 -2.0387  2.4098
 4558SOL     OW15114   7.922   5.019   3.293 -0.3701  0.0899  0.0815
 4558SOL    HW115115   7.900   5.004   3.201  1.6201 -1.0758 -0.2840
 4558SOL    HW215116   7.839   5.013   3.340 -1.1489 -1.5390 -1.3955
 4559SOL     OW15117   2.423   5.988   4.188 -0.5458  0.2320  0.2659
 4559SOL    HW115118   2.397   5.996   4.097  0.4775  0.0835 -0.0498
 4559SOL    HW215119   2.406   6.074   4.226  1.1544  1.0182 -0.6462
 4560SOL     OW15120   7.995   6.495   3.852  0.5426 -0.2071 -0.3663
 4560SOL    HW115121   8.088   6.498   3.875  0.3098 -0.0738  0.6280
 4560SOL    HW215122   7.976   6.402   3.842  1.2788 -0.1527 -2.8328
 4561SOL     OW15123   0.480   5.318   5.699 -0.3493 -0.1321  0.3248
 4561SOL    HW115124   0.389   5.289   5.696  0.1588 -1.8545 -2.4564
 4561SOL    HW215125   0.531   5.240   5.680  1.7726  0.7459  2.0193
 4562SOL     OW15126   0.256   6.453   3.936  0.1305  0.0451 -0.2341
 4562SOL    HW115127   0.318   6.437   3.865  0.0060 -0.6196 -0.2021
 4562SOL    HW215128   0.267   6.379   3.996  1.1826  1.2748  1.1517
 4563SOL     OW15129   1.793   6.270   4.260  0.5198 -0.3067  0.2636
 4563SOL    HW115130   1.721   6.219   4.223  0.9875 -0.4461 -0.4876
 4563SOL    HW215131   1.871   6.235   4.217  1.1266 -0.6346  1.5688
 4564SOL     OW15132   2.612   7.175   2.342  0.2114  0.1380 -0.2465
 4564SOL    HW115133   2.681   7.222   2.390  1.1133 -0.5124 -0.8674
 4564SOL    HW215134   2.660   7.118   2.282 -0.8766 -0.6510 -0.3843
 4565SOL     OW15135   1.372   5.137   4.214  0.4675  0.4664 -0.0105
 4565SOL    HW115136   1.337   5.224   4.194 -0.1537  0.1083 -0.5037
 4565SOL    HW215137   1.437   5.121   4.145 -2.5275 -1.2848 -2.7544
 4566SOL     OW15138   0.412   6.493   2.893 -0.4224 -0.3026  0.3330
 4566SOL    HW115139   0.504   6.477   2.870 -0.2612 -0.0090  0.7509
 4566SOL    HW215140   0.402   6.588   2.883 -1.7741 -0.6978 -3.6204
 4567SOL     OW15141   1.862   7.286   0.294 -0.0070  0.4672  0.2570
 4567SOL    HW115142   1.881   7.354   0.230  0.7317 -1.5996 -1.8304
 4567SOL    HW215143   1.947   7.263   0.331 -0.3751  1.3442  1.7576
 4568SOL     OW15144   6.854   5.200   3.102  0.3798  0.5602 -0.4112
 4568SOL    HW115145   6.768   5.158   3.097  1.0024 -0.7317 -0.6630
 4568SOL    HW215146   6.851   5.250   3.183  0.1244 -1.2020  0.7209
 4569SOL     OW15147   1.776   6.173   2.348  0.0678 -0.3451 -0.3154
 4569SOL    HW115148   1.712   6.217   2.291 -0.0812  0.0006  0.1118
 4569SOL    HW215149   1.860   6.212   2.325 -0.0646  0.1703  0.0621
 4570SOL     OW15150   7.336   7.014   4.196 -0.3579  0.7673 -0.0110
 4570SOL    HW115151   7.306   7.003   4.105 -0.5334  1.0618  0.0103
 4570SOL    HW215152   7.395   6.940   4.210 -2.3693 -0.8406  0.4957
 4571SOL     OW15153   1.749   7.152   3.904 -0.1515 -0.4834  0.3781
 4571SOL    HW115154   1.681   7.173   3.840  1.6601  1.0450 -1.1647
 4571SOL    HW215155   1.732   7.210   3.978 -0.3667  0.1350 -0.1453
 4572SOL     OW15156   7.898   0.272   2.483  0.1935  0.6042 -0.0780
 4572SOL    HW115157   7.992   0.268   2.466 -0.0521  1.4389 -1.7382
 4572SOL    HW215158   7.892   0.308   2.572  1.4195  1.8325 -0.4564
 4573SOL     OW15159   0.284   7.465   2.249  0.7403 -0.1429  0.1003
 4573SOL    HW115160   0.231   7.398   2.291 -0.3296 -0.3144 -1.4876
 4573SOL    HW215161   0.330   7.420   2.178 -2.4534  1.2475 -3.1403
 4574SOL     OW15162   1.023   5.902   2.075  0.0612  0.5291 -0.4550
 4574SOL    HW115163   1.046   5.931   2.163 -0.0432 -0.9079  0.0802
 4574SOL    HW215164   0.928   5.901   2.074  0.0618  0.1657 -0.4395
 4575SOL     OW15165   7.782   5.947   4.511 -0.1928 -0.1337 -0.5931
 4575SOL    HW115166   7.729   6.018   4.547  0.6608  0.2424 -0.0682
 4575SOL    HW215167   7.721   5.899   4.454 -1.9893 -1.5634  2.2902
 4576SOL     OW15168   0.521   5.262   3.769 -0.2957  0.1668  0.3528
 4576SOL    HW115169   0.584   5.218   3.711 -2.3112  0.2844 -2.0819
 4576SOL    HW215170   0.552   5.352   3.773  0.7038 -0.1807  0.7002
 4577SOL     OW15171   0.974   5.084   4.513  0.8973  0.0352  0.1395
 4577SOL    HW115172   1.008   5.173   4.528  0.5876  0.2003 -0.1348
 4577SOL    HW215173   0.953   5.082   4.420  0.9099 -0.3320  0.1461
 4578SOL     OW15174   0.709   5.082   1.825 -0.1476 -0.5141  0.0446
 4578SOL    HW115175   0.690   5.122   1.910  0.2201 -0.1629 -0.0404
 4578SOL    HW215176   0.757   5.002   1.847  0.6521 -0.0157  0.1318
 4579SOL     OW15177   7.108   5.672   2.651 -0.4629 -0.2187 -0.3292
 4579SOL    HW115178   7.016   5.659   2.676 -0.3867  0.8771  0.6272
 4579SOL    HW215179   7.136   5.587   2.616 -2.4113 -0.0489 -2.6158
 4580SOL     OW15180   2.513   6.550   3.640  0.4444 -0.2770 -0.0384
 4580SOL    HW115181   2.548   6.467   3.609 -0.1799 -0.1653 -1.1356
 4580SOL    HW215182   2.422   6.550   3.608  0.4899  0.8823 -0.2036
 4581SOL     OW15183   1.156   6.407   2.994 -0.1175 -0.1379  0.0718
 4581SOL    HW115184   1.064   6.419   3.018 -0.5713 -0.8884 -1.2128
 4581SOL    HW215185   1.158   6.422   2.900  1.0963 -0.0652  0.1047
 4582SOL     OW15186   1.191   7.414   1.864  0.4305  0.3771 -0.3515
 4582SOL    HW115187   1.112   7.359   1.869  1.7814 -1.6668 -0.2837
 4582SOL    HW215188   1.203   7.447   1.954 -0.5567  1.0651 -0.4558
 4583SOL     OW15189   2.301   5.798   1.663  0.4550  0.3565  0.1177
 4583SOL    HW115190   2.206   5.790   1.675  0.5660 -1.6329  0.0528
 4583SOL    HW215191   2.337   5.791   1.751  0.6318 -1.4606 -0.0617
 4584SOL     OW15192   1.187   5.606   2.057  0.4985 -0.5989 -0.0318
 4584SOL    HW115193   1.125   5.634   1.990  0.8275 -0.1504 -0.1590
 4584SOL    HW215194   1.272   5.637   2.025  0.4627  1.1699  1.3878
 4585SOL     OW15195   7.509   5.722   1.156 -0.1531  0.6887  0.1358
 4585SOL    HW115196   7.496   5.663   1.082 -1.6473  0.7246  0.3401
 4585SOL    HW215197   7.534   5.665   1.229  0.6922  0.5847 -0.2277
 4586SOL     OW15198   7.857   6.730   3.900  0.1158 -0.2014  0.7987
 4586SOL    HW115199   7.917   6.659   3.877  0.0132 -0.1164  0.2513
 4586SOL    HW215200   7.809   6.697   3.976 -0.3920 -0.9907  0.1570
 4587SOL     OW15201   0.212   7.594   2.624  0.0755 -0.2105  0.0453
 4587SOL    HW115202   0.217   7.604   2.719  2.5979 -1.2378  0.0870
 4587SOL    HW215203   0.118   7.594   2.605 -0.4860  0.9941  2.3956
 4588SOL     OW15204   1.414   7.041   1.537  0.4253 -0.1192  0.1685
 4588SOL    HW115205   1.453   7.105   1.598 -0.3754 -0.0817  0.6459
 4588SOL    HW215206   1.324   7.031   1.567  0.3984 -1.0973 -0.2230
 4589SOL     OW15207   7.105   7.459   2.742 -0.1217 -0.4388 -0.3355
 4589SOL    HW115208   7.193   7.426   2.758  0.7526  1.4987 -0.8106
 4589SOL    HW215209   7.084   7.510   2.820  1.9036  4.4016 -2.5279
 4590SOL     OW15210   0.722   5.060   4.108 -0.7319 -0.5979  0.5650
 4590SOL    HW115211   0.686   5.114   4.179 -0.4762  1.9016 -1.0871
 4590SOL    HW215212   0.806   5.029   4.142 -0.9504 -0.1064  1.6160
 4591SOL     OW15213   7.428   4.986   4.064  0.5508 -0.0144  0.3300
 4591SOL    HW115214   7.515   4.998   4.101  0.4742 -0.1358  0.5518
 4591SOL    HW215215   7.375   5.056   4.102  0.6049  0.1982  0.0191
 4592SOL     OW15216   7.627   6.451   3.991 -0.4811 -0.5017 -0.5529
 4592SOL    HW115217   7.679   6.529   4.009 -0.5225 -0.3466 -1.0951
 4592SOL    HW215218   7.627   6.403   4.074  0.8711 -0.7060 -0.6436
 4593SOL     OW15219   0.115   6.146   2.644 -0.3334  0.1784 -0.5686
 4593SOL    HW115220   0.079   6.076   2.590  2.1449 -1.1081 -0.6742
 4593SOL    HW215221   0.072   6.136   2.729 -0.9179 -0.6865 -0.9517
 4594SOL     OW15222   0.296   7.052   4.187 -0.9243  0.0701 -0.7724
 4594SOL    HW115223   0.206   7.045   4.154 -1.8652 -0.6757  1.7308
 4594SOL    HW215224   0.309   6.972   4.237  1.3071  0.0060 -1.3656
 4595SOL     OW15225   0.656   7.543   3.601  0.2811 -0.6112  0.5869
 4595SOL    HW115226   0.702   7.486   3.539  0.3088  0.5461 -0.5000
 4595SOL    HW215227   0.570   7.556   3.561  0.7942  1.3136  0.0207
 4596SOL     OW15228   0.402   0.358   1.725 -0.1418 -0.2371  0.0632
 4596SOL    HW115229   0.402   0.431   1.787 -0.8042 -0.2861  0.1279
 4596SOL    HW215230   0.312   0.325   1.726  0.4618 -2.0254  1.1901
 4597SOL     OW15231   7.409   5.868   3.322  0.4182 -0.0313  0.0776
 4597SOL    HW115232   7.373   5.815   3.393  0.4567 -0.2571 -0.0705
 4597SOL    HW215233   7.415   5.957   3.358  0.6614 -0.1904  0.4363
 4598SOL     OW15234   6.851   4.994   3.378 -0.2916  0.2483 -0.5308
 4598SOL    HW115235   6.934   4.978   3.334  0.0568  0.4991  0.0229
 4598SOL    HW215236   6.833   4.913   3.426 -0.0259  0.4361 -0.1118
 4599SOL     OW15237   7.990   6.410   1.680 -0.5441  0.2072  0.5332
 4599SOL    HW115238   8.037   6.454   1.751  4.4678 -1.4804 -1.2807
 4599SOL    HW215239   8.010   6.318   1.691 -0.3426 -0.2212 -2.4467
 4600SOL     OW15240   1.257   6.779   4.576 -0.2730 -0.2626 -0.0190
 4600SOL    HW115241   1.256   6.689   4.608  3.2826 -0.2756  0.3934
 4600SOL    HW215242   1.210   6.829   4.643  3.7809 -0.8526  3.7067
 4601SOL     OW15243   0.794   5.413   2.970  0.5212 -0.1474  0.4114
 4601SOL    HW115244   0.847   5.472   3.024  0.1292 -0.2271  0.8859
 4601SOL    HW215245   0.722   5.386   3.027 -0.1628  0.1390 -0.2925
 4602SOL     OW15246   0.417   0.268   3.028  0.6647 -0.5364  0.1500
 4602SOL    HW115247   0.413   0.351   2.981  0.7193 -0.2448  0.6465
 4602SOL    HW215248   0.360   0.209   2.979  0.1977 -0.0479  0.0960
 4603SOL     OW15249   1.173   5.909   4.062 -0.0672  0.0336  0.0328
 4603SOL    HW115250   1.239   5.839   4.060  2.1111  1.9708 -2.0643
 4603SOL    HW215251   1.090   5.863   4.075  1.4681 -2.6829  1.2464
 4604SOL     OW15252   1.009   4.122   5.212 -0.2426  0.0906  0.0057
 4604SOL    HW115253   1.081   4.079   5.166 -0.6770  0.8565 -1.4290
 4604SOL    HW215254   0.931   4.079   5.180 -0.6575  1.6101 -1.1457
 4605SOL     OW15255   7.664   4.743   3.970  0.6040 -0.0246 -0.1757
 4605SOL    HW115256   7.615   4.672   3.927 -0.1322  0.4498 -0.1383
 4605SOL    HW215257   7.635   4.741   4.061 -0.1207  0.9054 -0.3725
 4606SOL     OW15258   7.631   7.222   3.102  1.0169  0.0099 -0.5297
 4606SOL    HW115259   7.638   7.315   3.085  0.1516  0.2485  0.2995
 4606SOL    HW215260   7.562   7.191   3.044 -1.4047  0.6772  1.7997
 4607SOL     OW15261   1.392   7.098   4.163 -0.6678 -0.0066 -0.2763
 4607SOL    HW115262   1.367   7.058   4.247  1.2790  1.6775  1.2123
 4607SOL    HW215263   1.313   7.145   4.135 -1.3113 -0.4688  0.6940
 4608SOL     OW15264   0.858   6.100   2.687 -0.0358  0.3292 -0.1545
 4608SOL    HW115265   0.788   6.043   2.656 -1.4758  1.5295  0.7980
 4608SOL    HW215266   0.919   6.040   2.730 -1.2139 -0.5922  0.2915
 4609SOL     OW15267   6.728   5.486   2.883 -0.3735  0.0313  0.1702
 4609SOL    HW115268   6.701   5.395   2.897  0.3654 -0.3257 -0.6286
 4609SOL    HW215269   6.819   5.480   2.853 -0.6893  0.9521 -1.0368
 4610SOL     OW15270   7.380   7.655   0.534 -0.2678 -0.0523 -0.5652
 4610SOL    HW115271   7.450   7.669   0.470 -1.0073  1.9463 -1.0157
 4610SOL    HW215272   7.332   7.580   0.502 -0.2752  0.5641 -2.0701
 4611SOL     OW15273   0.553   5.909   3.614  0.2348 -0.3536  0.4089
 4611SOL    HW115274   0.458   5.912   3.615  0.2607  1.6912  1.3060
 4611SOL    HW215275   0.575   5.853   3.540 -1.6689  0.8546 -1.1603
 4612SOL     OW15276   1.748   6.761   4.736  0.5470  0.0316  0.3431
 4612SOL    HW115277   1.814   6.708   4.692 -0.3053 -1.1649  0.4511
 4612SOL    HW215278   1.681   6.698   4.764 -0.7159  1.2104  0.1009
 4613SOL     OW15279   0.234   3.869   3.069 -0.0037  0.1822  0.5563
 4613SOL    HW115280   0.314   3.899   3.026  0.0658  0.1426  0.6576
 4613SOL    HW215281   0.223   3.779   3.039 -0.1804  0.2902  0.2984
 4614SOL     OW15282   0.161   5.113   1.666  0.4997 -0.1776  0.0627
 4614SOL    HW115283   0.216   5.045   1.706  0.8599  0.1242  0.0915
 4614SOL    HW215284   0.216   5.192   1.669  0.7045 -0.2358 -1.4072
 4615SOL     OW15285   0.124   5.106   2.730  0.4870 -0.0486  0.2687
 4615SOL    HW115286   0.032   5.085   2.745  0.9739 -1.4721  1.5324
 4615SOL    HW215287   0.152   5.150   2.810  1.0781 -0.2904  0.1985
 4616SOL     OW15288   7.589   7.434   4.887 -0.2110 -0.2505 -0.1566
 4616SOL    HW115289   7.499   7.456   4.911 -0.2944  0.2520 -0.9037
 4616SOL    HW215290   7.610   7.358   4.942  0.0577  1.5718  2.4159
 4617SOL     OW15291   1.415   6.086   4.294  0.1731 -0.3990  0.4581
 4617SOL    HW115292   1.388   5.994   4.301 -1.6542 -0.2477 -2.7021
 4617SOL    HW215293   1.500   6.083   4.249  1.0714 -0.5417  2.0917
 4618SOL     OW15294   7.507   6.106   3.724  0.3832  0.1921  0.2759
 4618SOL    HW115295   7.452   6.085   3.800  0.3761  1.3879  0.6317
 4618SOL    HW215296   7.594   6.073   3.748  0.9163  2.4444  1.8175
 4619SOL     OW15297   1.352   4.488   1.087  0.2999  0.1700  0.1189
 4619SOL    HW115298   1.372   4.398   1.061  0.0709 -0.4541  1.9814
 4619SOL    HW215299   1.257   4.490   1.095  0.3496  0.3689  0.7271
 4620SOL     OW15300   1.245   5.262   3.286 -0.1609  0.3432 -0.1484
 4620SOL    HW115301   1.153   5.284   3.302 -0.6040 -2.1762  1.2874
 4620SOL    HW215302   1.293   5.306   3.356 -0.1653  1.9542 -1.1038
 4621SOL     OW15303   0.706   5.456   4.202 -0.6690  0.6805 -0.1957
 4621SOL    HW115304   0.685   5.365   4.222  0.0165  0.1066 -1.8869
 4621SOL    HW215305   0.631   5.487   4.151 -0.6332  0.8695 -0.1337
 4622SOL     OW15306   0.208   6.387   1.265 -0.2644 -0.2057 -0.2010
 4622SOL    HW115307   0.294   6.423   1.290 -0.8701  1.1653 -0.0039
 4622SOL    HW215308   0.228   6.320   1.200  0.9789 -0.0566  0.0040
 4623SOL     OW15309   7.213   5.169   1.677 -0.0932  0.3911 -0.0872
 4623SOL    HW115310   7.253   5.187   1.592  1.0914 -2.6775 -0.3087
 4623SOL    HW215311   7.156   5.094   1.661 -1.0700  0.7468  1.5478
 4624SOL     OW15312   1.308   5.084   3.545  0.1938 -0.1303  0.6301
 4624SOL    HW115313   1.380   5.146   3.555  0.5082 -0.0207 -1.8018
 4624SOL    HW215314   1.246   5.127   3.486 -0.2620 -1.5213  0.0354
 4625SOL     OW15315   1.789   5.902   4.436 -0.6315 -0.3681  0.1436
 4625SOL    HW115316   1.764   5.956   4.511 -0.3596  0.6284 -0.4679
 4625SOL    HW215317   1.884   5.916   4.428 -0.9070  0.8993 -1.4060
 4626SOL     OW15318   0.141   5.335   3.447 -0.2539  0.1940  0.2455
 4626SOL    HW115319   0.217   5.362   3.498  1.2623  0.5511 -2.0496
 4626SOL    HW215320   0.094   5.416   3.428  0.4083  0.3560 -0.7465
 4627SOL     OW15321   7.467   7.060   3.301 -0.3210 -0.3347 -0.5509
 4627SOL    HW115322   7.495   7.010   3.224  1.1170  0.5944 -0.6715
 4627SOL    HW215323   7.380   7.091   3.279 -1.7108 -3.5349 -0.0813
 4628SOL     OW15324   0.919   5.378   3.291 -0.0393  0.1872  0.1659
 4628SOL    HW115325   0.830   5.384   3.326 -0.3375 -2.0655 -0.0591
 4628SOL    HW215326   0.965   5.451   3.332 -1.7214  0.7908  1.1065
 4629SOL     OW15327   7.923   4.381   3.290  1.1169 -0.4878  0.3463
 4629SOL    HW115328   7.888   4.315   3.350  1.4786 -0.6111  0.4287
 4629SOL    HW215329   8.018   4.379   3.305  1.4780 -1.9639 -1.6314
 4630SOL     OW15330   6.716   6.417   2.328 -0.1941 -0.4184  0.0430
 4630SOL    HW115331   6.711   6.490   2.389  3.5818  0.5906 -0.6131
 4630SOL    HW215332   6.669   6.449   2.250 -0.5629  0.3757  0.5705
 4631SOL     OW15333   7.471   5.983   1.267  0.6123 -0.4302  0.1043
 4631SOL    HW115334   7.473   5.904   1.212  0.7897  0.6486 -1.5135
 4631SOL    HW215335   7.554   6.027   1.248  0.2165  0.4802  0.4701
 4632SOL     OW15336   0.278   6.743   3.648  0.3707 -1.0588 -0.8325
 4632SOL    HW115337   0.361   6.705   3.674  0.8295  0.3808 -0.0935
 4632SOL    HW215338   0.242   6.781   3.728  0.2185  0.5349 -1.6067
 4633SOL     OW15339   0.728   5.859   2.626 -0.1394  0.0116 -0.7818
 4633SOL    HW115340   0.645   5.820   2.655 -0.3557  0.7869 -0.3519
 4633SOL    HW215341   0.795   5.809   2.672 -0.4006 -0.1003 -0.5212
 4634SOL     OW15342   1.061   5.599   3.387  0.6181 -0.1893 -0.0349
 4634SOL    HW115343   1.018   5.611   3.471  1.3547 -1.9277  0.6324
 4634SOL    HW215344   1.108   5.681   3.372  0.5374  0.1144  1.2874
 4635SOL     OW15345   6.974   7.741   4.624  0.1242 -0.2866  0.1639
 4635SOL    HW115346   6.962   7.827   4.664  0.7068  0.2728 -0.8224
 4635SOL    HW215347   7.026   7.758   4.546  0.6063 -1.6025  0.1777
 4636SOL     OW15348   1.824   4.542   4.499  0.1850  0.5137  0.2743
 4636SOL    HW115349   1.754   4.531   4.563 -0.8874  0.9229 -0.7874
 4636SOL    HW215350   1.888   4.474   4.522 -1.3823 -1.0584  0.2206
 4637SOL     OW15351   7.823   0.127   3.130 -0.2132  0.3690 -0.4741
 4637SOL    HW115352   7.826   0.142   3.035 -0.4127 -1.1539 -0.7367
 4637SOL    HW215353   7.870   0.202   3.167  1.1449  0.2540 -1.8486
 4638SOL     OW15354   1.754   0.720   2.571  0.1087 -0.6870  0.3516
 4638SOL    HW115355   1.708   0.799   2.597 -0.5427 -0.7106 -0.6485
 4638SOL    HW215356   1.693   0.675   2.512  1.7066 -0.2852 -1.7510
 4639SOL     OW15357   0.440   6.967   3.869 -0.0209 -0.3157 -0.4052
 4639SOL    HW115358   0.500   6.914   3.921  1.6236  1.0534 -0.8442
 4639SOL    HW215359   0.353   6.936   3.895  0.8007 -1.1369  1.5546
 4640SOL     OW15360   0.281   5.153   4.423  0.7816  0.0774  0.2218
 4640SOL    HW115361   0.251   5.064   4.405  1.1645 -0.1506  0.6833
 4640SOL    HW215362   0.294   5.156   4.518 -2.1824  1.5803  0.6786
 4641SOL     OW15363   7.907   7.838   0.493 -0.3414 -0.3322 -0.1457
 4641SOL    HW115364   7.880   7.847   0.584  1.6323 -0.7026  0.5203
 4641SOL    HW215365   7.927   7.927   0.465  0.0766 -0.3418  0.1221
 4642SOL     OW15366   0.816   6.692   2.028 -0.1108 -0.7051  0.7538
 4642SOL    HW115367   0.900   6.733   2.047 -0.5510 -0.1468  1.5562
 4642SOL    HW215368   0.755   6.733   2.090 -0.8128 -1.6539  0.7109
 4643SOL     OW15369   1.464   5.321   3.604 -0.0815  0.0220  0.1753
 4643SOL    HW115370   1.386   5.357   3.645 -1.5263  0.0029 -2.3912
 4643SOL    HW215371   1.478   5.375   3.526  0.4215 -2.0388 -1.2451
 4644SOL     OW15372   7.513   6.846   3.130 -0.1670 -0.3528 -0.1272
 4644SOL    HW115373   7.437   6.798   3.095  0.3305 -0.9779 -0.3671
 4644SOL    HW215374   7.570   6.859   3.054 -0.5596  1.1651 -0.1896
 4645SOL     OW15375   7.854   6.829   4.601 -0.6515  1.0527  0.3356
 4645SOL    HW115376   7.868   6.832   4.696  0.1483  1.1846  0.2203
 4645SOL    HW215377   7.797   6.753   4.588  1.0331 -0.3446  0.7303
 4646SOL     OW15378   0.134   3.975   1.945 -0.1129  0.2708 -0.7823
 4646SOL    HW115379   0.067   3.978   2.014 -0.1342  1.2749 -0.8290
 4646SOL    HW215380   0.089   3.934   1.871 -0.2339 -0.3853 -0.3496
 4647SOL     OW15381   2.647   0.253   1.874  0.5773 -0.1381  0.2319
 4647SOL    HW115382   2.666   0.237   1.967  0.5905 -0.0438  0.2456
 4647SOL    HW215383   2.671   0.344   1.860  0.3417 -0.0798  0.1955
 4648SOL     OW15384   7.918   7.529   3.852 -0.1284 -0.3720  0.4128
 4648SOL    HW115385   7.864   7.595   3.896 -0.2275 -0.5910  0.6280
 4648SOL    HW215386   7.879   7.520   3.765  0.7484  0.8655 -0.1258
 4649SOL     OW15387   0.009   5.044   2.291 -0.4144  0.4869  0.7927
 4649SOL    HW115388   0.069   5.108   2.329 -0.7237  1.0882  0.2971
 4649SOL    HW215389  -0.046   5.016   2.363  0.2215  0.1934  1.1796
 4650SOL     OW15390   0.580   6.580   4.189  0.0162  0.4846 -0.9478
 4650SOL    HW115391   0.641   6.562   4.261  0.4121  0.2691 -1.3342
 4650SOL    HW215392   0.541   6.495   4.169  0.7135  0.3331 -1.7108
 4651SOL     OW15393   0.588   0.300   2.031 -0.2896 -0.1050 -0.2779
 4651SOL    HW115394   0.520   0.236   2.009 -0.7931  0.8197 -1.5594
 4651SOL    HW215395   0.540   0.377   2.060  0.3181 -0.3212  1.3861
 4652SOL     OW15396   1.379   6.892   3.202 -0.0351  0.1051 -0.9184
 4652SOL    HW115397   1.438   6.819   3.223 -1.3166 -0.3473  1.4316
 4652SOL    HW215398   1.305   6.851   3.158  0.7611  0.5128 -2.7357
 4653SOL     OW15399   0.456   7.236   5.158  0.9917  0.1747  0.2051
 4653SOL    HW115400   0.493   7.169   5.216  0.3849  0.0658  0.4802
 4653SOL    HW215401   0.483   7.210   5.070 -1.4697 -2.0344 -0.0369
 4654SOL     OW15402   7.053   5.752   3.142  0.0063  0.3036  0.3177
 4654SOL    HW115403   7.090   5.833   3.176  0.4358  1.4949 -2.7247
 4654SOL    HW215404   7.116   5.722   3.077 -1.6101 -0.7873 -0.8270
 4655SOL     OW15405   1.166   7.410   2.143  0.3582 -0.2281  0.3100
 4655SOL    HW115406   1.095   7.474   2.148 -0.0109 -0.4959 -1.1732
 4655SOL    HW215407   1.147   7.347   2.212 -0.5167  0.0364  0.3174
 4656SOL     OW15408   0.877   5.857   4.807 -0.1965 -0.2483  0.1478
 4656SOL    HW115409   0.867   5.818   4.894 -1.7219  0.8562  0.5215
 4656SOL    HW215410   0.807   5.818   4.755 -0.1962  0.1657 -0.1684
 4657SOL     OW15411   0.981   7.607   2.203  0.2735 -0.6219  0.7237
 4657SOL    HW115412   0.938   7.608   2.288 -0.5876 -1.0393  0.3078
 4657SOL    HW215413   0.999   7.699   2.184  0.4798 -0.5277  1.3492
 4658SOL     OW15414   2.179   0.506   2.736 -0.0339  0.3938 -0.1076
 4658SOL    HW115415   2.113   0.552   2.685 -0.0297  2.1261  1.3696
 4658SOL    HW215416   2.221   0.574   2.788  0.3182 -1.1935  1.7944
 4659SOL     OW15417   7.891   5.334   3.781  0.1182 -0.2905 -0.9899
 4659SOL    HW115418   7.877   5.389   3.857 -1.6434 -0.0635 -1.4358
 4659SOL    HW215419   7.955   5.382   3.728 -0.4061  0.6790 -0.7605
 4660SOL     OW15420   5.787   6.466   3.715 -0.3790 -0.6235  0.1178
 4660SOL    HW115421   5.840   6.481   3.637  0.6891  0.5058  1.0293
 4660SOL    HW215422   5.718   6.532   3.711 -0.6880 -0.9544 -0.1573
 4661SOL     OW15423   2.783   4.705   3.450  0.4954 -0.5058  0.0578
 4661SOL    HW115424   2.707   4.716   3.509  1.4992  1.5349  1.0823
 4661SOL    HW215425   2.857   4.692   3.510  0.9707 -2.7183 -0.9352
 4662SOL     OW15426   1.238   5.563   2.892 -0.1166 -0.2386  0.3290
 4662SOL    HW115427   1.288   5.486   2.864  1.6581  0.1830  2.0930
 4662SOL    HW215428   1.149   5.546   2.862  0.0330 -3.3625  1.2910
 4663SOL     OW15429   0.017   5.532   2.313  0.6379 -0.2261 -0.5600
 4663SOL    HW115430   0.099   5.497   2.277  0.6623 -0.1963 -0.5339
 4663SOL    HW215431  -0.050   5.470   2.285  0.3622  0.8148 -2.3315
 4664SOL     OW15432   1.070   5.083   2.995  0.4076  0.0206 -0.0466
 4664SOL    HW115433   1.070   5.130   3.078 -1.1026  1.1131 -0.6208
 4664SOL    HW215434   0.998   5.020   3.003  0.2951  0.0901 -0.4982
 4665SOL     OW15435   6.662   0.916   1.919  0.1159  0.4576  0.2088
 4665SOL    HW115436   6.578   0.876   1.895  0.3314 -0.4609  0.9371
 4665SOL    HW215437   6.676   0.889   2.010  1.4048  0.2249 -0.0438
 4666SOL     OW15438   1.782   6.722   3.986 -0.4169 -0.5137  0.2655
 4666SOL    HW115439   1.727   6.644   3.995  2.6336 -3.1788 -1.7910
 4666SOL    HW215440   1.767   6.753   3.897  0.8611 -0.8858 -0.1004
 4667SOL     OW15441   1.183   6.570   4.412  0.4363 -0.0468 -0.4222
 4667SOL    HW115442   1.241   6.642   4.439  1.8733 -1.1644 -0.3531
 4667SOL    HW215443   1.112   6.571   4.476 -1.3053  3.1727 -2.1522
 4668SOL     OW15444   6.113   4.481   2.567  0.3310  0.3030  0.2805
 4668SOL    HW115445   6.081   4.413   2.508  0.2964  0.4914  0.0813
 4668SOL    HW215446   6.166   4.434   2.631  0.6071  0.1289 -0.0702
 4669SOL     OW15447   0.868   6.254   2.955 -0.3580 -0.3245  0.0472
 4669SOL    HW115448   0.839   6.200   2.882 -0.5750 -0.5519  0.2993
 4669SOL    HW215449   0.901   6.192   3.020  0.8510 -0.0626 -0.2892
 4670SOL     OW15450   0.998   5.636   3.681 -0.6601 -0.4953  0.0753
 4670SOL    HW115451   0.915   5.588   3.681 -0.6121 -0.5783  0.0724
 4670SOL    HW215452   0.998   5.683   3.764 -0.7838 -0.3660  0.0049
 4671SOL     OW15453   0.557   5.664   3.482 -0.0548  0.3441  0.5106
 4671SOL    HW115454   0.463   5.649   3.484 -0.3846  2.2413  0.3651
 4671SOL    HW215455   0.590   5.619   3.560 -0.9570 -0.9401  0.1864
 4672SOL     OW15456   7.512   0.644   2.993 -0.0863  0.3568  0.4826
 4672SOL    HW115457   7.527   0.573   2.930 -0.3731  0.3665  0.3974
 4672SOL    HW215458   7.535   0.724   2.945  0.7956  0.2828  0.7694
 4673SOL     OW15459   0.877   7.721   3.899  0.4558 -0.1708  0.3117
 4673SOL    HW115460   0.913   7.724   3.811  1.2276  1.2637  0.6570
 4673SOL    HW215461   0.903   7.804   3.939 -0.2677 -0.6011  1.7398
 4674SOL     OW15462   1.264   4.812   3.304  0.4899 -0.0839 -0.7014
 4674SOL    HW115463   1.282   4.821   3.210  0.4054  3.4321 -0.5168
 4674SOL    HW215464   1.350   4.815   3.345  0.5380 -1.7932 -0.6294
 4675SOL     OW15465   7.707   7.854   2.977  0.1383  0.2150  0.2152
 4675SOL    HW115466   7.669   7.880   3.061  2.8833 -1.4077  2.1447
 4675SOL    HW215467   7.722   7.936   2.930 -1.5200  1.1599  1.2283
 4676SOL     OW15468   0.068   0.635   4.166 -0.4999  0.5554 -0.1820
 4676SOL    HW115469   0.162   0.643   4.147 -0.1690 -2.2834 -0.1446
 4676SOL    HW215470   0.028   0.613   4.081 -0.7396 -0.6747  0.2324
 4677SOL     OW15471   1.420   6.904   3.749 -0.7645  0.4162  0.3261
 4677SOL    HW115472   1.423   6.843   3.823  1.8582  2.0691  1.7316
 4677SOL    HW215473   1.434   6.990   3.788  2.6069  1.2069 -2.1846
 4678SOL     OW15474   7.134   7.067   2.186 -0.0932  0.3048  0.3221
 4678SOL    HW115475   7.221   7.044   2.218 -0.6321 -0.1898  1.4908
 4678SOL    HW215476   7.107   7.140   2.242  0.0619  1.2998 -0.8623
 4679SOL     OW15477   1.508   7.140   2.372 -0.1447  0.3185  0.2970
 4679SOL    HW115478   1.531   7.207   2.308 -1.5386 -0.7924 -1.4699
 4679SOL    HW215479   1.498   7.060   2.320 -2.3844 -0.4135  1.7224
 4680SOL     OW15480   2.984   6.263   5.842 -0.0598 -0.3787 -0.2668
 4680SOL    HW115481   2.962   6.349   5.879  1.0386 -0.3593  0.3644
 4680SOL    HW215482   2.903   6.212   5.850 -0.3060  0.1395  0.6848
 4681SOL     OW15483   1.001   6.004   4.623 -0.1610 -0.1958  0.0520
 4681SOL    HW115484   0.940   5.977   4.554  0.7388 -0.5426 -0.6313
 4681SOL    HW215485   0.973   5.954   4.699 -1.2235  0.2523 -0.0263
 4682SOL     OW15486   0.231   5.543   1.986  0.3199 -0.2166 -0.5430
 4682SOL    HW115487   0.217   5.482   2.059  0.2332 -0.2446 -0.5836
 4682SOL    HW215488   0.306   5.506   1.939  0.6682  0.0501 -0.2035
 4683SOL     OW15489   0.360   6.454   4.648 -0.1391 -0.1816  0.5424
 4683SOL    HW115490   0.419   6.527   4.629  0.0238 -1.0453 -3.0704
 4683SOL    HW215491   0.285   6.469   4.591 -1.9025 -0.9049  2.5522
 4684SOL     OW15492   0.580   5.251   2.785  0.3621  0.4877  0.3298
 4684SOL    HW115493   0.501   5.284   2.741 -1.2234 -2.8655  0.3874
 4684SOL    HW215494   0.619   5.329   2.826 -3.5849  2.1750  1.3342
 4685SOL     OW15495   1.415   6.894   2.558  0.1702  0.2189  0.1957
 4685SOL    HW115496   1.387   6.957   2.492  0.3129  1.7551  1.5385
 4685SOL    HW215497   1.465   6.828   2.510 -1.6024  0.0610 -1.5364
 4686SOL     OW15498   0.067   6.982   3.062 -0.4358 -0.1777  0.1333
 4686SOL    HW115499   0.146   7.027   3.031 -1.0356  0.4952 -0.4410
 4686SOL    HW215500   0.045   6.922   2.992  0.4998 -1.6026  0.9964
 4687SOL     OW15501   0.105   6.018   3.197 -0.1445 -0.2059  0.3606
 4687SOL    HW115502   0.071   5.930   3.211 -1.4109 -0.2487 -2.3196
 4687SOL    HW215503   0.027   6.072   3.182  0.7061  0.9549 -0.0687
 4688SOL     OW15504   7.258   6.697   3.649 -0.3490 -0.2192 -0.1495
 4688SOL    HW115505   7.324   6.650   3.598 -0.7041 -0.6002 -0.2647
 4688SOL    HW215506   7.264   6.787   3.618 -0.6707 -0.4758 -0.9962
 4689SOL     OW15507   0.825   7.990   5.102 -0.5150 -0.0222 -0.1630
 4689SOL    HW115508   0.784   8.008   5.186  0.1553  0.6525  0.0280
 4689SOL    HW215509   0.877   8.068   5.083  0.3296 -0.6643 -0.6049
 4690SOL     OW15510   1.594   6.673   2.694 -0.3626  0.4024  0.5351
 4690SOL    HW115511   1.580   6.767   2.707 -1.6760  0.2479  0.4358
 4690SOL    HW215512   1.580   6.660   2.600 -3.1948 -0.2956  0.9593
 4691SOL     OW15513   0.255   0.343   3.522  0.1911  0.2362 -0.6691
 4691SOL    HW115514   0.314   0.335   3.447  1.5996  1.4686  0.2629
 4691SOL    HW215515   0.167   0.336   3.484  0.8639  0.7543 -2.4175
 4692SOL     OW15516   6.869   7.611   2.669 -0.3779  0.1308  0.6830
 4692SOL    HW115517   6.938   7.548   2.690 -0.5852 -0.0983  0.6788
 4692SOL    HW215518   6.842   7.646   2.754 -1.1098 -0.6845  0.7915
 4693SOL     OW15519   1.997   7.580   3.939 -0.1048  0.2818  0.0520
 4693SOL    HW115520   2.012   7.554   4.030  1.2043  1.6389  0.2534
 4693SOL    HW215521   2.044   7.662   3.929  0.9450 -0.5025 -2.2248
 4694SOL     OW15522   1.057   5.955   3.762  0.2449  0.1258 -0.3179
 4694SOL    HW115523   0.982   5.935   3.818  0.6241 -1.9369 -0.5030
 4694SOL    HW215524   1.127   5.978   3.824  0.1180 -0.2246 -0.0414
 4695SOL     OW15525   1.480   4.693   1.783 -0.1835 -0.0813  0.7241
 4695SOL    HW115526   1.388   4.708   1.760  0.3093  0.1414 -1.2821
 4695SOL    HW215527   1.506   4.617   1.730  0.7013 -0.3694  1.5401
 4696SOL     OW15528   0.390   4.790   2.065  0.2546  0.0262  0.1749
 4696SOL    HW115529   0.316   4.847   2.084  0.8237  0.7015  0.4157
 4696SOL    HW215530   0.441   4.789   2.145  1.4526  1.0184 -0.5437
 4697SOL     OW15531   0.934   6.066   3.127 -0.2905 -0.1371 -0.1901
 4697SOL    HW115532   0.860   6.044   3.184 -0.5777  0.7175 -0.2137
 4697SOL    HW215533   1.009   6.068   3.186 -0.8719  2.5981  0.5849
 4698SOL     OW15534   6.583   5.619   3.322 -0.3735  0.0156  1.0354
 4698SOL    HW115535   6.662   5.620   3.268 -0.3650  0.7514  1.0624
 4698SOL    HW215536   6.541   5.536   3.300 -0.4015  0.3228 -0.1452
 4699SOL     OW15537   2.350   6.332   3.430 -0.0167  0.0020 -0.3627
 4699SOL    HW115538   2.279   6.271   3.445  0.2850 -0.1706  0.4179
 4699SOL    HW215539   2.428   6.288   3.466  0.8452 -0.5813 -2.7593
 4700SOL     OW15540   7.022   4.630   3.413  0.3497 -0.2833  0.1682
 4700SOL    HW115541   7.078   4.655   3.339 -0.1209 -0.8269 -0.3859
 4700SOL    HW215542   6.938   4.609   3.373 -0.0869 -0.0285  0.9294
 4701SOL     OW15543   7.761   4.955   3.780  0.1095  0.3748  0.0588
 4701SOL    HW115544   7.738   5.047   3.795  1.1512  0.5311  0.8191
 4701SOL    HW215545   7.700   4.906   3.835  0.3467  0.6830  0.6086
 4702SOL     OW15546   7.402   0.412   1.440 -0.0837  0.1700 -0.1260
 4702SOL    HW115547   7.357   0.494   1.462 -0.2076  0.2368 -0.6155
 4702SOL    HW215548   7.356   0.379   1.364 -0.5595 -0.7991  0.5622
 4703SOL     OW15549   0.770   7.142   3.929 -0.0544  0.3832  0.0184
 4703SOL    HW115550   0.852   7.182   3.901 -0.0768  0.7423  0.4555
 4703SOL    HW215551   0.772   7.054   3.892  0.7231  0.2403  0.3909
 4704SOL     OW15552   7.580   5.368   4.832 -0.2774  0.2318 -0.1708
 4704SOL    HW115553   7.492   5.364   4.793  0.3794  0.4227 -1.7636
 4704SOL    HW215554   7.576   5.307   4.906 -1.2623 -1.1112 -1.2675
 4705SOL     OW15555   0.330   7.240   3.684 -0.2935 -0.2181  0.3445
 4705SOL    HW115556   0.260   7.180   3.660 -2.6069  2.7931 -0.9533
 4705SOL    HW215557   0.286   7.316   3.720  2.5183  0.7249  2.1664
 4706SOL     OW15558   0.981   5.700   6.644  0.1753 -0.5956 -0.2406
 4706SOL    HW115559   0.991   5.776   6.587 -0.9885  0.5404  1.0037
 4706SOL    HW215560   0.995   5.733   6.732  0.7803 -2.0767  0.2503
 4707SOL     OW15561   7.631   6.169   4.687  0.0285  0.0329 -0.3102
 4707SOL    HW115562   7.585   6.089   4.713 -1.4730  1.1068  0.4521
 4707SOL    HW215563   7.688   6.189   4.761 -1.9159  1.3539  0.8973
 4708SOL     OW15564   2.168   7.611   4.584 -0.5008  0.5907  0.1410
 4708SOL    HW115565   2.263   7.614   4.571 -0.6942  3.4932 -1.5617
 4708SOL    HW215566   2.157   7.583   4.674  2.0028  0.9124  0.6358
 4709SOL     OW15567   6.786   5.513   4.443 -0.0168 -0.3212 -0.5147
 4709SOL    HW115568   6.877   5.516   4.413 -0.1985 -2.3655 -1.4565
 4709SOL    HW215569   6.739   5.568   4.381  0.3004 -0.8954 -1.2893
 4710SOL     OW15570   1.369   4.655   5.059 -0.1722  0.1014  0.3642
 4710SOL    HW115571   1.327   4.652   5.145  1.9181  0.6275  1.4703
 4710SOL    HW215572   1.426   4.732   5.063  2.3408 -1.5982 -0.3057
 4711SOL     OW15573   2.985   6.973   5.411 -0.4081  0.1701  0.3241
 4711SOL    HW115574   2.898   6.954   5.448 -1.1471 -0.7362 -1.7083
 4711SOL    HW215575   2.981   7.066   5.390 -0.5246  0.3506  1.0926
 4712SOL     OW15576   0.288   6.353   6.924  0.3162  0.3534  0.3083
 4712SOL    HW115577   0.285   6.426   6.862 -1.1369 -0.7313 -0.9737
 4712SOL    HW215578   0.212   6.365   6.981  0.2740  0.0369  0.3233
 4713SOL     OW15579   0.260   7.575   5.197  0.0052  0.7708  1.0267
 4713SOL    HW115580   0.323   7.558   5.127 -0.4990  1.3145  0.4293
 4713SOL    HW215581   0.290   7.658   5.236 -1.2430  1.9200 -0.3362
 4714SOL     OW15582   1.100   6.168   5.257 -0.2690  0.5611 -0.5136
 4714SOL    HW115583   1.109   6.136   5.167 -0.2349  0.5814 -0.5178
 4714SOL    HW215584   1.087   6.090   5.310 -1.1363  0.6154 -0.6375
 4715SOL     OW15585   1.328   5.722   8.251 -0.5896  0.1467  0.5207
 4715SOL    HW115586   1.391   5.667   8.298  0.3525 -0.1096 -0.9832
 4715SOL    HW215587   1.250   5.722   8.307 -0.9171 -3.3368  0.2875
 4716SOL     OW15588   2.236   5.699   5.019 -0.3187  0.0612 -0.0968
 4716SOL    HW115589   2.287   5.699   4.937 -0.2420  0.6197 -0.0521
 4716SOL    HW215590   2.209   5.608   5.030 -0.2473 -0.0374 -0.6954
 4717SOL     OW15591   0.812   1.232   3.576 -0.9917  0.1393  0.3605
 4717SOL    HW115592   0.879   1.276   3.627  0.0411  0.2781 -1.0618
 4717SOL    HW215593   0.755   1.303   3.546 -0.1364  0.3880 -0.7536
 4718SOL     OW15594   6.460   7.639   7.502 -0.1057  0.3789 -0.2132
 4718SOL    HW115595   6.498   7.564   7.548  0.8200  1.6165  1.1353
 4718SOL    HW215596   6.387   7.666   7.557 -1.4508 -0.4599 -1.5180
 4719SOL     OW15597   1.053   5.712   5.250  0.0404 -0.0491  0.2160
 4719SOL    HW115598   1.056   5.785   5.189  1.3013 -0.1393  0.1474
 4719SOL    HW215599   0.974   5.663   5.226  0.5383 -0.1059 -1.3557
 4720SOL     OW15600   1.004   6.422   5.288 -0.3816  0.1409 -0.2208
 4720SOL    HW115601   1.046   6.337   5.269  0.8290  0.6551  0.0707
 4720SOL    HW215602   0.910   6.404   5.282 -0.2327 -1.6886  1.6857
 4721SOL     OW15603   0.687   7.351   4.672 -0.1559 -0.3691  0.7249
 4721SOL    HW115604   0.735   7.310   4.600 -1.2967 -0.0436 -0.2680
 4721SOL    HW215605   0.707   7.444   4.664 -0.7637 -0.2556  0.4269
 4722SOL     OW15606   0.394   6.288   3.719 -0.4939  0.1895  0.4487
 4722SOL    HW115607   0.423   6.277   3.628 -0.9360 -0.6698  0.3997
 4722SOL    HW215608   0.452   6.230   3.769 -1.2858 -0.5708  0.5029
 4723SOL     OW15609   1.697   5.462   5.191  0.0535  0.2573  0.2536
 4723SOL    HW115610   1.750   5.390   5.157 -0.5797 -0.5845  0.9999
 4723SOL    HW215611   1.633   5.420   5.249 -1.4628  1.2174 -0.6413
 4724SOL     OW15612   6.267   0.188   3.909  0.2233  0.0533  0.1391
 4724SOL    HW115613   6.346   0.236   3.885  1.0672 -0.4487  1.7440
 4724SOL    HW215614   6.203   0.211   3.842  1.1372  2.0202 -0.1204
 4725SOL     OW15615   2.530   6.998   3.745 -0.6077  0.0303  0.4378
 4725SOL    HW115616   2.516   7.086   3.710  2.2126  1.4911  2.6131
 4725SOL    HW215617   2.553   6.945   3.668 -0.9664  1.5098 -0.7293
 4726SOL     OW15618   7.106   6.443   3.681  0.0849  0.0811  0.2254
 4726SOL    HW115619   7.042   6.461   3.613 -0.7940 -0.3096  0.9314
 4726SOL    HW215620   7.161   6.521   3.684  0.2580  0.0234 -1.0532
 4727SOL     OW15621   1.496   6.605   2.945  0.1825  0.0056  0.2735
 4727SOL    HW115622   1.403   6.613   2.926 -0.4492 -1.0955  2.6078
 4727SOL    HW215623   1.538   6.612   2.859 -1.7867  3.2381 -0.5760
 4728SOL     OW15624   2.573   6.964   4.591 -0.4511  0.2598 -0.2609
 4728SOL    HW115625   2.647   6.997   4.539 -1.4104  0.0576 -1.8146
 4728SOL    HW215626   2.550   6.881   4.548 -0.7417 -0.3432  1.0306
 4729SOL     OW15627   0.613   7.459   5.182  0.3966 -0.2439  0.0209
 4729SOL    HW115628   0.553   7.385   5.184 -0.4576  0.4369  0.3554
 4729SOL    HW215629   0.659   7.455   5.266 -4.2402  3.1994  3.2094
 4730SOL     OW15630   0.986   0.160   3.845 -0.1743  0.0818 -0.4917
 4730SOL    HW115631   0.897   0.146   3.878 -0.1518 -0.2023 -0.5482
 4730SOL    HW215632   1.033   0.199   3.918 -0.3117  0.1152 -0.4202
 4731SOL     OW15633   0.009   7.030   4.017 -0.1630  0.0665 -0.2221
 4731SOL    HW115634  -0.021   7.108   4.064 -1.5432 -1.4800  1.5670
 4731SOL    HW215635  -0.054   7.019   3.946 -2.1534 -1.3962  1.6718
 4732SOL     OW15636   0.400   5.824   2.127 -0.0807 -0.7157 -0.0875
 4732SOL    HW115637   0.471   5.768   2.158  0.6283 -0.3307 -0.9338
 4732SOL    HW215638   0.416   5.908   2.170  0.4125 -0.4224 -0.8271
 4733SOL     OW15639   7.399   0.487   4.922 -0.2708  0.1139  0.5334
 4733SOL    HW115640   7.345   0.554   4.879 -0.0679  0.4596  0.8058
 4733SOL    HW215641   7.459   0.537   4.978 -0.0081 -0.2911  0.6196
 4734SOL     OW15642   0.957   7.757   5.585  0.4417 -0.6780  0.6077
 4734SOL    HW115643   0.956   7.718   5.497  0.6117  0.4775  0.0765
 4734SOL    HW215644   0.884   7.715   5.630  0.7115 -1.7152  0.1149
 4735SOL     OW15645   0.737   6.333   5.594  0.1399 -0.0107 -0.5017
 4735SOL    HW115646   0.690   6.407   5.631 -2.0112 -1.9368  0.9536
 4735SOL    HW215647   0.826   6.340   5.628 -0.1519  1.5955 -0.0172
 4736SOL     OW15648   7.398   4.871   5.579  0.6276 -0.3351 -0.0251
 4736SOL    HW115649   7.360   4.949   5.538 -2.5676 -1.4532  0.5173
 4736SOL    HW215650   7.402   4.893   5.672 -1.0585 -0.9929  0.2499
 4737SOL     OW15651   1.449   5.928   4.990 -0.5626 -0.1416 -0.1791
 4737SOL    HW115652   1.477   6.014   5.019 -0.8149 -0.2021  0.2458
 4737SOL    HW215653   1.505   5.866   5.037  1.3376 -0.1685 -2.3241
 4738SOL     OW15654   2.195   5.273   4.669 -0.2362  0.6736  0.0946
 4738SOL    HW115655   2.247   5.194   4.651 -0.6409  0.3761  0.2274
 4738SOL    HW215656   2.242   5.316   4.741 -1.3692 -0.7547  1.7651
 4739SOL     OW15657   2.030   6.213   4.705  0.9243  0.3461  0.1140
 4739SOL    HW115658   2.056   6.286   4.650 -2.5155  0.5040 -1.5183
 4739SOL    HW215659   2.091   6.143   4.682  2.3911  1.7710 -0.5041
 4740SOL     OW15660   1.384   5.084   4.554  0.1787  0.1178 -0.0414
 4740SOL    HW115661   1.344   5.007   4.594  2.7940 -1.4944 -0.3173
 4740SOL    HW215662   1.388   5.064   4.461  0.4039  0.8254 -0.1914
 4741SOL     OW15663   3.181   7.041   3.832  0.2786  0.2958  0.2284
 4741SOL    HW115664   3.260   6.987   3.822 -1.2602 -1.9481 -0.6131
 4741SOL    HW215665   3.111   6.989   3.792 -2.1472  1.0380  3.1292
 4742SOL     OW15666   0.166   5.959   6.579 -0.0037  0.3668 -0.1313
 4742SOL    HW115667   0.100   5.998   6.522 -1.4474 -0.5965  0.8345
 4742SOL    HW215668   0.118   5.932   6.657  1.2031 -1.8852 -0.0748
 4743SOL     OW15669   2.138   7.197   5.507 -0.3012  0.2080  0.0509
 4743SOL    HW115670   2.200   7.263   5.475  0.0021 -1.3895 -3.0002
 4743SOL    HW215671   2.176   7.168   5.590  1.8602  0.8764 -0.6167
 4744SOL     OW15672   0.905   7.156   5.342  0.5406  0.6639  0.3626
 4744SOL    HW115673   0.905   7.246   5.374 -0.4964  0.8205 -0.0496
 4744SOL    HW215674   0.925   7.164   5.249  3.1391  0.2403  0.8028
 4745SOL     OW15675   0.900   4.449   4.788 -0.0402 -0.0205 -0.7808
 4745SOL    HW115676   0.965   4.488   4.729  0.7566 -1.7333 -1.0839
 4745SOL    HW215677   0.918   4.490   4.873  0.9046  0.1374 -1.0372
 4746SOL     OW15678   7.775   5.531   4.403  0.0343 -0.1354 -0.4997
 4746SOL    HW115679   7.740   5.546   4.491 -1.0123  1.3035 -1.1289
 4746SOL    HW215680   7.842   5.464   4.416 -0.4490 -0.3403  1.3114
 4747SOL     OW15681   7.359   6.306   5.048  0.0887  0.5004 -0.0969
 4747SOL    HW115682   7.386   6.333   4.961 -0.3649  1.0055 -0.0884
 4747SOL    HW215683   7.300   6.376   5.078 -0.1632  0.0840  0.4066
 4748SOL     OW15684   6.767   6.681   5.801 -0.6644  0.1004  0.5989
 4748SOL    HW115685   6.698   6.615   5.794 -1.4613  0.8166  1.3987
 4748SOL    HW215686   6.817   6.656   5.879 -0.5982  0.0918  0.5529
 4749SOL     OW15687   1.251   6.278   4.449 -0.0150 -0.2792  0.0607
 4749SOL    HW115688   1.215   6.367   4.440  0.2434 -0.0845  0.8924
 4749SOL    HW215689   1.254   6.245   4.359 -1.1482  0.1426 -0.1511
 4750SOL     OW15690   2.540   5.382   5.252 -0.5908 -0.4933  0.4658
 4750SOL    HW115691   2.593   5.302   5.252 -1.4001 -1.0393  0.4370
 4750SOL    HW215692   2.454   5.353   5.282 -0.6291  0.5478  1.4192
 4751SOL     OW15693   0.630   4.357   5.341 -0.4024  0.5183 -0.2767
 4751SOL    HW115694   0.696   4.372   5.409 -1.5522 -2.3492  1.6333
 4751SOL    HW215695   0.581   4.439   5.336  0.5010  1.1989  1.4776
 4752SOL     OW15696   0.835   6.799   4.731  0.1659 -0.0677  0.7992
 4752SOL    HW115697   0.845   6.856   4.807 -1.1456 -0.2220  1.1115
 4752SOL    HW215698   0.755   6.829   4.688 -0.9202 -2.0134  1.3114
 4753SOL     OW15699   7.867   7.961   4.906 -0.5565  0.0901  0.1916
 4753SOL    HW115700   7.905   8.049   4.898  0.6877 -0.3113  1.3474
 4753SOL    HW215701   7.837   7.956   4.996  0.5873 -1.1171  0.5330
 4754SOL     OW15702   1.124   6.103   5.904  0.5214 -0.2194 -0.6461
 4754SOL    HW115703   1.155   6.062   5.823  1.0682 -1.1187 -0.0018
 4754SOL    HW215704   1.157   6.046   5.974  0.7121  0.9550  0.2545
 4755SOL     OW15705   3.480   6.455   5.289 -0.4429 -0.4108 -0.2229
 4755SOL    HW115706   3.503   6.425   5.377  0.4925 -2.6209 -1.1637
 4755SOL    HW215707   3.429   6.384   5.251 -2.1915  1.1550 -0.9700
 4756SOL     OW15708   7.512   7.250   4.242 -0.1885  0.1106 -0.5742
 4756SOL    HW115709   7.475   7.162   4.256 -1.7862  0.9476  0.9059
 4756SOL    HW215710   7.476   7.278   4.158 -1.4455  0.1619 -0.0414
 4757SOL     OW15711   2.328   7.021   4.686  0.1958  0.0813 -0.0453
 4757SOL    HW115712   2.262   7.050   4.625 -1.2997 -1.3260  0.8146
 4757SOL    HW215713   2.410   7.021   4.636 -0.7700  0.1098 -1.6777
 4758SOL     OW15714   0.545   6.675   5.773  0.3727  0.7663 -0.7192
 4758SOL    HW115715   0.505   6.675   5.685 -1.0135 -0.6198 -0.1404
 4758SOL    HW215716   0.590   6.590   5.779 -1.1448 -0.0025  0.5479
 4759SOL     OW15717   1.021   6.675   5.435  0.2991 -0.0753 -0.0363
 4759SOL    HW115718   1.018   6.590   5.390  1.3936 -0.4534  0.5523
 4759SOL    HW215719   0.930   6.696   5.454  0.0357 -1.3418  0.1958
 4760SOL     OW15720   0.359   5.410   6.780 -0.3074  0.4529  0.0879
 4760SOL    HW115721   0.268   5.380   6.771  0.4325 -1.3070 -3.1641
 4760SOL    HW215722   0.355   5.504   6.766 -1.5153  0.2198 -1.3275
 4761SOL     OW15723   0.949   6.887   4.980 -0.5087  0.2620 -0.1507
 4761SOL    HW115724   0.890   6.943   5.029 -1.3107  0.0613 -0.8689
 4761SOL    HW215725   0.942   6.801   5.022 -0.1534  0.4157  0.2287
 4762SOL     OW15726   1.660   1.073   3.331 -0.2075  0.2133 -0.1740
 4762SOL    HW115727   1.628   0.995   3.284  0.8892 -0.4685  0.1635
 4762SOL    HW215728   1.627   1.061   3.421 -0.9870  0.7233 -0.3840
 4763SOL     OW15729   0.338   4.698   6.712  0.5620 -0.3210  0.6722
 4763SOL    HW115730   0.250   4.704   6.675  1.2443 -0.1909 -1.0303
 4763SOL    HW215731   0.367   4.789   6.721  0.7279 -0.3781  0.7201
 4764SOL     OW15732   1.647   7.471   5.353  0.3486 -0.0596 -1.1280
 4764SOL    HW115733   1.676   7.437   5.268  2.0383 -1.3512 -0.0908
 4764SOL    HW215734   1.727   7.473   5.406 -0.3104  2.4372 -0.0780
 4765SOL     OW15735   0.506   6.573   3.713  0.3088 -0.0300  0.0113
 4765SOL    HW115736   0.510   6.478   3.703 -0.1446  0.0787 -1.3889
 4765SOL    HW215737   0.567   6.592   3.785  1.0134 -1.2936 -0.2229
 4766SOL     OW15738   1.514   5.880   3.855 -0.1617 -0.2975 -0.7494
 4766SOL    HW115739   1.488   5.966   3.823 -1.0285  0.0434  0.7516
 4766SOL    HW215740   1.590   5.856   3.801  0.3945  1.6122 -0.9024
 4767SOL     OW15741   1.677   5.096   6.299  0.3734 -0.1751  0.6375
 4767SOL    HW115742   1.726   5.015   6.304  0.0748 -0.3773  0.3922
 4767SOL    HW215743   1.599   5.073   6.248 -0.8679 -0.3059  2.5103
 4768SOL     OW15744   7.269   5.046   1.988 -0.1328 -0.3088  0.2259
 4768SOL    HW115745   7.211   5.108   1.944 -0.7441 -0.7365  0.4237
 4768SOL    HW215746   7.248   4.961   1.948  1.8965 -0.1864 -1.2930
 4769SOL     OW15747   0.584   6.063   4.445  0.8772  0.2706  0.4094
 4769SOL    HW115748   0.516   6.110   4.397  1.1165  0.5645  0.3522
 4769SOL    HW215749   0.552   6.060   4.535  0.7449  0.3234  0.3651
 4770SOL     OW15750   0.467   7.124   6.761 -0.3557  0.0834 -0.3220
 4770SOL    HW115751   0.422   7.041   6.773 -0.5997  0.0672 -1.2531
 4770SOL    HW215752   0.442   7.153   6.673 -0.3747  1.2053  0.0296
 4771SOL     OW15753   3.143   6.272   4.758 -0.1904 -0.1151 -0.0222
 4771SOL    HW115754   3.114   6.343   4.815 -1.5754 -0.6108 -0.0669
 4771SOL    HW215755   3.080   6.272   4.686 -0.7687 -1.9156  0.4147
 4772SOL     OW15756   0.429   6.349   5.665 -0.1213  0.1989 -0.2495
 4772SOL    HW115757   0.486   6.355   5.742  1.4201  1.9259 -1.4401
 4772SOL    HW215758   0.353   6.402   5.686  1.3121  2.5563 -0.6681
 4773SOL     OW15759   1.120   6.064   3.331  0.1967  0.5256  0.0069
 4773SOL    HW115760   1.054   6.048   3.399 -0.2341  0.1540 -0.4875
 4773SOL    HW215761   1.163   6.145   3.358 -1.6597  1.7762 -0.5529
 4774SOL     OW15762   7.224   5.493   5.740  0.1578  0.0037  0.0069
 4774SOL    HW115763   7.198   5.401   5.739  1.5234 -0.3978  0.0911
 4774SOL    HW215764   7.283   5.500   5.815 -0.3524  1.0750  0.3251
 4775SOL     OW15765   1.457   4.813   4.041  0.3890 -0.5543 -0.1851
 4775SOL    HW115766   1.522   4.772   3.984  0.4721 -1.4131  0.5062
 4775SOL    HW215767   1.483   4.905   4.045  0.6102 -0.5636 -1.2005
 4776SOL     OW15768   6.590   4.848   5.255  0.5388 -0.3184  0.0983
 4776SOL    HW115769   6.670   4.814   5.215 -0.6701 -2.3789 -0.7445
 4776SOL    HW215770   6.549   4.771   5.295 -0.1197  1.0322  2.1968
 4777SOL     OW15771   0.295   5.555   3.563 -0.3084  0.1069 -0.2994
 4777SOL    HW115772   0.323   5.541   3.653  0.9399  2.1077 -0.3281
 4777SOL    HW215773   0.217   5.611   3.571  1.1035  2.1896 -0.4702
 4778SOL     OW15774   0.252   6.058   5.286 -0.0715 -0.3071 -0.0419
 4778SOL    HW115775   0.237   6.133   5.228 -1.4254 -1.4546 -1.2615
 4778SOL    HW215776   0.327   6.013   5.248 -0.3243 -0.5022 -0.3121
 4779SOL     OW15777   7.656   5.572   4.656  0.1438 -0.7264 -0.0913
 4779SOL    HW115778   7.712   5.600   4.729  1.9826  0.2331 -1.7665
 4779SOL    HW215779   7.600   5.504   4.693  1.1552 -0.4305  2.1442
 4780SOL     OW15780   0.788   5.475   6.722 -0.5682  0.5034 -0.4740
 4780SOL    HW115781   0.787   5.534   6.798  0.3685 -1.1605  0.9044
 4780SOL    HW215782   0.725   5.407   6.743  0.8287 -0.8324 -0.4028
 4781SOL     OW15783   0.345   0.853   6.184 -0.3868  0.0214  0.5225
 4781SOL    HW115784   0.362   0.807   6.266 -0.5564 -2.2024 -0.6104
 4781SOL    HW215785   0.433   0.874   6.151 -0.2776 -0.1433  0.7036
 4782SOL     OW15786   6.650   6.338   2.926  0.0320 -0.1987 -0.1677
 4782SOL    HW115787   6.596   6.403   2.971 -1.2720  0.4114 -2.4856
 4782SOL    HW215788   6.610   6.254   2.946  0.1616 -0.0577  0.7109
 4783SOL     OW15789   0.175   5.354   6.324  0.2092  0.3005  0.2306
 4783SOL    HW115790   0.242   5.387   6.265  1.8803 -0.5374  1.5509
 4783SOL    HW215791   0.223   5.326   6.402 -1.4695 -2.0164  0.5491
 4784SOL     OW15792   1.296   5.844   4.402 -0.0716  0.0569 -0.3270
 4784SOL    HW115793   1.219   5.821   4.350  0.2439  1.0479 -1.2818
 4784SOL    HW215794   1.263   5.850   4.492 -0.5333 -2.1409 -0.3012
 4785SOL     OW15795   6.534   5.850   3.923  0.0906 -0.3199  0.2361
 4785SOL    HW115796   6.441   5.863   3.944  0.0178 -1.4723  0.6700
 4785SOL    HW215797   6.579   5.862   4.006  0.1836 -1.1736  0.3103
 4786SOL     OW15798   0.765   6.898   6.106 -0.3411 -0.0960  0.1157
 4786SOL    HW115799   0.730   6.895   6.017 -2.6794 -1.9378  0.9880
 4786SOL    HW215800   0.781   6.806   6.129  0.5428  0.3596  1.4826
 4787SOL     OW15801   1.563   6.570   4.812 -0.0726 -0.1612  0.1768
 4787SOL    HW115802   1.596   6.490   4.853 -0.5877 -1.5443 -1.9868
 4787SOL    HW215803   1.470   6.553   4.796 -0.0709  0.6534 -0.8064
 4788SOL     OW15804   2.442   6.247   4.191  0.2293 -0.1733  0.0227
 4788SOL    HW115805   2.536   6.260   4.201  0.3370 -0.7291 -0.2139
 4788SOL    HW215806   2.427   6.259   4.097 -0.1087  0.9616  0.2130
 4789SOL     OW15807   1.603   7.001   4.702 -0.7660 -0.8030 -0.0026
 4789SOL    HW115808   1.558   6.947   4.766 -1.6761  0.2825  0.3059
 4789SOL    HW215809   1.637   6.938   4.637 -0.7832 -1.8130  0.9371
 4790SOL     OW15810   1.429   6.279   3.071 -0.0259 -0.8687  0.3278
 4790SOL    HW115811   1.348   6.324   3.045  0.1282 -1.0402 -0.4807
 4790SOL    HW215812   1.485   6.348   3.105 -0.4720 -0.7295  0.7917
 4791SOL     OW15813   1.142   7.719   4.603  0.0645 -0.3105  0.2403
 4791SOL    HW115814   1.102   7.722   4.690 -0.5684 -0.4145 -0.0424
 4791SOL    HW215815   1.193   7.638   4.603  0.1182 -0.2798  0.5324
 4792SOL     OW15816   0.724   6.070   4.706 -0.2378 -0.0848 -0.7750
 4792SOL    HW115817   0.779   6.090   4.630  0.3477 -1.1212 -0.6472
 4792SOL    HW215818   0.773   6.003   4.753 -1.3711 -0.6491 -0.3695
 4793SOL     OW15819   0.571   7.820   5.428  0.0334 -0.1367 -0.1675
 4793SOL    HW115820   0.558   7.734   5.467  0.0987  0.4240  1.1419
 4793SOL    HW215821   0.522   7.880   5.484  1.8309  0.9745  0.2902
 4794SOL     OW15822   2.128   5.104   5.752  0.0640 -0.6597  0.1483
 4794SOL    HW115823   2.166   5.030   5.801 -0.0678 -1.6488 -1.1764
 4794SOL    HW215824   2.182   5.111   5.673  0.4359  1.0770  0.5151
 4795SOL     OW15825   1.285   7.563   5.641  0.1000 -0.3793  0.4580
 4795SOL    HW115826   1.257   7.489   5.587  1.3513 -0.6883  0.2122
 4795SOL    HW215827   1.295   7.526   5.729 -0.2180 -0.2747  0.5406
 4796SOL     OW15828   1.312   7.161   5.300 -0.0383 -0.8925 -0.8158
 4796SOL    HW115829   1.333   7.255   5.307  0.0655 -0.8149 -1.9751
 4796SOL    HW215830   1.316   7.143   5.207 -2.3035 -1.5413 -0.8521
 4797SOL     OW15831   0.338   5.261   6.521 -0.0618  0.1165  0.2532
 4797SOL    HW115832   0.332   5.305   6.606 -0.6737  2.2487 -0.8296
 4797SOL    HW215833   0.358   5.170   6.543  1.9471  1.0078  2.6101
 4798SOL     OW15834   1.172   6.860   7.749 -0.2042 -0.0400  0.5886
 4798SOL    HW115835   1.086   6.878   7.787  0.4234  0.4517  1.8215
 4798SOL    HW215836   1.158   6.868   7.655 -1.3230  0.8709  0.8003
 4799SOL     OW15837   0.156   5.740   4.874 -0.0023  0.7807 -0.1793
 4799SOL    HW115838   0.124   5.779   4.956  1.2261 -0.9931  1.2105
 4799SOL    HW215839   0.085   5.753   4.812 -1.5851  0.8735  1.5776
 4800SOL     OW15840   6.972   5.879   6.898 -0.6504  0.3618 -0.3252
 4800SOL    HW115841   7.034   5.837   6.839  1.2431  0.2470  1.6477
 4800SOL    HW215842   6.893   5.825   6.893 -0.5213  0.3090 -2.6273
 4801SOL     OW15843   0.404   5.094   5.459  0.4230 -0.1387 -0.6439
 4801SOL    HW115844   0.332   5.157   5.454  0.2753 -0.2950 -0.5209
 4801SOL    HW215845   0.454   5.108   5.379 -0.2486 -0.6343 -1.1646
 4802SOL     OW15846   7.461   5.900   4.682  0.9416 -0.0516 -0.1484
 4802SOL    HW115847   7.448   5.826   4.622  1.0007 -0.2334  0.0625
 4802SOL    HW215848   7.373   5.927   4.707  0.9234 -0.1570 -0.0979
 4803SOL     OW15849   0.223   6.501   5.750  0.1872 -0.0472 -0.3813
 4803SOL    HW115850   0.208   6.505   5.844  2.3523 -1.2340  0.0786
 4803SOL    HW215851   0.136   6.489   5.712 -0.7903  1.0643  1.3845
 4804SOL     OW15852   0.643   5.700   6.181  0.1880 -0.6982 -0.2232
 4804SOL    HW115853   0.600   5.726   6.099 -0.6403  0.8732  0.6608
 4804SOL    HW215854   0.736   5.715   6.164 -0.1716  4.0069  0.3945
 4805SOL     OW15855   6.847   6.112   4.782 -0.4859  1.1066  0.1066
 4805SOL    HW115856   6.873   6.079   4.696 -1.4397 -0.6219  0.4248
 4805SOL    HW215857   6.877   6.203   4.784  2.0388  0.3580 -0.9477
 4806SOL     OW15858   0.820   5.488   5.257  0.2867 -0.0490  0.2176
 4806SOL    HW115859   0.885   5.436   5.209 -0.2774 -0.4501 -0.1115
 4806SOL    HW215860   0.742   5.432   5.260 -0.3516  0.8121 -0.2064
 4807SOL     OW15861   0.533   6.148   3.909  0.6567 -0.0876  0.5376
 4807SOL    HW115862   0.509   6.064   3.947  0.8995  0.1148  1.1493
 4807SOL    HW215863   0.625   6.137   3.882  1.0003  0.2782  1.5093
 4808SOL     OW15864   0.587   6.157   7.021 -0.0941 -0.2107  0.3438
 4808SOL    HW115865   0.522   6.099   6.982 -0.1423 -0.4055  0.7093
 4808SOL    HW215866   0.575   6.146   7.116  0.7007 -0.5055  0.4144
 4809SOL     OW15867   2.057   6.601   4.855 -0.2591  0.5352 -0.2908
 4809SOL    HW115868   2.102   6.642   4.782 -0.9357 -1.0723 -1.6663
 4809SOL    HW215869   2.126   6.581   4.918  0.7244 -0.2461 -1.5709
 4810SOL     OW15870   0.138   7.655   3.953 -0.0149 -0.0502 -0.1892
 4810SOL    HW115871   0.197   7.680   3.882  0.8459 -0.0695  0.4997
 4810SOL    HW215872   0.068   7.607   3.910  1.3415 -1.5112 -0.8441
 4811SOL     OW15873   0.144   4.980   6.779 -0.0957 -0.6063 -0.3854
 4811SOL    HW115874   0.143   5.007   6.687 -2.0064  0.3692 -0.1292
 4811SOL    HW215875   0.117   4.888   6.777  0.6729 -0.8296 -0.8468
 4812SOL     OW15876   2.490   5.364   5.594  0.2798  0.1781  0.4623
 4812SOL    HW115877   2.418   5.318   5.637  0.6867  0.0893  1.0476
 4812SOL    HW215878   2.563   5.357   5.654  1.1097 -0.6701 -0.6025
 4813SOL     OW15879   1.956   5.218   6.369  0.2372  0.4182  0.1344
 4813SOL    HW115880   1.870   5.199   6.331 -0.0472  1.4559  0.2264
 4813SOL    HW215881   1.937   5.273   6.445  0.7952 -1.6420  1.8490
 4814SOL     OW15882   7.937   7.079   4.925 -0.2061  0.0875 -0.3507
 4814SOL    HW115883   7.871   7.143   4.951  0.4674  0.4849  0.4232
 4814SOL    HW215884   8.020   7.115   4.956  0.4775 -0.1088 -1.8433
 4815SOL     OW15885   7.733   7.171   5.342 -1.0855 -0.6815 -0.5699
 4815SOL    HW115886   7.668   7.228   5.382 -1.6039 -0.5879 -1.5172
 4815SOL    HW215887   7.747   7.102   5.406  0.4794  1.1219  1.1512
 4816SOL     OW15888   2.214   7.026   2.927  0.2518  0.0683 -0.1682
 4816SOL    HW115889   2.285   7.042   2.865  0.1715  1.6122  0.0929
 4816SOL    HW215890   2.141   7.078   2.893 -0.3435 -0.4866  0.2604
 4817SOL     OW15891   1.468   5.886   5.672 -0.1252  0.2474 -1.1968
 4817SOL    HW115892   1.446   5.889   5.579  0.9001  1.6435 -1.4307
 4817SOL    HW215893   1.524   5.809   5.682  2.1104  1.6551 -2.3267
 4818SOL     OW15894   1.352   4.822   3.610 -0.1246  0.3469 -0.2586
 4818SOL    HW115895   1.350   4.911   3.575 -1.2560 -0.2312 -1.7467
 4818SOL    HW215896   1.404   4.773   3.547  2.6502  0.3888  1.8042
 4819SOL     OW15897   0.958   6.565   6.051 -0.1329  0.6311  0.3956
 4819SOL    HW115898   0.872   6.581   6.090  0.0952  0.7625  0.8558
 4819SOL    HW215899   1.015   6.629   6.092  0.2060  0.4769  0.1675
 4820SOL     OW15900   1.184   5.049   3.776  0.4731 -0.4034  0.2525
 4820SOL    HW115901   1.115   5.112   3.755  0.4557 -0.6115 -0.3398
 4820SOL    HW215902   1.248   5.060   3.706 -0.1913 -2.0102 -0.6713
 4821SOL     OW15903   0.716   0.402   5.237  0.5897 -0.3958  0.0250
 4821SOL    HW115904   0.624   0.407   5.263  0.5077  2.1840 -0.4629
 4821SOL    HW215905   0.763   0.397   5.320  0.0950  1.9261  0.5221
 4822SOL     OW15906   7.917   5.783   4.734  0.4137  0.3703  0.0079
 4822SOL    HW115907   7.847   5.827   4.782  1.0707  1.5834 -0.1169
 4822SOL    HW215908   7.901   5.805   4.642  0.0185 -0.7294 -0.2129
 4823SOL     OW15909   1.332   6.335   5.027  0.5854 -0.0348 -0.3859
 4823SOL    HW115910   1.344   6.428   5.012  0.4029 -0.0417 -0.5779
 4823SOL    HW215911   1.394   6.313   5.097 -0.8170  0.6567  1.1334
 4824SOL     OW15912   0.960   5.789   6.908 -0.0141  0.2404  0.1306
 4824SOL    HW115913   0.902   5.719   6.937 -0.0543  0.9161  1.8186
 4824SOL    HW215914   0.924   5.868   6.948  0.3540  1.1577 -1.2606
 4825SOL     OW15915   2.034   7.524   5.714  0.5326 -0.6596 -0.0718
 4825SOL    HW115916   1.989   7.508   5.798  0.7231 -4.2376 -0.4827
 4825SOL    HW215917   1.966   7.557   5.657 -0.2165 -0.5791  0.8348
 4826SOL     OW15918   3.031   7.915   4.654  0.4751  0.6984 -0.0805
 4826SOL    HW115919   3.011   7.839   4.599  0.8934  2.0783 -2.2866
 4826SOL    HW215920   2.956   7.922   4.714  0.4375 -1.4155  0.1989
 4827SOL     OW15921   0.596   6.072   6.037  0.0803 -0.4637 -0.0660
 4827SOL    HW115922   0.569   6.013   5.967 -0.9680 -0.9293  0.6973
 4827SOL    HW215923   0.520   6.128   6.053  0.8105  0.6029 -0.2676
 4828SOL     OW15924   1.265   6.488   4.181 -0.1125  0.2552  0.0441
 4828SOL    HW115925   1.219   6.534   4.250  0.1248 -1.0258  1.0952
 4828SOL    HW215926   1.209   6.414   4.159  0.2521  0.1246 -0.4844
 4829SOL     OW15927   0.496   4.495   2.853  0.2467 -1.0520 -0.3395
 4829SOL    HW115928   0.486   4.590   2.845 -1.8754 -1.3155 -1.6337
 4829SOL    HW215929   0.460   4.475   2.939  3.5904 -0.4512  1.3775
 4830SOL     OW15930   1.744   7.356   5.082 -0.2161 -0.1085 -0.5603
 4830SOL    HW115931   1.746   7.434   5.027 -0.3010  0.2456 -0.0748
 4830SOL    HW215932   1.837   7.337   5.099 -0.1753  1.8417  1.9764
 4831SOL     OW15933   1.769   5.290   6.101 -0.4379  0.0893 -0.0279
 4831SOL    HW115934   1.732   5.229   6.164 -0.1912  0.5245  0.5479
 4831SOL    HW215935   1.825   5.236   6.044  1.4384  0.0637  1.7428
 4832SOL     OW15936   7.692   6.489   5.412 -0.2259 -0.4994 -0.4437
 4832SOL    HW115937   7.633   6.467   5.485  1.9383  2.2154  2.4049
 4832SOL    HW215938   7.634   6.511   5.340 -2.6595  0.1378  1.5569
 4833SOL     OW15939   2.067   6.177   4.248  0.0818  0.4010  0.0874
 4833SOL    HW115940   2.065   6.102   4.307  1.7123  0.2443 -0.0185
 4833SOL    HW215941   2.065   6.139   4.160 -0.2542  0.5483  0.0269
 4834SOL     OW15942   7.652   6.119   5.827 -0.0160  0.7924 -0.2242
 4834SOL    HW115943   7.733   6.078   5.797  0.6108  1.7317  0.1448
 4834SOL    HW215944   7.681   6.189   5.884 -1.0409  1.9529 -1.0838
 4835SOL     OW15945   0.217   5.384   3.811 -0.0544  0.4392  0.2709
 4835SOL    HW115946   0.259   5.298   3.802 -0.9239  0.1509 -1.6927
 4835SOL    HW215947   0.285   5.441   3.845  0.7869 -0.8374  0.8127
 4836SOL     OW15948   1.732   0.348   4.830 -0.2350 -0.5275  0.3300
 4836SOL    HW115949   1.819   0.354   4.868 -0.8117 -0.3192  1.6822
 4836SOL    HW215950   1.739   0.278   4.764  1.6143  1.3506 -1.5958
 4837SOL     OW15951   1.857   4.927   3.313 -0.0507 -0.1273 -0.1047
 4837SOL    HW115952   1.791   4.969   3.368  0.7942  1.1277 -0.0157
 4837SOL    HW215953   1.910   4.875   3.374  0.4834  0.7476  0.2019
 4838SOL     OW15954   0.804   6.275   6.010  0.4617 -0.1775  0.7798
 4838SOL    HW115955   0.793   6.297   6.102 -0.6310  0.4718  0.5027
 4838SOL    HW215956   0.743   6.203   5.995 -1.2866  1.3963 -0.0209
 4839SOL     OW15957   7.991   7.538   5.153 -0.0602 -0.1173 -0.2467
 4839SOL    HW115958   8.084   7.544   5.176 -0.4040  0.1238  1.1979
 4839SOL    HW215959   7.976   7.612   5.095  0.1430  1.3835  1.4969
 4840SOL     OW15960   7.643   6.033   6.417 -0.2928  0.0843 -0.2156
 4840SOL    HW115961   7.611   6.020   6.328  0.3455 -1.1145 -0.2844
 4840SOL    HW215962   7.618   5.953   6.463  0.3648  0.2198  0.3884
 4841SOL     OW15963   2.973   5.573   5.681  0.8185 -0.1556 -0.0160
 4841SOL    HW115964   2.978   5.649   5.740  1.0247  0.5045 -0.8617
 4841SOL    HW215965   2.975   5.497   5.739  0.5432  0.4883  0.8542
 4842SOL     OW15966   1.391   7.541   4.724 -0.1318 -0.0153 -0.3992
 4842SOL    HW115967   1.425   7.456   4.751 -0.0228 -0.0873 -0.7486
 4842SOL    HW215968   1.425   7.602   4.789  0.6273 -0.0929 -0.7089
 4843SOL     OW15969   3.004   5.375   6.010  0.3573  0.5241  0.4444
 4843SOL    HW115970   3.092   5.358   6.046  1.1057  1.4760 -0.8474
 4843SOL    HW215971   3.015   5.364   5.916 -1.0196  0.2752  0.3063
 4844SOL     OW15972   7.425   7.996   6.010 -0.2529 -0.1815  0.0272
 4844SOL    HW115973   7.420   7.982   5.915 -1.4442 -1.5233  0.2556
 4844SOL    HW215974   7.510   8.038   6.023 -0.4455  0.8718 -1.7146
 4845SOL     OW15975   1.782   5.822   5.525  0.7510 -0.4357 -0.1059
 4845SOL    HW115976   1.790   5.827   5.430  0.7194 -2.7139 -0.2886
 4845SOL    HW215977   1.873   5.825   5.557  0.7989 -0.3078 -0.2535
 4846SOL     OW15978   1.095   5.907   5.438 -0.3789 -0.3192  0.5549
 4846SOL    HW115979   1.109   5.813   5.425 -2.5052 -0.3481 -2.5371
 4846SOL    HW215980   1.003   5.914   5.464 -1.0346  0.9804 -1.8606
 4847SOL     OW15981   0.403   6.951   5.487 -0.4162  0.1423  0.2174
 4847SOL    HW115982   0.467   6.987   5.426 -1.6030  0.0703 -1.1423
 4847SOL    HW215983   0.325   6.936   5.433 -1.7038  0.5899  1.8709
 4848SOL     OW15984   0.274   5.702   6.019 -0.4564  0.6255 -0.0733
 4848SOL    HW115985   0.180   5.690   6.023 -0.1681 -1.9511  1.9435
 4848SOL    HW215986   0.297   5.752   6.097  0.0528 -1.4510  1.1899
 4849SOL     OW15987   0.119   7.114   6.275  0.3042  0.5292 -0.2357
 4849SOL    HW115988   0.086   7.157   6.354  1.2879  1.1606 -0.1511
 4849SOL    HW215989   0.135   7.186   6.213  0.9123  0.1791 -0.4921
 4850SOL     OW15990   2.085   4.758   5.284 -0.0513  0.1161 -0.6262
 4850SOL    HW115991   2.065   4.671   5.250 -0.4612 -0.6179  1.3551
 4850SOL    HW215992   2.180   4.760   5.295 -0.2400 -1.2448  2.0522
 4851SOL     OW15993   2.845   0.512   4.214  0.5664 -0.7876 -0.2382
 4851SOL    HW115994   2.767   0.464   4.241 -2.0254  2.5968 -1.0308
 4851SOL    HW215995   2.852   0.495   4.120  1.3124 -1.6956 -0.0339
 4852SOL     OW15996   7.135   6.189   4.606  0.5462  0.0413  0.2782
 4852SOL    HW115997   7.044   6.163   4.593  1.2170 -1.9221 -0.7930
 4852SOL    HW215998   7.149   6.261   4.545  0.0127 -0.3880 -0.3572
 4853SOL     OW15999   7.510   6.895   4.394 -0.4969 -0.4606 -0.0511
 4853SOL    HW116000   7.548   6.974   4.434 -0.3598 -0.5608  0.0179
 4853SOL    HW216001   7.455   6.858   4.463 -1.0086 -0.1228 -0.2661
 4854SOL     OW16002   2.388   3.666   5.282 -0.2401  0.1691  0.1626
 4854SOL    HW116003   2.462   3.627   5.234 -0.6423  0.8008 -1.0120
 4854SOL    HW216004   2.344   3.591   5.322  0.8118 -0.2511  0.5707
 4855SOL     OW16005   1.173   0.971   3.921  0.4895  0.5365  0.3258
 4855SOL    HW116006   1.195   0.923   4.002  1.3587  0.7521  0.2213
 4855SOL    HW216007   1.081   0.994   3.932  0.0927 -0.9635  0.4859
 4856SOL     OW16008   7.958   5.815   5.624 -0.2814  0.3597  0.2198
 4856SOL    HW116009   8.046   5.848   5.609 -0.5234  1.7143  1.4835
 4856SOL    HW216010   7.929   5.860   5.704 -2.6182  1.0222 -0.8992
 4857SOL     OW16011   1.410   5.579   4.395  0.1855  0.1021 -0.0901
 4857SOL    HW116012   1.371   5.664   4.373 -0.4246  0.0634  0.7654
 4857SOL    HW216013   1.382   5.564   4.486  1.3408 -0.4255  0.1864
 4858SOL     OW16014   0.041   7.470   5.812 -0.2267 -0.1163 -0.0475
 4858SOL    HW116015   0.123   7.422   5.804  0.6483  1.1928  0.6849
 4858SOL    HW216016  -0.021   7.406   5.848  0.4448 -1.1238 -0.6410
 4859SOL     OW16017   7.713   7.284   4.008 -0.7585 -0.9354  0.1058
 4859SOL    HW116018   7.619   7.278   4.024 -0.7038 -1.5769  0.1904
 4859SOL    HW216019   7.721   7.314   3.918 -1.0494  0.4668  0.5166
 4860SOL     OW16020   1.652   6.546   6.003  0.1204 -0.1201  0.1573
 4860SOL    HW116021   1.742   6.560   5.974  0.1456 -1.8288 -0.7852
 4860SOL    HW216022   1.628   6.462   5.963 -0.5961 -1.6387  3.4156
 4861SOL     OW16023   2.981   5.687   5.142  0.1006 -0.3598 -0.1461
 4861SOL    HW116024   2.981   5.710   5.235  0.0929  0.2933 -0.3053
 4861SOL    HW216025   3.022   5.762   5.098  1.9164 -1.4724 -0.4831
 4862SOL     OW16026   1.247   7.481   4.392  0.1036  0.1154 -0.5028
 4862SOL    HW116027   1.255   7.420   4.318 -0.7664  0.1935 -0.6737
 4862SOL    HW216028   1.182   7.545   4.364 -0.5352 -0.0734  0.4663
 4863SOL     OW16029   7.002   5.964   5.733 -0.1053  0.2298 -0.6059
 4863SOL    HW116030   7.066   5.894   5.750  0.8086  1.0402 -0.6163
 4863SOL    HW216031   6.923   5.936   5.779 -0.1241 -1.3415 -1.5035
 4864SOL     OW16032   0.578   5.752   5.932  0.4441 -0.0861 -0.4623
 4864SOL    HW116033   0.526   5.816   5.883  1.7644  1.2244 -0.2635
 4864SOL    HW216034   0.629   5.707   5.865  0.1216 -0.3443 -0.5350
 4865SOL     OW16035   1.086   1.000   4.335  0.0650 -0.4009 -0.6834
 4865SOL    HW116036   1.048   1.036   4.255  0.4976 -2.6506 -1.9632
 4865SOL    HW216037   1.167   1.050   4.347 -0.3579  0.4375 -1.2270
 4866SOL     OW16038   0.384   7.398   5.419  0.1331 -0.0244 -0.0939
 4866SOL    HW116039   0.305   7.345   5.430  0.5044 -0.4131  0.8154
 4866SOL    HW216040   0.366   7.454   5.344 -1.5128  0.7937  0.8612
 4867SOL     OW16041   3.095   6.215   6.258  0.1117  0.0609  0.3701
 4867SOL    HW116042   3.024   6.245   6.201  0.8441  0.7269 -0.2142
 4867SOL    HW216043   3.058   6.219   6.346 -1.1794 -1.3668 -0.0515
 4868SOL     OW16044   0.010   6.329   4.465 -0.1184 -0.3856  0.2535
 4868SOL    HW116045   0.024   6.235   4.469  3.4372  0.0470  1.4379
 4868SOL    HW216046   0.001   6.357   4.556  2.8889  0.7684  0.3099
 4869SOL     OW16047   1.600   6.343   5.810 -0.0189  0.3084  0.1365
 4869SOL    HW116048   1.555   6.261   5.830  1.2992 -0.1562  1.3158
 4869SOL    HW216049   1.656   6.322   5.735 -1.0253  0.6521 -0.7477
 4870SOL     OW16050   0.187   6.864   3.887  0.6172 -0.1950  0.3851
 4870SOL    HW116051   0.193   6.799   3.957  0.3361 -1.4097 -0.6791
 4870SOL    HW216052   0.146   6.939   3.929 -1.7905 -1.7316  1.0240
 4871SOL     OW16053   2.362   4.574   5.507  0.0064  0.2386 -0.2773
 4871SOL    HW116054   2.365   4.482   5.480 -1.9235  0.0082  0.0925
 4871SOL    HW216055   2.409   4.621   5.439 -0.2691 -0.8742 -1.2648
 4872SOL     OW16056   6.395   6.181   4.276 -0.6866 -0.4227  0.0043
 4872SOL    HW116057   6.301   6.199   4.274 -0.7110  0.0823  2.4157
 4872SOL    HW216058   6.402   6.095   4.317 -0.0864 -0.0694  0.6694
 4873SOL     OW16059   7.057   7.987   4.923 -0.1081  0.3767  0.3542
 4873SOL    HW116060   7.008   8.014   4.845  0.1610 -1.6219 -0.5671
 4873SOL    HW216061   7.149   7.996   4.898 -0.0120 -1.1856  0.0569
 4874SOL     OW16062   1.430   7.369   4.953 -0.2802  0.0392  0.1525
 4874SOL    HW116063   1.471   7.291   4.990  3.0044  0.8256 -1.4093
 4874SOL    HW216064   1.426   7.431   5.026  1.7176 -0.0070  0.3663
 4875SOL     OW16065   0.430   6.062   5.652 -0.3833 -0.1575  0.7516
 4875SOL    HW116066   0.414   6.010   5.731  0.9682 -0.0164  1.1517
 4875SOL    HW216067   0.404   6.151   5.676 -4.9883 -0.8874 -0.6871
 4876SOL     OW16068   0.677   6.164   7.563  0.1929 -0.2697  0.2442
 4876SOL    HW116069   0.734   6.222   7.613  0.8352 -0.3906 -0.3368
 4876SOL    HW216070   0.714   6.077   7.576 -1.7344 -0.8702  2.5107
 4877SOL     OW16071   0.472   4.609   5.400  0.0298 -0.1085 -0.0059
 4877SOL    HW116072   0.504   4.684   5.449  1.3622 -1.0824  0.7029
 4877SOL    HW216073   0.475   4.637   5.309  1.7879  0.2882  0.1376
 4878SOL     OW16074   0.438   5.912   4.020 -0.1036 -0.3788  0.6020
 4878SOL    HW116075   0.437   5.819   4.044  2.8975 -1.2195 -1.9233
 4878SOL    HW216076   0.374   5.918   3.949 -1.5476 -0.0412  1.8591
 4879SOL     OW16077   0.361   5.428   5.374 -0.0486 -0.1032 -0.4943
 4879SOL    HW116078   0.322   5.515   5.368  0.6641  0.1733 -1.2095
 4879SOL    HW216079   0.292   5.374   5.415 -1.2591  0.3322 -1.8767
 4880SOL     OW16080   7.518   7.827   4.902 -0.7312 -0.3855  0.4993
 4880SOL    HW116081   7.437   7.790   4.937 -0.6107  0.2265  1.4386
 4880SOL    HW216082   7.586   7.801   4.964 -0.1551 -1.0196 -0.3522
 4881SOL     OW16083   7.938   6.141   7.155  0.0158  0.2586  0.3915
 4881SOL    HW116084   7.893   6.170   7.235  0.3309  1.9959 -0.0162
 4881SOL    HW216085   7.878   6.166   7.084  0.3028 -0.1180  0.0151
 4882SOL     OW16086   2.771   5.950   3.244  0.2312  0.6210 -0.1931
 4882SOL    HW116087   2.830   5.884   3.281 -1.2676  0.1721  1.4989
 4882SOL    HW216088   2.784   5.942   3.149 -0.2767 -2.5558 -0.1203
 4883SOL     OW16089   7.890   0.443   5.068 -0.0639 -0.1248  0.3586
 4883SOL    HW116090   7.883   0.506   5.140  2.8723  0.5220  0.1918
 4883SOL    HW216091   7.838   0.481   4.998 -0.0616  1.0504  0.9635
 4884SOL     OW16092   0.546   5.644   5.107  0.5035 -0.3852 -0.1219
 4884SOL    HW116093   0.483   5.593   5.057  1.6969 -1.6046 -0.4437
 4884SOL    HW216094   0.541   5.609   5.196  0.8401 -0.6185 -0.1906
 4885SOL     OW16095   1.071   6.274   6.180  0.0343 -0.0106 -0.0124
 4885SOL    HW116096   1.147   6.230   6.219  0.2969 -0.6612 -1.1942
 4885SOL    HW216097   1.005   6.274   6.249  1.2874  1.1018  1.2498
 4886SOL     OW16098   0.323   5.875   4.454 -0.0343  0.1723  0.4198
 4886SOL    HW116099   0.279   5.878   4.369 -1.7666  0.8238  1.2797
 4886SOL    HW216100   0.370   5.791   4.454 -1.2651 -0.5539 -0.5864
 4887SOL     OW16101   1.183   6.186   4.688 -0.7902  0.2116 -0.3914
 4887SOL    HW116102   1.208   6.244   4.616  1.5971 -0.4238 -0.1653
 4887SOL    HW216103   1.125   6.122   4.648  0.4753 -0.1116 -1.7950
 4888SOL     OW16104   1.042   6.309   4.190 -0.1559 -0.1753  0.2145
 4888SOL    HW116105   0.961   6.266   4.219 -0.8991  0.5453 -0.7164
 4888SOL    HW216106   1.014   6.395   4.161  0.7007 -0.4682 -1.6011
 4889SOL     OW16107   0.732   7.685   6.120 -0.3344 -0.2816 -0.4465
 4889SOL    HW116108   0.729   7.780   6.112 -1.1289 -0.2799 -0.2163
 4889SOL    HW216109   0.652   7.655   6.075 -0.4875 -0.7874  0.1541
 4890SOL     OW16110   0.821   5.352   7.827  0.6197 -0.1955  0.0493
 4890SOL    HW116111   0.736   5.378   7.792 -0.2658 -1.9673  0.7689
 4890SOL    HW216112   0.813   5.366   7.922  1.3715  0.2199  0.0598
 4891SOL     OW16113   0.329   7.853   5.928  0.4164 -0.1367 -0.1344
 4891SOL    HW116114   0.336   7.849   5.833  1.5591  1.3775 -0.1399
 4891SOL    HW216115   0.243   7.815   5.947  1.2340 -2.9684 -1.5337
 4892SOL     OW16116   1.791   6.915   3.765 -0.1951 -0.0079  0.2973
 4892SOL    HW116117   1.733   6.899   3.691  1.4034 -0.2449 -0.9810
 4892SOL    HW216118   1.772   7.005   3.792 -0.9932 -0.0135 -0.2149
 4893SOL     OW16119   0.591   7.904   4.108  0.5846 -0.1149  0.1360
 4893SOL    HW116120   0.590   7.942   4.196  0.7356 -0.4813  0.2989
 4893SOL    HW216121   0.540   7.824   4.116  2.4098 -1.3094  0.4372
 4894SOL     OW16122   7.188   5.973   3.198 -0.0035 -0.2933 -0.0581
 4894SOL    HW116123   7.205   6.007   3.286 -0.0457  0.9105 -0.4953
 4894SOL    HW216124   7.274   5.972   3.156 -0.1028 -0.0691 -0.2697
 4895SOL     OW16125   0.165   7.230   5.067  0.4693 -0.5393 -0.0525
 4895SOL    HW116126   0.095   7.260   5.126 -1.4820 -0.8365 -2.0504
 4895SOL    HW216127   0.246   7.253   5.112 -0.8692  2.7386  1.0378
 4896SOL     OW16128   0.431   6.324   6.038  0.3333  0.1751 -0.1746
 4896SOL    HW116129   0.344   6.362   6.044  0.8314  1.6040 -1.4639
 4896SOL    HW216130   0.472   6.343   6.122 -0.2955  0.2368  0.1201
 4897SOL     OW16131   0.036   5.258   2.019  0.3447 -0.2569  0.2373
 4897SOL    HW116132  -0.008   5.183   1.980  1.2387 -2.3975  2.9530
 4897SOL    HW216133  -0.025   5.289   2.086  1.3844 -0.9131  1.5379
 4898SOL     OW16134   0.313   6.248   4.109 -0.5347  0.2058  0.2263
 4898SOL    HW116135   0.339   6.239   4.201  0.0599 -0.0109  0.0451
 4898SOL    HW216136   0.357   6.176   4.065 -0.0245  0.8758 -0.3784
 4899SOL     OW16137   0.115   5.531   5.785  0.6128  0.5114  0.1422
 4899SOL    HW116138   0.146   5.452   5.741 -0.9601  0.1418 -0.3866
 4899SOL    HW216139   0.178   5.598   5.762  1.8256 -0.5104  0.3637
 4900SOL     OW16140   5.798   7.562   4.907  0.1255 -0.1343  0.1713
 4900SOL    HW116141   5.833   7.598   4.988  1.2847  1.3663 -0.9494
 4900SOL    HW216142   5.709   7.598   4.901 -0.1210 -0.5777  0.9286
 4901SOL     OW16143   3.056   5.197   3.922  0.0542  0.3721 -0.1416
 4901SOL    HW116144   3.091   5.166   4.005  0.2634 -0.6627 -0.6018
 4901SOL    HW216145   3.126   5.251   3.885 -0.4179  1.7062  0.7890
 4902SOL     OW16146   0.634   5.184   4.855  0.0617 -0.4450  0.7457
 4902SOL    HW116147   0.627   5.146   4.767 -0.8292  0.2639  0.4884
 4902SOL    HW216148   0.728   5.185   4.873  0.2656 -0.5189 -0.2394
 4903SOL     OW16149   0.031   7.979   5.243 -0.2402 -0.5758  0.0295
 4903SOL    HW116150  -0.044   7.996   5.299 -0.7843 -0.0408 -0.8526
 4903SOL    HW216151  -0.005   7.936   5.165  0.5424 -1.6009  0.2025
 4904SOL     OW16152   7.174   5.740   5.454  0.2611 -0.3204 -0.1433
 4904SOL    HW116153   7.217   5.758   5.371 -1.2290  3.0473 -0.3717
 4904SOL    HW216154   7.246   5.727   5.516  1.4225 -1.1051 -1.6081
 4905SOL     OW16155   7.513   5.677   3.175 -0.1199  0.1783 -0.0262
 4905SOL    HW116156   7.529   5.598   3.227  0.7702  0.4646  0.1471
 4905SOL    HW216157   7.493   5.745   3.240  0.0284  0.3131 -0.1228
 4906SOL     OW16158   0.092   6.760   4.141 -0.6364  0.5947  0.0885
 4906SOL    HW116159   0.048   6.790   4.221 -0.9253 -0.5584  0.3828
 4906SOL    HW216160   0.051   6.809   4.071  0.8687  2.9952  0.7690
 4907SOL     OW16161   1.892   7.018   5.663 -0.4556 -0.3227 -0.0816
 4907SOL    HW116162   1.987   7.004   5.652 -0.5785 -0.5517 -0.9514
 4907SOL    HW216163   1.878   7.013   5.757  0.3470 -0.6912  0.0311
 4908SOL     OW16164   6.608   6.668   3.486  0.3784 -0.2621  0.5066
 4908SOL    HW116165   6.592   6.655   3.579 -2.2165  1.6427  0.4399
 4908SOL    HW216166   6.548   6.607   3.442 -0.8957  1.1435  0.1818
 4909SOL     OW16167   0.730   5.113   5.396  0.6130  0.4072 -0.7814
 4909SOL    HW116168   0.804   5.091   5.340  0.4757  0.0642 -0.8297
 4909SOL    HW216169   0.673   5.166   5.340  0.4590  0.0360 -0.9820
 4910SOL     OW16170   1.207   7.338   5.515 -0.6321  0.4763  0.2473
 4910SOL    HW116171   1.157   7.265   5.477  1.0781 -0.4623 -0.3517
 4910SOL    HW216172   1.274   7.295   5.569  0.1140  1.6333  0.2786
 4911SOL     OW16173   1.318   5.050   6.555  0.0500  0.0334 -0.2413
 4911SOL    HW116174   1.348   4.979   6.612  0.1798 -0.4102 -0.8603
 4911SOL    HW216175   1.268   5.007   6.486  0.0826  0.5463 -0.5917
 4912SOL     OW16176   1.085   4.736   6.563  0.1355  0.2740 -0.0465
 4912SOL    HW116177   1.056   4.755   6.652 -1.1916 -1.4697 -0.0509
 4912SOL    HW216178   1.073   4.818   6.516 -0.6416  0.7984  1.0286
 4913SOL     OW16179   7.968   7.835   7.349 -0.2784 -0.6428  0.2162
 4913SOL    HW116180   7.990   7.928   7.353  0.7906 -0.8826  0.1710
 4913SOL    HW216181   7.922   7.818   7.432 -2.4672  0.3852 -0.7226
 4914SOL     OW16182   0.698   5.584   7.293  0.3515 -0.0080 -0.0012
 4914SOL    HW116183   0.619   5.609   7.245 -0.8168 -0.4374  1.6156
 4914SOL    HW216184   0.696   5.488   7.293  0.4103 -0.0116  0.7734
 4915SOL     OW16185   0.378   0.387   6.300 -0.2295  0.3914  0.1346
 4915SOL    HW116186   0.445   0.334   6.256 -0.9395 -1.3429  1.0203
 4915SOL    HW216187   0.327   0.323   6.350 -1.2253  1.9296  1.1658
 4916SOL     OW16188   2.855   6.108   4.836 -0.1777 -0.6426 -0.2202
 4916SOL    HW116189   2.834   6.176   4.771 -1.8719 -0.5228  0.3829
 4916SOL    HW216190   2.913   6.047   4.791 -0.6410 -0.1039 -1.5727
 4917SOL     OW16191   1.192   6.035   7.758 -0.0387  0.1503  0.5919
 4917SOL    HW116192   1.253   6.002   7.824 -1.6325  0.5485  2.3393
 4917SOL    HW216193   1.109   5.990   7.777 -0.8559  1.1952 -0.3691
 4918SOL     OW16194   1.104   5.153   7.538 -0.1950 -0.0677 -0.3745
 4918SOL    HW116195   1.177   5.211   7.517 -0.8885  0.9311 -0.1087
 4918SOL    HW216196   1.109   5.083   7.472  2.0030 -0.9741  0.6723
 4919SOL     OW16197   2.021   7.167   5.095  0.0632 -0.5136 -0.5273
 4919SOL    HW116198   2.090   7.194   5.156  0.0384 -2.6930  0.5712
 4919SOL    HW216199   2.062   7.104   5.038 -0.6771 -0.7637 -0.7976
 4920SOL     OW16200   1.472   6.434   8.425 -0.3115 -0.0681 -0.1148
 4920SOL    HW116201   1.540   6.369   8.409 -0.2515 -0.0242 -0.0386
 4920SOL    HW216202   1.470   6.487   8.345 -2.5113 -2.0640 -1.5201
 4921SOL     OW16203   0.911   6.109   8.605  0.3305  0.2761 -0.4905
 4921SOL    HW116204   0.853   6.184   8.587  1.8942  1.7205  0.1947
 4921SOL    HW216205   0.855   6.045   8.648 -1.0414  1.0923 -0.9825
 4922SOL     OW16206   1.759   6.410   6.775 -0.5206 -0.2581  0.1052
 4922SOL    HW116207   1.759   6.320   6.807 -0.6875 -0.4267 -0.3651
 4922SOL    HW216208   1.716   6.460   6.844 -0.0105 -0.4568  0.5803
 4923SOL     OW16209   2.040   6.734   6.996  0.1093 -0.1537  0.4997
 4923SOL    HW116210   2.131   6.734   6.967 -0.0173 -0.1059  0.0879
 4923SOL    HW216211   2.028   6.820   7.037  0.2565 -0.1703  0.5788
 4924SOL     OW16212   1.561   5.198   5.108  0.1567 -0.0135 -0.0746
 4924SOL    HW116213   1.545   5.151   5.189  0.4362  0.2497  0.1392
 4924SOL    HW216214   1.657   5.208   5.104  0.0211  2.3939  0.9771
 4925SOL     OW16215   7.685   0.089   6.498 -0.1867 -0.2124  0.4814
 4925SOL    HW116216   7.730   0.151   6.557 -0.2925  1.4265 -1.0742
 4925SOL    HW216217   7.595   0.122   6.493  0.1533  0.5034 -1.6156
 4926SOL     OW16218   3.089   7.176   8.997  0.0298  0.0420  0.0908
 4926SOL    HW116219   3.001   7.192   9.032 -0.0604  0.3933 -0.2844
 4926SOL    HW216220   3.075   7.163   8.903  0.4588  0.8322 -0.0887
 4927SOL     OW16221   7.548   5.865   6.795  0.4346 -0.3841 -0.3463
 4927SOL    HW116222   7.537   5.802   6.867 -1.2245  1.7599  1.4503
 4927SOL    HW216223   7.463   5.910   6.791  1.1978  0.9899 -2.2695
 4928SOL     OW16224   7.899   6.413   7.775 -0.1246  0.2554  0.4592
 4928SOL    HW116225   7.809   6.430   7.804 -0.4205  0.5444 -0.5799
 4928SOL    HW216226   7.888   6.369   7.691  0.7093  1.3536 -0.2441
 4929SOL     OW16227   7.506   7.495   5.934 -0.0275  0.0342 -0.7342
 4929SOL    HW116228   7.596   7.486   5.965 -0.5013 -2.9263  0.1082
 4929SOL    HW216229   7.464   7.553   5.998 -0.2272 -3.6079  2.8234
 4930SOL     OW16230   0.021   6.240   6.224  0.0089  0.0875 -0.4439
 4930SOL    HW116231  -0.005   6.183   6.296 -0.8874 -0.8547 -1.4683
 4930SOL    HW216232   0.074   6.308   6.265  0.6389 -1.1620  0.9069
 4931SOL     OW16233   2.488   4.411   7.488  0.4869 -0.1478  0.4002
 4931SOL    HW116234   2.569   4.360   7.480  1.5169  1.3906  0.5519
 4931SOL    HW216235   2.513   4.500   7.461 -0.9277  0.5521  1.2759
 4932SOL     OW16236   7.463   6.288   6.440  0.3259  0.7504  0.6885
 4932SOL    HW116237   7.423   6.328   6.517 -0.1652  2.2919 -0.3038
 4932SOL    HW216238   7.557   6.308   6.449  0.6095 -0.9732  1.9329
 4933SOL     OW16239   2.081   6.408   5.341  0.0589  0.4269 -0.1952
 4933SOL    HW116240   2.074   6.328   5.392  0.2604  1.2224  1.1373
 4933SOL    HW216241   2.173   6.433   5.350  0.0410  0.6925 -0.7694
 4934SOL     OW16242   6.782   7.100   7.051 -0.1371 -0.7125  0.6855
 4934SOL    HW116243   6.720   7.102   7.124  0.1832  2.5165  1.0244
 4934SOL    HW216244   6.727   7.105   6.973 -0.4521  1.4964  0.9678
 4935SOL     OW16245   1.032   5.790   7.520  0.2440 -0.1861  0.3562
 4935SOL    HW116246   0.993   5.756   7.600  0.1370 -1.5645 -0.2356
 4935SOL    HW216247   1.126   5.789   7.537  0.2011 -0.1432  0.5911
 4936SOL     OW16248   1.413   5.546   5.465 -0.1892 -0.1419  0.2440
 4936SOL    HW116249   1.324   5.566   5.495 -0.0382  0.2858  0.4100
 4936SOL    HW216250   1.470   5.590   5.528  0.2194 -2.8996  1.9739
 4937SOL     OW16251   0.143   6.457   7.157 -0.1312 -0.4410 -0.2495
 4937SOL    HW116252   0.053   6.489   7.145 -0.6940 -1.4633  1.0313
 4937SOL    HW216253   0.180   6.514   7.224 -0.5094 -1.2596  0.6734
 4938SOL     OW16254   2.037   6.883   6.226  0.4974 -0.1306 -0.4319
 4938SOL    HW116255   2.018   6.789   6.235  2.0937 -0.3910  0.6876
 4938SOL    HW216256   1.956   6.926   6.254  0.0004 -1.1636 -0.2194
 4939SOL     OW16257   3.028   5.127   7.937 -0.1831 -0.5383  0.5297
 4939SOL    HW116258   2.972   5.145   8.013 -2.2386 -1.7576 -0.5977
 4939SOL    HW216259   3.042   5.213   7.898  2.4450  0.3936  3.1760
 4940SOL     OW16260   0.592   4.931   5.175  0.4130 -0.1832 -0.1716
 4940SOL    HW116261   0.664   4.982   5.139  0.1686  0.1572 -0.1855
 4940SOL    HW216262   0.583   4.962   5.265  2.1980 -2.2919  0.8084
 4941SOL     OW16263   0.447   0.254   5.662 -0.0441 -0.3837 -0.0483
 4941SOL    HW116264   0.435   0.267   5.568 -0.6176  0.3286  0.1126
 4941SOL    HW216265   0.373   0.300   5.702  0.8114  0.3128  0.7892
 4942SOL     OW16266   1.999   6.341   7.249 -0.4249 -0.2100 -0.4871
 4942SOL    HW116267   1.987   6.404   7.178 -1.2696 -2.0080 -2.0303
 4942SOL    HW216268   2.013   6.258   7.205  1.1663 -1.0635  1.4854
 4943SOL     OW16269   2.497   6.868   6.279 -0.5677  0.2703  0.0819
 4943SOL    HW116270   2.504   6.865   6.184  1.3775 -0.1393  0.1946
 4943SOL    HW216271   2.446   6.947   6.297 -0.3118  0.7734 -1.2751
 4944SOL     OW16272   0.133   4.892   7.692  0.1209 -0.0045 -0.0368
 4944SOL    HW116273   0.063   4.957   7.688 -0.4414 -0.6381 -0.8423
 4944SOL    HW216274   0.211   4.939   7.661  0.4305  1.1299  2.2486
 4945SOL     OW16275   3.101   7.298   6.131 -0.2131 -0.1602  0.1434
 4945SOL    HW116276   3.046   7.234   6.086 -0.7135 -0.4659  1.1533
 4945SOL    HW216277   3.190   7.263   6.125 -0.1894  0.0442 -0.9892
 4946SOL     OW16278   0.882   6.335   7.641  0.6124 -0.1812  0.1073
 4946SOL    HW116279   0.936   6.314   7.718  1.4825 -2.2707 -0.9901
 4946SOL    HW216280   0.943   6.328   7.567 -0.5457  0.3059 -0.9277
 4947SOL     OW16281   0.044   7.026   5.973  0.3123  0.4169 -0.9599
 4947SOL    HW116282   0.001   7.057   6.053 -0.7441  0.9955 -1.7363
 4947SOL    HW216283  -0.026   7.022   5.908  0.9091 -1.2429 -1.5481
 4948SOL     OW16284   0.713   5.487   6.451  0.0893  0.1857 -0.3089
 4948SOL    HW116285   0.645   5.421   6.438 -1.9259  2.1507 -0.3806
 4948SOL    HW216286   0.745   5.471   6.539 -1.1428 -0.2361  0.0917
 4949SOL     OW16287   1.192   7.610   6.328  0.0904  0.5624 -0.7252
 4949SOL    HW116288   1.252   7.596   6.255  0.0128 -0.1441 -0.6523
 4949SOL    HW216289   1.106   7.585   6.295  0.1506 -0.3573 -0.2030
 4950SOL     OW16290   6.478   6.635   6.945 -0.0552  0.0448 -0.1227
 4950SOL    HW116291   6.532   6.557   6.963  0.0813 -0.0957 -1.0603
 4950SOL    HW216292   6.427   6.648   7.025  1.2958  0.1248  0.7586
 4951SOL     OW16293   1.559   6.092   7.419  0.1736  0.2986  0.6035
 4951SOL    HW116294   1.631   6.144   7.456 -0.0233  0.9665  0.0802
 4951SOL    HW216295   1.482   6.148   7.430 -0.1999 -0.2580  0.8246
 4952SOL     OW16296   1.644   5.716   5.045  0.1322  0.1651  0.4598
 4952SOL    HW116297   1.630   5.709   4.951 -1.8336  1.3197  0.5903
 4952SOL    HW216298   1.663   5.627   5.073  1.7901 -0.0386 -1.1344
 4953SOL     OW16299   7.714   5.073   6.379  0.1080 -0.5685 -0.0549
 4953SOL    HW116300   7.730   4.986   6.414  1.0684 -0.4822 -0.2699
 4953SOL    HW216301   7.798   5.118   6.384 -0.6020  0.7118  1.0455
 4954SOL     OW16302   2.256   5.336   5.784 -0.3146  0.0507  0.2141
 4954SOL    HW116303   2.206   5.257   5.763 -1.8837  1.1982 -0.6166
 4954SOL    HW216304   2.265   5.333   5.879  0.1085 -1.3753  0.1517
 4955SOL     OW16305   6.693   6.104   6.451 -0.5238 -0.0227  0.6356
 4955SOL    HW116306   6.748   6.085   6.526  0.3498 -1.2601 -0.2758
 4955SOL    HW216307   6.700   6.199   6.440 -0.1727  0.0940  1.7316
 4956SOL     OW16308   1.023   5.647   8.099 -0.3519  0.0378 -0.8919
 4956SOL    HW116309   1.081   5.662   8.024  1.0053  0.7138  0.2251
 4956SOL    HW216310   1.074   5.591   8.157 -1.1640 -0.0399 -0.2473
 4957SOL     OW16311   0.801   4.816   5.929 -0.2751  0.2023  0.2769
 4957SOL    HW116312   0.825   4.810   6.022  0.1473  0.9671  0.2251
 4957SOL    HW216313   0.869   4.765   5.884 -0.0119  0.5075  0.3233
 4958SOL     OW16314   1.407   5.686   6.036 -0.1429 -0.2993  0.1986
 4958SOL    HW116315   1.328   5.676   5.982 -0.0511  0.6033 -0.1328
 4958SOL    HW216316   1.376   5.681   6.126 -1.2903  3.8549  0.2316
 4959SOL     OW16317   0.550   7.710   5.132  0.0281  0.5478 -0.4553
 4959SOL    HW116318   0.596   7.762   5.199  1.7977 -0.7761 -0.5650
 4959SOL    HW216319   0.579   7.620   5.147 -0.3414  0.0632 -2.3551
 4960SOL     OW16320   1.207   5.569   5.843 -0.0174 -0.4469 -0.3233
 4960SOL    HW116321   1.120   5.597   5.870  0.1655 -0.2200  0.0452
 4960SOL    HW216322   1.198   5.476   5.825 -0.7905 -0.0512 -2.2105
 4961SOL     OW16323   1.865   1.099   4.514  0.3705  0.1939  0.1261
 4961SOL    HW116324   1.844   1.063   4.600 -1.3916 -0.1453 -0.4141
 4961SOL    HW216325   1.789   1.150   4.489 -0.1525 -1.5012 -2.1457
 4962SOL     OW16326   0.416   5.658   6.670  0.4957  0.6407  0.1030
 4962SOL    HW116327   0.499   5.705   6.663  1.3270 -0.3366  2.2651
 4962SOL    HW216328   0.395   5.632   6.581  2.0903  1.6305 -0.6107
 4963SOL     OW16329   1.645   0.219   5.886 -0.7383 -0.1927  0.0473
 4963SOL    HW116330   1.614   0.143   5.837  0.6252 -0.3453 -0.6352
 4963SOL    HW216331   1.740   0.217   5.876 -0.6166  1.2034  0.6204
 4964SOL     OW16332   2.036   5.670   8.120 -0.4969  0.1368  0.0212
 4964SOL    HW116333   2.027   5.659   8.215  0.5976 -0.5956  0.0512
 4964SOL    HW216334   1.991   5.753   8.102  0.0233  0.7329  1.3002
 4965SOL     OW16335   6.369   6.771   5.270 -0.1792  0.1328  0.6771
 4965SOL    HW116336   6.459   6.749   5.292  0.1976 -1.4789 -2.0029
 4965SOL    HW216337   6.359   6.862   5.298  0.8997 -0.7823  4.7057
 4966SOL     OW16338   0.851   6.621   7.041 -0.2876  0.4068 -0.2445
 4966SOL    HW116339   0.794   6.554   7.079 -0.5825 -1.2727 -3.2895
 4966SOL    HW216340   0.889   6.578   6.964  0.6996  3.3017 -1.5003
 4967SOL     OW16341   1.478   6.098   5.818 -0.0538 -0.3084 -0.3740
 4967SOL    HW116342   1.496   6.015   5.774  0.7545 -0.6243  0.5145
 4967SOL    HW216343   1.385   6.094   5.839  0.0458 -1.1566 -0.0421
 4968SOL     OW16344   7.746   0.003   6.253  0.1074 -0.3918  0.4846
 4968SOL    HW116345   7.839  -0.020   6.256  0.7181  1.6798 -1.0501
 4968SOL    HW216346   7.727   0.037   6.340  1.5406  1.7322  0.0212
 4969SOL     OW16347   1.402   4.905   7.871 -0.2369 -1.2464 -0.3850
 4969SOL    HW116348   1.345   4.982   7.880  0.6808 -0.7676  2.2045
 4969SOL    HW216349   1.375   4.865   7.788 -2.8947  0.0980 -0.2832
 4970SOL     OW16350   1.833   5.402   6.597 -0.4765 -0.0692  0.1469
 4970SOL    HW116351   1.839   5.308   6.615 -1.0418 -0.2304 -0.4781
 4970SOL    HW216352   1.864   5.443   6.678  0.9271 -0.7860  0.0020
 4971SOL     OW16353   0.289   0.643   6.610  0.2884  0.5076  0.0743
 4971SOL    HW116354   0.259   0.552   6.612  0.2743  0.4865 -0.6351
 4971SOL    HW216355   0.209   0.695   6.623  0.3882  0.4175  1.1081
 4972SOL     OW16356   1.525   5.394   5.982 -0.1471 -0.0137  0.0303
 4972SOL    HW116357   1.606   5.401   6.033 -0.2086 -0.9005  0.2591
 4972SOL    HW216358   1.498   5.485   5.968 -1.3093  0.3077  3.4454
 4973SOL     OW16359   6.451   0.164   7.843  0.1472 -0.1168  0.2484
 4973SOL    HW116360   6.404   0.248   7.838  0.1642  0.0839  2.4736
 4973SOL    HW216361   6.505   0.163   7.764 -3.2714 -0.2319 -2.3525
 4974SOL     OW16362   0.533   0.880   8.414  0.7504 -0.1194 -0.2250
 4974SOL    HW116363   0.447   0.913   8.387  1.0292  1.0204  0.2205
 4974SOL    HW216364   0.537   0.898   8.508  1.6152  0.1751 -0.3111
 4975SOL     OW16365   0.372   6.367   7.445 -0.2002 -0.6254 -0.1146
 4975SOL    HW116366   0.305   6.378   7.513  0.2085  1.9573 -0.0150
 4975SOL    HW216367   0.453   6.397   7.486  0.3133 -0.3025 -1.3262
 4976SOL     OW16368   1.739   6.157   7.005  0.0957 -0.3387 -0.0166
 4976SOL    HW116369   1.745   6.182   7.097  0.7169 -0.5549  0.0029
 4976SOL    HW216370   1.822   6.114   6.986 -0.2787 -0.8511 -0.5117
 4977SOL     OW16371   7.729   4.325   5.855  0.4457 -0.2184  0.2089
 4977SOL    HW116372   7.693   4.237   5.838 -1.1572  0.4266  0.0808
 4977SOL    HW216373   7.694   4.348   5.941  1.0824  0.1998  0.3622
 4978SOL     OW16374   7.726   5.012   7.369  0.0060  0.2499  0.4201
 4978SOL    HW116375   7.808   4.963   7.381 -0.1034  0.0806  0.4758
 4978SOL    HW216376   7.672   4.987   7.444 -0.8793 -1.1968 -0.6514
 4979SOL     OW16377   0.727   0.912   6.296  0.6201 -0.4442 -0.3174
 4979SOL    HW116378   0.763   0.926   6.384  0.1942  3.4437 -0.6117
 4979SOL    HW216379   0.803   0.913   6.238  0.7379 -1.2565 -0.1946
 4980SOL     OW16380   1.197   5.983   5.690 -0.2167 -0.0523  0.1181
 4980SOL    HW116381   1.159   5.973   5.602  1.8011  0.1895 -0.8471
 4980SOL    HW216382   1.279   5.934   5.686 -0.0740 -0.0031  1.8771
 4981SOL     OW16383   1.142   7.715   6.843  0.1428 -0.6413  0.6656
 4981SOL    HW116384   1.071   7.766   6.803  0.0996  0.6851  2.2963
 4981SOL    HW216385   1.212   7.778   6.858  1.2111 -1.6769  0.2207
 4982SOL     OW16386   1.887   5.398   5.532 -0.3444 -0.0069  0.2863
 4982SOL    HW116387   1.807   5.365   5.490 -0.4722  1.3916 -0.6713
 4982SOL    HW216388   1.856   5.436   5.614 -0.5944  0.0798  0.1548
 4983SOL     OW16389   1.206   3.985   5.093  0.3416  0.4064 -0.4727
 4983SOL    HW116390   1.298   3.983   5.116  0.1189 -0.6862  0.3619
 4983SOL    HW216391   1.176   3.895   5.102 -0.5398  0.5192 -1.8915
 4984SOL     OW16392   2.247   7.356   7.458  0.3403 -0.0455  0.2199
 4984SOL    HW116393   2.193   7.435   7.462 -0.2584 -0.4743  0.8205
 4984SOL    HW216394   2.291   7.352   7.543 -1.0378 -1.3098  0.9186
 4985SOL     OW16395   7.453   4.684   7.460  0.3802 -0.1253  0.3491
 4985SOL    HW116396   7.499   4.708   7.379 -1.0659  1.1114 -0.1485
 4985SOL    HW216397   7.384   4.625   7.431 -1.9004  2.4291  0.1662
 4986SOL     OW16398   2.755   4.459   6.402 -0.3820 -0.3340 -0.4230
 4986SOL    HW116399   2.845   4.492   6.405  0.0310 -1.4837  0.1694
 4986SOL    HW216400   2.762   4.365   6.417 -1.8228 -0.2054  1.4878
 4987SOL     OW16401   3.200   6.892   6.828  0.2586  0.5216  0.2820
 4987SOL    HW116402   3.204   6.877   6.923 -0.6989 -1.5359  0.0590
 4987SOL    HW216403   3.115   6.932   6.813 -1.2471 -2.4581  0.0302
 4988SOL     OW16404   0.711   0.078   6.601 -0.1766 -0.7541  0.0401
 4988SOL    HW116405   0.619   0.069   6.575 -0.6363  0.4636  1.1337
 4988SOL    HW216406   0.754   0.001   6.564 -1.5178 -1.0509 -0.9877
 4989SOL     OW16407   0.428   0.425   5.108 -0.2662 -0.3362 -0.0045
 4989SOL    HW116408   0.433   0.377   5.025 -0.6824  0.6907 -0.6437
 4989SOL    HW216409   0.339   0.460   5.110  0.2849  1.1489  0.0007
 4990SOL     OW16410   1.601   7.950   6.495 -0.5551  0.0743 -0.7753
 4990SOL    HW116411   1.656   7.875   6.516  1.1125  1.7046  1.1675
 4990SOL    HW216412   1.531   7.914   6.441  0.5265 -2.7255 -0.4965
 4991SOL     OW16413   0.933   5.659   5.841  0.0594 -0.1136  0.2515
 4991SOL    HW116414   0.883   5.680   5.920  0.4305 -0.5892  0.6208
 4991SOL    HW216415   0.868   5.626   5.779  0.0923 -2.0990  1.2263
 4992SOL     OW16416   1.513   6.637   7.450 -0.1048 -0.3727 -0.3084
 4992SOL    HW116417   1.535   6.618   7.541 -0.0734 -0.1181 -0.2621
 4992SOL    HW216418   1.494   6.731   7.449  1.0854 -0.1231 -0.7969
 4993SOL     OW16419   6.283   7.345   5.524 -0.5722  0.1651 -0.3987
 4993SOL    HW116420   6.292   7.281   5.453  0.9565 -1.2571  0.9757
 4993SOL    HW216421   6.240   7.296   5.594  0.6224  0.6033  0.6771
 4994SOL     OW16422   7.808   7.010   5.814 -0.0508  0.0800  0.5154
 4994SOL    HW116423   7.827   6.994   5.722  0.3253  0.8750  0.4418
 4994SOL    HW216424   7.731   6.957   5.832  0.4661 -0.8602  0.0147
 4995SOL     OW16425   1.078   5.315   6.855  0.2454  0.0991  0.7270
 4995SOL    HW116426   0.999   5.270   6.886  0.9223 -0.5666  1.5547
 4995SOL    HW216427   1.147   5.285   6.915  1.2528  0.1591 -0.3762
 4996SOL     OW16428   1.912   5.626   5.189 -0.0086 -0.4173 -0.0480
 4996SOL    HW116429   1.843   5.560   5.201  1.6511 -2.1510  0.4741
 4996SOL    HW216430   1.975   5.584   5.131  0.2223  1.4963 -1.2759
 4997SOL     OW16431   0.552   7.475   7.312  0.6694  0.4640 -0.0925
 4997SOL    HW116432   0.533   7.393   7.266  2.0041  1.4451 -2.6107
 4997SOL    HW216433   0.648   7.481   7.312  0.6006  2.7835 -1.5557
 4998SOL     OW16434   1.722   4.045   5.254  0.2845  0.1176  0.3066
 4998SOL    HW116435   1.795   3.997   5.293 -0.2074 -0.6355  0.3086
 4998SOL    HW216436   1.676   4.084   5.329 -0.6363 -1.2943  0.5148
 4999SOL     OW16437   1.064   5.252   4.117 -0.1708 -0.2249  0.3658
 4999SOL    HW116438   1.061   5.329   4.174 -0.8035  0.3909 -0.4857
 4999SOL    HW216439   1.010   5.275   4.042  0.2355 -1.2233 -0.2537
 5000SOL     OW16440   2.551   5.305   4.619  0.1498 -0.6483 -0.0121
 5000SOL    HW116441   2.533   5.267   4.533 -0.6526  0.1157 -0.2022
 5000SOL    HW216442   2.566   5.398   4.602  2.3114 -0.8672  0.4123
 5001SOL     OW16443   2.679   5.645   5.653  0.1679 -0.2866 -0.0366
 5001SOL    HW116444   2.769   5.678   5.655  0.2916 -0.5945 -0.5353
 5001SOL    HW216445   2.664   5.612   5.742  0.7950 -0.8893 -0.1484
 5002SOL     OW16446   1.470   5.740   5.270  0.2284 -0.1772  0.6372
 5002SOL    HW116447   1.442   5.674   5.334 -2.3943 -1.0262 -1.1855
 5002SOL    HW216448   1.499   5.689   5.194  0.1191  0.7572 -0.0507
 5003SOL     OW16449   2.095   6.467   7.479  0.2259  0.7161 -0.2829
 5003SOL    HW116450   2.176   6.509   7.450 -0.8826  1.9455 -1.7821
 5003SOL    HW216451   2.082   6.395   7.418 -0.8290  1.7764 -1.3515
 5004SOL     OW16452   0.751   0.508   8.111  0.0233 -0.0877 -0.0230
 5004SOL    HW116453   0.810   0.539   8.179 -1.8621 -0.6934  1.9813
 5004SOL    HW216454   0.687   0.578   8.101 -0.9851 -0.9191  0.4550
 5005SOL     OW16455   2.196   7.087   7.540 -0.1505 -0.1309  0.5975
 5005SOL    HW116456   2.224   7.179   7.537  1.0879 -0.4886  0.5596
 5005SOL    HW216457   2.194   7.065   7.633  0.3473 -0.2886  0.5736
 5006SOL     OW16458   1.062   7.935   8.556 -0.3919  0.8359 -0.1186
 5006SOL    HW116459   0.994   7.967   8.615 -1.3122  0.7852 -1.1155
 5006SOL    HW216460   1.019   7.866   8.505  0.5798  0.3947 -0.3673
 5007SOL     OW16461   2.188   1.086   8.629  0.5951  0.1822  0.0509
 5007SOL    HW116462   2.250   1.080   8.556 -1.1377  0.0316 -1.4928
 5007SOL    HW216463   2.125   1.152   8.601 -0.2537 -0.0713  1.3103
 5008SOL     OW16464   1.336   6.387   7.749 -0.4721  0.2683 -0.4263
 5008SOL    HW116465   1.392   6.464   7.761  0.6760 -0.7300  0.9540
 5008SOL    HW216466   1.397   6.314   7.738 -1.5356 -0.4546 -1.9238
 5009SOL     OW16467   2.212   6.242   7.908  0.0299 -0.1004  0.3660
 5009SOL    HW116468   2.307   6.251   7.899  0.0565 -0.2659  0.4729
 5009SOL    HW216469   2.176   6.306   7.847  0.2029 -1.0560 -0.7801
 5010SOL     OW16470   1.178   5.595   5.569 -0.0384 -0.5462  0.1964
 5010SOL    HW116471   1.103   5.541   5.542 -2.0330  1.6968  0.9300
 5010SOL    HW216472   1.169   5.603   5.663 -0.2590  1.6382  0.0309
 5011SOL     OW16473   6.067   5.269   6.900  0.4666  0.3267 -0.0009
 5011SOL    HW116474   6.074   5.263   6.995 -0.4747  0.8585  0.1126
 5011SOL    HW216475   6.015   5.194   6.874  1.7651 -0.5180 -0.2464
 5012SOL     OW16476   2.527   7.213   6.445 -0.3738 -0.1231 -0.2993
 5012SOL    HW116477   2.441   7.218   6.404 -0.6250  0.9008  0.3145
 5012SOL    HW216478   2.589   7.219   6.372 -0.8200  0.4094 -0.6398
 5013SOL     OW16479   0.501   7.237   8.335 -0.1918 -0.3690 -0.5618
 5013SOL    HW116480   0.448   7.229   8.255  0.0065 -0.4510 -0.6844
 5013SOL    HW216481   0.572   7.175   8.323 -0.3585 -0.6388 -0.1638
 5014SOL     OW16482   0.298   5.812   6.885 -0.4923 -0.2450 -0.3437
 5014SOL    HW116483   0.349   5.781   6.811  1.7416  0.3126  0.8586
 5014SOL    HW216484   0.326   5.903   6.897 -0.4127 -0.4601  1.4492
 5015SOL     OW16485   7.667   5.385   6.798  0.3431  0.3187 -0.0975
 5015SOL    HW116486   7.710   5.305   6.768  0.5145  0.1623  0.5572
 5015SOL    HW216487   7.654   5.436   6.718  1.4120  0.2070 -0.3558
 5016SOL     OW16488   0.989   6.806   3.976 -0.0824  0.3467  0.2579
 5016SOL    HW116489   1.084   6.794   3.982 -0.1523 -0.5185 -0.0953
 5016SOL    HW216490   0.969   6.876   4.038  0.9303  1.3856 -0.5421
 5017SOL     OW16491   1.321   0.440   7.171 -0.4039  0.0388  0.4039
 5017SOL    HW116492   1.305   0.464   7.262  3.0870  1.3306  0.8299
 5017SOL    HW216493   1.402   0.389   7.174  0.9699  1.8822 -2.1419
 5018SOL     OW16494   1.680   7.855   5.191 -0.3092  0.3603 -0.1816
 5018SOL    HW116495   1.593   7.881   5.221 -0.3137 -1.3282  1.4603
 5018SOL    HW216496   1.683   7.882   5.099 -2.9577 -0.3851 -0.5713
 5019SOL     OW16497   0.969   5.912   7.808 -0.9153  0.1049  0.3078
 5019SOL    HW116498   0.928   5.828   7.786 -0.1339 -0.7901  2.0394
 5019SOL    HW216499   0.895   5.969   7.831 -1.3970 -0.3890  0.0291
 5020SOL     OW16500   7.244   7.685   7.715  0.4426  0.3053 -0.1442
 5020SOL    HW116501   7.172   7.642   7.669  1.1348  0.7409 -1.7035
 5020SOL    HW216502   7.316   7.622   7.710  0.9082  0.8728 -0.8283
 5021SOL     OW16503   1.578   4.588   8.556  0.0879 -0.5523  0.0942
 5021SOL    HW116504   1.503   4.579   8.498  0.0619 -0.5540  0.1284
 5021SOL    HW216505   1.652   4.558   8.505  0.1261 -0.1711 -0.0811
 5022SOL     OW16506   1.128   6.656   8.367  0.0158 -0.3402  0.5131
 5022SOL    HW116507   1.136   6.589   8.435  1.3795 -1.3247 -0.5718
 5022SOL    HW216508   1.180   6.729   8.400  0.4995 -0.7317  0.6300
 5023SOL     OW16509   0.580   6.843   7.918 -0.7168 -0.4003  0.1917
 5023SOL    HW116510   0.660   6.860   7.968 -0.7829 -0.5977  0.3689
 5023SOL    HW216511   0.517   6.815   7.984 -0.8360 -0.5620  0.0085
 5024SOL     OW16512   1.903   6.615   5.972 -0.1878 -0.2511 -0.2649
 5024SOL    HW116513   1.962   6.681   5.936  2.2416 -1.4171  1.3395
 5024SOL    HW216514   1.898   6.636   6.065 -1.2027 -1.0067 -0.1352
 5025SOL     OW16515   7.536   7.659   4.419  0.1113 -0.4910  0.4076
 5025SOL    HW116516   7.576   7.572   4.422 -0.5467 -0.8745 -1.2086
 5025SOL    HW216517   7.575   7.701   4.342 -1.7070 -0.4568 -0.5529
 5026SOL     OW16518   0.862   5.960   5.843 -0.0248  0.2794  0.2467
 5026SOL    HW116519   0.894   5.870   5.832  0.1623  0.5763 -2.4371
 5026SOL    HW216520   0.941   6.013   5.849 -0.0957  0.4313 -0.1308
 5027SOL     OW16521   7.928   5.493   6.357  0.3572  0.1532 -0.5933
 5027SOL    HW116522   7.956   5.582   6.379 -0.1361 -0.0956  1.2574
 5027SOL    HW216523   8.010   5.447   6.337  0.9684  0.3331  1.2458
 5028SOL     OW16524   6.681   5.300   7.395 -0.3636  0.0958 -0.5016
 5028SOL    HW116525   6.661   5.307   7.488 -0.2668  1.2111 -0.5548
 5028SOL    HW216526   6.776   5.292   7.391 -0.2137  1.5837 -0.5528
 5029SOL     OW16527   2.105   6.334   5.073  0.0348 -0.3760 -0.6234
 5029SOL    HW116528   2.123   6.425   5.053 -1.3100 -0.3588 -1.9751
 5029SOL    HW216529   2.127   6.324   5.165  1.2661  1.0119 -0.7369
 5030SOL     OW16530   3.449   7.389   7.031  0.2290  0.1490  0.0998
 5030SOL    HW116531   3.398   7.428   7.101  0.4118  0.3453  0.1261
 5030SOL    HW216532   3.422   7.297   7.030  0.0959  0.1843  0.3083
 5031SOL     OW16533   2.551   7.018   6.616 -0.5702 -0.1455 -0.2957
 5031SOL    HW116534   2.560   7.099   6.565 -0.1135  0.2843  0.4531
 5031SOL    HW216535   2.457   7.008   6.628 -0.5929  0.9495  0.6460
 5032SOL     OW16536   2.728   4.944   5.998 -0.3457 -0.2372 -0.1418
 5032SOL    HW116537   2.729   4.850   6.015 -2.6808 -0.5545 -1.3606
 5032SOL    HW216538   2.820   4.968   5.986  0.3977 -2.0786  1.5328
 5033SOL     OW16539   1.374   5.988   7.952 -0.2434 -0.1656 -0.5569
 5033SOL    HW116540   1.436   6.049   7.912 -0.5535  0.6179  0.1276
 5033SOL    HW216541   1.423   5.906   7.959  0.0768 -0.1004 -1.7710
 5034SOL     OW16542   1.166   7.501   7.032  0.9593  0.4485  0.0855
 5034SOL    HW116543   1.133   7.584   6.997 -0.9692 -0.5343 -0.5543
 5034SOL    HW216544   1.156   7.439   6.960  0.4978 -0.7798  1.1730
 5035SOL     OW16545   3.193   0.910   6.028 -0.0604 -0.0573 -0.1532
 5035SOL    HW116546   3.107   0.949   6.019 -0.3951 -0.5786  0.6448
 5035SOL    HW216547   3.253   0.984   6.039 -0.4040  0.3035 -0.6780
 5036SOL     OW16548   0.108   5.935   8.019  0.0737  0.6239 -0.3740
 5036SOL    HW116549   0.057   5.942   7.938  1.4342  1.0866 -1.2391
 5036SOL    HW216550   0.136   5.843   8.021 -0.7969  0.3593  0.1235
 5037SOL     OW16551   2.090   5.106   6.137 -0.6099 -0.5454 -0.5221
 5037SOL    HW116552   2.146   5.054   6.196 -0.2841 -0.1724 -0.4940
 5037SOL    HW216553   2.019   5.137   6.193  0.5387  1.1346  0.0949
 5038SOL     OW16554   0.950   7.528   6.214  0.3226  0.9639 -0.1613
 5038SOL    HW116555   0.876   7.583   6.188  0.5291  0.5148 -1.8141
 5038SOL    HW216556   0.938   7.447   6.164  1.2234  0.3841  0.5481
 5039SOL     OW16557   0.109   6.780   6.494 -0.1896 -0.0114 -0.1273
 5039SOL    HW116558   0.062   6.797   6.413  1.6152 -0.7386 -1.4050
 5039SOL    HW216559   0.148   6.693   6.481  3.3147  1.4074 -0.1795
 5040SOL     OW16560   1.960   4.776   6.881 -0.7095  0.2226 -0.3438
 5040SOL    HW116561   1.941   4.712   6.949 -2.3124  0.2649 -0.7229
 5040SOL    HW216562   2.054   4.765   6.863 -0.5801 -0.7675  0.8446
 5041SOL     OW16563   0.129   5.605   6.889  0.4360 -0.9497 -0.3898
 5041SOL    HW116564   0.183   5.683   6.902 -1.1920  0.3748 -1.2733
 5041SOL    HW216565   0.070   5.627   6.818  0.8577 -3.5410 -1.6761
 5042SOL     OW16566   2.049   3.752   6.455 -0.1558  0.7473 -0.5158
 5042SOL    HW116567   2.079   3.793   6.536 -0.5139 -0.2475  0.1517
 5042SOL    HW216568   2.044   3.658   6.477  2.0929  0.1018 -2.4133
 5043SOL     OW16569   6.261   5.720   4.960 -0.0759  0.0058 -0.3343
 5043SOL    HW116570   6.262   5.628   4.930 -1.7913  0.0398 -0.6096
 5043SOL    HW216571   6.326   5.723   5.030 -1.8934 -2.1216  1.5870
 5044SOL     OW16572   1.549   7.241   8.127 -0.0369 -0.3902  0.5492
 5044SOL    HW116573   1.489   7.182   8.173 -0.9970 -0.3271 -0.5612
 5044SOL    HW216574   1.507   7.327   8.133 -0.0938 -0.3482 -0.2523
 5045SOL     OW16575   2.147   6.159   5.537 -0.3818  0.3326  0.4450
 5045SOL    HW116576   2.118   6.207   5.614 -0.3724  1.2693 -0.1229
 5045SOL    HW216577   2.227   6.115   5.566 -1.0173 -0.2929  1.3038
 5046SOL     OW16578   1.759   6.816   8.393 -0.0792 -1.0565  0.2491
 5046SOL    HW116579   1.731   6.765   8.317  0.7890  0.0597 -0.8690
 5046SOL    HW216580   1.831   6.871   8.360 -0.0059 -0.1840  1.7550
 5047SOL     OW16581   0.866   6.978   6.684  0.4168 -0.9245  0.3154
 5047SOL    HW116582   0.825   7.062   6.702  0.2562 -0.9244 -0.0510
 5047SOL    HW216583   0.900   6.986   6.595  0.6117 -1.1637  0.3657
 5048SOL     OW16584   0.297   5.916   8.601 -0.9617  0.3647 -0.3516
 5048SOL    HW116585   0.206   5.940   8.620 -0.6869  2.6403 -1.4745
 5048SOL    HW216586   0.325   5.866   8.677 -1.3397  4.7917  3.1250
 5049SOL     OW16587   0.656   5.976   6.793  0.0279  0.3269  0.7502
 5049SOL    HW116588   0.622   6.065   6.791  1.1132  0.8200  2.3725
 5049SOL    HW216589   0.745   5.984   6.759 -0.6410 -0.5897 -1.3991
 5050SOL     OW16590   0.598   5.317   5.281  0.1476  0.2827  0.5510
 5050SOL    HW116591   0.520   5.364   5.311 -0.0427  0.0818  0.3671
 5050SOL    HW216592   0.589   5.313   5.186 -1.1336 -2.3818  0.6950
 5051SOL     OW16593   2.380   5.666   5.983 -0.6185 -0.0588 -0.0401
 5051SOL    HW116594   2.338   5.621   6.056  1.6751 -3.0391 -0.3882
 5051SOL    HW216595   2.317   5.662   5.912 -1.1507 -1.1418  0.4793
 5052SOL     OW16596   0.719   6.533   8.247  0.0927 -0.1422  0.3519
 5052SOL    HW116597   0.759   6.582   8.176 -1.4948  0.6619 -0.0432
 5052SOL    HW216598   0.625   6.544   8.233 -0.3011 -2.0158  1.1583
 5053SOL     OW16599   1.084   6.338   8.365  0.6351 -0.1880 -0.1593
 5053SOL    HW116600   1.103   6.379   8.281 -1.3988  2.4596  0.5185
 5053SOL    HW216601   0.989   6.326   8.366  0.5813 -0.0185  1.7758
 5054SOL     OW16602   0.925   6.845   7.460  0.5670 -0.0262 -0.0454
 5054SOL    HW116603   0.912   6.759   7.421 -0.0825  0.9065 -2.0011
 5054SOL    HW216604   1.020   6.852   7.472  0.6144 -1.0359  0.2766
 5055SOL     OW16605   1.044   5.409   6.221 -0.0041 -0.2832 -1.0870
 5055SOL    HW116606   0.953   5.439   6.227  0.6476  1.6443  0.0876
 5055SOL    HW216607   1.096   5.489   6.220  1.7682 -1.3383  0.0832
 5056SOL     OW16608   7.618   5.968   7.465  0.0422 -0.0774 -0.1696
 5056SOL    HW116609   7.611   5.964   7.369  0.2951  1.3718 -0.2665
 5056SOL    HW216610   7.531   5.941   7.496  0.1691 -1.2334 -0.7704
 5057SOL     OW16611   0.609   5.281   6.764  0.2772  0.4579  0.5290
 5057SOL    HW116612   0.522   5.317   6.786  0.0378 -0.2626  0.8089
 5057SOL    HW216613   0.606   5.192   6.797  0.8331  0.1523 -0.2253
 5058SOL     OW16614   0.904   5.740   6.117  0.4437  0.1253 -0.0282
 5058SOL    HW116615   0.967   5.703   6.179 -0.5921  1.7709  2.1662
 5058SOL    HW216616   0.941   5.825   6.094  0.0740  0.1823 -0.4179
 5059SOL     OW16617   1.522   5.947   6.148 -0.5117 -0.3575 -0.5948
 5059SOL    HW116618   1.596   5.938   6.089 -0.8424  1.6492 -1.4099
 5059SOL    HW216619   1.445   5.945   6.090 -1.1063 -2.0192  0.1918
 5060SOL     OW16620   0.661   0.342   6.199  0.1268  0.3678  0.0017
 5060SOL    HW116621   0.709   0.320   6.279  1.5863  1.0235 -0.6556
 5060SOL    HW216622   0.722   0.397   6.149 -0.2833 -0.9839 -2.0975
 5061SOL     OW16623   1.830   6.554   4.983 -0.1581  1.0006 -0.0824
 5061SOL    HW116624   1.903   6.594   4.936 -0.6703  1.4451 -0.5098
 5061SOL    HW216625   1.789   6.496   4.919 -1.3777  2.2497 -0.4885
 5062SOL     OW16626   1.391   7.286   7.284  0.3094 -0.3336 -0.4804
 5062SOL    HW116627   1.363   7.323   7.368  0.2629 -0.2184 -0.5456
 5062SOL    HW216628   1.416   7.362   7.232 -1.4821 -0.2135 -1.2540
 5063SOL     OW16629   2.587   7.165   5.609 -0.2916 -0.3634 -0.3955
 5063SOL    HW116630   2.678   7.153   5.634 -0.0335 -0.3348 -1.2890
 5063SOL    HW216631   2.555   7.076   5.592 -0.7030 -0.4602  0.7925
 5064SOL     OW16632   0.416   0.925   7.955 -0.0447  0.0060 -0.2171
 5064SOL    HW116633   0.384   1.013   7.975 -0.8866  0.1954 -2.1636
 5064SOL    HW216634   0.506   0.925   7.986 -0.5676  0.9623  1.3797
 5065SOL     OW16635   7.892   1.418   7.781  0.0165 -0.8375 -0.4460
 5065SOL    HW116636   7.897   1.464   7.865 -1.9037 -1.8529  0.2923
 5065SOL    HW216637   7.939   1.336   7.796  1.2757 -0.2328 -0.9758
 5066SOL     OW16638   2.253   6.509   6.272  0.4123 -0.2977  0.1644
 5066SOL    HW116639   2.306   6.569   6.324  0.4742 -0.6468  0.5140
 5066SOL    HW216640   2.257   6.426   6.320  0.2871 -0.5669 -0.2831
 5067SOL     OW16641   1.643   6.571   6.996 -0.5307  0.0308  0.2483
 5067SOL    HW116642   1.557   6.594   7.029 -0.5400 -2.3784  2.2347
 5067SOL    HW216643   1.681   6.515   7.064  3.1567  1.9664  0.0491
 5068SOL     OW16644   3.006   5.003   6.018  0.3923  0.8848 -0.0981
 5068SOL    HW116645   3.075   5.069   6.007 -0.2669  1.7479  0.7653
 5068SOL    HW216646   3.018   4.970   6.107  0.1226  0.5215 -0.1942
 5069SOL     OW16647   0.907   0.460   7.120 -1.2090  0.6169 -0.1386
 5069SOL    HW116648   0.885   0.552   7.132 -0.9717  0.5186  1.2626
 5069SOL    HW216649   0.936   0.453   7.030 -2.2367  1.7025 -0.5769
 5070SOL     OW16650   2.308   6.721   6.975  0.0093 -0.2409  0.1861
 5070SOL    HW116651   2.345   6.691   7.058 -0.5695 -0.2985  0.4250
 5070SOL    HW216652   2.380   6.768   6.933  0.4788 -0.6899  0.4672
 5071SOL     OW16653   2.103   6.164   6.781 -0.0562  0.0683 -0.1350
 5071SOL    HW116654   2.043   6.121   6.720  0.1384 -0.4137  0.0166
 5071SOL    HW216655   2.081   6.128   6.866  0.2794  0.0793 -0.0422
 5072SOL     OW16656   1.052   7.343   5.972 -0.1903 -0.0890  0.6493
 5072SOL    HW116657   0.975   7.315   5.923 -0.1013  0.2786  0.2937
 5072SOL    HW216658   1.075   7.268   6.025 -0.1376 -0.5876 -0.0644
 5073SOL     OW16659   0.842   0.228   5.993 -0.0152  0.2368 -0.5260
 5073SOL    HW116660   0.859   0.265   5.907 -0.0632  0.8166 -0.2939
 5073SOL    HW216661   0.894   0.283   6.053  0.2075 -0.3035 -0.2126
 5074SOL     OW16662   0.362   7.018   6.502  0.3795 -0.2728 -0.1470
 5074SOL    HW116663   0.408   6.998   6.421  1.7807 -1.1485  0.8228
 5074SOL    HW216664   0.308   6.940   6.518  0.6696 -0.4137  0.1443
 5075SOL     OW16665   0.545   7.922   6.101 -0.0194 -0.5013 -0.5247
 5075SOL    HW116666   0.512   7.911   6.012 -0.7948  0.2880 -0.3501
 5075SOL    HW216667   0.640   7.927   6.091  0.0003 -1.8681 -1.1418
 5076SOL     OW16668   2.441   7.242   6.864  0.7016  0.9441  0.0901
 5076SOL    HW116669   2.400   7.189   6.795 -0.3611  0.0074  1.4031
 5076SOL    HW216670   2.517   7.281   6.821 -0.7460  1.5915 -2.0157
 5077SOL     OW16671   0.408   7.943   6.972  0.1961  0.1277 -0.1406
 5077SOL    HW116672   0.368   7.880   6.912 -1.7374 -0.3655  1.5687
 5077SOL    HW216673   0.416   8.024   6.921 -0.6016 -0.5141 -1.3030
 5078SOL     OW16674   7.948   0.348   6.924  0.3444 -0.8958  0.4098
 5078SOL    HW116675   8.032   0.309   6.949  0.2829 -1.5466 -0.3753
 5078SOL    HW216676   7.904   0.280   6.873 -0.4497 -0.3774  0.3892
 5079SOL     OW16677   1.489   5.841   6.406 -0.2428  0.3930  0.1569
 5079SOL    HW116678   1.504   5.879   6.319  1.1990 -1.0660 -0.3048
 5079SOL    HW216679   1.414   5.783   6.394 -0.5010  0.7369  0.0813
 5080SOL     OW16680   2.263   7.008   6.357 -0.7105 -0.2362  0.2331
 5080SOL    HW116681   2.274   7.098   6.327  0.6065 -0.4428 -0.0014
 5080SOL    HW216682   2.186   6.975   6.310  0.5130 -0.1421 -1.9993
 5081SOL     OW16683   3.934   5.692   7.126  0.6099 -0.5484 -0.0614
 5081SOL    HW116684   3.921   5.684   7.032 -2.4323  1.4109  0.0425
 5081SOL    HW216685   3.886   5.619   7.164 -0.1126 -0.0550 -0.0028
 5082SOL     OW16686   0.448   7.374   6.869  0.2279 -0.4055  0.2044
 5082SOL    HW116687   0.437   7.288   6.830  0.2971 -0.0801 -0.5615
 5082SOL    HW216688   0.435   7.361   6.963  2.3001 -1.6449  0.3717
 5083SOL     OW16689   0.391   0.071   6.283  0.0739  0.3849  0.6829
 5083SOL    HW116690   0.423   0.044   6.370 -0.2752 -2.7558 -0.0516
 5083SOL    HW216691   0.454   0.031   6.222 -0.2833  1.6704 -0.5597
 5084SOL     OW16692   1.211   5.950   6.107 -0.3097 -0.7272 -0.1588
 5084SOL    HW116693   1.209   5.855   6.117 -0.9908 -0.5650  1.6694
 5084SOL    HW216694   1.203   5.984   6.196 -0.4007  1.0539 -0.7979
 5085SOL     OW16695   0.644   6.425   5.849  0.2143  0.3114 -0.6131
 5085SOL    HW116696   0.583   6.406   5.920 -0.8177  1.8635 -1.0315
 5085SOL    HW216697   0.731   6.411   5.887 -0.3442  0.0562  0.6166
 5086SOL     OW16698   1.808   5.927   5.823  0.0469  0.2725 -0.4776
 5086SOL    HW116699   1.756   5.977   5.759  0.9475 -0.5757 -1.9266
 5086SOL    HW216700   1.882   5.984   5.843 -1.1346  1.2951  1.2487
 5087SOL     OW16701   1.335   6.741   8.168  0.1425  0.4816 -0.1733
 5087SOL    HW116702   1.384   6.659   8.176 -1.5834 -0.5990 -0.1241
 5087SOL    HW216703   1.276   6.741   8.243 -1.4241  0.6602 -1.3473
 5088SOL     OW16704   2.331   5.592   7.076 -0.1055  0.2409 -0.6491
 5088SOL    HW116705   2.407   5.643   7.104  0.0286  0.5696 -1.5659
 5088SOL    HW216706   2.260   5.621   7.133  0.2080  0.7143 -0.4931
 5089SOL     OW16707   6.742   5.934   8.713  0.7411  0.2029  0.4303
 5089SOL    HW116708   6.725   6.017   8.756  0.2950  0.4512 -0.2180
 5089SOL    HW216709   6.735   5.869   8.783  0.8011  0.6759  0.8800
 5090SOL     OW16710   1.721   0.373   6.361  0.1292 -0.3778  0.8455
 5090SOL    HW116711   1.750   0.294   6.406  2.2393  0.7656  1.6655
 5090SOL    HW216712   1.711   0.438   6.431 -1.3029  0.1712  0.1671
 5091SOL     OW16713   1.125   3.767   5.526  0.8103 -0.1226  0.2274
 5091SOL    HW116714   1.199   3.765   5.465  1.7229 -1.0808  1.3158
 5091SOL    HW216715   1.147   3.836   5.588 -0.8577  1.9466 -1.3346
 5092SOL     OW16716   1.522   5.773   8.038  0.2012  0.0422 -0.1595
 5092SOL    HW116717   1.523   5.689   7.991 -2.0678  0.2508 -0.7445
 5092SOL    HW216718   1.457   5.760   8.107  0.1087  1.1716 -0.0181
 5093SOL     OW16719   0.126   0.156   6.222  0.0438 -0.4557 -0.3716
 5093SOL    HW116720   0.212   0.117   6.208  0.4908  0.4170 -0.0955
 5093SOL    HW216721   0.068   0.081   6.236  0.9048 -1.0220  0.2435
 5094SOL     OW16722   0.654   7.430   6.309 -0.0951  0.6649 -0.4289
 5094SOL    HW116723   0.712   7.502   6.335  2.0724 -0.4865 -1.7342
 5094SOL    HW216724   0.665   7.425   6.214 -2.3540  0.3249 -0.7199
 5095SOL     OW16725   2.793   0.323   6.492 -0.3827 -0.1083  0.7044
 5095SOL    HW116726   2.700   0.309   6.477  0.2912 -2.5769 -2.5533
 5095SOL    HW216727   2.836   0.253   6.442  3.2397  1.0076  1.9056
 5096SOL     OW16728   0.884   6.167   6.987 -0.2179  0.4301  0.5025
 5096SOL    HW116729   0.796   6.203   6.994 -0.4477 -0.2257  1.1572
 5096SOL    HW216730   0.904   6.137   7.076  1.0988  1.5462  0.6097
 5097SOL     OW16731   3.418   6.020   7.842 -0.4466  0.3950 -0.7927
 5097SOL    HW116732   3.351   6.056   7.785 -0.1123 -1.0265 -2.1571
 5097SOL    HW216733   3.383   5.935   7.869  0.8757 -0.4680 -1.7071
 5098SOL     OW16734   0.648   6.933   7.478 -0.3534  0.0362  0.1423
 5098SOL    HW116735   0.637   6.866   7.545  0.7389  0.8320  1.1798
 5098SOL    HW216736   0.740   6.926   7.452 -0.5720  0.2444 -0.7189
 5099SOL     OW16737   7.406   6.301   3.949 -0.3131 -0.3092 -0.0022
 5099SOL    HW116738   7.470   6.370   3.963 -0.4313 -0.1641 -0.1788
 5099SOL    HW216739   7.351   6.303   4.027 -1.5789  1.1487 -0.8990
 5100SOL     OW16740   0.719   7.213   6.763  0.0771 -0.6793  0.1499
 5100SOL    HW116741   0.630   7.177   6.769  0.3216 -1.6225 -1.4010
 5100SOL    HW216742   0.745   7.226   6.854 -0.6318 -3.0016  0.7564
 5101SOL     OW16743   0.355   5.140   5.100  0.1598  0.2014  0.0823
 5101SOL    HW116744   0.385   5.231   5.093  0.7828  0.0179  0.2822
 5101SOL    HW216745   0.419   5.090   5.048 -0.5665 -0.0495 -0.5990
 5102SOL     OW16746   1.356   5.958   5.425  0.1048 -0.4661 -0.0833
 5102SOL    HW116747   1.262   5.945   5.432  0.3550 -1.3794  2.3941
 5102SOL    HW216748   1.382   5.905   5.349 -1.2741 -0.6778 -0.4365
 5103SOL     OW16749   3.158   7.550   6.404 -0.0566  0.4593  0.2056
 5103SOL    HW116750   3.091   7.489   6.436  1.2830  0.0538  2.5208
 5103SOL    HW216751   3.121   7.588   6.325 -1.3573 -2.6550 -0.8277
 5104SOL     OW16752   0.237   6.865   7.127  0.3156  0.4705  0.2342
 5104SOL    HW116753   0.211   6.782   7.167 -1.0229  0.4150 -0.6966
 5104SOL    HW216754   0.262   6.841   7.038  1.4467  0.8691  0.4235
 5105SOL     OW16755   0.851   5.989   5.571  0.0909 -0.1730  0.2471
 5105SOL    HW116756   0.825   6.010   5.660 -1.0877 -0.5986  0.0174
 5105SOL    HW216757   0.801   6.049   5.516  0.0301 -0.6053 -0.1793
 5106SOL     OW16758   0.204   7.354   6.124  0.0216 -0.3232  0.0216
 5106SOL    HW116759   0.263   7.394   6.189  0.0492  0.6410 -0.5818
 5106SOL    HW216760   0.117   7.390   6.146  0.1513  0.6274 -0.9322
 5107SOL     OW16761   1.367   6.870   6.306 -0.4034  0.1612  0.2443
 5107SOL    HW116762   1.450   6.851   6.349  0.0941 -0.0663 -0.7987
 5107SOL    HW216763   1.339   6.954   6.344 -0.3134 -0.3475  1.4814
 5108SOL     OW16764   1.883   6.118   6.156  0.4949  0.2156  0.4367
 5108SOL    HW116765   1.793   6.152   6.159  0.8427  1.1600  0.5578
 5108SOL    HW216766   1.878   6.034   6.201 -1.0381 -1.5065 -2.5907
 5109SOL     OW16767   7.879   7.732   5.868  0.0645 -0.1832  0.5508
 5109SOL    HW116768   7.917   7.818   5.887 -0.2341  0.4144 -1.3822
 5109SOL    HW216769   7.953   7.673   5.862  0.7230  0.7827 -2.2128
 5110SOL     OW16770   4.845   5.468   7.938 -0.0192 -0.6326 -0.0127
 5110SOL    HW116771   4.820   5.557   7.915  1.4966  0.5916  2.6201
 5110SOL    HW216772   4.762   5.420   7.940 -1.1880  1.2817  0.6026
 5111SOL     OW16773   1.413   6.537   7.197 -0.3007 -0.6461  0.0659
 5111SOL    HW116774   1.460   6.603   7.248 -0.7545 -0.6670  0.5251
 5111SOL    HW216775   1.387   6.471   7.262  0.9984 -1.7950 -0.5163
 5112SOL     OW16776   1.072   4.767   8.130 -0.4725 -0.1510 -0.0546
 5112SOL    HW116777   1.148   4.792   8.078 -0.4311  0.0242  0.0895
 5112SOL    HW216778   1.051   4.845   8.181 -1.2735  0.0978 -0.7268
 5113SOL     OW16779   2.250   5.409   5.019  0.2887  0.0159  0.5709
 5113SOL    HW116780   2.321   5.382   4.962 -1.0779  1.8289 -2.2402
 5113SOL    HW216781   2.224   5.329   5.065  0.7323 -1.9007 -2.2582
 5114SOL     OW16782   0.570   4.385   7.213  0.7207  0.1492 -0.1874
 5114SOL    HW116783   0.518   4.369   7.134 -0.5597 -1.8236  0.9615
 5114SOL    HW216784   0.656   4.349   7.193  1.0118  1.3923 -1.3151
 5115SOL     OW16785   0.813   7.270   7.006  0.1669  0.1299 -0.2331
 5115SOL    HW116786   0.891   7.214   7.014  0.2994  0.5499  1.8484
 5115SOL    HW216787   0.837   7.351   7.050 -2.5687 -0.9893  3.8595
 5116SOL     OW16788   1.151   5.280   5.643  0.0256  0.0183  0.1624
 5116SOL    HW116789   1.073   5.333   5.631  1.0155  1.2142 -1.3394
 5116SOL    HW216790   1.130   5.223   5.717 -2.3037  0.1854 -0.2973
 5117SOL     OW16791   1.520   6.540   5.091 -0.9358  0.2007 -0.3478
 5117SOL    HW116792   1.587   6.518   5.156 -1.5595  0.3176  0.3481
 5117SOL    HW216793   1.569   6.576   5.017 -0.3078  1.4476  0.6369
 5118SOL     OW16794   1.001   5.094   5.764  0.2460 -0.0963 -0.4330
 5118SOL    HW116795   1.049   5.018   5.732 -1.2098 -0.9178 -0.7282
 5118SOL    HW216796   0.981   5.074   5.855  1.2048  0.6461 -0.0333
 5119SOL     OW16797   0.396   5.988   7.543 -0.3649 -0.0265 -0.0991
 5119SOL    HW116798   0.489   6.004   7.532 -0.0194 -1.8158  0.0444
 5119SOL    HW216799   0.376   6.017   7.632 -0.3959  2.1361 -0.7435
 5120SOL     OW16800   2.076   7.672   6.596 -0.6732  0.0536  0.0585
 5120SOL    HW116801   2.085   7.602   6.660 -1.3561 -0.5181 -0.4504
 5120SOL    HW216802   2.106   7.750   6.641  0.6070 -0.6532  0.4665
 5121SOL     OW16803   0.485   6.450   8.653 -0.0054 -0.6441 -0.3074
 5121SOL    HW116804   0.562   6.469   8.707  0.1828 -1.6676 -0.1974
 5121SOL    HW216805   0.411   6.469   8.710  0.1285  1.1335 -0.6784
 5122SOL     OW16806   6.544   5.638   5.913 -0.1754  0.0042  0.2805
 5122SOL    HW116807   6.611   5.571   5.897  0.3886  0.9396 -1.6067
 5122SOL    HW216808   6.557   5.663   6.005  1.4611 -0.5294  0.2356
 5123SOL     OW16809   7.321   5.772   8.311 -0.1011 -0.1539 -0.4418
 5123SOL    HW116810   7.287   5.796   8.225  0.8342 -0.3364 -0.8764
 5123SOL    HW216811   7.388   5.837   8.330 -0.5331  0.0844  0.3108
 5124SOL     OW16812   5.609   0.630   8.262 -0.7971 -0.1248 -0.2503
 5124SOL    HW116813   5.634   0.564   8.198  0.3406 -1.1838  1.2467
 5124SOL    HW216814   5.647   0.711   8.228 -0.4546 -0.6017 -1.0453
 5125SOL     OW16815   0.738   6.044   7.887  0.3874 -0.3919  0.0858
 5125SOL    HW116816   0.775   6.129   7.913  0.6971  0.0075 -1.5711
 5125SOL    HW216817   0.647   6.063   7.867 -1.0528 -1.4258  4.4353
 5126SOL     OW16818   2.997   7.337   7.992  0.0045 -0.1721 -0.2190
 5126SOL    HW116819   2.962   7.256   7.955 -0.3366  0.4632 -1.3233
 5126SOL    HW216820   2.938   7.357   8.066  0.8686 -1.6019  0.9096
 5127SOL     OW16821   2.926   6.172   8.915  0.1456 -0.3933  0.0184
 5127SOL    HW116822   2.972   6.102   8.960  1.4085  0.5299  0.2092
 5127SOL    HW216823   2.894   6.229   8.985 -3.0237 -1.9494  0.0380
 5128SOL     OW16824   1.292   6.136   8.416  0.0706 -0.1264 -0.7612
 5128SOL    HW116825   1.327   6.135   8.327  2.2965 -0.6144  0.0565
 5128SOL    HW216826   1.231   6.209   8.416  2.7369  2.3076 -1.7754
 5129SOL     OW16827   1.162   7.265  10.065  0.1256 -1.3182 -0.6188
 5129SOL    HW116828   1.215   7.205  10.117 -2.1788 -0.6141  2.9118
 5129SOL    HW216829   1.082   7.216  10.045  0.0857 -0.8472 -1.6978
 5130SOL     OW16830   1.842   7.193   7.497  0.1727 -0.1614  0.1094
 5130SOL    HW116831   1.897   7.174   7.574 -1.7902 -0.5514  1.4992
 5130SOL    HW216832   1.817   7.108   7.464  4.1259 -0.2188 -3.5602
 5131SOL     OW16833   1.045   6.099   9.497 -0.0701 -0.3657  0.1044
 5131SOL    HW116834   1.033   6.187   9.463 -0.2622 -1.0278 -1.6723
 5131SOL    HW216835   1.016   6.103   9.588 -0.2760  1.3333 -0.0132
 5132SOL     OW16836   1.063   6.543  10.434  0.4862  0.1222  0.0054
 5132SOL    HW116837   1.060   6.480  10.362  1.1976  0.1607 -0.0578
 5132SOL    HW216838   0.978   6.587  10.430  0.4803  0.0531 -0.7402
 5133SOL     OW16839   0.907   6.879   9.972  0.5508  0.3884  0.2465
 5133SOL    HW116840   0.842   6.816   9.940 -0.3164  0.2556  2.1469
 5133SOL    HW216841   0.972   6.826  10.018  1.7561  0.5793 -1.1635
 5134SOL     OW16842   6.621   6.790   9.804 -0.1987  0.6210  0.0708
 5134SOL    HW116843   6.544   6.775   9.748  0.6014 -0.2446 -0.8209
 5134SOL    HW216844   6.695   6.785   9.745  0.6480  0.1006  1.1520
 5135SOL     OW16845   1.171   7.365   7.703  0.1706  0.1961  0.6767
 5135SOL    HW116846   1.224   7.291   7.731  0.7311  0.0836 -0.6193
 5135SOL    HW216847   1.174   7.426   7.776  0.9961 -0.3828  1.1407
 5136SOL     OW16848   0.425   0.228   7.733  0.0109 -0.5855 -0.4564
 5136SOL    HW116849   0.352   0.255   7.677 -0.0210  0.1244 -0.0792
 5136SOL    HW216850   0.385   0.169   7.797 -0.7029  1.4731  1.1099
 5137SOL     OW16851   0.527   6.466   9.062  0.2058 -0.0740  0.0262
 5137SOL    HW116852   0.544   6.467   9.156 -1.8365 -1.1856  0.4582
 5137SOL    HW216853   0.489   6.552   9.043  1.9822  0.7214 -0.1128
 5138SOL     OW16854   7.644   6.155   9.567 -0.2945 -0.1345 -0.2122
 5138SOL    HW116855   7.736   6.175   9.587 -0.5611  0.4373  0.4985
 5138SOL    HW216856   7.647   6.070   9.523  0.5068 -0.4861  0.4853
 5139SOL     OW16857   1.019   0.887   7.252 -0.1735 -0.0778  0.2993
 5139SOL    HW116858   1.004   0.981   7.251  0.9661  0.1735  1.8331
 5139SOL    HW216859   1.109   0.877   7.222 -1.4351 -1.0812 -3.6870
 5140SOL     OW16860   7.240   0.744   7.888 -0.3827 -0.2708  0.5298
 5140SOL    HW116861   7.147   0.759   7.872  0.1962  4.6105  0.1158
 5140SOL    HW216862   7.281   0.756   7.802  0.7212 -1.3548  0.8746
 5141SOL     OW16863   1.239   5.461   7.256 -0.3162 -0.2504  0.3276
 5141SOL    HW116864   1.248   5.392   7.190 -1.0013 -0.9972  0.9993
 5141SOL    HW216865   1.317   5.453   7.310 -0.0729 -0.0681  0.0027
 5142SOL     OW16866   0.361   6.926   8.135 -0.5071  0.0841 -0.6024
 5142SOL    HW116867   0.304   6.865   8.088 -0.0501 -0.0485 -0.9989
 5142SOL    HW216868   0.308   7.004   8.149 -1.6223 -0.9318  1.2445
 5143SOL     OW16869   6.790   7.289   7.973 -0.1019  0.0354 -0.6397
 5143SOL    HW116870   6.816   7.201   7.949 -0.6751 -0.8700  1.7669
 5143SOL    HW216871   6.717   7.277   8.034  0.1323  2.1360  0.1557
 5144SOL     OW16872   2.471   7.579   6.948  0.1805  0.1061  0.6993
 5144SOL    HW116873   2.531   7.651   6.966  1.4402 -0.5870 -0.5539
 5144SOL    HW216874   2.452   7.587   6.854 -1.9498  0.4907  1.1191
 5145SOL     OW16875   0.183   6.417   6.388 -0.4291 -0.2943 -0.4334
 5145SOL    HW116876   0.246   6.373   6.444 -0.5226  0.8815  0.6520
 5145SOL    HW216877   0.227   6.498   6.361 -1.0627  0.0209 -0.5508
 5146SOL     OW16878   0.698   5.542   9.271 -0.2749  0.6719  0.1409
 5146SOL    HW116879   0.659   5.535   9.358  2.1603  0.3006  1.3039
 5146SOL    HW216880   0.668   5.463   9.225 -0.8858  0.4164  0.9495
 5147SOL     OW16881   1.655   7.361   7.600 -0.0753  0.5427 -0.0251
 5147SOL    HW116882   1.713   7.288   7.579 -0.3273 -0.2110  1.7702
 5147SOL    HW216883   1.698   7.407   7.672 -1.2105  0.5417  0.6896
 5148SOL     OW16884   7.090   7.053   7.452  0.2965  0.4606 -0.4357
 5148SOL    HW116885   7.044   7.032   7.533 -0.4975  1.9372 -0.4660
 5148SOL    HW216886   7.044   7.003   7.384 -0.1395  0.5636 -0.2177
 5149SOL     OW16887   7.039   6.834   6.846  0.7828  0.0063  0.0650
 5149SOL    HW116888   7.103   6.861   6.780 -0.7465  1.2364 -0.9918
 5149SOL    HW216889   6.970   6.791   6.796  0.8592 -1.5316  1.2076
 5150SOL     OW16890   2.374   5.018   8.612  0.1899 -0.4324 -0.7336
 5150SOL    HW116891   2.386   5.033   8.519  0.2585  1.4847 -0.4586
 5150SOL    HW216892   2.359   4.924   8.620  0.8132 -0.7213 -2.5939
 5151SOL     OW16893   0.236   5.801   9.090 -0.1697  0.2834  0.4614
 5151SOL    HW116894   0.195   5.849   9.161  2.0841 -0.2563  2.2261
 5151SOL    HW216895   0.295   5.739   9.133  2.3380  0.8657 -1.8357
 5152SOL     OW16896   7.786   7.810   7.985  0.2483 -0.1254 -0.6270
 5152SOL    HW116897   7.741   7.734   7.947 -1.1708  0.7248 -0.7009
 5152SOL    HW216898   7.866   7.773   8.024  0.6060 -1.3671 -2.3947
 5153SOL     OW16899   2.080   6.161   8.135  0.3062 -0.8010 -0.1937
 5153SOL    HW116900   2.109   6.182   8.047 -0.9087  0.8284 -0.2442
 5153SOL    HW216901   2.015   6.228   8.156 -0.6464 -2.1227  1.3065
 5154SOL     OW16902   2.795   7.065   9.848 -0.1968  0.2226  0.5077
 5154SOL    HW116903   2.886   7.037   9.856 -0.6667 -1.6102 -0.2241
 5154SOL    HW216904   2.789   7.107   9.762 -0.4705 -1.5102 -0.3519
 5155SOL     OW16905   0.547   6.761  10.210  0.0195 -0.0781  0.8686
 5155SOL    HW116906   0.570   6.669  10.214 -0.3542 -0.5958 -3.6461
 5155SOL    HW216907   0.453   6.763  10.227 -0.0054 -0.5604  0.7914
 5156SOL     OW16908   3.111   5.618   6.573 -0.2414 -0.1146 -0.1519
 5156SOL    HW116909   3.029   5.616   6.622 -0.1386  0.3733  0.0471
 5156SOL    HW216910   3.088   5.587   6.485 -0.5953 -0.1742 -0.0377
 5157SOL     OW16911   2.353   7.581   9.749  0.3303  0.4295  0.4203
 5157SOL    HW116912   2.344   7.503   9.804 -0.8254 -0.6640 -1.2489
 5157SOL    HW216913   2.340   7.550   9.660  2.3550  2.1209 -0.5551
 5158SOL     OW16914   2.456   6.077   8.016  0.1174 -0.0961  0.5755
 5158SOL    HW116915   2.502   6.057   7.934 -1.0125  0.1829 -0.1501
 5158SOL    HW216916   2.397   6.002   8.028 -0.9987  0.7051  0.1744
 5159SOL     OW16917   1.756   0.485   7.198  0.2855 -0.0958 -0.1160
 5159SOL    HW116918   1.837   0.535   7.187  1.1284 -1.4174 -0.1031
 5159SOL    HW216919   1.722   0.513   7.283  1.8798 -1.0458  0.9009
 5160SOL     OW16920   7.351   5.906   8.929  0.6994 -0.6657  0.2472
 5160SOL    HW116921   7.407   5.872   8.859  0.9127  0.8460 -0.3414
 5160SOL    HW216922   7.411   5.957   8.984  0.0602  0.2360  0.1095
 5161SOL     OW16923   0.168   5.319  10.410  0.6327  0.1251 -0.7445
 5161SOL    HW116924   0.232   5.267  10.458  1.4501  0.7915 -1.0776
 5161SOL    HW216925   0.221   5.376  10.354 -0.2714 -0.6088 -2.4310
 5162SOL     OW16926   7.200   4.730  10.026  0.2635  0.7441 -0.0617
 5162SOL    HW116927   7.159   4.809  10.060 -3.1955 -0.8221 -0.2209
 5162SOL    HW216928   7.167   4.722   9.936  1.0447 -0.5612 -0.2677
 5163SOL     OW16929   0.692   6.839   9.618  0.2301 -0.6132  0.2434
 5163SOL    HW116930   0.727   6.872   9.535 -0.3997 -0.9915 -0.1855
 5163SOL    HW216931   0.671   6.918   9.668 -0.2672 -0.3632 -0.3449
 5164SOL     OW16932   7.882   6.383   9.510  0.3331  0.3937 -0.3503
 5164SOL    HW116933   7.896   6.305   9.564  0.7860  0.9514  0.3537
 5164SOL    HW216934   7.935   6.451   9.552 -1.7928  1.6804  0.3740
 5165SOL     OW16935   0.758   6.046   8.266 -0.1381  0.4923  0.6971
 5165SOL    HW116936   0.828   5.995   8.227 -1.3498 -0.7525  0.0853
 5165SOL    HW216937   0.798   6.132   8.283  1.4504 -0.1033  0.1780
 5166SOL     OW16938   1.746   7.929  11.153  0.2283  0.2471  0.3542
 5166SOL    HW116939   1.828   7.949  11.200  0.5674 -1.4797  0.5680
 5166SOL    HW216940   1.767   7.852  11.101 -0.9885  0.4121 -0.4155
 5167SOL     OW16941   2.836   6.400   8.239  0.2688  0.3233 -0.4659
 5167SOL    HW116942   2.801   6.324   8.193  1.0038 -0.0222 -0.4735
 5167SOL    HW216943   2.920   6.418   8.196  0.0526  1.2048 -0.5328
 5168SOL     OW16944   2.636   6.098   9.451 -0.1872  0.7467  1.0564
 5168SOL    HW116945   2.696   6.082   9.524 -0.8885 -0.3536  1.4229
 5168SOL    HW216946   2.612   6.010   9.421  0.4897  1.1643 -0.8630
 5169SOL     OW16947   0.643   6.987   8.252  0.0498  0.0287 -0.2515
 5169SOL    HW116948   0.724   6.966   8.206  0.0036  0.8678 -0.7325
 5169SOL    HW216949   0.584   6.915   8.230  0.9067 -1.0409  0.7879
 5170SOL     OW16950   0.209   5.336   8.682 -0.3722 -0.5535  0.2806
 5170SOL    HW116951   0.165   5.417   8.705  2.5772  1.1861  0.2941
 5170SOL    HW216952   0.283   5.331   8.742  2.0985 -0.8393 -2.5613
 5171SOL     OW16953   0.553   7.153   7.763 -0.6891  0.5162  0.0442
 5171SOL    HW116954   0.514   7.130   7.679  1.2634 -1.5561 -0.3940
 5171SOL    HW216955   0.630   7.206   7.739  0.2230 -0.5941  0.4459
 5172SOL     OW16956   0.739   0.074   8.671 -0.5455 -0.1267 -0.0939
 5172SOL    HW116957   0.717  -0.009   8.630  1.2586 -1.1509  0.8731
 5172SOL    HW216958   0.752   0.135   8.598  0.6231 -1.3745 -0.9635
 5173SOL     OW16959   1.288   6.325   9.317 -0.7620  0.6247  0.3236
 5173SOL    HW116960   1.302   6.401   9.374  0.1838  0.0464  0.8874
 5173SOL    HW216961   1.368   6.320   9.264 -0.6304 -0.2225  0.5925
 5174SOL     OW16962   1.184   6.498   8.593  0.4219  0.4939  0.5452
 5174SOL    HW116963   1.136   6.427   8.550 -1.9729  0.7706  2.4558
 5174SOL    HW216964   1.276   6.475   8.585 -0.2046 -1.8942 -0.4543
 5175SOL     OW16965   1.007   5.868   6.440  0.6374 -0.1661  0.1433
 5175SOL    HW116966   1.071   5.814   6.395 -2.7122 -3.6919 -0.9805
 5175SOL    HW216967   0.961   5.915   6.370  0.1489  0.0922  0.6267
 5176SOL     OW16968   2.019   0.064   7.946 -0.1999  0.0725 -0.0675
 5176SOL    HW116969   2.046  -0.028   7.947 -2.5227 -0.6794 -0.5761
 5176SOL    HW216970   2.027   0.093   8.037 -1.1924 -1.2160  0.4631
 5177SOL     OW16971   0.134   7.066   8.642  0.4258  0.2441 -0.0658
 5177SOL    HW116972   0.189   7.144   8.639  0.2782  0.4357  1.5885
 5177SOL    HW216973   0.171   7.008   8.575  0.9199  1.4597 -0.8814
 5178SOL     OW16974   4.376   6.803   8.483  0.6462  0.3839  0.0300
 5178SOL    HW116975   4.393   6.799   8.389 -0.4505 -1.2901 -0.1327
 5178SOL    HW216976   4.438   6.741   8.521 -1.9707 -2.5924 -0.1525
 5179SOL     OW16977   7.295   6.529   8.106  0.0875 -0.1056  0.0315
 5179SOL    HW116978   7.244   6.462   8.152  1.5352 -1.0586  0.3074
 5179SOL    HW216979   7.237   6.558   8.036 -0.5611 -1.7617 -0.1757
 5180SOL     OW16980   4.390   7.204   7.031 -0.8404  0.0588  0.4341
 5180SOL    HW116981   4.415   7.194   6.939  0.0084  1.6428  0.4648
 5180SOL    HW216982   4.312   7.260   7.028 -1.5738 -0.9242  0.6302
 5181SOL     OW16983   1.750   1.675   8.236 -0.0158 -0.5352 -0.8183
 5181SOL    HW116984   1.726   1.724   8.315  1.8170 -1.2353  0.2458
 5181SOL    HW216985   1.667   1.640   8.204 -1.0663  1.3479 -0.3286
 5182SOL     OW16986   1.637   7.625   9.207  0.4296  0.6855 -0.1053
 5182SOL    HW116987   1.708   7.572   9.170 -0.5766  0.4698 -1.8717
 5182SOL    HW216988   1.611   7.579   9.286  2.5692  1.0583  0.8834
 5183SOL     OW16989   0.028   7.953  10.792 -0.4633 -0.4569  0.2815
 5183SOL    HW116990  -0.036   7.915  10.732  0.0232  0.1079 -0.6246
 5183SOL    HW216991   0.113   7.935  10.751 -0.1783  0.8371  0.2525
 5184SOL     OW16992   1.247   7.783   7.931  0.4564 -0.0121  0.3492
 5184SOL    HW116993   1.341   7.787   7.951  0.5834  0.6643 -0.3184
 5184SOL    HW216994   1.212   7.866   7.964  0.3344  0.2978 -0.5309
 5185SOL     OW16995   0.424   7.170   8.817  0.9132  0.0763  0.0383
 5185SOL    HW116996   0.430   7.244   8.876 -1.8999  1.1231 -0.8160
 5185SOL    HW216997   0.461   7.201   8.734  0.7440  0.1608 -0.0058
 5186SOL     OW16998   2.661   6.967  10.285 -0.0224  0.1074  0.2453
 5186SOL    HW116999   2.584   7.023  10.273 -1.1382 -1.3059  0.4486
 5186SOL    HW217000   2.665   6.951  10.380  0.6418  0.3148  0.2594
 5187SOL     OW17001   1.463   5.909   7.618 -0.1820 -0.1060  0.2293
 5187SOL    HW117002   1.544   5.903   7.568 -0.1062  0.4475  0.2782
 5187SOL    HW217003   1.478   5.983   7.678 -1.4277  1.2819 -1.0806
 5188SOL     OW17004   2.056   4.678   9.347  0.1034  0.5772 -0.6897
 5188SOL    HW117005   2.118   4.613   9.378 -0.2061  1.1115  1.2020
 5188SOL    HW217006   2.109   4.756   9.330 -0.0034  1.1778  1.3554
 5189SOL     OW17007   0.191   0.019   8.478  1.0681 -0.0676  0.4967
 5189SOL    HW117008   0.099   0.006   8.454  1.1891  1.0882 -0.7024
 5189SOL    HW217009   0.194   0.005   8.572 -0.3581 -0.0003  0.5690
 5190SOL     OW17010   1.390   7.677   8.949  0.8029 -0.1533  0.2802
 5190SOL    HW117011   1.311   7.732   8.948  1.6311  1.1563 -2.2370
 5190SOL    HW217012   1.364   7.596   8.906  0.2611 -0.6950  1.5910
 5191SOL     OW17013   0.941   5.437  11.070  0.0520 -0.3403 -0.0354
 5191SOL    HW117014   0.954   5.362  11.127 -0.7825  0.9557  1.9923
 5191SOL    HW217015   1.024   5.485  11.073  0.8816 -1.5626 -2.0203
 5192SOL     OW17016   1.462   5.995   8.579 -0.4760  0.8783 -0.1979
 5192SOL    HW117017   1.452   6.025   8.670  0.2087  0.8479 -0.1032
 5192SOL    HW217018   1.400   6.047   8.529 -1.3268  0.4530  0.3807
 5193SOL     OW17019   1.488   6.244   7.049 -0.5406 -0.1956  0.5225
 5193SOL    HW117020   1.489   6.316   7.111  0.9805 -1.1345  1.6597
 5193SOL    HW217021   1.579   6.214   7.045 -1.2271 -2.4809  0.6443
 5194SOL     OW17022   3.362   6.963   7.983  0.0206  0.6902 -0.6412
 5194SOL    HW117023   3.409   6.887   8.018  0.0885 -0.0489 -2.2544
 5194SOL    HW217024   3.298   6.984   8.051 -1.3794 -2.0909 -0.9512
 5195SOL     OW17025   7.923   3.501   7.630 -0.4356  0.1665  0.6206
 5195SOL    HW117026   7.947   3.499   7.723 -1.1128  0.1780  0.7979
 5195SOL    HW217027   7.888   3.589   7.617  0.9187  0.6488  0.0222
 5196SOL     OW17028   2.329   5.856   7.727  0.1958  0.1958 -0.6219
 5196SOL    HW117029   2.378   5.934   7.753 -0.5374 -0.2948  2.6400
 5196SOL    HW217030   2.237   5.881   7.735 -0.0589 -0.5708 -1.0432
 5197SOL     OW17031   2.374   6.314   7.304  0.5725  0.8338 -0.2701
 5197SOL    HW117032   2.341   6.311   7.214 -2.3628 -0.2503  0.7125
 5197SOL    HW217033   2.349   6.401   7.335  0.0060  0.5879 -0.0147
 5198SOL     OW17034   7.792   6.961   8.682  0.0522  0.1796  0.5515
 5198SOL    HW117035   7.845   6.886   8.710 -1.2488  0.3476  4.0036
 5198SOL    HW217036   7.855   7.032   8.672  0.8346 -0.2751  1.9013
 5199SOL     OW17037   0.339   6.015   8.251 -0.1411  0.1919  0.2245
 5199SOL    HW117038   0.265   6.028   8.191 -1.8852  0.8652  2.3484
 5199SOL    HW217039   0.406   6.076   8.220 -1.1938  0.9104 -0.7280
 5200SOL     OW17040   7.859   5.980   9.030  0.6732 -0.1234  0.4007
 5200SOL    HW117041   7.892   5.974   9.120 -1.0391 -0.0862  1.0744
 5200SOL    HW217042   7.833   6.072   9.020 -3.4674 -0.9262  1.6123
 5201SOL     OW17043   0.621   6.110   9.289 -0.6882 -0.4398 -0.3722
 5201SOL    HW117044   0.646   6.021   9.262  2.3051 -0.1541  1.0202
 5201SOL    HW217045   0.690   6.166   9.253  0.1635  0.6389  2.5921
 5202SOL     OW17046   0.116   7.699   8.330 -0.8057 -0.0111  0.8093
 5202SOL    HW117047   0.166   7.703   8.412 -1.2597 -0.1688  1.0937
 5202SOL    HW217048   0.153   7.624   8.284 -0.3962  0.2118  0.7669
 5203SOL     OW17049   0.365   6.538   7.935  0.4700  0.8589 -0.3472
 5203SOL    HW117050   0.346   6.463   7.990 -0.2564 -0.7402 -2.6441
 5203SOL    HW217051   0.321   6.612   7.979  1.8124  0.1835  2.3373
 5204SOL     OW17052   1.490   6.623   7.722  0.2282 -0.1844  0.0983
 5204SOL    HW117053   1.575   6.600   7.760 -0.2714 -0.3126  1.1887
 5204SOL    HW217054   1.453   6.686   7.784 -0.6768 -0.5111 -0.0935
 5205SOL     OW17055   1.927   6.377   8.939  0.2325  0.9282 -0.2192
 5205SOL    HW117056   1.992   6.430   8.986  0.3414  0.1383  0.5417
 5205SOL    HW217057   1.963   6.369   8.851  1.1883  0.4939  0.1884
 5206SOL     OW17058   0.507   7.174   7.447  0.0261 -0.1620  0.2316
 5206SOL    HW117059   0.514   7.078   7.443  0.7781 -0.0918 -0.3743
 5206SOL    HW217060   0.598   7.204   7.449 -0.1848  0.5994 -1.1340
 5207SOL     OW17061   1.467   5.895   9.969 -0.0648  0.5261  0.0230
 5207SOL    HW117062   1.397   5.864  10.026  0.1970  0.9069  0.5632
 5207SOL    HW217063   1.547   5.860  10.008  0.1199  0.8374 -0.0709
 5208SOL     OW17064   2.213   0.187   6.322  0.8115  0.9828  0.9000
 5208SOL    HW117065   2.187   0.142   6.241  1.3961  0.4339  1.0072
 5208SOL    HW217066   2.280   0.250   6.294  1.8003  0.0462  1.0921
 5209SOL     OW17067   1.029   5.749   4.355 -0.6356 -0.4936  0.0566
 5209SOL    HW117068   0.972   5.768   4.430 -1.2049 -2.1515  0.0804
 5209SOL    HW217069   0.988   5.796   4.282 -2.1613 -1.7324  0.0467
 5210SOL     OW17070   7.981   5.988   7.784 -0.3022 -0.2228  0.1754
 5210SOL    HW117071   7.907   6.043   7.811  0.3571  0.7074  0.1406
 5210SOL    HW217072   8.025   6.039   7.715 -0.1878 -1.1986 -0.5002
 5211SOL     OW17073   1.364   5.537   9.295  0.5436 -0.2292  0.0812
 5211SOL    HW117074   1.322   5.579   9.220  0.7398  0.0027  0.0978
 5211SOL    HW217075   1.450   5.511   9.263  0.8451  0.3795  0.3807
 5212SOL     OW17076   2.330   0.006   5.754 -0.7419 -0.2365 -0.4091
 5212SOL    HW117077   2.287   0.090   5.734 -0.1288  0.5822  1.4563
 5212SOL    HW217078   2.339  -0.037   5.670 -0.0176  2.0990 -1.6204
 5213SOL     OW17079   1.395   7.145   8.722  0.5363 -0.5069  0.0449
 5213SOL    HW117080   1.327   7.157   8.788  1.1411  0.7427  0.4692
 5213SOL    HW217081   1.417   7.052   8.726 -0.1239 -0.6358  0.9036
 5214SOL     OW17082   0.331   7.062   9.638  0.0117  0.6087 -0.1436
 5214SOL    HW117083   0.358   7.074   9.547 -1.1512 -0.7572 -0.7139
 5214SOL    HW217084   0.409   7.027   9.682 -0.3714 -2.1912 -1.4879
 5215SOL     OW17085   1.655   6.482   9.114 -0.1999  0.3678  0.0322
 5215SOL    HW117086   1.622   6.394   9.133  0.0738  0.4605  0.9732
 5215SOL    HW217087   1.750   6.471   9.105 -0.2795  0.3937 -0.9444
 5216SOL     OW17088   4.093   6.279   7.337 -0.1093  0.1518  0.0042
 5216SOL    HW117089   4.041   6.238   7.406 -0.1411  2.3885  1.4296
 5216SOL    HW217090   4.029   6.324   7.282 -0.0012 -0.8000 -0.9224
 5217SOL     OW17091   2.471   0.104   8.495 -0.0382  0.0985  0.6344
 5217SOL    HW117092   2.451   0.011   8.503  1.3893 -0.1927  1.0458
 5217SOL    HW217093   2.430   0.143   8.572  1.8926 -0.6771  2.1506
 5218SOL     OW17094   0.799   5.067   9.506 -0.2166  0.1844  0.4507
 5218SOL    HW117095   0.732   5.070   9.574  0.9480  2.7492  1.6485
 5218SOL    HW217096   0.868   5.012   9.542 -0.3266  0.1532  0.6117
 5219SOL     OW17097   1.104   5.521   9.810 -0.1679  0.1670 -0.5376
 5219SOL    HW117098   1.121   5.445   9.866 -2.4712 -0.1976 -0.2119
 5219SOL    HW217099   1.071   5.484   9.728 -0.5087  0.7779 -0.6856
 5220SOL     OW17100   2.694   7.015   8.573  0.0696 -0.4647 -0.0034
 5220SOL    HW117101   2.688   7.097   8.623 -3.2937  0.4680 -1.6899
 5220SOL    HW217102   2.661   6.948   8.633 -1.4799  0.2023 -0.0775
 5221SOL     OW17103   7.995   6.288   8.820  0.0033 -0.1606  0.0292
 5221SOL    HW117104   8.010   6.286   8.915  0.4568  0.3234 -0.0289
 5221SOL    HW217105   7.909   6.248   8.809 -0.1689  0.0111  0.6715
 5222SOL     OW17106   1.636   6.840   9.424  0.0008  0.4543  0.4995
 5222SOL    HW117107   1.565   6.888   9.468  0.5087  0.6176  1.1501
 5222SOL    HW217108   1.597   6.756   9.400 -0.1943  0.2390  1.5524
 5223SOL     OW17109   0.870   0.562   9.980  0.6924 -0.5600  0.0876
 5223SOL    HW117110   0.962   0.545   9.958  0.1914 -0.8657 -1.8808
 5223SOL    HW217111   0.828   0.476   9.979  0.5726 -0.5966  2.2355
 5224SOL     OW17112   0.825   5.571   6.968  0.6079  0.4259 -0.2181
 5224SOL    HW117113   0.780   5.604   7.046 -0.7096  0.9317 -1.1495
 5224SOL    HW217114   0.811   5.477   6.971  1.9005  0.2412  0.9460
 5225SOL     OW17115   7.453   4.612  10.149  0.4207 -0.2145  0.6692
 5225SOL    HW117116   7.432   4.520  10.134  0.2944  0.1254 -1.5150
 5225SOL    HW217117   7.386   4.661  10.102  1.6874  0.9617 -0.0098
 5226SOL     OW17118   1.822   1.822   8.019  0.4510 -0.0530 -0.2692
 5226SOL    HW117119   1.819   1.806   8.113  1.4441  0.7066 -0.0878
 5226SOL    HW217120   1.736   1.794   7.987  0.1217 -0.3746  0.8457
 5227SOL     OW17121   1.616   0.942   6.911 -0.5250 -0.6447  0.3246
 5227SOL    HW117122   1.648   1.032   6.921  0.9692 -1.1683  0.4739
 5227SOL    HW217123   1.684   0.898   6.860 -0.5032 -2.0874  1.5393
 5228SOL     OW17124   1.608   6.225   8.837 -0.3416  0.5066  1.1401
 5228SOL    HW117125   1.614   6.307   8.788  0.5569 -0.4347 -0.3735
 5228SOL    HW217126   1.522   6.228   8.878  0.1160  2.7313  2.1028
 5229SOL     OW17127   0.847   0.152   8.431  0.1208  0.3349  0.4119
 5229SOL    HW117128   0.907   0.111   8.368  1.0667 -1.4449  2.3365
 5229SOL    HW217129   0.759   0.135   8.395  0.4647 -3.3289  0.9135
 5230SOL     OW17130   1.656   5.702   9.576  0.2995  0.8151  0.7279
 5230SOL    HW117131   1.627   5.785   9.616  0.7623  1.1827  0.3121
 5230SOL    HW217132   1.594   5.688   9.504  0.0520  0.6520  0.9694
 5231SOL     OW17133   0.676   5.740   8.626  0.6903  0.2572  0.8896
 5231SOL    HW117134   0.661   5.796   8.550 -1.2993  0.0993  1.1091
 5231SOL    HW217135   0.589   5.727   8.664  1.5768  0.0733  3.0162
 5232SOL     OW17136   0.921   4.761   8.708  0.0124 -0.3772  0.2375
 5232SOL    HW117137   1.001   4.736   8.755  0.2584  0.1289  0.0944
 5232SOL    HW217138   0.860   4.788   8.777 -0.2755 -1.4129  0.3987
 5233SOL     OW17139   1.627   5.623   9.125 -0.5201 -0.2735 -0.3880
 5233SOL    HW117140   1.697   5.594   9.184 -0.6825  1.0322  0.4780
 5233SOL    HW217141   1.653   5.589   9.039  2.5759  2.3303 -0.6430
 5234SOL     OW17142   0.777   6.436   9.672 -0.2658 -0.2298 -0.0155
 5234SOL    HW117143   0.690   6.461   9.703 -0.7470 -1.6810 -0.1200
 5234SOL    HW217144   0.810   6.376   9.739  0.6591  0.2952  0.0139
 5235SOL     OW17145   2.439   0.764   9.816 -0.4667  0.1741 -0.6083
 5235SOL    HW117146   2.429   0.669   9.810 -2.3125  0.2905  0.0117
 5235SOL    HW217147   2.352   0.796   9.838  0.7123  1.7334  2.3425
 5236SOL     OW17148   0.782   5.277   5.955 -0.1930 -0.0220  0.0558
 5236SOL    HW117149   0.824   5.311   5.876 -1.1944  1.0293 -0.0496
 5236SOL    HW217150   0.725   5.347   5.984  0.2121 -0.3638  1.7877
 5237SOL     OW17151   0.185   6.051   9.268 -0.1211 -0.3044  0.1910
 5237SOL    HW117152   0.170   6.119   9.332  0.8674 -0.0564  0.1758
 5237SOL    HW217153   0.245   6.090   9.204  1.3956 -1.5143  0.7946
 5238SOL     OW17154   0.466   0.097   8.812 -0.4349 -0.2319 -0.7488
 5238SOL    HW117155   0.436   0.185   8.835  1.2082 -0.2953  2.1453
 5238SOL    HW217156   0.559   0.108   8.793 -0.5030 -1.1769 -1.7214
 5239SOL     OW17157   2.072   7.011   9.228 -0.2996 -0.1390  0.3826
 5239SOL    HW117158   1.996   7.017   9.286  0.5672  0.8996  1.4851
 5239SOL    HW217159   2.037   6.981   9.145 -1.6985 -1.0517  1.2536
 5240SOL     OW17160   3.267   6.848   9.964 -0.2704  0.4578 -0.3294
 5240SOL    HW117161   3.244   6.916  10.027 -0.3287 -0.2009  0.3786
 5240SOL    HW217162   3.362   6.852   9.957 -0.3220  1.0012 -0.7417
 5241SOL     OW17163   7.586   6.740   9.033 -0.7396 -0.1589  0.3948
 5241SOL    HW117164   7.655   6.694   9.081 -0.7204  0.1559  0.6685
 5241SOL    HW217165   7.605   6.833   9.046  0.4292 -0.0237 -1.8691
 5242SOL     OW17166   2.767   5.421   7.626  0.2250  0.0981 -0.4533
 5242SOL    HW117167   2.732   5.416   7.537  1.5415  0.4911 -1.0033
 5242SOL    HW217168   2.806   5.508   7.632 -1.1117  0.6585  1.0122
 5243SOL     OW17169   2.156   5.452   8.006 -0.3050  0.3270 -0.1215
 5243SOL    HW117170   2.131   5.463   7.914  0.3518  1.5716 -0.1745
 5243SOL    HW217171   2.140   5.538   8.045  2.8822  0.9739  0.0416
 5244SOL     OW17172   0.184   0.829   8.160  0.1051 -0.0963  0.5874
 5244SOL    HW117173   0.259   0.828   8.219  0.3849 -0.5270  0.2316
 5244SOL    HW217174   0.113   0.789   8.212  0.2048  0.0137  0.8115
 5245SOL     OW17175   3.065   6.777   8.075 -0.0096 -0.0446  0.1705
 5245SOL    HW117176   3.004   6.848   8.054  1.3071  0.8267 -0.8968
 5245SOL    HW217177   3.078   6.731   7.993 -0.9299 -1.6543  0.8717
 5246SOL     OW17178   1.249   6.059  10.096  0.0704  0.2166 -0.0297
 5246SOL    HW117179   1.217   6.121  10.030 -0.6723  0.3481  0.4409
 5246SOL    HW217180   1.171   6.035  10.146  0.4843 -0.5107  0.2855
 5247SOL     OW17181   0.095   5.288   7.442  0.2898 -0.0520  0.5591
 5247SOL    HW117182   0.122   5.337   7.364  0.4402  2.1924  1.9514
 5247SOL    HW217183   0.167   5.227   7.458  0.9393  0.4880 -0.2283
 5248SOL     OW17184   1.016   6.475   6.879 -0.3372  0.2984 -0.3222
 5248SOL    HW117185   1.064   6.420   6.818 -0.0220 -1.2997  1.2936
 5248SOL    HW217186   1.084   6.524   6.926 -0.2916 -1.1676  1.2183
 5249SOL     OW17187   5.706   6.270   9.983  0.3224 -0.1184  0.1441
 5249SOL    HW117188   5.651   6.341  10.017 -0.1662 -0.6319  0.4404
 5249SOL    HW217189   5.703   6.203  10.051 -1.3700 -1.5443 -1.2162
 5250SOL     OW17190   0.390   7.818   6.667 -0.5901  0.5068  0.2019
 5250SOL    HW117191   0.469   7.785   6.624 -1.1945  2.5296 -2.7527
 5250SOL    HW217192   0.352   7.741   6.709  1.9550 -0.8983  0.1312
 5251SOL     OW17193   7.830   7.734   8.428 -0.0836  0.5431  0.9286
 5251SOL    HW117194   7.895   7.708   8.363 -0.7954  0.9320  0.0378
 5251SOL    HW217195   7.760   7.668   8.420 -0.0925  0.4795  1.4504
 5252SOL     OW17196   0.833   6.662   9.196 -0.4457 -0.4696  0.5157
 5252SOL    HW117197   0.827   6.658   9.100 -2.2821  2.1344  0.4193
 5252SOL    HW217198   0.922   6.693   9.213 -0.4253  0.0306 -0.4253
 5253SOL     OW17199   0.605   7.135   9.161  0.0994  0.0871  0.2979
 5253SOL    HW117200   0.619   7.202   9.094 -0.7975  0.9040  0.8987
 5253SOL    HW217201   0.680   7.076   9.153  0.3543  0.5619 -0.9566
 5254SOL     OW17202   1.316   7.151   7.802 -0.1838 -0.3987  0.0498
 5254SOL    HW117203   1.296   7.192   7.886 -2.3886 -0.7061 -0.2701
 5254SOL    HW217204   1.301   7.058   7.816  4.2089 -1.2623  0.6081
 5255SOL     OW17205   7.483   7.587   8.824 -0.0523  0.1548  0.1234
 5255SOL    HW117206   7.395   7.573   8.789 -0.4737  0.5121  0.9953
 5255SOL    HW217207   7.525   7.501   8.821 -0.7312 -0.1963  0.4813
 5256SOL     OW17208   0.484   6.673   7.343  0.5235  0.4283 -0.5409
 5256SOL    HW117209   0.559   6.651   7.287  0.6356 -2.3736  0.5475
 5256SOL    HW217210   0.523   6.684   7.430 -0.3176 -1.6342  0.1492
 5257SOL     OW17211   1.148   7.537   7.920  0.3707 -0.0272 -0.2229
 5257SOL    HW117212   1.056   7.542   7.949  1.5451  0.0390  4.2950
 5257SOL    HW217213   1.181   7.626   7.930  1.3266 -0.3756 -0.1535
 5258SOL     OW17214   0.162   7.912   9.171 -0.3547 -0.6600 -0.4164
 5258SOL    HW117215   0.237   7.972   9.174 -0.0176 -1.0278 -1.1087
 5258SOL    HW217216   0.132   7.917   9.080 -0.7609 -1.0163 -0.3050
 5259SOL     OW17217   7.754   5.532   8.893  0.4258 -0.3853 -0.9103
 5259SOL    HW117218   7.829   5.545   8.834  0.2373 -0.0368 -1.0749
 5259SOL    HW217219   7.710   5.454   8.860 -0.1204  0.2458 -1.7038
 5260SOL     OW17220   0.739   6.500   7.891  1.1507 -0.2609 -0.4082
 5260SOL    HW117221   0.757   6.485   7.798 -0.9025  0.5539 -1.0084
 5260SOL    HW217222   0.646   6.522   7.894  0.8151 -1.6228  2.0286
 5261SOL     OW17223   3.891   6.795   7.597 -0.1679 -0.0774 -0.4057
 5261SOL    HW117224   3.930   6.749   7.523  0.3539 -1.9240  0.9450
 5261SOL    HW217225   3.965   6.832   7.645  0.1223 -3.1347  1.8638
 5262SOL     OW17226   7.815   6.240   9.018 -0.2985 -0.2237 -0.2339
 5262SOL    HW117227   7.841   6.278   9.102 -0.4823 -1.9688  0.6674
 5262SOL    HW217228   7.732   6.283   8.997 -0.5390 -0.1674  0.7745
 5263SOL     OW17229   0.444   7.528   9.303  0.1547 -0.1815 -0.2211
 5263SOL    HW117230   0.473   7.504   9.215 -0.5765 -0.3706 -0.4181
 5263SOL    HW217231   0.384   7.458   9.329 -0.8773  0.6731 -0.2198
 5264SOL     OW17232   2.344   4.642  11.399 -0.5891  0.1471 -0.4344
 5264SOL    HW117233   2.298   4.726  11.398 -1.9305 -0.5587 -1.9066
 5264SOL    HW217234   2.293   4.586  11.341  2.0972 -0.7395 -2.1248
 5265SOL     OW17235   0.371   6.912   8.776  0.3893  0.2427  0.0624
 5265SOL    HW117236   0.296   6.910   8.717 -0.8227  1.1159  1.5015
 5265SOL    HW217237   0.377   7.004   8.804  0.5367 -0.2555  1.7630
 5266SOL     OW17238   1.106   6.279   9.112 -0.2021 -0.0809  0.2429
 5266SOL    HW117239   1.158   6.249   9.186  0.8082 -0.6140 -0.6603
 5266SOL    HW217240   1.142   6.364   9.089 -0.0202 -0.2452 -0.0929
 5267SOL     OW17241   1.579   6.035   9.740  0.3950  0.6337  0.2474
 5267SOL    HW117242   1.531   5.989   9.809  0.7292 -0.1086 -0.0118
 5267SOL    HW217243   1.626   6.104   9.787 -0.0036  0.6327  0.6582
 5268SOL     OW17244   0.123   7.653   9.227  0.0628  0.4408 -0.4165
 5268SOL    HW117245   0.150   7.744   9.214  0.0642  0.2234 -2.1335
 5268SOL    HW217246   0.125   7.614   9.140  1.7328 -1.7076  0.4817
 5269SOL     OW17247   2.332   5.953   7.045 -0.2014  0.2592  0.1426
 5269SOL    HW117248   2.363   5.918   7.128 -0.8331 -0.8067 -0.0574
 5269SOL    HW217249   2.240   5.973   7.060 -0.0359  1.1655  0.0298
 5270SOL     OW17250   1.880   0.678   8.576 -0.0593  0.2088  0.5720
 5270SOL    HW117251   1.790   0.687   8.606 -0.0933  0.8992  0.2763
 5270SOL    HW217252   1.903   0.764   8.542  0.4639 -0.1593 -0.0417
 5271SOL     OW17253   1.440   7.506   7.118 -0.5451 -0.6537 -0.2221
 5271SOL    HW117254   1.478   7.542   7.038 -1.3027  1.7357  0.3907
 5271SOL    HW217255   1.346   7.522   7.109 -0.5318  0.9256  1.6452
 5272SOL     OW17256   1.346   0.855   8.125 -0.3104  0.0431 -0.3751
 5272SOL    HW117257   1.310   0.802   8.196  0.3926 -0.7237 -0.5744
 5272SOL    HW217258   1.320   0.808   8.045  1.6948 -0.9451 -0.5081
 5273SOL     OW17259   0.774   7.025   8.754 -0.0059  0.2903  0.3379
 5273SOL    HW117260   0.812   6.961   8.694 -1.8917  0.3255 -0.9679
 5273SOL    HW217261   0.725   6.972   8.817 -0.8339  0.3983 -0.2092
 5274SOL     OW17262   2.514   5.721   7.540  0.7456 -0.3817 -0.4552
 5274SOL    HW117263   2.458   5.791   7.573  0.3395 -0.5771 -0.7292
 5274SOL    HW217264   2.495   5.647   7.597  0.3871 -0.5808 -0.8228
 5275SOL     OW17265   1.672   7.455   7.359  0.6530 -0.0214  0.3019
 5275SOL    HW117266   1.583   7.483   7.341  0.8878  0.3226 -0.3396
 5275SOL    HW217267   1.672   7.433   7.453  0.1220  0.8188  0.5108
 5276SOL     OW17268   7.623   6.388   9.780 -0.1958 -0.5042 -0.0054
 5276SOL    HW117269   7.612   6.470   9.732 -2.0466 -1.0275 -0.5416
 5276SOL    HW217270   7.667   6.330   9.718  1.4267  0.1291  0.4879
 5277SOL     OW17271   1.305   7.033   7.256 -0.6390  0.3098 -0.6376
 5277SOL    HW117272   1.343   6.983   7.184 -0.7178 -1.2930  0.4015
 5277SOL    HW217273   1.333   7.123   7.239  0.4909 -0.2429 -1.9135
 5278SOL     OW17274   0.952   6.341   9.431 -0.1952 -0.4345  0.6943
 5278SOL    HW117275   0.989   6.428   9.417  0.4568 -0.7165  0.5705
 5278SOL    HW217276   0.884   6.353   9.497  0.0393  0.1324  0.8388
 5279SOL     OW17277   7.476   0.557   7.679  0.1284 -0.1363  0.1929
 5279SOL    HW117278   7.409   0.498   7.645 -0.1005 -0.1151  0.6000
 5279SOL    HW217279   7.439   0.645   7.669 -0.3665 -0.1844  1.3941
 5280SOL     OW17280   1.263   0.490   8.473  0.0919  0.3737 -0.2397
 5280SOL    HW117281   1.333   0.435   8.438 -0.1910  0.2452 -0.6127
 5280SOL    HW217282   1.197   0.428   8.504  0.7739  0.4524  1.4782
 5281SOL     OW17283   3.421   6.845   7.283  0.3040  0.3586  0.1353
 5281SOL    HW117284   3.380   6.841   7.369  0.9544  1.2683  0.5038
 5281SOL    HW217285   3.470   6.927   7.283  1.3373 -0.2265 -0.6428
 5282SOL     OW17286   7.566   7.840   7.568  0.1250  0.6301 -0.0277
 5282SOL    HW117287   7.529   7.907   7.626  1.0263  0.3478  0.9151
 5282SOL    HW217288   7.658   7.865   7.559  0.4406 -0.3865  0.2357
 5283SOL     OW17289   1.200   0.608   6.996 -0.6999  0.1309 -0.2802
 5283SOL    HW117290   1.177   0.527   6.951 -0.5826 -0.7179  1.1271
 5283SOL    HW217291   1.262   0.581   7.064 -1.1408  1.2968  0.6135
 5284SOL     OW17292   0.846   5.612   9.943 -0.7465  0.1919 -0.5683
 5284SOL    HW117293   0.895   5.588  10.021  1.1970  1.9035 -1.1691
 5284SOL    HW217294   0.901   5.582   9.870 -1.6501  0.2229 -1.2881
 5285SOL     OW17295   1.464   6.589   5.771 -0.0469  0.1760  0.0463
 5285SOL    HW117296   1.547   6.624   5.805 -0.7027  0.0710  1.8685
 5285SOL    HW217297   1.489   6.507   5.729  0.9324  0.7632 -0.5903
 5286SOL     OW17298   1.928   7.348   6.575  0.0035  0.2673  0.0693
 5286SOL    HW117299   1.894   7.371   6.489  1.2738  1.2050 -0.2178
 5286SOL    HW217300   1.851   7.325   6.626 -0.7860 -0.1305 -1.2625
 5287SOL     OW17301   7.529   7.022   8.212 -0.1690  0.0276 -0.6080
 5287SOL    HW117302   7.606   7.026   8.269 -0.1198  0.3559 -0.6945
 5287SOL    HW217303   7.508   6.928   8.206 -1.8110  0.1355  2.1186
 5288SOL     OW17304   1.121   7.250   8.799  0.2133 -0.7700 -0.5671
 5288SOL    HW117305   1.031   7.262   8.830 -0.0314 -0.1961 -1.4720
 5288SOL    HW217306   1.155   7.179   8.853 -0.5986 -0.6158  0.1696
 5289SOL     OW17307   2.366   6.663   7.780 -0.2927  0.4709  0.8950
 5289SOL    HW117308   2.286   6.691   7.736 -0.2000 -0.5421  0.0474
 5289SOL    HW217309   2.410   6.745   7.805 -0.8087  1.0525 -0.0635
 5290SOL     OW17310   0.957   6.675   8.158  0.3505 -0.1291  0.6560
 5290SOL    HW117311   0.978   6.603   8.099  1.4982 -0.1665  1.0730
 5290SOL    HW217312   1.012   6.660   8.235  0.6125  1.1807  0.7539
 5291SOL     OW17313   0.213   7.345   7.200 -0.3537 -0.2484 -0.2065
 5291SOL    HW117314   0.199   7.321   7.292 -0.4660  2.4822  0.5791
 5291SOL    HW217315   0.283   7.410   7.202  0.6290 -1.1477 -2.2564
 5292SOL     OW17316   1.838   6.504  10.287  0.1695  0.2487  0.1684
 5292SOL    HW117317   1.887   6.427  10.258  0.6475  0.7567 -0.3822
 5292SOL    HW217318   1.746   6.483  10.268 -0.0448 -1.2808  2.4415
 5293SOL     OW17319   2.473   6.777   8.308 -0.8610  0.3286 -0.5139
 5293SOL    HW117320   2.554   6.732   8.284 -0.1826  0.6181  1.1136
 5293SOL    HW217321   2.404   6.714   8.287 -0.0907 -0.5929 -0.3836
 5294SOL     OW17322   7.934   7.458   9.848  0.1791  0.2732 -0.3791
 5294SOL    HW117323   7.950   7.386   9.787  3.0517  1.2566 -0.9478
 5294SOL    HW217324   7.914   7.533   9.793 -2.1968  0.1420  0.1877
 5295SOL     OW17325   1.206   5.714   9.151  0.5632  0.2249 -0.2884
 5295SOL    HW117326   1.213   5.806   9.127  1.3138  0.1110 -0.5349
 5295SOL    HW217327   1.127   5.709   9.205  0.2506  0.9226 -0.6704
 5296SOL     OW17328   1.585   6.914   8.803 -0.6248  0.2713  0.3829
 5296SOL    HW117329   1.657   6.902   8.742 -0.3503 -2.2409  1.0826
 5296SOL    HW217330   1.509   6.875   8.759 -0.9241  0.4406  0.7395
 5297SOL     OW17331   3.230   6.841   9.382 -0.3710 -0.1500  0.2491
 5297SOL    HW117332   3.302   6.829   9.321 -0.8921 -2.3581 -0.0186
 5297SOL    HW217333   3.257   6.794   9.462  0.0430  2.1798  1.5696
 5298SOL     OW17334   0.647   7.667   6.681  0.4509  0.4040  0.0183
 5298SOL    HW117335   0.690   7.635   6.602  0.9097  1.4110 -0.1527
 5298SOL    HW217336   0.700   7.631   6.753  0.9689  0.7751 -0.1710
 5299SOL     OW17337   0.531   6.857   7.135 -0.3708  0.4007  0.0629
 5299SOL    HW117338   0.483   6.859   7.218 -0.0434 -0.7661  0.2892
 5299SOL    HW217339   0.463   6.863   7.068 -0.6086  1.8658  0.3881
 5300SOL     OW17340   0.155   7.002   9.125 -0.1068  0.0644 -0.1544
 5300SOL    HW117341   0.100   7.011   9.047 -1.3498 -2.3621  0.3669
 5300SOL    HW217342   0.121   7.067   9.186  0.1159  1.1749 -1.1799
 5301SOL     OW17343   0.906   0.028   8.866 -0.0074  0.5800  0.0858
 5301SOL    HW117344   0.828   0.050   8.815 -0.9512 -0.0731  1.2007
 5301SOL    HW217345   0.950   0.112   8.881 -0.7360  1.0140 -0.1656
 5302SOL     OW17346   2.191   6.740   8.161 -0.7662  0.1002  0.1699
 5302SOL    HW117347   2.121   6.742   8.096  0.0581 -0.7310 -0.7849
 5302SOL    HW217348   2.222   6.650   8.160 -0.3673  0.2016  1.3441
 5303SOL     OW17349   1.161   7.476  10.358  0.3961  0.3503  0.1211
 5303SOL    HW117350   1.134   7.465  10.449  1.2981 -0.2124  0.3320
 5303SOL    HW217351   1.253   7.448  10.356  0.2252 -0.2228 -1.0770
 5304SOL     OW17352   0.611   5.855   9.462  0.2913 -0.3658  0.2208
 5304SOL    HW117353   0.597   5.772   9.505  4.2000  0.9165  4.8521
 5304SOL    HW217354   0.677   5.837   9.395  1.2799 -1.0843  1.3482
 5305SOL     OW17355   2.340   6.437   9.638 -0.1008 -0.0477  0.0536
 5305SOL    HW117356   2.371   6.350   9.613  1.2536  0.2184  0.6733
 5305SOL    HW217357   2.304   6.474   9.558  1.1475 -0.4421 -0.7245
 5306SOL     OW17358   1.565   4.506   7.877  0.5304  0.4660  0.5366
 5306SOL    HW117359   1.592   4.543   7.961  1.1559  0.6260  0.2718
 5306SOL    HW217360   1.509   4.573   7.838 -1.7639 -0.5756  1.8541
 5307SOL     OW17361   0.192   7.614   9.775 -0.1540  0.1197 -0.0822
 5307SOL    HW117362   0.146   7.623   9.691 -0.2946  2.8562  0.2005
 5307SOL    HW217363   0.122   7.610   9.840 -0.0220 -0.9342  0.0160
 5308SOL     OW17364   0.792   5.007   9.906  0.2134  0.2688 -0.3118
 5308SOL    HW117365   0.708   4.994   9.949  0.9094  1.4751  1.5340
 5308SOL    HW217366   0.779   5.084   9.850 -0.1055  0.0086 -0.5958
 5309SOL     OW17367   3.408   7.632   9.085  0.0793 -0.5645  0.0259
 5309SOL    HW117368   3.487   7.580   9.068  1.0762  0.4193  1.4394
 5309SOL    HW217369   3.341   7.568   9.106  0.8978 -1.3589  0.2658
 5310SOL     OW17370   0.617   6.813   8.798  0.1307  0.0362 -0.4141
 5310SOL    HW117371   0.614   6.770   8.712  0.7191 -0.3588 -0.2442
 5310SOL    HW217372   0.528   6.844   8.813 -1.1085 -3.5866  0.7018
 5311SOL     OW17373   0.814   7.672   8.601  0.3499  0.3400  0.0153
 5311SOL    HW117374   0.893   7.650   8.651  0.0206 -0.5954  0.1396
 5311SOL    HW217375   0.745   7.675   8.667  0.1077  0.2045 -0.2336
 5312SOL     OW17376   0.245   6.414   7.729  0.4561  0.1062  0.1856
 5312SOL    HW117377   0.294   6.461   7.797 -0.8983  0.4418  0.9523
 5312SOL    HW217378   0.185   6.358   7.777  1.3446 -1.7289 -0.7291
 5313SOL     OW17379   0.293   6.070   7.826 -0.4968  1.0442 -0.0638
 5313SOL    HW117380   0.267   5.984   7.857 -0.3185  0.5431 -1.2602
 5313SOL    HW217381   0.213   6.123   7.833 -1.1469  0.2489 -1.1617
 5314SOL     OW17382   3.034   7.394   8.614 -0.2678 -0.2836  0.2776
 5314SOL    HW117383   3.037   7.340   8.535  0.5787  0.5682 -0.2992
 5314SOL    HW217384   2.994   7.476   8.585 -0.0727 -0.0128  0.7631
 5315SOL     OW17385   7.883   7.730   9.357  0.3841 -0.1194  0.0758
 5315SOL    HW117386   7.864   7.808   9.305  0.8281 -0.0932 -0.0561
 5315SOL    HW217387   7.952   7.685   9.308 -1.0065 -1.4833 -0.7261
 5316SOL     OW17388   7.644   0.685   8.150  0.7807 -0.0157  0.6649
 5316SOL    HW117389   7.573   0.748   8.142 -0.0055 -0.7539  1.5911
 5316SOL    HW217390   7.723   0.738   8.162  0.4737  0.8229 -0.8226
 5317SOL     OW17391   0.688   4.788   9.319  0.0463  0.1992 -0.5669
 5317SOL    HW117392   0.627   4.714   9.320 -0.1894  0.3843  1.2839
 5317SOL    HW217393   0.772   4.751   9.343 -0.1527  0.5726  0.7638
 5318SOL     OW17394   3.767   6.014   7.628  0.1349 -0.0733 -0.3577
 5318SOL    HW117395   3.817   5.942   7.666 -0.2022  0.4893  1.2442
 5318SOL    HW217396   3.677   5.982   7.626 -0.0447  0.3476  0.5281
 5319SOL     OW17397   7.211   6.893   6.654  0.2802  0.3182  0.6920
 5319SOL    HW117398   7.259   6.819   6.618  0.0922  0.0315  1.0204
 5319SOL    HW217399   7.159   6.926   6.580  0.8700  0.5492  0.3718
 5320SOL     OW17400   2.669   7.228   8.730  0.3758  0.1482 -0.4339
 5320SOL    HW117401   2.654   7.303   8.673  0.9615 -0.5710 -1.5789
 5320SOL    HW217402   2.724   7.262   8.801  0.1927  0.9157 -0.6493
 5321SOL     OW17403   1.222   7.354   9.446  0.0308  0.3089 -0.0014
 5321SOL    HW117404   1.210   7.344   9.351  0.7152  0.0197 -0.0667
 5321SOL    HW217405   1.186   7.274   9.483  2.8592 -1.2303 -0.3052
 5322SOL     OW17406   1.285   1.069   8.296  0.3879 -0.1850  0.8835
 5322SOL    HW117407   1.305   1.001   8.232  1.8214  0.1357  0.9465
 5322SOL    HW217408   1.197   1.049   8.327 -1.3772  0.9235 -2.8219
 5323SOL     OW17409   1.108   6.439   8.080 -0.4919  0.1883  0.6255
 5323SOL    HW117410   1.172   6.508   8.061 -0.8148  0.7836  1.6288
 5323SOL    HW217411   1.103   6.389   7.999 -0.5276  1.5783 -0.2711
 5324SOL     OW17412   1.710   6.339   7.993 -0.2639  0.3997  0.3238
 5324SOL    HW117413   1.798   6.348   7.956 -0.7801 -0.6681 -1.2807
 5324SOL    HW217414   1.656   6.311   7.920 -1.4659 -1.3041  1.7665
 5325SOL     OW17415   1.587   0.020   6.934  0.2963 -1.2791  0.0977
 5325SOL    HW117416   1.675  -0.014   6.950  0.2767 -1.1172  0.5593
 5325SOL    HW217417   1.599   0.090   6.870  0.4230 -1.6751 -0.3185
 5326SOL     OW17418   1.963   6.459   7.002 -0.3134  0.0409 -0.3277
 5326SOL    HW117419   1.980   6.553   6.994 -0.4681  0.2368  1.3730
 5326SOL    HW217420   1.971   6.426   6.912  2.2392  1.2437 -0.6416
 5327SOL     OW17421   2.501   4.591   6.926  0.1820  0.1173 -0.2450
 5327SOL    HW117422   2.505   4.553   7.014  1.3684 -0.0456 -0.3531
 5327SOL    HW217423   2.529   4.521   6.868  3.4785  1.3292 -0.3462
 5328SOL     OW17424   1.126   5.483   9.027 -0.3062  1.1896  0.1120
 5328SOL    HW117425   1.172   5.557   9.066 -0.6279  0.5466  1.8038
 5328SOL    HW217426   1.176   5.406   9.054  0.3798  0.7613 -2.1369
 5329SOL     OW17427   2.949   6.449   7.559  0.2042  0.2975 -0.2657
 5329SOL    HW117428   3.033   6.482   7.590 -0.7959  2.2920  0.4643
 5329SOL    HW217429   2.938   6.488   7.472  0.6405 -1.0994 -0.9754
 5330SOL     OW17430   7.840   7.835   9.097  0.7485 -0.1164  0.5719
 5330SOL    HW117431   7.771   7.815   9.034  0.8068 -0.8804  0.7312
 5330SOL    HW217432   7.895   7.899   9.054 -0.0432  0.4818  0.4279
 5331SOL     OW17433   1.417   6.314   7.433 -0.0683  0.3329  0.1562
 5331SOL    HW117434   1.450   6.383   7.490  0.6297 -0.5221  0.8165
 5331SOL    HW217435   1.356   6.264   7.488  0.7192 -0.5867  0.2166
 5332SOL     OW17436   7.639   5.145   8.042  0.3266  0.0200  0.0085
 5332SOL    HW117437   7.720   5.173   8.000  0.3756  1.6400  1.0664
 5332SOL    HW217438   7.666   5.115   8.129 -0.2687  1.9209  0.9259
 5333SOL     OW17439   7.279   4.395   9.803  0.3801 -0.7328 -0.2376
 5333SOL    HW117440   7.238   4.339   9.738  1.1238 -0.0272 -1.3465
 5333SOL    HW217441   7.222   4.471   9.809  0.3002 -0.8077 -0.0589
 5334SOL     OW17442   7.170   5.820   9.437  0.2786  0.4859  0.1458
 5334SOL    HW117443   7.212   5.854   9.358  1.4529  1.3137  1.0974
 5334SOL    HW217444   7.125   5.741   9.408 -1.2398  1.9730 -1.8289
 5335SOL     OW17445   0.274   6.289  10.409  0.1764 -0.0011  0.1612
 5335SOL    HW117446   0.313   6.353  10.469 -0.0638 -0.2310  0.5611
 5335SOL    HW217447   0.322   6.208  10.426  0.0140 -0.1021  0.1343
 5336SOL     OW17448   1.022   7.171   7.376  0.1080 -0.5151 -0.3917
 5336SOL    HW117449   1.024   7.125   7.292  3.4848 -1.4102  0.0459
 5336SOL    HW217450   1.047   7.261   7.354  0.1910 -0.5481 -0.4318
 5337SOL     OW17451   0.366   5.068   9.466  0.0051  0.4431  0.8363
 5337SOL    HW117452   0.270   5.066   9.467 -0.0030 -1.1904  1.8297
 5337SOL    HW217453   0.391   5.005   9.399  0.4636  2.9506 -1.5067
 5338SOL     OW17454   2.131   7.782   9.003  0.2179  0.0759  0.1654
 5338SOL    HW117455   2.175   7.857   8.962 -0.2145 -0.0237 -0.5023
 5338SOL    HW217456   2.162   7.782   9.093  0.7737  0.6329 -0.0211
 5339SOL     OW17457   0.606   5.612   9.601 -0.6883  0.8489  1.1056
 5339SOL    HW117458   0.633   5.671   9.671  0.5305  0.2881  1.1261
 5339SOL    HW217459   0.672   5.543   9.600 -0.5635  0.9416 -0.7211
 5340SOL     OW17460   0.955   5.469  10.153 -0.8550  0.2425  0.2443
 5340SOL    HW117461   1.029   5.412  10.130 -1.1018 -0.8248  1.8378
 5340SOL    HW217462   0.891   5.409  10.193 -3.3489  0.8355 -2.5602
 5341SOL     OW17463   0.756   6.663   9.935 -0.0792 -0.3155  0.9046
 5341SOL    HW117464   0.721   6.612   9.862  0.4282  0.2982  0.2211
 5341SOL    HW217465   0.713   6.627  10.012 -2.1001  0.3041  0.1243
 5342SOL     OW17466   0.144   7.724  11.524 -0.0653 -0.3410 -0.4447
 5342SOL    HW117467   0.135   7.633  11.549 -1.3167 -0.0928  0.1054
 5342SOL    HW217468   0.147   7.723  11.428  1.5002 -1.0483 -0.4145
 5343SOL     OW17469   1.582   7.108  10.988 -0.2338 -0.0216  0.0508
 5343SOL    HW117470   1.536   7.174  11.039 -0.4026 -1.3452  1.6799
 5343SOL    HW217471   1.514   7.065  10.936 -0.2841  0.3339 -0.1818
 5344SOL     OW17472   0.382   5.774  10.458  0.3693 -0.2936  0.6109
 5344SOL    HW117473   0.476   5.771  10.473  0.5494  1.6693  0.1241
 5344SOL    HW217474   0.343   5.757  10.544  1.1408 -1.2500  0.7841
 5345SOL     OW17475   0.241   5.333  10.034  0.1379 -0.3764  0.3165
 5345SOL    HW117476   0.222   5.412   9.985  0.1833 -1.5603 -1.7247
 5345SOL    HW217477   0.317   5.295   9.990 -0.5322 -2.0864  0.5489
 5346SOL     OW17478   2.105   3.863   8.911  0.0383 -0.4603  0.5235
 5346SOL    HW117479   2.192   3.879   8.876  0.1094 -0.9229  0.4888
 5346SOL    HW217480   2.082   3.775   8.881 -1.1895  0.3358 -1.0376
 5347SOL     OW17481   0.985   6.559  10.759  0.6405  0.4127  0.3998
 5347SOL    HW117482   0.965   6.594  10.846  1.0338 -1.9109  1.4844
 5347SOL    HW217483   0.908   6.582  10.706 -0.1547  0.8042  1.6757
 5348SOL     OW17484   0.859   6.999  10.411 -0.0326  0.2957 -0.1126
 5348SOL    HW117485   0.946   7.035  10.428 -0.9592  2.0699  1.2368
 5348SOL    HW217486   0.835   6.955  10.493 -0.2852 -0.4575 -0.5839
 5349SOL     OW17487   0.139   0.467   9.765  0.3365  0.0592  0.1859
 5349SOL    HW117488   0.121   0.374   9.772  0.1695 -0.1519 -2.3531
 5349SOL    HW217489   0.222   0.473   9.717 -0.1698  1.2019 -0.6125
 5350SOL     OW17490   0.858   7.489  10.633 -0.0160  0.2599  0.3434
 5350SOL    HW117491   0.879   7.396  10.625  0.5886  0.3185  1.1808
 5350SOL    HW217492   0.803   7.495  10.710  2.0942  0.9072  1.8860
 5351SOL     OW17493   1.719   7.722   9.527  0.2251  0.1575 -0.7505
 5351SOL    HW117494   1.666   7.647   9.554  1.3449  0.2278  2.0381
 5351SOL    HW217495   1.799   7.683   9.491  0.3089 -0.0050 -0.3981
 5352SOL     OW17496   0.888   0.869  11.845 -0.2869  0.1277  0.1828
 5352SOL    HW117497   0.823   0.910  11.788 -0.7677 -1.3684 -0.3769
 5352SOL    HW217498   0.849   0.872  11.932  1.4854  4.7493  1.1138
 5353SOL     OW17499   1.995   5.074  11.165 -0.4479 -0.3322 -0.3437
 5353SOL    HW117500   2.006   5.082  11.259  0.3426  1.4607 -0.5548
 5353SOL    HW217501   2.081   5.049  11.132  0.6526  3.5562 -0.9631
 5354SOL     OW17502   0.189   7.206   9.824  0.7585  0.3939  0.1881
 5354SOL    HW117503   0.238   7.155   9.759  0.1850  0.2684 -0.1513
 5354SOL    HW217504   0.196   7.155   9.905 -0.3571 -0.5724 -0.3029
 5355SOL     OW17505   2.275   0.216   9.946 -0.1307  0.1079 -0.5278
 5355SOL    HW117506   2.245   0.295   9.991 -1.9083 -0.4789 -0.6224
 5355SOL    HW217507   2.231   0.145   9.992  1.2864 -0.8375 -0.5779
 5356SOL     OW17508   1.042   5.916   8.193  0.1482 -0.3325  0.4934
 5356SOL    HW117509   1.075   5.915   8.283 -0.6300 -0.7044  0.7818
 5356SOL    HW217510   1.021   5.824   8.174  1.9255 -0.5668 -0.6894
 5357SOL     OW17511   0.702   5.525  11.206  0.1367  0.2555 -0.6519
 5357SOL    HW117512   0.715   5.608  11.252 -0.1751 -0.6004  1.0400
 5357SOL    HW217513   0.791   5.497  11.183  0.6095 -0.6808  2.0115
 5358SOL     OW17514   1.349   6.177   8.944 -0.0849  0.0688  0.2812
 5358SOL    HW117515   1.280   6.196   8.880  0.0505 -1.2554 -0.2830
 5358SOL    HW217516   1.318   6.100   8.991 -0.2075  1.0469  1.8954
 5359SOL     OW17517   6.652   6.425  11.645  0.0837  0.2049  0.1420
 5359SOL    HW117518   6.577   6.424  11.587  0.1002 -1.1025  0.0998
 5359SOL    HW217519   6.725   6.454  11.590  0.0711 -0.8819 -0.4873
 5360SOL     OW17520   0.066   6.612  10.913 -0.6844  0.5492  1.1379
 5360SOL    HW117521   0.070   6.701  10.878  1.8810  0.5249  1.1645
 5360SOL    HW217522  -0.006   6.613  10.976 -0.5375  2.6726  1.3241
 5361SOL     OW17523   3.308   7.940   9.191 -0.5126  0.4731 -0.0207
 5361SOL    HW117524   3.235   8.001   9.202 -0.8337  0.2687 -0.9114
 5361SOL    HW217525   3.290   7.896   9.107 -0.6179 -1.2903  0.8863
 5362SOL     OW17526   1.185   3.440   8.606  0.4145 -0.0292 -0.2683
 5362SOL    HW117527   1.244   3.453   8.532  0.7603  2.5307  0.3361
 5362SOL    HW217528   1.107   3.491   8.583  0.1835  0.0865  0.7379
 5363SOL     OW17529   1.740   0.228  10.853 -0.2885 -0.0944 -0.4079
 5363SOL    HW117530   1.760   0.264  10.940  0.3833 -0.9563 -0.1858
 5363SOL    HW217531   1.661   0.175  10.866 -1.0578  0.9624 -0.6542
 5364SOL     OW17532   2.251   4.770  11.032  0.6076  0.0825  0.3885
 5364SOL    HW117533   2.299   4.851  11.051  0.4252 -0.2389  2.5302
 5364SOL    HW217534   2.319   4.705  11.017  0.7552  0.6193 -1.4934
 5365SOL     OW17535   0.904   5.805  12.465 -0.0818  0.0839  0.4573
 5365SOL    HW117536   0.896   5.709  12.467 -0.3569 -0.0515 -2.5145
 5365SOL    HW217537   0.999   5.820  12.461 -0.0651 -0.1579 -0.3064
 5366SOL     OW17538   6.681   6.506  10.189  0.5555 -0.2650 -0.2643
 5366SOL    HW117539   6.758   6.563  10.197  0.1821  0.2915 -0.5946
 5366SOL    HW217540   6.686   6.473  10.099  1.0110 -1.1237  0.0540
 5367SOL     OW17541   1.208   0.167  10.007 -0.1812 -0.1599 -0.1155
 5367SOL    HW117542   1.201   0.263  10.006  0.4836 -0.1110 -1.2950
 5367SOL    HW217543   1.195   0.144  10.099  1.4295  1.2094  0.5024
 5368SOL     OW17544   0.630   7.594   9.599  0.2303 -0.0855 -0.0590
 5368SOL    HW117545   0.626   7.579   9.505 -0.5077 -0.0680 -0.0391
 5368SOL    HW217546   0.538   7.591   9.627  0.4522 -0.1983  0.6726
 5369SOL     OW17547   1.414   6.351   9.928  0.1549 -0.2390 -0.8555
 5369SOL    HW117548   1.383   6.440   9.911  0.7588  0.5681  1.7161
 5369SOL    HW217549   1.358   6.320  10.000  2.0752 -0.5947  0.5653
 5370SOL     OW17550   1.795   5.889   9.269 -0.0136 -0.3855  0.2509
 5370SOL    HW117551   1.818   5.820   9.331  2.5870  0.7932  0.7311
 5370SOL    HW217552   1.827   5.969   9.310 -1.3062  0.8939 -1.1185
 5371SOL     OW17553   1.322   7.897   6.932 -0.4934 -0.7798  0.1014
 5371SOL    HW117554   1.313   7.922   7.024  0.0734 -3.7699  1.0700
 5371SOL    HW217555   1.414   7.911   6.912 -0.7388  0.4837 -0.2811
 5372SOL     OW17556   2.650   6.180  10.138 -0.3059  0.5235  0.1977
 5372SOL    HW117557   2.584   6.126  10.094 -0.0806  0.9116 -0.6290
 5372SOL    HW217558   2.703   6.216  10.067  2.0274 -1.3039  0.8885
 5373SOL     OW17559   2.594   6.229   9.156  0.0202  0.8917  0.1203
 5373SOL    HW117560   2.583   6.188   9.242 -1.2349 -1.9830 -1.2644
 5373SOL    HW217561   2.567   6.320   9.170  0.2473  0.6479  2.8244
 5374SOL     OW17562   1.507   0.061  11.182 -0.3386  0.3372 -0.1256
 5374SOL    HW117563   1.521   0.069  11.087  2.3110  2.0105  0.2928
 5374SOL    HW217564   1.592   0.030  11.216 -0.7584  1.1735  1.8280
 5375SOL     OW17565   0.268   7.367  10.364 -0.3709  0.8372  0.0910
 5375SOL    HW117566   0.178   7.364  10.331 -0.8621 -0.2394  1.4059
 5375SOL    HW217567   0.323   7.362  10.286 -1.4532  0.7809 -0.6845
 5376SOL     OW17568   0.468   5.434  10.566  0.6990 -0.6246  0.0114
 5376SOL    HW117569   0.546   5.456  10.515  0.8565 -3.2632 -1.0722
 5376SOL    HW217570   0.466   5.338  10.566 -0.7528 -0.6881  2.8389
 5377SOL     OW17571   7.742   6.885  11.181 -0.5418  0.3090  0.3865
 5377SOL    HW117572   7.678   6.848  11.242  0.9998 -0.7198  1.4663
 5377SOL    HW217573   7.770   6.810  11.127  0.5008  0.4965  0.6439
 5378SOL     OW17574   1.150   6.728   9.545 -0.3196 -0.3287  0.3476
 5378SOL    HW117575   1.200   6.648   9.531  0.4969  0.1640  0.3801
 5378SOL    HW217576   1.063   6.698   9.570  0.4863 -1.2370  2.2856
 5379SOL     OW17577   0.443   4.948  11.050  0.2409  0.1300 -0.5125
 5379SOL    HW117578   0.481   5.026  11.010 -0.6782 -0.2939 -2.3015
 5379SOL    HW217579   0.392   4.908  10.980 -0.8355 -1.0660  0.9053
 5380SOL     OW17580   1.876   3.497   8.968 -0.2642 -0.6216 -0.0745
 5380SOL    HW117581   1.864   3.428   8.902 -0.9077  1.1107 -1.8468
 5380SOL    HW217582   1.789   3.532   8.982  0.3459  1.3920 -1.0028
 5381SOL     OW17583   1.368   7.595   8.218 -0.4555 -0.1297  0.1761
 5381SOL    HW117584   1.399   7.657   8.152 -0.9612  0.0143  0.0687
 5381SOL    HW217585   1.401   7.629   8.301  1.0667 -0.8688 -0.0903
 5382SOL     OW17586   7.218   5.814  11.654  0.4546 -0.3528  0.3357
 5382SOL    HW117587   7.273   5.800  11.578 -1.2064  2.4005 -1.5736
 5382SOL    HW217588   7.129   5.791  11.625 -0.8053  4.0118  0.0590
 5383SOL     OW17589   1.977   6.173   9.737  0.5373 -0.7433  0.4317
 5383SOL    HW117590   2.008   6.095   9.784 -0.5151 -1.1520  0.4675
 5383SOL    HW217591   2.014   6.246   9.786  2.2197 -1.2104 -0.0747
 5384SOL     OW17592   0.643   0.112   9.329  0.0584  0.2480  0.5082
 5384SOL    HW117593   0.630   0.043   9.264  0.3015 -2.5974  3.2421
 5384SOL    HW217594   0.738   0.124   9.333  0.0539  0.2907  0.4926
 5385SOL     OW17595   1.010   6.044   9.860 -0.2437 -0.6017  0.0030
 5385SOL    HW117596   1.081   6.070   9.803 -0.0429  0.7175  0.8268
 5385SOL    HW217597   0.947   6.001   9.802  0.0163  0.5779 -1.1847
 5386SOL     OW17598   2.217   6.570  11.052  0.1863 -0.0360  0.5374
 5386SOL    HW117599   2.310   6.584  11.039  0.1239  2.6453  2.2549
 5386SOL    HW217600   2.210   6.535  11.141 -0.4771  1.3664  1.0757
 5387SOL     OW17601   0.717   7.783  10.285 -0.4035 -0.2869  0.1368
 5387SOL    HW117602   0.644   7.781  10.222 -1.5497 -0.0810  1.4244
 5387SOL    HW217603   0.693   7.851  10.348  1.1462  0.1165  0.3292
 5388SOL     OW17604   0.660   7.683   8.822 -0.0728  0.0208  0.7936
 5388SOL    HW117605   0.721   7.720   8.886  0.1182  0.2607  0.4745
 5388SOL    HW217606   0.640   7.596   8.856 -0.4392  0.3682  1.4923
 5389SOL     OW17607   2.015   4.647  10.748 -0.2447  0.4463  0.2606
 5389SOL    HW117608   2.091   4.599  10.782 -0.6141  0.0562  0.5448
 5389SOL    HW217609   2.011   4.726  10.801  0.4109  0.8419 -0.2561
 5390SOL     OW17610   7.935   5.145  10.911 -0.6132  0.0455  0.2351
 5390SOL    HW117611   7.968   5.209  10.974 -2.1483  0.9529  0.1685
 5390SOL    HW217612   7.951   5.060  10.952  0.1461  0.5424  0.9792
 5391SOL     OW17613   3.098   6.036   9.840 -0.2559  0.4832 -0.0639
 5391SOL    HW117614   3.018   5.992   9.813  0.6414 -1.6226  0.5184
 5391SOL    HW217615   3.088   6.050   9.934  0.3335 -0.4631  0.1521
 5392SOL     OW17616   2.299   7.886   7.884  0.4710 -0.2066 -0.6743
 5392SOL    HW117617   2.338   7.933   7.957 -0.4732 -1.7134  0.8916
 5392SOL    HW217618   2.369   7.878   7.820  2.0929 -0.9082  1.0987
 5393SOL     OW17619   2.013   4.107   9.456  0.2776  0.5003  0.2132
 5393SOL    HW117620   1.981   4.065   9.376 -0.5496  0.9752  0.2807
 5393SOL    HW217621   2.008   4.200   9.438 -1.1515  0.6701  1.2446
 5394SOL     OW17622   1.514   7.082   9.878  0.7182 -0.5304  1.0346
 5394SOL    HW117623   1.599   7.119   9.853  0.7033 -1.2623 -0.2140
 5394SOL    HW217624   1.450   7.147   9.849  0.7534 -0.9771 -0.1051
 5395SOL     OW17625   1.219   7.158  11.563 -0.6820  0.0139 -0.0274
 5395SOL    HW117626   1.272   7.237  11.550 -0.9793 -0.0564 -1.9363
 5395SOL    HW217627   1.283   7.086  11.558 -0.6280  0.0416  0.2146
 5396SOL     OW17628   7.745   0.303  11.079 -0.4235 -0.0145 -0.2055
 5396SOL    HW117629   7.819   0.271  11.028 -0.4116 -0.4493  0.0821
 5396SOL    HW217630   7.758   0.266  11.166 -1.1608 -0.3782 -0.2458
 5397SOL     OW17631   7.301   5.759   9.172  0.0845  0.2685 -0.4218
 5397SOL    HW117632   7.352   5.680   9.187 -0.5845  0.1232  1.3216
 5397SOL    HW217633   7.331   5.791   9.087  2.6461 -0.1191  0.2490
 5398SOL     OW17634   1.890   4.831   9.139  0.3279  0.1559  0.0986
 5398SOL    HW117635   1.864   4.905   9.194  0.6505  2.4618 -2.6557
 5398SOL    HW217636   1.811   4.779   9.129 -0.6097  1.5570  0.0196
 5399SOL     OW17637   0.248   7.355   9.083  0.2669 -0.0458 -0.2750
 5399SOL    HW117638   0.213   7.436   9.046 -0.3220 -0.6300 -1.0264
 5399SOL    HW217639   0.341   7.358   9.062  0.1143  0.0968 -0.9485
 5400SOL     OW17640   1.075   5.503  10.742 -0.8704 -0.1455 -0.1553
 5400SOL    HW117641   1.121   5.528  10.822 -0.6897  0.2312 -0.3720
 5400SOL    HW217642   0.998   5.455  10.772 -1.0405  0.3809  0.2558
 5401SOL     OW17643   0.787   5.539  10.550  0.1015 -0.1270  0.3988
 5401SOL    HW117644   0.806   5.484  10.626  1.4896  1.2490  1.1011
 5401SOL    HW217645   0.840   5.501  10.480 -0.4638 -0.8432  0.3461
 5402SOL     OW17646   0.965   7.759  10.200 -0.0371 -0.0345  0.0358
 5402SOL    HW117647   1.016   7.714  10.267  1.1255  3.0406  1.4428
 5402SOL    HW217648   0.875   7.760  10.235  0.1616 -0.2148  0.5562
 5403SOL     OW17649   0.790   5.432   9.544 -0.1518  0.0288 -0.7207
 5403SOL    HW117650   0.864   5.386   9.584 -0.8298 -0.1963  0.3246
 5403SOL    HW217651   0.718   5.369   9.549 -0.8095  0.7906 -0.2789
 5404SOL     OW17652   6.923   5.531   8.368  0.4373 -0.1344 -0.3255
 5404SOL    HW117653   6.883   5.486   8.294 -1.1306 -1.0019  0.9782
 5404SOL    HW217654   6.849   5.567   8.417  1.4070  0.2329  0.9290
 5405SOL     OW17655   2.187   0.934  10.222  0.2836 -0.6546 -0.0660
 5405SOL    HW117656   2.271   0.945  10.176  0.6534 -0.5762  0.6027
 5405SOL    HW217657   2.143   1.018  10.210  0.4817 -0.5500 -0.0762
 5406SOL     OW17658   7.303   5.424   9.815 -0.1193 -0.0132  0.1322
 5406SOL    HW117659   7.363   5.378   9.874 -0.7592 -0.0199  0.7778
 5406SOL    HW217660   7.217   5.386   9.833 -0.4564  0.5826 -0.2053
 5407SOL     OW17661   0.875   6.638  10.986 -0.3833 -0.4244 -0.5116
 5407SOL    HW117662   0.884   6.692  11.064  0.8489 -0.0261 -0.9093
 5407SOL    HW217663   0.852   6.551  11.019  1.9996 -0.7478  0.4703
 5408SOL     OW17664   1.052   7.111  11.192  0.2130  0.3491  0.3226
 5408SOL    HW117665   1.001   7.042  11.233 -0.2360  0.6909  0.3504
 5408SOL    HW217666   1.138   7.072  11.177  0.3836  0.2031  1.5649
 5409SOL     OW17667   7.770   6.058   9.959  0.1728 -0.1403  0.2160
 5409SOL    HW117668   7.791   6.051   9.866 -1.2005 -2.5536 -0.0013
 5409SOL    HW217669   7.687   6.011   9.968  0.3442 -0.0922  2.6969
 5410SOL     OW17670   0.073   0.365   9.371  0.0366  0.1351 -0.6241
 5410SOL    HW117671   0.087   0.438   9.432 -1.2107  0.2591 -0.4573
 5410SOL    HW217672   0.102   0.287   9.420 -1.3069  0.1826  0.3214
 5411SOL     OW17673   1.668   0.679   7.384  0.4149  0.3252 -0.0553
 5411SOL    HW117674   1.648   0.663   7.477 -0.6554  0.5032 -0.2444
 5411SOL    HW217675   1.702   0.769   7.383 -0.6209  0.7391  0.0392
 5412SOL     OW17676   1.731   5.852  10.435  0.7211 -0.0954  0.4872
 5412SOL    HW117677   1.822   5.880  10.448  1.6888 -1.5751 -2.4047
 5412SOL    HW217678   1.722   5.776  10.492  1.8198 -0.8549 -0.3109
 5413SOL     OW17679   0.152   7.339  10.930  0.4016 -0.0674  0.5848
 5413SOL    HW117680   0.183   7.370  10.845  1.2425 -0.6758  0.6608
 5413SOL    HW217681   0.060   7.319  10.916  1.0587 -2.4484 -0.8635
 5414SOL     OW17682   6.863   4.179   9.528 -0.7049 -0.0132 -0.2453
 5414SOL    HW117683   6.785   4.212   9.573 -0.3809  0.0074  0.3111
 5414SOL    HW217684   6.889   4.249   9.469 -1.0301  0.0359 -0.3305
 5415SOL     OW17685   2.085   6.140   9.107 -0.4840  0.2009 -0.2085
 5415SOL    HW117686   2.164   6.167   9.059  1.3562 -2.0783  1.2858
 5415SOL    HW217687   2.086   6.193   9.187 -1.5712  1.4847 -1.0068
 5416SOL     OW17688   7.777   4.563   9.591  0.8224 -0.5655  0.0132
 5416SOL    HW117689   7.703   4.625   9.594 -0.2965 -1.8929  1.5887
 5416SOL    HW217690   7.836   4.600   9.525 -1.8150 -0.0976 -2.2721
 5417SOL     OW17691   1.263   4.805  10.987  0.5940  0.1543 -0.6218
 5417SOL    HW117692   1.261   4.825  10.894  0.3937  1.1205 -0.4306
 5417SOL    HW217693   1.329   4.737  10.997  2.5690  1.8735 -1.1581
 5418SOL     OW17694   1.323   7.478   8.773  0.6056  0.1341 -0.2376
 5418SOL    HW117695   1.290   7.519   8.693  0.9348  0.4183 -0.2250
 5418SOL    HW217696   1.254   7.416   8.798 -0.9823  2.2538  1.0087
 5419SOL     OW17697   2.837   5.170  10.959  0.3051 -0.2672 -0.0370
 5419SOL    HW117698   2.751   5.211  10.954  0.3375 -0.2975 -1.5706
 5419SOL    HW217699   2.866   5.184  11.049 -1.0638  0.2191  0.3483
 5420SOL     OW17700   2.573   7.538   8.337  0.2585 -0.1960 -0.8089
 5420SOL    HW117701   2.617   7.621   8.354  0.0052 -0.2740  0.2809
 5420SOL    HW217702   2.574   7.530   8.242  1.9309  0.1470 -0.8450
 5421SOL     OW17703   1.853   5.062   9.425 -0.1373 -0.7089  0.3953
 5421SOL    HW117704   1.815   4.983   9.462 -1.5716  0.5900  1.8369
 5421SOL    HW217705   1.908   5.097   9.496 -2.6442  1.6249  1.3742
 5422SOL     OW17706   1.396   3.916   9.378 -0.0345 -0.6284  0.3802
 5422SOL    HW117707   1.466   3.980   9.369 -1.7571  1.1871 -0.7664
 5422SOL    HW217708   1.367   3.925   9.469  2.0459 -2.3734  1.2820
 5423SOL     OW17709   1.823   7.423   9.441  0.2888 -0.6983 -0.1433
 5423SOL    HW117710   1.850   7.383   9.359  0.4725 -1.1473  0.1321
 5423SOL    HW217711   1.891   7.488   9.460 -0.8175  0.9073 -1.3989
 5424SOL     OW17712   0.962   6.015  10.125 -0.2543 -0.1962  0.0883
 5424SOL    HW117713   0.942   5.922  10.136 -1.5105 -0.0257 -0.6568
 5424SOL    HW217714   1.001   6.022  10.038 -1.8534  0.2128 -0.6224
 5425SOL     OW17715   4.097   7.807  11.898 -0.4059  0.0642 -0.3180
 5425SOL    HW117716   4.143   7.749  11.959 -1.5113 -0.9161 -0.3629
 5425SOL    HW217717   4.010   7.768  11.890 -0.4739  0.5062 -2.0790
 5426SOL     OW17718   1.680   7.585  11.009  0.4240  0.1942 -0.1552
 5426SOL    HW117719   1.742   7.644  10.968  0.9679 -0.5537 -0.4281
 5426SOL    HW217720   1.694   7.501  10.966 -1.3719  0.1953 -0.8414
 5427SOL     OW17721   0.466   0.683  10.573  0.0543 -0.5885 -0.1364
 5427SOL    HW117722   0.544   0.728  10.539 -1.1490  0.0846 -2.1889
 5427SOL    HW217723   0.425   0.645  10.495 -2.2345  0.0211  0.6969
 5428SOL     OW17724   1.845   3.167  10.638 -0.2268  0.1259  0.3008
 5428SOL    HW117725   1.774   3.105  10.627 -0.6285  0.7778 -0.9998
 5428SOL    HW217726   1.911   3.141  10.574 -0.1976  0.7480  0.0637
 5429SOL     OW17727   0.381   5.753  10.742  0.3133  0.4004 -0.1161
 5429SOL    HW117728   0.427   5.836  10.732 -0.2013  0.5475 -1.4700
 5429SOL    HW217729   0.382   5.736  10.836 -0.1036  2.2385  0.2470
 5430SOL     OW17730   0.967   5.643   9.278  0.3243 -0.3575 -0.1103
 5430SOL    HW117731   0.886   5.591   9.285  1.1440 -1.4889  2.0217
 5430SOL    HW217732   0.980   5.677   9.367  2.1563 -0.1700 -0.4210
 5431SOL     OW17733   2.245   4.468  11.177 -0.1145 -0.0030  0.1743
 5431SOL    HW117734   2.166   4.514  11.208 -0.7319 -1.1421  0.3464
 5431SOL    HW217735   2.211   4.390  11.133  0.8952 -0.0112 -0.6140
 5432SOL     OW17736   3.252   3.957  11.364 -0.5869 -0.0185 -0.1617
 5432SOL    HW117737   3.235   4.042  11.404  0.6500 -0.1229  0.6527
 5432SOL    HW217738   3.317   3.975  11.296 -0.0943 -0.3410  0.2155
 5433SOL     OW17739   1.689   6.510  11.346  0.0237 -0.1997  0.3166
 5433SOL    HW117740   1.604   6.475  11.372 -0.7376 -0.0870 -1.8306
 5433SOL    HW217741   1.682   6.604  11.363  0.9683 -0.5565  3.2016
 5434SOL     OW17742   1.004   0.482  11.520 -0.4235 -0.1311  0.0521
 5434SOL    HW117743   1.096   0.502  11.536  0.1470 -0.9708 -1.8951
 5434SOL    HW217744   0.994   0.392  11.550 -0.3212 -0.3925 -0.6696
 5435SOL     OW17745   0.667   7.362  10.277  0.6278 -0.7828  0.4674
 5435SOL    HW117746   0.582   7.355  10.234  0.5851 -0.3482  0.4726
 5435SOL    HW217747   0.728   7.384  10.206 -0.0244  3.8370  1.0187
 5436SOL     OW17748   1.612   6.362  10.204  0.1323 -0.0066  0.1836
 5436SOL    HW117749   1.577   6.275  10.221 -0.3832  0.0297 -0.6521
 5436SOL    HW217750   1.574   6.388  10.120  0.2006  1.0669  0.4640
 5437SOL     OW17751   1.205   6.690  10.584  0.0686 -0.5561 -0.0245
 5437SOL    HW117752   1.170   6.627  10.521  0.2993 -1.7290  0.9706
 5437SOL    HW217753   1.151   6.678  10.663 -3.4642  4.2198 -1.2770
 5438SOL     OW17754   1.565   6.763  11.376 -0.4656 -0.1567  0.3308
 5438SOL    HW117755   1.646   6.809  11.353 -1.5326  0.4196 -2.7903
 5438SOL    HW217756   1.514   6.827  11.426  0.2096  0.1189  0.6837
 5439SOL     OW17757   1.563   7.504   9.607 -0.2463 -0.6376 -0.2367
 5439SOL    HW117758   1.481   7.553   9.599 -0.4761 -0.6430  1.7034
 5439SOL    HW217759   1.556   7.435   9.541 -0.6881  0.8348 -1.7933
 5440SOL     OW17760   7.083   6.928  10.333 -0.2804 -0.3828 -0.2773
 5440SOL    HW117761   7.150   6.870  10.298  0.3983  0.2826 -0.0872
 5440SOL    HW217762   7.093   6.922  10.428 -1.4377 -1.3785 -0.1802
 5441SOL     OW17763   3.627   4.537  10.594  0.4133  0.1671  0.1746
 5441SOL    HW117764   3.662   4.619  10.559  0.7273  0.0505  0.2092
 5441SOL    HW217765   3.535   4.538  10.571  0.3981  0.5705  0.2506
 5442SOL     OW17766   7.942   5.169  11.277  0.1848 -0.6961  0.2922
 5442SOL    HW117767   7.963   5.232  11.208  0.7736 -1.8461 -0.6176
 5442SOL    HW217768   7.921   5.088  11.230  0.7536 -1.5531  1.4533
 5443SOL     OW17769   0.781   5.057  11.298 -0.4938 -0.2869 -0.1505
 5443SOL    HW117770   0.798   4.996  11.370 -0.9757 -0.0637  0.1595
 5443SOL    HW217771   0.804   5.143  11.334 -0.5699 -0.1943 -0.3205
 5444SOL     OW17772   0.921   7.154   9.968  0.2520 -0.3067 -0.8110
 5444SOL    HW117773   0.856   7.189  10.028  1.3300 -1.5898  1.2084
 5444SOL    HW217774   0.908   7.060   9.969  3.7608 -0.9581  1.8672
 5445SOL     OW17775   2.225   7.489   9.507 -0.2500  0.0921  0.0297
 5445SOL    HW117776   2.303   7.492   9.452 -0.4007 -2.0835 -0.3840
 5445SOL    HW217777   2.172   7.419   9.470 -0.3976 -1.4521  2.8532
 5446SOL     OW17778   3.179   5.753   9.798 -0.9653  0.7091  0.6361
 5446SOL    HW117779   3.250   5.771   9.859  1.8121  1.1603 -2.4732
 5446SOL    HW217780   3.158   5.839   9.760 -0.8204  0.1488 -0.7979
 5447SOL     OW17781   1.165   4.828  10.734 -0.6518 -0.2836  0.4674
 5447SOL    HW117782   1.109   4.853  10.660  1.2502 -0.0943 -0.9713
 5447SOL    HW217783   1.204   4.745  10.708 -0.3724 -0.5001  1.5208
 5448SOL     OW17784   0.533   6.184  10.488 -0.4757  0.2635 -0.5410
 5448SOL    HW117785   0.618   6.156  10.454 -0.4498 -1.4863  0.7959
 5448SOL    HW217786   0.553   6.244  10.559 -0.3698  0.2271 -0.5404
 5449SOL     OW17787   0.459   0.177  10.121 -0.1565 -0.0079  0.0935
 5449SOL    HW117788   0.481   0.192  10.029 -0.9215 -1.9905 -0.4683
 5449SOL    HW217789   0.543   0.177  10.167  0.3057  0.1976 -0.7373
 5450SOL     OW17790   2.065   5.112  10.004  0.0545  0.5511  0.1818
 5450SOL    HW117791   2.156   5.142  10.009 -0.4356  2.2905 -0.5983
 5450SOL    HW217792   2.071   5.016  10.001  1.9427  0.6705 -1.5047
 5451SOL     OW17793   7.918   6.296   9.948  0.6444 -0.3401  0.3277
 5451SOL    HW117794   8.001   6.288   9.995  1.0431  0.0022 -0.3039
 5451SOL    HW217795   7.861   6.231   9.988  1.3544 -0.8850  0.4695
 5452SOL     OW17796   1.148   5.329  10.030  0.5704 -0.0407  0.1012
 5452SOL    HW117797   1.237   5.304  10.055  0.5648 -0.7770 -0.5590
 5452SOL    HW217798   1.098   5.247  10.034 -0.2252  0.4751  1.0577
 5453SOL     OW17799   1.136   6.106  10.717  0.2805 -0.1412  0.3275
 5453SOL    HW117800   1.177   6.040  10.773  0.5278 -0.1687  0.1117
 5453SOL    HW217801   1.097   6.168  10.779  1.3592  0.3356  0.5412
 5454SOL     OW17802   1.284   6.400  10.772 -0.0492  0.1979  0.7345
 5454SOL    HW117803   1.239   6.365  10.849 -0.5443  0.9370  0.7940
 5454SOL    HW217804   1.273   6.495  10.779  1.2142  0.3780  0.5447
 5455SOL     OW17805   1.086   0.869  11.470 -0.6593  0.0285  0.1408
 5455SOL    HW117806   1.075   0.934  11.539 -0.7605 -0.8481  0.9788
 5455SOL    HW217807   1.019   0.889  11.406 -1.3606  0.1353  0.8927
 5456SOL     OW17808   1.931   7.392  12.455 -0.1526  0.4595  0.4543
 5456SOL    HW117809   1.890   7.441  12.526  1.3463  0.4285  1.3790
 5456SOL    HW217810   1.990   7.331  12.498 -1.8785 -2.1814 -0.6520
 5457SOL     OW17811   2.239   5.315  10.527 -0.5497  0.0785 -0.3264
 5457SOL    HW117812   2.265   5.227  10.553  0.6125  0.6747  0.6112
 5457SOL    HW217813   2.214   5.307  10.435 -0.2830 -1.1895 -0.2983
 5458SOL     OW17814   1.575   6.445   8.668 -0.0153  0.1755 -0.4546
 5458SOL    HW117815   1.625   6.525   8.652 -1.3255  0.7517 -1.9548
 5458SOL    HW217816   1.553   6.413   8.580 -0.7499 -1.0224  0.1479
 5459SOL     OW17817   2.307   7.129   9.780  0.5868  1.3606  0.4096
 5459SOL    HW117818   2.309   7.067   9.852 -0.2432 -0.1507 -0.8122
 5459SOL    HW217819   2.384   7.109   9.727 -0.2863  0.5498 -0.6071
 5460SOL     OW17820   1.327   5.033   9.481  0.1433 -0.4276  0.1912
 5460SOL    HW117821   1.249   5.088   9.495  0.2430 -0.3297  0.3698
 5460SOL    HW217822   1.367   5.027   9.568  0.3511 -0.4534  0.0926
 5461SOL     OW17823   7.606   5.810   9.638 -0.2123  0.5764 -0.1168
 5461SOL    HW117824   7.571   5.721   9.637  1.1883 -0.0078  0.4138
 5461SOL    HW217825   7.572   5.848   9.719 -3.0091  1.5174 -1.5722
 5462SOL     OW17826   1.258   7.351   9.721  0.1087  0.4120  0.2650
 5462SOL    HW117827   1.296   7.302   9.648  0.2737  0.5891  0.2318
 5462SOL    HW217828   1.333   7.383   9.770  0.0026 -0.2641  0.8926
 5463SOL     OW17829   2.199   4.102  11.533  0.2325  0.8751 -0.3409
 5463SOL    HW117830   2.158   4.148  11.460 -0.3725  1.2434  0.2169
 5463SOL    HW217831   2.135   4.109  11.604  0.6573  0.2164  0.1171
 5464SOL     OW17832   6.123   5.997   9.619 -0.2404  0.0132  0.6769
 5464SOL    HW117833   6.129   5.974   9.526  0.1295 -1.3011  1.0088
 5464SOL    HW217834   6.029   6.002   9.637 -0.3130  0.8060  0.1172
 5465SOL     OW17835   7.832   7.457   8.145 -0.0191  0.3031  0.3138
 5465SOL    HW117836   7.786   7.383   8.186  2.6647 -0.5229  2.0991
 5465SOL    HW217837   7.824   7.440   8.051 -0.8154 -1.3930  0.6416
 5466SOL     OW17838   2.128   7.659  10.197  0.1944 -0.2288 -0.0627
 5466SOL    HW117839   2.145   7.706  10.115  1.6670 -1.6497 -0.6220
 5466SOL    HW217840   2.122   7.567  10.171 -0.5859 -0.5746  1.2690
 5467SOL     OW17841   1.086   7.026   9.754 -0.3083  0.5550  0.1001
 5467SOL    HW117842   1.074   7.115   9.787 -2.4933  1.0340 -1.7555
 5467SOL    HW217843   1.031   6.972   9.811 -1.5346  0.9086 -0.7093
 5468SOL     OW17844   7.252   6.687  10.354 -0.1716 -0.5078  0.5418
 5468SOL    HW117845   7.298   6.620  10.404  2.3279  0.8295  0.1934
 5468SOL    HW217846   7.308   6.704  10.279 -2.5460 -0.5796 -1.4051
 5469SOL     OW17847   1.811   6.689   0.512  0.1000  0.6037 -0.4967
 5469SOL    HW117848   1.776   6.608   0.549 -0.3493  0.4817 -1.1797
 5469SOL    HW217849   1.881   6.715   0.572  0.5848 -0.5642 -0.5472
 5470SOL     OW17850   1.848   4.431  10.718  0.0023  0.4055 -0.2209
 5470SOL    HW117851   1.884   4.386  10.641  1.1586 -0.8389  0.9909
 5470SOL    HW217852   1.907   4.506  10.732  2.1903 -1.5112  1.6333
 5471SOL     OW17853   1.077   5.106   9.125  0.3553  0.7591  0.1529
 5471SOL    HW117854   1.158   5.156   9.120 -0.4705  2.1228 -0.1700
 5471SOL    HW217855   1.063   5.074   9.036  0.1701  1.1562  0.0345
 5472SOL     OW17856   0.092   6.341  10.181  0.0679  0.0104 -0.1061
 5472SOL    HW117857   0.142   6.337  10.263 -0.4613 -2.8561  0.1793
 5472SOL    HW217858   0.148   6.390  10.121  1.7705 -0.3399  1.1287
 5473SOL     OW17859   1.327   5.347  11.176  0.3037  0.5623  0.0605
 5473SOL    HW117860   1.393   5.277  11.171 -1.3637 -1.0539 -0.4806
 5473SOL    HW217861   1.352   5.398  11.254  2.7885  0.7047 -0.7358
 5474SOL     OW17862   0.301   0.304  11.316 -0.2463  0.9135  0.8059
 5474SOL    HW117863   0.374   0.277  11.372  0.3761 -0.8866 -0.7654
 5474SOL    HW217864   0.337   0.303  11.227 -2.3448 -0.9157 -0.1338
 5475SOL     OW17865   0.630   5.772   9.841  0.0365  0.4312 -0.1450
 5475SOL    HW117866   0.558   5.771   9.904  0.2206  0.6478  0.0694
 5475SOL    HW217867   0.702   5.728   9.886 -0.1362 -0.3034 -0.5733
 5476SOL     OW17868   7.899   5.996   9.295  0.1235  0.0610 -0.3603
 5476SOL    HW117869   7.951   5.946   9.359  0.2362  2.3455  1.4612
 5476SOL    HW217870   7.809   5.970   9.313  0.2069  0.2235  0.3228
 5477SOL     OW17871   6.886   6.603  11.311  0.8290 -0.6977  0.5114
 5477SOL    HW117872   6.801   6.637  11.339  0.5004 -0.1500 -1.0613
 5477SOL    HW217873   6.946   6.677  11.320  0.5981 -0.3439 -0.7423
 5478SOL     OW17874   0.653   5.977  11.635 -0.2447  0.2343  0.1422
 5478SOL    HW117875   0.639   5.898  11.583 -1.5649  0.3752  0.2530
 5478SOL    HW217876   0.578   5.979  11.695 -0.5415  1.8731 -0.2534
 5479SOL     OW17877   2.708   6.420   9.879 -0.1821  0.0100 -0.0497
 5479SOL    HW117878   2.777   6.426   9.813  0.0065 -0.5405  0.0872
 5479SOL    HW217879   2.659   6.502   9.870  1.4463  1.1494  0.9345
 5480SOL     OW17880   0.606   6.973  10.049  0.3239  0.1603  0.1458
 5480SOL    HW117881   0.588   6.903  10.112  0.7243 -0.0091  0.0707
 5480SOL    HW217882   0.690   7.009  10.075  0.8525 -0.3971 -0.7219
 5481SOL     OW17883   0.378   0.229   8.480 -0.1684 -0.0506 -0.0990
 5481SOL    HW117884   0.341   0.140   8.476  1.0394 -0.5976  0.4319
 5481SOL    HW217885   0.459   0.223   8.429  0.0049  0.7125  0.0814
 5482SOL     OW17886   1.545   7.059  10.527 -0.0836 -0.6903  0.0383
 5482SOL    HW117887   1.568   7.006  10.450 -0.6190 -0.3438 -0.3678
 5482SOL    HW217888   1.511   6.996  10.590  2.4393 -1.3299  0.8969
 5483SOL     OW17889   0.605   6.205   8.514 -0.6521 -0.0271 -0.1682
 5483SOL    HW117890   0.542   6.263   8.557 -0.3222 -0.8826  1.5703
 5483SOL    HW217891   0.551   6.135   8.476 -0.7915 -1.4864  2.4585
 5484SOL     OW17892   1.680   0.206   9.153  0.3774  0.0402 -0.1107
 5484SOL    HW117893   1.684   0.229   9.245  1.1431 -2.4928  0.5847
 5484SOL    HW217894   1.711   0.115   9.150 -1.3030 -0.5582 -2.6249
 5485SOL     OW17895   7.536   7.875   0.205  0.2332  0.1003 -0.5558
 5485SOL    HW117896   7.564   7.808   0.267  0.2711 -1.0987 -1.8271
 5485SOL    HW217897   7.523   7.953   0.259  2.5493 -0.2400  0.6046
 5486SOL     OW17898   3.049   5.806  10.080  0.5113  0.0924  0.2882
 5486SOL    HW117899   3.053   5.778  10.172  0.5196  0.4286  0.3893
 5486SOL    HW217900   3.130   5.856  10.066  1.3257 -1.3374 -0.3626
 5487SOL     OW17901   2.108   6.737  10.780 -0.7145 -0.3938 -0.1616
 5487SOL    HW117902   2.039   6.691  10.732 -0.1853 -2.1158  0.6484
 5487SOL    HW217903   2.155   6.668  10.828 -0.2346  1.0579  1.5853
 5488SOL     OW17904   0.804   7.491  10.072 -0.0329 -0.4514 -0.0820
 5488SOL    HW117905   0.870   7.534  10.127 -0.6292 -0.2474  0.4835
 5488SOL    HW217906   0.807   7.539   9.989 -0.5109  0.5183  0.4562
 5489SOL     OW17907   1.156   7.574  11.541 -0.5764 -1.1737  0.4948
 5489SOL    HW117908   1.153   7.498  11.483 -1.7546 -0.6134 -0.2230
 5489SOL    HW217909   1.064   7.593  11.560 -0.2385 -0.8756  1.9439
 5490SOL     OW17910   1.402   7.331  10.373 -1.1517  0.3662  0.0976
 5490SOL    HW117911   1.476   7.321  10.314 -1.3998  0.6943 -0.2771
 5490SOL    HW217912   1.439   7.320  10.460 -0.6341  0.6880 -0.0765
 5491SOL     OW17913   1.444   7.397   9.923 -0.8787 -0.5564 -0.0309
 5491SOL    HW117914   1.501   7.386   9.998 -0.5434 -0.4772 -0.2725
 5491SOL    HW217915   1.369   7.446   9.957 -0.9339 -0.9057  0.3478
 5492SOL     OW17916   1.146   7.577   8.553 -0.6029 -0.4507  0.1634
 5492SOL    HW117917   1.169   7.651   8.610 -1.7732 -0.8198  1.1393
 5492SOL    HW217918   1.096   7.617   8.481  1.5233  0.1224 -1.0857
 5493SOL     OW17919   6.851   7.259  10.719 -0.2675  0.0035  0.2219
 5493SOL    HW117920   6.760   7.287  10.708 -0.0121  0.9356  0.4140
 5493SOL    HW217921   6.903   7.335  10.695  0.4453 -0.2470  0.9159
 5494SOL     OW17922   0.813   6.926   9.340 -1.0259 -0.3328  0.0073
 5494SOL    HW117923   0.903   6.894   9.331 -0.9061  0.0937 -0.3413
 5494SOL    HW217924   0.759   6.854   9.307 -0.9092 -1.1743  1.5321
 5495SOL     OW17925   0.506   6.741   9.315  0.2434 -0.0576  0.4758
 5495SOL    HW117926   0.536   6.764   9.227  0.1112  0.4080  0.5475
 5495SOL    HW217927   0.415   6.773   9.319 -0.1486 -1.1374  0.3783
 5496SOL     OW17928   1.472   5.476  11.455  0.1383  0.4756 -0.1507
 5496SOL    HW117929   1.478   5.485  11.550 -1.2519 -2.4091  0.3066
 5496SOL    HW217930   1.562   5.460  11.426  0.4877  0.7800  0.7236
 5497SOL     OW17931   1.903   6.566  10.738  0.2832 -0.3235 -0.2398
 5497SOL    HW117932   1.811   6.563  10.711  0.5507  0.5637 -1.3532
 5497SOL    HW217933   1.907   6.514  10.817 -1.2923  0.0785  0.1363
 5498SOL     OW17934   1.030   6.578   9.870  0.3855 -0.1615 -0.1308
 5498SOL    HW117935   0.983   6.633   9.808  0.6063  0.4504  0.2306
 5498SOL    HW217936   0.969   6.566   9.942  0.2136 -0.6775 -0.3613
 5499SOL     OW17937   1.184   7.124  10.317  0.1933 -0.1053  0.2046
 5499SOL    HW117938   1.230   7.196  10.359 -1.0334  1.7155 -1.3724
 5499SOL    HW217939   1.144   7.076  10.389 -1.4048  2.5715  1.2725
 5500SOL     OW17940   1.171   0.399   6.659 -0.9488  0.0644 -0.3124
 5500SOL    HW117941   1.245   0.338   6.665 -0.7436  0.2359 -1.0409
 5500SOL    HW217942   1.207   0.483   6.686 -1.4009 -0.2418  1.3837
 5501SOL     OW17943   1.594   6.347  10.983  0.2388 -0.3004 -0.4557
 5501SOL    HW117944   1.640   6.428  11.006  0.4580 -0.4595 -0.3291
 5501SOL    HW217945   1.517   6.345  11.041 -0.4966  0.4778 -1.3662
 5502SOL     OW17946   0.940   7.537   9.559  0.0520 -0.2241 -0.2551
 5502SOL    HW117947   1.022   7.509   9.599 -0.8560 -1.0377  1.1268
 5502SOL    HW217948   0.947   7.509   9.468  2.1979  1.7195 -0.7591
 5503SOL     OW17949   7.736   5.971  10.932  0.0422  0.1657  0.0924
 5503SOL    HW117950   7.824   5.965  10.968 -0.0927 -0.3113  0.3470
 5503SOL    HW217951   7.678   5.968  11.008 -0.2167 -0.1568 -0.1114
 5504SOL     OW17952   6.920   6.269  10.325 -0.0669 -0.1769 -0.4366
 5504SOL    HW117953   6.970   6.331  10.272  1.3063 -0.8866 -0.0152
 5504SOL    HW217954   6.846   6.245  10.270  0.5229  0.2428 -1.4377
 5505SOL     OW17955   0.511   5.976   8.852  0.1003 -0.0698  0.1250
 5505SOL    HW117956   0.468   6.058   8.830 -0.1209 -0.1272  0.3340
 5505SOL    HW217957   0.448   5.909   8.826 -0.3784 -0.1248  1.3927
 5506SOL     OW17958   2.187   6.932  10.358 -0.1799  0.4192 -0.8640
 5506SOL    HW117959   2.143   6.854  10.324 -0.2548  0.9569 -2.0465
 5506SOL    HW217960   2.195   6.990  10.282  0.2505  1.3917 -0.0949
 5507SOL     OW17961   7.585   5.459  10.656 -0.0206  0.2282  0.4938
 5507SOL    HW117962   7.524   5.419  10.717  0.4052 -0.0991  0.7076
 5507SOL    HW217963   7.589   5.551  10.683 -0.5348  0.2862  0.3789
 5508SOL     OW17964   1.566   5.180  11.183 -0.3715 -0.2440  0.2660
 5508SOL    HW117965   1.545   5.089  11.163 -1.9743 -0.1732  1.3696
 5508SOL    HW217966   1.597   5.216  11.100 -0.4259 -1.5916 -0.3758
 5509SOL     OW17967   1.370   5.867  11.519 -0.4692 -0.2925  0.0419
 5509SOL    HW117968   1.290   5.877  11.570  0.1811  0.2206  0.9812
 5509SOL    HW217969   1.369   5.776  11.489 -2.9125  0.4529 -2.5666
 5510SOL     OW17970   2.525   7.616  11.393 -0.6371 -0.7303 -0.3201
 5510SOL    HW117971   2.597   7.652  11.341  0.1081  0.4872  1.4651
 5510SOL    HW217972   2.523   7.670  11.472 -2.0578 -2.1869  0.6960
 5511SOL     OW17973   1.211   0.175  11.605  0.1884 -0.3220  0.0264
 5511SOL    HW117974   1.267   0.189  11.681  0.2441  1.4472 -0.3058
 5511SOL    HW217975   1.122   0.185  11.637  0.1782 -0.2731 -0.0181
 5512SOL     OW17976   1.970   5.205  10.256 -0.0760  0.3645  0.2591
 5512SOL    HW117977   1.882   5.172  10.271 -0.4444  0.7998 -0.8038
 5512SOL    HW217978   1.997   5.164  10.174  0.8592 -0.0420  0.7572
 5513SOL     OW17979   1.992   7.377  11.302  0.6958  0.4784  0.0608
 5513SOL    HW117980   2.050   7.393  11.377  0.4420  0.1652  0.3268
 5513SOL    HW217981   1.940   7.457  11.294  1.3476  0.8786 -0.3561
 5514SOL     OW17982   0.887   6.654   9.570 -0.3168  0.2368  0.2531
 5514SOL    HW117983   0.802   6.699   9.570 -0.1451  0.5646  0.0533
 5514SOL    HW217984   0.866   6.562   9.585 -0.7515  0.2348 -0.3435
 5515SOL     OW17985   7.873   5.873   9.684 -0.4600 -0.2926 -0.2618
 5515SOL    HW117986   7.778   5.859   9.683 -0.4699 -0.3924  0.6136
 5515SOL    HW217987   7.906   5.827   9.607 -1.1933  0.3484 -0.9804
 5516SOL     OW17988   7.447   6.482   7.617  0.0107 -0.2503 -0.0513
 5516SOL    HW117989   7.478   6.510   7.703 -0.1338  2.0317 -0.6881
 5516SOL    HW217990   7.513   6.513   7.555  0.4539 -2.4427 -0.7662
 5517SOL     OW17991   1.597   5.995  11.477 -0.3990  0.2274  0.2952
 5517SOL    HW117992   1.516   5.947  11.493 -0.8166  0.7802 -0.1183
 5517SOL    HW217993   1.666   5.940  11.516 -0.9309 -0.3993  0.3692
 5518SOL     OW17994   2.614   7.432  11.016 -0.0023 -0.1245  0.1803
 5518SOL    HW117995   2.591   7.516  10.976 -0.2163 -0.0406  0.4790
 5518SOL    HW217996   2.531   7.399  11.051 -0.2704 -1.2343 -1.3621
 5519SOL     OW17997   0.040   5.920   8.708 -0.2506  0.5266  0.4704
 5519SOL    HW117998   0.040   5.839   8.760  2.5325  0.4398  0.4555
 5519SOL    HW217999  -0.043   5.962   8.730 -0.7486 -1.2279  2.2332
 5520SOL     OW18000   0.393   0.202  11.568 -0.1341 -0.2271 -0.6751
 5520SOL    HW118001   0.450   0.178  11.641 -0.8970 -0.2834 -0.0952
 5520SOL    HW218002   0.341   0.124  11.551 -1.5962  0.5140  0.2575
 5521SOL     OW18003   1.106   4.834   9.344  0.2962  0.2415  0.8473
 5521SOL    HW118004   1.099   4.848   9.250 -0.8953  0.1654  0.9196
 5521SOL    HW218005   1.140   4.917   9.378  1.3927  0.0392  0.2852
 5522SOL     OW18006   1.128   7.292   8.534 -0.2121  0.0873 -0.3930
 5522SOL    HW118007   1.155   7.383   8.529  2.7035 -0.7078 -0.8603
 5522SOL    HW218008   1.144   7.267   8.625 -2.6697  0.4251  0.2057
 5523SOL     OW18009   3.116   0.099   9.242  0.0361 -0.6508  0.0955
 5523SOL    HW118010   3.033   0.051   9.245 -0.6171  0.4914  1.1665
 5523SOL    HW218011   3.106   0.161   9.170  0.1482 -0.8228 -0.0700
 5524SOL     OW18012   1.816   6.875  10.826 -0.1320 -0.1100 -0.3892
 5524SOL    HW118013   1.850   6.794  10.790  2.7048  1.4616 -1.5345
 5524SOL    HW218014   1.743   6.898  10.768  0.9754 -0.3430 -1.9376
 5525SOL     OW18015   1.335   6.589   9.851 -0.2531  0.0233  0.1634
 5525SOL    HW118016   1.381   6.655   9.902  1.6840 -1.1442  0.0358
 5525SOL    HW218017   1.258   6.634   9.816 -0.6760  1.3375  2.5766
 5526SOL     OW18018   2.960   6.803   9.443 -0.3017  0.2935 -0.2312
 5526SOL    HW118019   2.904   6.745   9.390  0.5903  0.2155 -1.1103
 5526SOL    HW218020   3.045   6.800   9.400  0.6949 -0.3948  1.6841
 5527SOL     OW18021   1.390   6.271  11.139 -0.1341  0.0042  0.3879
 5527SOL    HW118022   1.347   6.189  11.165  1.3567 -0.3173  2.0554
 5527SOL    HW218023   1.394   6.322  11.220  2.9560 -0.1983  0.4823
 5528SOL     OW18024   1.039   6.290  10.888 -0.0412  0.0012 -0.1815
 5528SOL    HW118025   1.028   6.360  10.824  0.2519 -0.3742 -0.6471
 5528SOL    HW218026   1.039   6.335  10.973 -0.6541  0.4741 -0.4248
 5529SOL     OW18027   3.815   7.626  11.560  0.5027  0.4384 -0.2644
 5529SOL    HW118028   3.759   7.692  11.600  0.3135  0.1524 -0.0456
 5529SOL    HW218029   3.872   7.674  11.501 -1.2587  0.5604 -1.9934
 5530SOL     OW18030   7.098   5.828   9.695  0.1996  0.0063  0.1497
 5530SOL    HW118031   7.163   5.766   9.729  0.1746 -0.3597 -0.4438
 5530SOL    HW218032   7.115   5.829   9.601 -0.9870 -0.4850 -0.0820
 5531SOL     OW18033   0.912   0.601  10.690  0.1834  0.0573 -0.0342
 5531SOL    HW118034   0.885   0.640  10.773  0.1348 -1.0466  0.4902
 5531SOL    HW218035   0.853   0.526  10.678 -0.6348  0.9209 -1.7117
 5532SOL     OW18036   1.986   0.226   9.093  0.9304 -0.0649 -0.3375
 5532SOL    HW118037   1.996   0.171   9.171 -2.0841 -2.2559 -1.3327
 5532SOL    HW218038   1.949   0.307   9.126  1.3009 -0.2903  0.6854
 5533SOL     OW18039   1.295   5.853  10.872  0.4966 -0.3523  0.0763
 5533SOL    HW118040   1.222   5.831  10.930 -0.5362 -1.7805 -1.6304
 5533SOL    HW218041   1.368   5.870  10.930 -1.2617  1.5585  1.8954
 5534SOL     OW18042   3.223   6.872   8.645  0.0194 -0.0465 -0.4562
 5534SOL    HW118043   3.226   6.785   8.605  1.3753 -0.2812  0.1088
 5534SOL    HW218044   3.174   6.926   8.582 -0.5419 -1.1246 -0.9702
 5535SOL     OW18045   0.898   5.688   9.648  0.0047  0.1848 -0.4266
 5535SOL    HW118046   0.869   5.600   9.622  0.1411  0.5836 -2.0234
 5535SOL    HW218047   0.980   5.701   9.600  0.2246  1.0330  0.1469
 5536SOL     OW18048   0.855   5.359   9.057  0.2284  0.2443 -0.4522
 5536SOL    HW118049   0.863   5.361   9.152 -1.4188 -0.1151 -0.2777
 5536SOL    HW218050   0.945   5.352   9.025  0.7984  0.3906  1.0707
 5537SOL     OW18051   6.976   5.603   9.374  0.4975  0.0571 -0.2961
 5537SOL    HW118052   6.992   5.598   9.280  0.7030  0.0303 -0.2580
 5537SOL    HW218053   7.000   5.517   9.408 -1.2246 -0.5356 -0.4697
 5538SOL     OW18054   1.995   4.119  10.660 -0.4940 -0.2079  0.4214
 5538SOL    HW118055   1.964   4.055  10.596  2.5028 -1.2318 -0.1782
 5538SOL    HW218056   1.986   4.075  10.745  0.0299 -0.7845  0.1826
 5539SOL     OW18057   6.891   7.289  10.241 -0.4825  0.1088  0.1307
 5539SOL    HW118058   6.868   7.204  10.278 -0.4781 -0.6363 -1.5019
 5539SOL    HW218059   6.987   7.291  10.246 -0.5302  0.5921  1.3190
 5540SOL     OW18060   3.128   6.900  10.874 -0.0608  0.3090  0.2248
 5540SOL    HW118061   3.149   6.847  10.951 -1.0633 -0.1121  0.2337
 5540SOL    HW218062   3.182   6.864  10.804 -0.1119 -0.1750  0.4309
 5541SOL     OW18063   7.766   7.243   9.019 -0.1367 -0.2695  0.3523
 5541SOL    HW118064   7.723   7.325   8.996 -0.6123 -0.3945  0.7751
 5541SOL    HW218065   7.848   7.244   8.969 -0.0632  0.5316  0.4667
 5542SOL     OW18066   7.892   5.675   0.156  0.1252 -0.5215 -0.5430
 5542SOL    HW118067   7.871   5.597   0.106  2.6968 -0.1767 -2.3387
 5542SOL    HW218068   7.968   5.651   0.209  1.9278  1.0814 -2.2541
 5543SOL     OW18069   6.381   6.334   0.106 -0.0004 -0.2226  0.1756
 5543SOL    HW118070   6.299   6.365   0.143 -0.3067 -1.0347  0.1892
 5543SOL    HW218071   6.359   6.252   0.062  1.0461 -1.1961  1.3778
 5544SOL     OW18072   7.985   7.298   0.488  0.0106  0.0077 -0.5828
 5544SOL    HW118073   8.049   7.235   0.457  0.4620  0.9157 -1.5594
 5544SOL    HW218074   7.967   7.354   0.413 -3.0558 -1.0807 -0.7871
 5545SOL     OW18075   1.575   7.650   0.047  0.2934  0.1502 -0.3263
 5545SOL    HW118076   1.667   7.637   0.023  0.3594  1.6825 -1.0204
 5545SOL    HW218077   1.568   7.612   0.135  0.6975 -3.1783 -1.5764
 5546SOL     OW18078   1.981   5.632  11.956 -0.8429  0.2102  0.4963
 5546SOL    HW118079   1.987   5.724  11.984  0.4535 -0.2604  1.9160
 5546SOL    HW218080   2.023   5.583  12.027 -1.9084 -1.5364 -0.0196
 5547SOL     OW18081   2.243   4.286  10.258 -0.2852  0.3745 -0.5713
 5547SOL    HW118082   2.208   4.357  10.312 -1.7198 -0.5800 -0.1901
 5547SOL    HW218083   2.337   4.305  10.251 -0.1515  0.8445  1.7624
 5548SOL     OW18084   1.978   5.738  12.392  0.1384 -0.2193 -0.6886
 5548SOL    HW118085   2.012   5.825  12.371  0.7834 -0.2002  0.3877
 5548SOL    HW218086   2.050   5.679  12.370  0.7150 -0.2285  1.0574
 5549SOL     OW18087   1.347   6.241  10.571 -0.1495  0.2181  1.1564
 5549SOL    HW118088   1.314   6.296  10.643  0.1513  1.1147  0.6328
 5549SOL    HW218089   1.300   6.159  10.580 -0.8173  0.6555  1.8078
 5550SOL     OW18090   7.687   4.720  10.261 -0.7331  0.4396 -0.0804
 5550SOL    HW118091   7.744   4.644  10.266 -2.4343 -0.7839  2.9521
 5550SOL    HW218092   7.605   4.687  10.225 -2.1412  0.2479  3.0091
 5551SOL     OW18093   2.074   5.745  10.711  0.4441 -0.4320 -0.3735
 5551SOL    HW118094   2.031   5.776  10.632  0.9096  0.0676 -0.4409
 5551SOL    HW218095   2.074   5.649  10.703  0.6093 -0.3786 -1.0423
 5552SOL     OW18096   1.178   0.020   0.541  0.1377  0.4742 -1.0303
 5552SOL    HW118097   1.268  -0.007   0.527  0.2277  0.7500 -0.9881
 5552SOL    HW218098   1.184   0.107   0.580 -0.1385  0.3138 -0.6161
 5553SOL     OW18099   0.511   7.992   1.039  0.5183 -0.0981 -0.3375
 5553SOL    HW118100   0.444   7.924   1.030  0.2358  0.0985  0.2180
 5553SOL    HW218101   0.482   8.044   1.114  0.9286  0.4117 -0.5255
 5554SOL     OW18102   6.474   5.401  11.014 -0.2542  0.5144  0.4565
 5554SOL    HW118103   6.424   5.320  11.024 -2.2964  1.6305 -0.2374
 5554SOL    HW218104   6.455   5.451  11.093 -1.9921  1.8059 -0.7101
 5555SOL     OW18105   1.807   5.431  10.511 -0.1719 -0.0201 -0.1465
 5555SOL    HW118106   1.835   5.341  10.527 -0.5721 -0.5544 -2.1963
 5555SOL    HW218107   1.712   5.426  10.505 -0.4082  0.9519  1.8018
 5556SOL     OW18108   0.854   5.956  11.841 -0.2676  0.0535 -0.1823
 5556SOL    HW118109   0.791   5.960  11.769  1.0871 -0.6384 -1.4486
 5556SOL    HW218110   0.857   6.045  11.876 -0.5807  0.5199 -1.3085
 5557SOL     OW18111   1.762   6.932   0.800  0.3975  0.4590  0.5958
 5557SOL    HW118112   1.817   6.854   0.805  0.3883  0.4107 -0.0781
 5557SOL    HW218113   1.707   6.927   0.879 -0.2883 -0.7299  0.0648
 5558SOL     OW18114   7.072   6.583  10.790 -0.2763  0.0254 -0.5755
 5558SOL    HW118115   7.019   6.661  10.808 -0.3195 -0.1957  0.2859
 5558SOL    HW218116   7.030   6.543  10.714 -0.7070  0.4275 -0.5553
 5559SOL     OW18117   2.189   6.536   0.228  0.1114  0.1814 -0.9350
 5559SOL    HW118118   2.284   6.526   0.234  0.2492  1.3889 -0.8382
 5559SOL    HW218119   2.172   6.624   0.262 -1.0814 -0.1436 -0.6365
 5560SOL     OW18120   1.720   6.887  11.096  0.4059 -0.1548  0.7905
 5560SOL    HW118121   1.765   6.868  11.013  1.0465  2.1527  0.5314
 5560SOL    HW218122   1.664   6.962  11.076 -0.6842 -0.5810  2.0795
 5561SOL     OW18123   7.444   5.740  11.168  0.2230  0.1145  0.0877
 5561SOL    HW118124   7.420   5.669  11.228  0.0410 -0.5716 -0.7713
 5561SOL    HW218125   7.376   5.739  11.102 -0.4042  1.8647  0.6664
 5562SOL     OW18126   1.446   6.615  11.594 -0.9711 -0.2076 -0.4507
 5562SOL    HW118127   1.414   6.702  11.617 -1.7100 -0.7613  0.7033
 5562SOL    HW218128   1.523   6.632  11.540 -1.0171  1.1581 -0.1334
 5563SOL     OW18129   1.353   4.963  12.018  0.2625 -0.2845  0.6223
 5563SOL    HW118130   1.359   4.892  11.954  0.4968  0.7362 -0.5431
 5563SOL    HW218131   1.436   5.010  12.009 -0.4112  0.9208  0.3739
 5564SOL     OW18132   0.622   5.687  12.326 -0.0336 -0.0926  0.2471
 5564SOL    HW118133   0.676   5.766  12.330  0.4158 -0.2151 -1.9288
 5564SOL    HW218134   0.532   5.719  12.330  0.1582  0.4836 -0.0252
 5565SOL     OW18135   2.774   5.725  11.948 -0.2585  0.6279 -0.2661
 5565SOL    HW118136   2.770   5.638  11.987  0.4077  0.4426 -0.5933
 5565SOL    HW218137   2.694   5.769  11.979  0.8142  0.9446  2.3451
 5566SOL     OW18138   1.581   0.555  11.593  0.2396  0.0595 -0.4350
 5566SOL    HW118139   1.615   0.645  11.602 -0.6127  0.5227 -1.6295
 5566SOL    HW218140   1.644   0.501  11.641  0.5237  1.3398  0.7076
 5567SOL     OW18141   1.136   6.295  10.005  0.0629 -0.1081 -0.0137
 5567SOL    HW118142   1.134   6.281  10.100  1.7652  1.4730  0.3144
 5567SOL    HW218143   1.089   6.376   9.991 -0.8313 -0.7192 -0.6378
 5568SOL     OW18144   2.002   5.530  10.293  0.0343  0.4206  0.1209
 5568SOL    HW118145   1.941   5.504  10.363  0.5454 -1.1119  0.0284
 5568SOL    HW218146   1.953   5.513  10.212 -0.3877  1.7605  0.0738
 5569SOL     OW18147   1.157   4.461  10.346  0.3052  0.0382  0.9062
 5569SOL    HW118148   1.070   4.436  10.378 -0.3715  0.2600 -0.6600
 5569SOL    HW218149   1.142   4.543  10.299  0.9819 -0.9364 -1.0975
 5570SOL     OW18150   0.562   7.745  12.384  0.2455  0.0936  0.1222
 5570SOL    HW118151   0.638   7.741  12.325  0.6174 -1.7341  0.6735
 5570SOL    HW218152   0.587   7.811  12.449  2.2360 -1.7491  1.3669
 5571SOL     OW18153   2.061   5.995  12.303  0.4794 -0.0779  0.0991
 5571SOL    HW118154   2.052   5.994  12.207 -0.4718  1.3382  0.1268
 5571SOL    HW218155   1.988   6.050  12.332 -0.0569 -1.5977  1.7563
 5572SOL     OW18156   1.486   7.138   0.020  0.3297  0.4331 -0.1912
 5572SOL    HW118157   1.463   7.046   0.004  1.1291  0.3492 -0.9836
 5572SOL    HW218158   1.540   7.136   0.099  1.3502  0.0425 -0.8723
 5573SOL     OW18159   7.188   6.364  10.137 -0.1089 -0.3389 -0.4958
 5573SOL    HW118160   7.146   6.346  10.053 -0.6560 -1.7974  0.0481
 5573SOL    HW218161   7.133   6.431  10.177 -0.8719 -0.9111 -0.5679
 5574SOL     OW18162   1.135   6.528  12.374 -0.2951 -0.0319 -0.3863
 5574SOL    HW118163   1.223   6.562  12.358 -0.2308 -0.0070  0.0011
 5574SOL    HW218164   1.082   6.563  12.303 -0.1629  0.6166 -0.1672
 5575SOL     OW18165   7.295   5.211   9.641 -0.4368 -0.2634 -0.3480
 5575SOL    HW118166   7.237   5.235   9.569 -2.0452 -0.9985  0.6556
 5575SOL    HW218167   7.298   5.289   9.697 -0.8296 -0.3720 -0.1723
 5576SOL     OW18168   3.271   5.260  11.736  0.9101 -0.0194 -0.9444
 5576SOL    HW118169   3.287   5.252  11.830 -0.1484 -1.5314 -0.8479
 5576SOL    HW218170   3.181   5.293  11.731  1.0830  0.3751 -1.4294
 5577SOL     OW18171   2.010   5.017   8.934 -0.0553 -0.0544  0.1402
 5577SOL    HW118172   1.932   4.998   8.985  1.0523  0.1931  2.0507
 5577SOL    HW218173   1.980   5.076   8.865 -1.8407 -1.3857 -0.3000
 5578SOL     OW18174   2.608   5.538  10.468 -0.3435  0.2158  0.5490
 5578SOL    HW118175   2.638   5.479  10.537 -0.6209  0.4287  0.8513
 5578SOL    HW218176   2.685   5.590  10.446  0.5577 -1.7350 -1.2830
 5579SOL     OW18177   7.922   6.667  11.189  0.1865  0.0862 -0.0105
 5579SOL    HW118178   7.911   6.586  11.239 -0.7762  0.6637  0.7587
 5579SOL    HW218179   7.997   6.710  11.230  0.3410 -0.1436 -0.0467
 5580SOL     OW18180   2.331   6.689  11.478 -0.1686  0.1982 -0.4913
 5580SOL    HW118181   2.252   6.634  11.472  0.3179 -0.4648 -0.8915
 5580SOL    HW218182   2.382   6.649  11.548 -0.2504  0.7254 -0.1212
 5581SOL     OW18183   1.530   5.083  10.754  0.3229 -0.3491  0.1466
 5581SOL    HW118184   1.444   5.050  10.781  0.3085  0.0928  0.6651
 5581SOL    HW218185   1.574   5.007  10.716  0.1645 -0.8924  1.0159
 5582SOL     OW18186   1.147   7.024  11.985  0.1862 -0.6791 -0.3971
 5582SOL    HW118187   1.161   6.940  12.029  0.9725  0.4475  1.5999
 5582SOL    HW218188   1.123   7.084  12.055 -1.9984  0.4518 -1.9928
 5583SOL     OW18189   0.811   5.529  12.465 -0.2485 -0.2870 -0.0763
 5583SOL    HW118190   0.786   5.444  12.501  2.0315 -1.5293 -1.1478
 5583SOL    HW218191   0.732   5.562  12.423 -1.0488 -2.1913 -0.1774
 5584SOL     OW18192   1.991   5.887  12.016  0.4467  0.9700 -0.4029
 5584SOL    HW118193   1.914   5.942  12.027 -0.5455 -0.3130 -0.7570
 5584SOL    HW218194   2.045   5.935  11.953 -0.5470  1.3874 -0.9627
 5585SOL     OW18195   2.589   7.198   0.807  0.3240 -0.2011  0.4021
 5585SOL    HW118196   2.577   7.291   0.824  3.8663  0.6302 -0.8168
 5585SOL    HW218197   2.621   7.162   0.889 -0.2612 -0.2011  0.6366
 5586SOL     OW18198   0.447   5.288  11.517 -0.3459 -0.2480 -0.1396
 5586SOL    HW118199   0.407   5.338  11.589 -1.2511  0.1390 -0.8991
 5586SOL    HW218200   0.462   5.201  11.554 -1.0907 -0.1432  0.4349
 5587SOL     OW18201   7.450   0.335  11.760  0.2778  0.0787  0.6314
 5587SOL    HW118202   7.488   0.262  11.711  0.3365 -0.7789  1.9113
 5587SOL    HW218203   7.385   0.295  11.817 -2.0113  1.4130 -0.8727
 5588SOL     OW18204   1.073   1.287   9.247 -0.4784  0.3124  0.2330
 5588SOL    HW118205   1.119   1.212   9.209 -0.4103 -0.7593  2.2812
 5588SOL    HW218206   1.137   1.358   9.246  0.8475 -0.7924  1.8333
 5589SOL     OW18207   1.618   5.812  11.752 -0.9642  0.5386 -0.5017
 5589SOL    HW118208   1.697   5.828  11.701  0.2412 -1.5427  0.6024
 5589SOL    HW218209   1.569   5.895  11.746  0.8794  1.6071 -1.8774
 5590SOL     OW18210   7.544   5.874   9.894 -0.1276  0.5439  0.2377
 5590SOL    HW118211   7.468   5.861   9.951  0.9238  0.1441  1.6279
 5590SOL    HW218212   7.606   5.806   9.921  0.5955  0.6435 -1.0893
 5591SOL     OW18213   1.465   5.161  10.489  0.3078 -0.3571  0.8532
 5591SOL    HW118214   1.374   5.139  10.510 -0.3618  1.3314 -0.1215
 5591SOL    HW218215   1.509   5.163  10.574 -1.4447  2.4648  1.8202
 5592SOL     OW18216   1.587   4.789  10.765 -0.0897  0.0362  1.0152
 5592SOL    HW118217   1.602   4.736  10.843  3.9621  1.4724  1.4373
 5592SOL    HW218218   1.616   4.733  10.692 -0.9437 -0.1966  0.8431
 5593SOL     OW18219   1.107   7.100  10.845 -0.0518  0.4707 -0.2738
 5593SOL    HW118220   1.188   7.136  10.882  1.1773 -1.0624 -1.3499
 5593SOL    HW218221   1.085   7.027  10.903  1.6041 -1.6247 -2.1311
 5594SOL     OW18222   0.514   3.491  10.842  0.0307  0.4287 -0.3782
 5594SOL    HW118223   0.534   3.477  10.935  0.9573 -0.6589 -0.7247
 5594SOL    HW218224   0.476   3.408  10.813  1.1593  0.2170 -1.3275
 5595SOL     OW18225   6.777   4.767  10.473  0.6751 -0.2214 -0.1910
 5595SOL    HW118226   6.831   4.838  10.510 -0.3951  0.5748 -0.1067
 5595SOL    HW218227   6.831   4.689  10.482  1.9225  0.5887 -0.3511
 5596SOL     OW18228   1.793   7.302  11.666  0.1271 -0.1371 -0.3142
 5596SOL    HW118229   1.814   7.258  11.748  2.4998 -0.7180 -1.1522
 5596SOL    HW218230   1.844   7.383  11.668 -0.9467  0.5699 -0.6092
 5597SOL     OW18231   0.102   5.528   9.900  0.8183 -0.1022 -0.4017
 5597SOL    HW118232   0.080   5.504   9.810 -0.4685  0.7392 -0.3391
 5597SOL    HW218233   0.088   5.622   9.903 -1.0678 -0.3743  1.1681
 5598SOL     OW18234   0.179   0.457  11.519  0.4559  0.0077 -0.6038
 5598SOL    HW118235   0.099   0.407  11.537  0.3988 -0.4229 -1.9334
 5598SOL    HW218236   0.222   0.409  11.448  1.8578  0.2969  0.0284
 5599SOL     OW18237   1.180   5.306  11.781  0.0256  0.4224 -0.2083
 5599SOL    HW118238   1.148   5.270  11.698  0.2888  2.0544 -1.0545
 5599SOL    HW218239   1.145   5.247  11.848 -4.7370  1.9034 -1.0097
 5600SOL     OW18240   1.026   5.740  12.146  0.5822  0.6446  0.0911
 5600SOL    HW118241   1.015   5.835  12.154  0.8495  0.6535  0.3716
 5600SOL    HW218242   1.107   5.721  12.193 -0.7740 -0.0474  2.3369
 5601SOL     OW18243   1.422   5.196  11.480 -0.3736 -0.4425 -0.7032
 5601SOL    HW118244   1.422   5.292  11.473 -1.8783 -0.3671  0.0644
 5601SOL    HW218245   1.482   5.178  11.552  1.0235 -0.2006 -1.7404
 5602SOL     OW18246   1.180   5.752   0.257 -0.0038 -0.1252 -0.3951
 5602SOL    HW118247   1.260   5.766   0.206  0.0497 -1.6063 -0.7584
 5602SOL    HW218248   1.179   5.824   0.320  0.2251  1.4149 -2.0957
 5603SOL     OW18249   1.205   5.773   9.985  0.5445 -0.3629  0.0519
 5603SOL    HW118250   1.144   5.717   9.938 -0.4529  0.1333  0.7117
 5603SOL    HW218251   1.215   5.851   9.929  1.2915 -0.8280 -0.4789
 5604SOL     OW18252   1.485   5.526  10.201  0.5247 -0.4063  0.3284
 5604SOL    HW118253   1.401   5.571  10.207 -0.4593 -2.3413  2.4189
 5604SOL    HW218254   1.550   5.597  10.209 -0.8359  1.0862 -1.0321
 5605SOL     OW18255   1.551   5.513  10.477  0.3475  0.5116 -0.4624
 5605SOL    HW118256   1.456   5.511  10.489  0.4079 -1.3015  0.0542
 5605SOL    HW218257   1.563   5.509  10.383 -0.0717  2.1474 -0.6120
 5606SOL     OW18258   0.211   1.431  11.147  0.0801 -0.2560  0.1459
 5606SOL    HW118259   0.302   1.423  11.119  0.2549  1.4448  0.1403
 5606SOL    HW218260   0.216   1.458  11.239 -0.3989  0.6719 -0.0918
 5607SOL     OW18261   0.033   6.644  11.473  0.3022 -0.0597 -0.2351
 5607SOL    HW118262   0.012   6.576  11.410  0.4828 -0.9660  0.6495
 5607SOL    HW218263   0.093   6.602  11.535  0.7472  1.0224  0.1030
 5608SOL     OW18264   2.567   4.605  10.100  0.0701 -0.2575  0.1092
 5608SOL    HW118265   2.585   4.548  10.175  1.4908 -1.5884 -1.1943
 5608SOL    HW218266   2.644   4.597  10.044 -0.6340  1.3031 -1.1620
 5609SOL     OW18267   7.985   5.207   9.976 -0.2670  0.3232  0.1617
 5609SOL    HW118268   7.927   5.206  10.052  0.0828  1.4923  0.4686
 5609SOL    HW218269   8.064   5.251  10.008  1.2185 -2.1115  0.0382
 5610SOL     OW18270   1.283   5.409  12.207 -0.0584 -0.3576 -0.0351
 5610SOL    HW118271   1.302   5.410  12.114 -0.6112  1.0942 -0.1605
 5610SOL    HW218272   1.329   5.331  12.240 -0.0279 -1.0077 -1.5306
 5611SOL     OW18273   0.463   0.269  12.108 -0.7406 -0.1588 -0.0153
 5611SOL    HW118274   0.422   0.352  12.131 -1.3862 -0.3296 -0.5417
 5611SOL    HW218275   0.554   0.279  12.137 -1.0198  0.4105  0.6839
 5612SOL     OW18276   2.405   6.442   0.794 -0.2612  0.3938 -0.4612
 5612SOL    HW118277   2.456   6.497   0.734 -0.0237  0.4256 -0.2332
 5612SOL    HW218278   2.369   6.503   0.858  2.5169  0.0198  1.6408
 5613SOL     OW18279   0.328   7.290  11.691  0.1729 -0.5035  0.2114
 5613SOL    HW118280   0.399   7.352  11.678 -1.4092  1.5125  0.6934
 5613SOL    HW218281   0.251   7.333  11.654 -1.2823 -1.5313  1.8745
 5614SOL     OW18282   1.533   5.713  12.261  0.2599 -0.1334  0.1014
 5614SOL    HW118283   1.546   5.736  12.169 -0.6784 -0.8839 -0.2349
 5614SOL    HW218284   1.444   5.739  12.281  0.6753  0.6534  1.0181
 5615SOL     OW18285   0.834   1.099  12.217 -0.4542 -0.0482  0.5117
 5615SOL    HW118286   0.864   1.129  12.303 -0.1742  1.3728 -0.0616
 5615SOL    HW218287   0.914   1.075  12.171 -0.7101 -2.3624  1.1668
 5616SOL     OW18288   1.135   5.946  11.662 -0.3192 -0.5737  0.3451
 5616SOL    HW118289   1.056   5.953  11.715 -1.1210  1.3723 -0.9930
 5616SOL    HW218290   1.166   6.036  11.652  1.6514 -1.2178  0.1972
 5617SOL     OW18291   1.782   6.478  12.353 -0.1044  0.1630 -0.4712
 5617SOL    HW118292   1.869   6.442  12.337 -1.0731 -1.7059 -1.8745
 5617SOL    HW218293   1.790   6.522  12.438  2.3775  0.7301 -0.9108
 5618SOL     OW18294   1.216   7.560  12.192  0.4125 -0.2046 -0.5709
 5618SOL    HW118295   1.149   7.528  12.253 -0.6004 -1.7699 -2.3814
 5618SOL    HW218296   1.168   7.614  12.130  0.7509 -1.3986 -1.9353
 5619SOL     OW18297   2.779   5.273  11.224 -0.1017 -0.0540 -0.2769
 5619SOL    HW118298   2.752   5.257  11.315  0.3019  1.0004  0.0409
 5619SOL    HW218299   2.749   5.362  11.205 -0.4591 -0.3782 -1.2862
 5620SOL     OW18300   0.599   7.215   1.154 -0.0261 -0.4001 -0.2133
 5620SOL    HW118301   0.651   7.295   1.155 -1.1143  0.3684 -1.2522
 5620SOL    HW218302   0.606   7.180   1.243 -2.3348  2.7571  1.4186
 5621SOL     OW18303   1.303   5.079  10.956  0.2312 -0.1545  0.6167
 5621SOL    HW118304   1.273   4.989  10.949  0.1626 -0.0408 -0.9440
 5621SOL    HW218305   1.261   5.124  10.881  0.6405  1.0505  1.0885
 5622SOL     OW18306   7.695   6.113   1.231 -0.4550  0.1713  0.0425
 5622SOL    HW118307   7.756   6.046   1.203  0.3427  0.6154  0.6663
 5622SOL    HW218308   7.747   6.193   1.235 -1.4047  0.8534 -0.7696
 5623SOL     OW18309   7.654   6.423  11.134  0.1317 -0.2020  0.0766
 5623SOL    HW118310   7.720   6.395  11.198 -1.2902 -2.8301  0.5440
 5623SOL    HW218311   7.667   6.365  11.059 -1.5404 -0.6954  0.1374
 5624SOL     OW18312   1.013   3.654  11.364 -0.0445 -0.0446  0.8891
 5624SOL    HW118313   1.056   3.645  11.450 -0.6948 -1.1796  1.1114
 5624SOL    HW218314   1.052   3.585  11.311 -0.9673 -0.5362  0.8361
 5625SOL     OW18315   0.879   5.915   0.247  0.4323 -0.3090 -0.4610
 5625SOL    HW118316   0.866   5.827   0.282 -0.3716 -0.4113 -0.9978
 5625SOL    HW218317   0.878   5.904   0.152 -1.2702  0.4672 -0.5722
 5626SOL     OW18318   0.328   5.987  10.330 -0.3490  0.4906  0.1222
 5626SOL    HW118319   0.350   5.910  10.382  1.3421  2.5113  2.6532
 5626SOL    HW218320   0.412   6.028  10.310 -1.2230  2.7630  0.7118
 5627SOL     OW18321   1.496   5.648  11.086 -0.4297 -0.0938 -0.4137
 5627SOL    HW118322   1.432   5.637  11.157 -2.4412 -0.4196 -2.1652
 5627SOL    HW218323   1.498   5.743  11.071  0.5907  0.0548  0.5464
 5628SOL     OW18324   2.369   5.624  10.122  0.5782 -0.1198 -0.0812
 5628SOL    HW118325   2.319   5.624  10.204 -0.0708 -0.1342 -0.4712
 5628SOL    HW218326   2.459   5.642  10.149  0.2517  0.5961  0.5615
 5629SOL     OW18327   0.590   5.568  10.780 -0.1850 -0.1724  0.3670
 5629SOL    HW118328   0.514   5.554  10.724 -0.4467  0.0679  0.6580
 5629SOL    HW218329   0.635   5.643  10.742 -0.0798 -0.3294  0.1807
 5630SOL     OW18330   0.882   5.127  11.028  0.4474 -0.6667  0.4703
 5630SOL    HW118331   0.964   5.172  11.050 -0.9488  1.7603  0.9674
 5630SOL    HW218332   0.846   5.101  11.113  0.7288 -1.8660  0.2438
 5631SOL     OW18333   2.755   6.223  11.150 -0.4314  0.2312 -0.0143
 5631SOL    HW118334   2.726   6.313  11.135  0.9592  0.4719 -1.6089
 5631SOL    HW218335   2.691   6.187  11.211 -1.5793  1.9941 -0.0958
 5632SOL     OW18336   2.577   7.657  10.839 -0.3372 -0.3449  0.1102
 5632SOL    HW118337   2.541   7.587  10.785 -2.8223  0.3754  0.7407
 5632SOL    HW218338   2.656   7.684  10.792 -1.5136 -0.8369 -2.3100
 5633SOL     OW18339   1.434   6.420  11.382  0.0680 -0.0798 -0.8167
 5633SOL    HW118340   1.386   6.490  11.427 -0.3458 -0.0794 -1.2542
 5633SOL    HW218341   1.429   6.345  11.441 -0.2110  0.0114 -0.7249
 5634SOL     OW18342   1.727   6.901  12.465 -0.3038  0.3738 -0.4197
 5634SOL    HW118343   1.720   6.818  12.513 -2.2438  0.6981 -0.0652
 5634SOL    HW218344   1.720   6.968  12.532  0.6473  0.8379 -0.7746
 5635SOL     OW18345   0.927   7.286  11.893 -0.0857 -0.0905  0.0739
 5635SOL    HW118346   0.884   7.270  11.809  1.3741  1.2264 -0.9777
 5635SOL    HW218347   0.887   7.368  11.924 -2.7292 -1.9736  2.1886
 5636SOL     OW18348   0.696   7.499  11.306 -0.7727  0.9283 -0.2502
 5636SOL    HW118349   0.634   7.572  11.300 -0.5264  1.0694 -1.1860
 5636SOL    HW218350   0.672   7.441  11.234 -1.2536 -0.1541  0.7585
 5637SOL     OW18351   7.986   6.968   0.186  0.2443 -0.1656 -0.0482
 5637SOL    HW118352   7.978   6.929   0.098 -1.3269  0.8563 -0.3931
 5637SOL    HW218353   8.034   7.049   0.171  2.7109 -1.4303  0.5393
 5638SOL     OW18354   0.712   7.467   0.137  0.3132 -0.6682  0.0087
 5638SOL    HW118355   0.738   7.400   0.073  0.1848  0.5988 -1.4318
 5638SOL    HW218356   0.625   7.494   0.108  0.1981 -0.1649  0.8171
 5639SOL     OW18357   7.378   5.254  10.691 -0.3100  0.7660 -0.3870
 5639SOL    HW118358   7.369   5.168  10.651 -2.3828 -0.1622  1.8050
 5639SOL    HW218359   7.430   5.237  10.770 -0.5170  1.5786 -0.0720
 5640SOL     OW18360   1.312   6.291   0.904 -0.4093 -0.5546 -0.3827
 5640SOL    HW118361   1.275   6.210   0.939  1.6925 -1.8523 -0.9407
 5640SOL    HW218362   1.397   6.299   0.948  0.3381  0.1857 -1.8714
 5641SOL     OW18363   1.703   5.058  11.413  0.1603  0.0573 -0.1463
 5641SOL    HW118364   1.680   5.120  11.344  1.1046  0.2087 -0.3324
 5641SOL    HW218365   1.673   5.099  11.494 -0.2689  0.2200 -0.3814
 5642SOL     OW18366   1.727   6.924  11.683  0.4519 -0.5959 -0.3710
 5642SOL    HW118367   1.701   6.989  11.749  1.8363  0.8388 -1.1770
 5642SOL    HW218368   1.651   6.917  11.626 -0.5084 -1.3370  0.9520
 5643SOL     OW18369   0.158   6.088  11.691 -0.2207 -0.0665 -0.4238
 5643SOL    HW118370   0.158   5.994  11.709 -0.1328  0.3774  2.3297
 5643SOL    HW218371   0.097   6.125  11.755  1.7775  2.0029  0.4385
 5644SOL     OW18372   0.128   7.058   0.985  0.0427 -0.8689  0.0506
 5644SOL    HW118373   0.149   7.089   1.074 -1.8995 -0.0163  0.2742
 5644SOL    HW218374   0.190   7.104   0.929  0.1444 -0.0092  0.8276
 5645SOL     OW18375   0.038   5.690  11.422  0.7149 -0.3036 -0.0527
 5645SOL    HW118376  -0.033   5.702  11.485  0.1349 -0.9229 -0.5806
 5645SOL    HW218377   0.096   5.764  11.438 -0.0857  0.2577  0.3307
 5646SOL     OW18378   1.414   6.042  12.460 -0.0652  0.2439 -0.3616
 5646SOL    HW118379   1.422   6.067  12.368  1.3099  1.0866 -0.0460
 5646SOL    HW218380   1.504   6.033  12.490 -0.4638 -2.6800  0.2499
 5647SOL     OW18381   1.778   5.546  12.250 -0.3923 -0.2039  0.1243
 5647SOL    HW118382   1.696   5.594  12.245 -0.7293 -0.8576 -0.8959
 5647SOL    HW218383   1.816   5.571  12.335 -1.7021 -0.0032  0.6676
 5648SOL     OW18384   1.739   6.596  11.038 -0.8934 -0.0096  0.1838
 5648SOL    HW118385   1.815   6.569  11.089 -1.0210 -1.5217 -0.3931
 5648SOL    HW218386   1.716   6.682  11.074  1.0387  0.4707  0.4120
 5649SOL     OW18387   0.151   7.903  12.490  0.1493  0.3541 -1.1732
 5649SOL    HW118388   0.125   7.980  12.541 -0.7338 -0.2523 -0.6804
 5649SOL    HW218389   0.247   7.902  12.496  0.0740  0.2397  0.5925
 5650SOL     OW18390   1.281   5.538  10.550 -0.0926  1.0887  0.3275
 5650SOL    HW118391   1.204   5.522  10.604 -2.0615  1.3326 -2.1872
 5650SOL    HW218392   1.310   5.626  10.575 -0.8268  1.1264  1.0984
 5651SOL     OW18393   2.595   4.296  11.075  0.4361 -0.5840 -0.4059
 5651SOL    HW118394   2.528   4.241  11.114 -0.3133 -0.1300 -1.0237
 5651SOL    HW218395   2.666   4.236  11.053 -0.4105 -1.3452 -1.1708
 5652SOL     OW18396   1.809   0.415   0.168 -0.1932 -0.3396  0.1438
 5652SOL    HW118397   1.736   0.470   0.198 -0.2161  0.2182 -0.8666
 5652SOL    HW218398   1.767   0.347   0.115 -0.5019 -3.2605  3.7607
 5653SOL     OW18399   1.902   5.331  11.142  0.1585  0.1413 -0.2133
 5653SOL    HW118400   1.964   5.354  11.072 -0.3702 -0.6890 -0.9703
 5653SOL    HW218401   1.913   5.236  11.153 -0.1571  0.1781  0.4625
 5654SOL     OW18402   0.503   0.288  10.443 -0.7399  0.1665  0.9175
 5654SOL    HW118403   0.408   0.279  10.435 -0.7405  0.0259  1.0852
 5654SOL    HW218404   0.523   0.257  10.532 -0.5332  0.1623  0.8700
 5655SOL     OW18405   1.487   7.246   0.805  0.4940 -0.1276  0.2356
 5655SOL    HW118406   1.573   7.286   0.791  0.7732 -0.5041  0.7922
 5655SOL    HW218407   1.484   7.172   0.744  1.4035 -1.3252  1.5708
 5656SOL     OW18408   3.819   4.692  12.354  0.1084  0.2435 -0.3281
 5656SOL    HW118409   3.727   4.679  12.375  0.7575 -1.4597  1.9431
 5656SOL    HW218410   3.839   4.780  12.385 -1.0095  1.1304 -2.0343
 5657SOL     OW18411   2.011   5.983  11.213  0.1932  0.4846 -0.1786
 5657SOL    HW118412   1.984   5.954  11.126 -0.1396  0.0510  0.0646
 5657SOL    HW218413   1.936   6.033  11.246 -0.2661 -0.5679  0.4250
 5658SOL     OW18414   0.431   6.988  12.046 -0.2429 -0.4045 -0.3995
 5658SOL    HW118415   0.392   6.906  12.077  0.3709 -0.5648 -0.0442
 5658SOL    HW218416   0.413   6.988  11.952 -0.7275 -0.6778 -0.3141
 5659SOL     OW18417   1.099   7.888  12.342 -0.0861  0.2924 -0.2119
 5659SOL    HW118418   1.037   7.927  12.403 -2.2904 -0.5362 -1.7956
 5659SOL    HW218419   1.184   7.900  12.383 -0.9123  4.0163  0.7860
 5660SOL     OW18420   2.109   4.576  10.180  0.9915 -0.0160 -0.0950
 5660SOL    HW118421   2.157   4.526  10.114 -0.4993 -2.6937  0.7226
 5660SOL    HW218422   2.025   4.596  10.139  0.8136  0.0532  0.2959
 5661SOL     OW18423   2.013   6.403  10.955 -0.6287 -0.2764  0.1863
 5661SOL    HW118424   2.089   6.434  11.003 -0.3084 -0.5839 -0.1189
 5661SOL    HW218425   1.971   6.340  11.015  0.3301 -1.4272 -0.2982
 5662SOL     OW18426   2.153   7.672  11.108 -0.2422 -0.1202 -0.1747
 5662SOL    HW118427   2.206   7.752  11.107 -0.1905 -0.0920  1.3791
 5662SOL    HW218428   2.199   7.611  11.051  1.1241  0.1233  0.6249
 5663SOL     OW18429   0.196   4.703  11.929  0.1518 -0.3386  0.4875
 5663SOL    HW118430   0.122   4.733  11.877  0.3284  0.2904  0.5910
 5663SOL    HW218431   0.157   4.661  12.005 -0.1008  0.0116  0.5535
 5664SOL     OW18432   0.853   7.872   0.240  0.0046 -0.9258 -0.2096
 5664SOL    HW118433   0.839   7.899   0.331 -4.2704 -1.8770 -0.3538
 5664SOL    HW218434   0.869   7.778   0.245  3.1278 -0.4859 -0.3714
 5665SOL     OW18435   2.313   7.152   1.256 -0.0454 -0.5777  0.0251
 5665SOL    HW118436   2.278   7.098   1.327  1.0154  0.3735  1.3392
 5665SOL    HW218437   2.408   7.153   1.271  0.0700  0.7298 -0.5996
 5666SOL     OW18438   0.542   6.152  10.878 -0.2947 -0.1587  0.4456
 5666SOL    HW118439   0.490   6.154  10.958  0.8755 -0.6852  1.2296
 5666SOL    HW218440   0.570   6.243  10.865 -3.2501  0.6497 -1.2722
 5667SOL     OW18441   0.778   7.119  10.192  0.5791 -0.4718  0.2187
 5667SOL    HW118442   0.732   7.191  10.235  2.2703  0.5446  0.4297
 5667SOL    HW218443   0.828   7.077  10.262  2.7668  0.7199 -0.5544
 5668SOL     OW18444   0.373   4.518  11.763 -0.5772 -0.0848 -0.4528
 5668SOL    HW118445   0.380   4.598  11.815  2.0143  0.1763 -1.0883
 5668SOL    HW218446   0.450   4.467  11.787 -1.1466 -1.5179 -1.5295
 5669SOL     OW18447   7.929   6.266   9.258 -0.5452 -0.0927 -0.1668
 5669SOL    HW118448   7.939   6.174   9.285  1.8159 -0.2684 -1.4102
 5669SOL    HW218449   7.929   6.315   9.341 -0.3858 -1.1005  0.4504
 5670SOL     OW18450   0.692   7.981  12.103  0.5656  0.2030  0.1560
 5670SOL    HW118451   0.705   8.048  12.036  0.0409  1.6329  1.4214
 5670SOL    HW218452   0.644   7.911  12.058  1.4775  0.4801 -1.2968
 5671SOL     OW18453   2.162   6.492   8.974  0.2880  0.3514  0.4276
 5671SOL    HW118454   2.226   6.430   9.009 -0.1267  0.2036  0.9461
 5671SOL    HW218455   2.138   6.456   8.888 -1.1339 -1.1003  1.3826
 5672SOL     OW18456   0.588   4.670  12.206 -0.4950  0.5719  0.1279
 5672SOL    HW118457   0.670   4.687  12.160 -0.3704 -0.7900 -0.2170
 5672SOL    HW218458   0.526   4.731  12.167  0.1602  1.0247 -0.2213
 5673SOL     OW18459   1.682   5.980   0.003 -0.4609  0.1736  0.2920
 5673SOL    HW118460   1.691   5.887   0.021  1.1388  0.1930 -0.2512
 5673SOL    HW218461   1.747   6.022   0.061 -0.2415  0.8213 -0.4031
 5674SOL     OW18462   0.963   6.823  11.886 -0.1428 -0.1772 -0.1778
 5674SOL    HW118463   0.989   6.910  11.855  1.5981 -0.2805  0.8585
 5674SOL    HW218464   1.040   6.768  11.874 -0.3018 -0.8920  1.6389
 5675SOL     OW18465   2.225   7.216  10.396  0.0584  0.1737 -0.0995
 5675SOL    HW118466   2.318   7.192  10.395 -0.0041 -0.2558  1.6741
 5675SOL    HW218467   2.222   7.297  10.446 -0.5303  0.1614 -0.1164
 5676SOL     OW18468   0.761   1.355  11.836  0.1871 -0.3689 -0.3291
 5676SOL    HW118469   0.679   1.390  11.801  0.4631  1.0492  0.3630
 5676SOL    HW218470   0.748   1.355  11.931  1.2375  0.5788 -0.1641
 5677SOL     OW18471   0.566   7.078   1.400  0.3856  0.4521  0.0867
 5677SOL    HW118472   0.523   7.139   1.460 -1.4767  0.2673 -0.9714
 5677SOL    HW218473   0.525   6.994   1.418 -1.1356  0.6186 -2.1870
 5678SOL     OW18474   2.598   7.904   1.029  0.4883  0.6647 -0.7790
 5678SOL    HW118475   2.619   7.825   1.078 -3.7783 -0.3708 -0.2328
 5678SOL    HW218476   2.611   7.881   0.938  1.8612  0.2635 -0.4910
 5679SOL     OW18477   1.340   5.080  12.375  0.2103  0.3334 -0.3145
 5679SOL    HW118478   1.288   5.118  12.446  1.1461 -0.4661  0.8344
 5679SOL    HW218479   1.314   4.988  12.374  0.7645  0.1761 -0.4926
 5680SOL     OW18480   0.049   7.113  11.411  0.2489  1.1177 -0.0101
 5680SOL    HW118481   0.017   7.026  11.435 -1.8082  2.0194  0.7803
 5680SOL    HW218482   0.011   7.129  11.324 -0.8026  1.8631  0.5668
 5681SOL     OW18483   2.958   5.507  12.215 -0.2456  0.6116  0.2839
 5681SOL    HW118484   2.882   5.448  12.222 -0.2228  0.6437  0.8484
 5681SOL    HW218485   3.012   5.468  12.147  0.1059 -0.4049  1.1188
 5682SOL     OW18486   0.393   6.036  10.691  0.0792  0.3515  0.0971
 5682SOL    HW118487   0.437   6.089  10.758 -0.8186 -0.6786  1.5638
 5682SOL    HW218488   0.422   6.073  10.608  0.7404  2.0873  1.0523
 5683SOL     OW18489   0.607   5.833   0.725  0.2262  0.5347 -0.4281
 5683SOL    HW118490   0.641   5.744   0.720  1.3968  0.9735 -0.6221
 5683SOL    HW218491   0.663   5.884   0.665 -0.5002  1.3742 -0.4170
 5684SOL     OW18492   7.646   7.872  12.282  0.5455  0.7152 -0.0385
 5684SOL    HW118493   7.618   7.901  12.195 -1.8457  1.3128  0.8314
 5684SOL    HW218494   7.635   7.777  12.281  0.9130  0.6784 -0.5150
 5685SOL     OW18495   0.575   6.837   0.268  0.0539  0.3344 -0.3712
 5685SOL    HW118496   0.598   6.887   0.347 -1.0702  1.1846 -0.5554
 5685SOL    HW218497   0.597   6.747   0.290  0.5881  0.6773  0.5882
 5686SOL     OW18498   0.788   6.189  10.261  0.3111  0.0486  0.1715
 5686SOL    HW118499   0.862   6.160  10.208  0.3353 -1.1489  0.8247
 5686SOL    HW218500   0.820   6.187  10.351 -1.4435 -4.0949  0.9356
 5687SOL     OW18501   2.394   7.068  12.239  0.1984 -0.0182 -0.6067
 5687SOL    HW118502   2.409   7.160  12.261 -1.2362  0.1418 -0.2064
 5687SOL    HW218503   2.396   7.023  12.324  0.8570 -0.3614 -0.7976
 5688SOL     OW18504   2.025   6.366  12.364  0.5464 -0.1474  0.3691
 5688SOL    HW118505   2.116   6.349  12.389  0.6435  1.2563  1.0525
 5688SOL    HW218506   1.973   6.326  12.433  0.6389 -0.7197  0.1167
 5689SOL     OW18507   1.135   4.989  11.733  0.2350  0.5670  0.6278
 5689SOL    HW118508   1.103   5.045  11.662 -0.5562 -1.6734 -0.8631
 5689SOL    HW218509   1.227   4.974  11.712 -0.2519 -0.9518 -0.5881
 5690SOL     OW18510   2.501   5.591  11.436  0.3887 -0.4812 -0.3569
 5690SOL    HW118511   2.560   5.625  11.370  0.1858 -0.4281 -0.5116
 5690SOL    HW218512   2.541   5.615  11.519 -1.4462  3.2969 -0.3627
 5691SOL     OW18513   1.123   6.720  11.592  0.1275  0.3651 -0.2338
 5691SOL    HW118514   1.190   6.788  11.580 -0.2283  1.2270  2.0538
 5691SOL    HW218515   1.154   6.669  11.667 -1.1408 -0.0002  0.0719
 5692SOL     OW18516   0.785   0.507  11.953 -0.4665 -0.2073 -0.1842
 5692SOL    HW118517   0.787   0.582  12.012 -1.1027  1.0522 -1.7059
 5692SOL    HW218518   0.870   0.508  11.910 -0.0154 -1.1067  0.6322
 5693SOL     OW18519   1.546   6.414   0.323 -0.1444 -0.6851 -0.8832
 5693SOL    HW118520   1.576   6.440   0.410  0.9871  0.3171 -1.5288
 5693SOL    HW218521   1.516   6.496   0.282  2.0503 -0.5593 -2.4293
 5694SOL     OW18522   5.324   7.723   1.757 -0.0905  0.5219 -0.3607
 5694SOL    HW118523   5.344   7.750   1.667 -1.5524  0.1240 -0.8242
 5694SOL    HW218524   5.311   7.628   1.751  1.2434  0.2627  0.5558
 5695SOL     OW18525   1.325   1.137  12.393  0.0439 -0.0564 -0.4302
 5695SOL    HW118526   1.271   1.205  12.354 -1.4602  0.2549  1.9758
 5695SOL    HW218527   1.343   1.076  12.321 -3.0738  0.1071 -1.4976
 5696SOL     OW18528   7.451   1.621   1.778  0.2049 -0.1241  0.3078
 5696SOL    HW118529   7.471   1.673   1.856  0.4507 -0.5294  0.5157
 5696SOL    HW218530   7.447   1.686   1.707  0.2582  0.2116  0.6067
 5697SOL     OW18531   0.554   6.636   1.146  0.2573  0.4669  0.6170
 5697SOL    HW118532   0.634   6.680   1.117 -0.4902  1.6002  0.2214
 5697SOL    HW218533   0.504   6.705   1.191 -1.1800  0.1734 -0.4788
 5698SOL     OW18534   7.544   5.087   2.364  0.3066  0.2372  0.1622
 5698SOL    HW118535   7.547   5.067   2.271 -1.3667  0.7577 -0.0378
 5698SOL    HW218536   7.585   5.173   2.371 -1.0369  0.9639 -0.3806
 5699SOL     OW18537   7.320   0.704  12.342 -0.0802 -0.2465  0.2132
 5699SOL    HW118538   7.302   0.629  12.285 -1.5062 -0.0967  0.4382
 5699SOL    HW218539   7.372   0.764  12.287  0.8550 -1.2685 -0.0454
 5700SOL     OW18540   7.707   6.836   1.720 -0.1569 -0.6522  0.0584
 5700SOL    HW118541   7.784   6.869   1.767  0.7731  0.7605 -2.2677
 5700SOL    HW218542   7.648   6.911   1.717  0.8679  0.1658 -3.0414
 5701SOL     OW18543   0.895   7.350   3.217 -0.0027  0.1067  0.4711
 5701SOL    HW118544   0.971   7.403   3.243  0.2634 -0.9444  1.9420
 5701SOL    HW218545   0.934   7.272   3.176 -0.2171 -0.7991  1.9191
 5702SOL     OW18546   1.286   4.702   0.157  0.3893 -0.1013 -0.1894
 5702SOL    HW118547   1.339   4.780   0.145  1.5542 -0.7478  0.5952
 5702SOL    HW218548   1.204   4.735   0.194  0.0280  0.9520 -1.8273
 5703SOL     OW18549   1.539   0.235   1.301  0.0749 -0.3228 -0.6113
 5703SOL    HW118550   1.538   0.199   1.213  0.2014  1.9006 -1.5925
 5703SOL    HW218551   1.458   0.286   1.307 -0.4990 -1.3270  1.0040
 5704SOL     OW18552   7.812   2.074   0.963  0.1594  0.0556  0.0354
 5704SOL    HW118553   7.762   2.036   0.890 -0.1265 -1.1096  0.8045
 5704SOL    HW218554   7.904   2.063   0.936  0.0779  2.1938 -1.3739
 5705SOL     OW18555   1.487   6.683   0.226  0.1971  0.2040 -0.1909
 5705SOL    HW118556   1.551   6.737   0.272  0.9783 -2.5320  2.2400
 5705SOL    HW218557   1.407   6.692   0.278  0.1017 -0.2567 -0.2488
 5706SOL     OW18558   0.623   6.822   2.205 -0.2110 -0.2109 -0.0495
 5706SOL    HW118559   0.565   6.889   2.168 -0.2008 -0.4788 -0.5598
 5706SOL    HW218560   0.571   6.780   2.273 -1.1024 -1.3495 -1.4030
 5707SOL     OW18561   7.617   6.226   1.794 -0.4442 -0.5616 -0.3981
 5707SOL    HW118562   7.615   6.287   1.721 -0.0872 -1.2389 -0.9920
 5707SOL    HW218563   7.710   6.214   1.813 -0.5494  0.1499  0.6470
 5708SOL     OW18564   0.726   7.941   1.233  0.0055  0.2722 -0.2415
 5708SOL    HW118565   0.663   7.931   1.161 -0.7702  0.4084  0.4008
 5708SOL    HW218566   0.799   7.884   1.209  0.7014  1.8403 -2.1400
 5709SOL     OW18567   1.240   0.995   1.519  0.4186 -0.4490 -0.6574
 5709SOL    HW118568   1.211   1.055   1.587 -0.9662 -1.2678 -0.4967
 5709SOL    HW218569   1.336   0.996   1.526  0.4305  1.5265 -0.5199
 5710SOL     OW18570   7.901   1.401   0.706  0.3924  0.2048  0.0845
 5710SOL    HW118571   7.929   1.310   0.700  0.8519  0.3586 -0.2010
 5710SOL    HW218572   7.814   1.397   0.746  0.2894 -0.3781 -0.1853
 5711SOL     OW18573   0.846   7.426   1.352 -0.1700  0.1145  0.0451
 5711SOL    HW118574   0.825   7.413   1.259 -0.4439  2.6374 -0.3149
 5711SOL    HW218575   0.881   7.515   1.356  0.9527 -0.3723  2.2078
 5712SOL     OW18576   0.901   0.004  12.493 -0.6116 -0.8631  0.1944
 5712SOL    HW118577   0.896  -0.029  12.583 -1.6578  0.1666  0.5416
 5712SOL    HW218578   0.908   0.099  12.503  1.1912 -0.8532 -0.7941
 5713SOL     OW18579   0.266   6.236   1.989 -0.4630 -0.0126 -0.1975
 5713SOL    HW118580   0.197   6.242   1.922 -0.6498 -0.5892 -0.0671
 5713SOL    HW218581   0.230   6.282   2.065 -0.2947  0.5501 -0.4537
 5714SOL     OW18582   1.717   0.354   1.486 -0.7373  1.2322  0.1676
 5714SOL    HW118583   1.665   0.303   1.424  0.0976  0.5923 -0.0271
 5714SOL    HW218584   1.682   0.329   1.572  0.2702 -0.4224  0.1374
 5715SOL     OW18585   0.298   0.477   1.095  0.3430 -0.2883  0.0395
 5715SOL    HW118586   0.275   0.390   1.061 -0.9515  0.2988 -0.6253
 5715SOL    HW218587   0.273   0.473   1.188 -1.0718 -0.1847 -0.3117
 5716SOL     OW18588   0.618   7.927   1.519 -0.3947  0.4613 -0.1071
 5716SOL    HW118589   0.675   7.938   1.444  0.6237  0.8122  0.6915
 5716SOL    HW218590   0.567   8.008   1.522  0.1284  0.7922  0.0351
 5717SOL     OW18591   7.937   0.797   1.118 -0.6225 -0.1963  0.2077
 5717SOL    HW118592   8.009   0.763   1.064 -2.5595 -1.8797 -1.5016
 5717SOL    HW218593   7.897   0.865   1.064 -0.7821  0.2075  0.8291
 5718SOL     OW18594   1.471   1.435   0.016 -0.2939 -0.0549  0.2131
 5718SOL    HW118595   1.567   1.427   0.022 -0.3508 -0.6413  0.4230
 5718SOL    HW218596   1.439   1.389   0.094 -0.7325  0.5211  0.3775
 5719SOL     OW18597   0.247   0.938   0.590  0.0064  0.7158 -0.5792
 5719SOL    HW118598   0.218   0.907   0.504  0.8566  0.8110 -0.9071
 5719SOL    HW218599   0.197   1.019   0.604  0.1823  0.9342 -1.1810
 5720SOL     OW18600   0.715   0.636   1.168  0.1436 -0.0262 -0.7645
 5720SOL    HW118601   0.675   0.660   1.251  1.5285 -1.8117  0.4973
 5720SOL    HW218602   0.802   0.678   1.170  0.3548 -0.4402 -1.1180
 5721SOL     OW18603   1.938   7.416   1.294 -0.6316  0.8509  0.1386
 5721SOL    HW118604   1.989   7.462   1.362  0.1338 -0.0874  0.2236
 5721SOL    HW218605   1.957   7.465   1.214  0.0860  0.7729  0.2488
 5722SOL     OW18606   1.197   0.280   2.937  0.2559  0.2478  0.6811
 5722SOL    HW118607   1.280   0.233   2.929  0.1217  0.2938 -1.7594
 5722SOL    HW218608   1.132   0.219   2.901 -0.9944 -0.1560  3.3574
 5723SOL     OW18609   7.835   0.437   0.510 -0.1622  0.1470  0.4690
 5723SOL    HW118610   7.929   0.451   0.515 -0.0276 -0.8779  0.9590
 5723SOL    HW218611   7.802   0.462   0.596 -0.2455 -0.2003  0.5373
 5724SOL     OW18612   1.354   7.756   0.663 -0.1441  0.5061 -0.4084
 5724SOL    HW118613   1.412   7.766   0.739  0.2818  1.6022 -0.8671
 5724SOL    HW218614   1.412   7.765   0.587 -0.8677  1.3977 -0.8725
 5725SOL     OW18615   0.543   0.025   0.349 -0.3988  0.1323  0.2582
 5725SOL    HW118616   0.578   0.009   0.437 -0.9869 -1.0051  0.3092
 5725SOL    HW218617   0.448   0.012   0.359 -0.8611  2.7448  0.0449
 5726SOL     OW18618   0.460   6.335   3.443 -0.1577  0.2456 -0.4749
 5726SOL    HW118619   0.545   6.307   3.410  0.0319 -0.2325  0.3721
 5726SOL    HW218620   0.404   6.342   3.366  0.6634  0.6316 -1.0483
 5727SOL     OW18621   7.403   7.077   2.910 -0.3001 -0.3539 -0.2549
 5727SOL    HW118622   7.358   7.091   2.827 -0.7610 -0.5470 -0.0411
 5727SOL    HW218623   7.345   7.019   2.960  1.0720 -2.2416 -0.7270
 5728SOL     OW18624   7.706   5.920   2.197  0.5904  0.0446  0.5873
 5728SOL    HW118625   7.729   5.852   2.134 -0.4495 -0.5783  0.8566
 5728SOL    HW218626   7.776   5.985   2.188  1.5472 -0.9932  0.2457
 5729SOL     OW18627   6.697   2.795   3.815 -0.4011 -0.2287  0.2797
 5729SOL    HW118628   6.719   2.727   3.880 -1.8352 -1.0199 -0.0301
 5729SOL    HW218629   6.612   2.769   3.782 -0.5314  1.2220 -0.5652
 5730SOL     OW18630   0.834   0.942   1.271 -0.2154 -0.8126 -0.2977
 5730SOL    HW118631   0.909   0.934   1.211  0.7454  0.5383  0.6706
 5730SOL    HW218632   0.840   0.864   1.326 -0.1793 -1.2631 -0.9245
 5731SOL     OW18633   1.997   7.048  12.252  0.6951  0.1295  0.0416
 5731SOL    HW118634   1.917   7.096  12.229  0.6734 -0.2353 -0.6459
 5731SOL    HW218635   2.060   7.071  12.184  1.3340  0.7727  0.8307
 5732SOL     OW18636   1.092   0.746   0.740 -0.6716  0.4245 -0.8221
 5732SOL    HW118637   1.078   0.654   0.763  0.7827  0.3477 -0.0933
 5732SOL    HW218638   1.166   0.745   0.680  2.1695  1.3275  2.3641
 5733SOL     OW18639   0.544   1.114   0.092  0.4026  0.7042  0.5499
 5733SOL    HW118640   0.527   1.026   0.060  1.0921  1.1306 -1.1064
 5733SOL    HW218641   0.568   1.103   0.183  0.0754 -0.7667  0.4766
 5734SOL     OW18642   6.683   0.051  11.826 -0.1995  0.1099 -0.4205
 5734SOL    HW118643   6.719  -0.038  11.825 -0.0749  0.1238  0.7566
 5734SOL    HW218644   6.743   0.102  11.771 -0.4836 -0.6036 -1.4058
 5735SOL     OW18645   2.053   7.195   0.451  0.0455 -0.4614  0.2845
 5735SOL    HW118646   2.066   7.248   0.529  0.0804 -1.1274  0.7437
 5735SOL    HW218647   1.982   7.135   0.475  0.0066 -0.6202 -0.2195
 5736SOL     OW18648   7.555   7.748   1.562  0.3934 -0.4256 -0.9037
 5736SOL    HW118649   7.575   7.833   1.523  1.3167 -0.9218 -1.5621
 5736SOL    HW218650   7.537   7.767   1.654 -2.5045  0.8687 -1.6291
 5737SOL     OW18651   7.943   6.837   0.941 -0.4731  0.7329  0.1988
 5737SOL    HW118652   7.951   6.759   0.997 -2.0137 -0.3760 -1.0500
 5737SOL    HW218653   8.033   6.866   0.929 -0.0035  0.2828  2.2346
 5738SOL     OW18654   2.429   6.672  11.750 -0.0916 -0.6766  0.2501
 5738SOL    HW118655   2.489   6.711  11.813 -0.1018  0.4809 -0.4318
 5738SOL    HW218656   2.349   6.724  11.757  0.7694  1.3177 -2.5445
 5739SOL     OW18657   3.115   7.359   1.998  0.3142 -0.2717  0.0477
 5739SOL    HW118658   3.109   7.276   1.951  1.0303 -1.4880  1.9703
 5739SOL    HW218659   3.208   7.381   1.996 -0.1702  2.1356 -2.9730
 5740SOL     OW18660   7.723   0.636   0.349  0.1607 -0.0313 -0.0593
 5740SOL    HW118661   7.799   0.689   0.325  0.2312  0.3096  0.8576
 5740SOL    HW218662   7.761   0.557   0.387  0.0595 -0.9428 -1.7666
 5741SOL     OW18663   2.720   0.946  11.706 -0.5071  0.0558 -0.2236
 5741SOL    HW118664   2.663   0.989  11.768 -0.2578 -0.4129  0.3395
 5741SOL    HW218665   2.808   0.981  11.724 -0.5692  0.6065 -0.9335
 5742SOL     OW18666   0.258   7.988   0.430 -0.2216  0.3679  0.0685
 5742SOL    HW118667   0.167   8.017   0.422 -0.2135 -0.0317 -2.0887
 5742SOL    HW218668   0.255   7.922   0.500 -1.5572  0.5133  0.1869
 5743SOL     OW18669   0.652   7.109   0.799 -0.3811 -0.1280  0.1297
 5743SOL    HW118670   0.703   7.099   0.879  0.2455 -2.0569 -0.4492
 5743SOL    HW218671   0.612   7.023   0.784 -2.0803  0.7358 -0.6007
 5744SOL     OW18672   1.029   2.566   1.559 -0.0178 -0.1686 -0.3858
 5744SOL    HW118673   0.991   2.641   1.513 -1.2717 -1.1405 -0.9969
 5744SOL    HW218674   1.019   2.587   1.652 -1.5241 -0.1154 -0.5348
 5745SOL     OW18675   2.948   6.758   0.049 -0.3544 -0.2460  0.0229
 5745SOL    HW118676   2.977   6.781   0.137 -0.6761 -1.1140  0.3723
 5745SOL    HW218677   2.947   6.841   0.002  2.2203 -0.0847  0.1011
 5746SOL     OW18678   0.010   5.730   1.842  0.2010  0.1585 -0.0001
 5746SOL    HW118679  -0.061   5.758   1.785 -2.2210 -1.0568  2.2334
 5746SOL    HW218680   0.008   5.634   1.837  0.6107  0.0667  1.3078
 5747SOL     OW18681   1.381   7.781   1.279 -0.5916 -0.2491 -0.1439
 5747SOL    HW118682   1.457   7.819   1.323 -1.8351  1.6313  0.4878
 5747SOL    HW218683   1.413   7.757   1.192  0.6006  0.9585 -0.0623
 5748SOL     OW18684   6.373   7.529   1.714  0.4414  0.0080 -0.0429
 5748SOL    HW118685   6.328   7.480   1.644 -1.2606 -0.8104  1.5125
 5748SOL    HW218686   6.446   7.472   1.740 -0.9035 -1.3253  1.0391
 5749SOL     OW18687   0.558   0.466   2.575 -0.1674  0.0878  0.0382
 5749SOL    HW118688   0.583   0.551   2.613  1.4205  0.9588 -2.6569
 5749SOL    HW218689   0.468   0.479   2.546 -1.5337 -0.6951  3.4545
 5750SOL     OW18690   0.352   0.823   1.793 -0.3384  0.0898 -0.0779
 5750SOL    HW118691   0.351   0.731   1.820  0.2951  0.0713 -0.0898
 5750SOL    HW218692   0.261   0.845   1.778 -0.4759 -0.6144 -0.3154
 5751SOL     OW18693   0.216   1.153  11.427 -0.1275  0.2652  0.3024
 5751SOL    HW118694   0.292   1.147  11.369 -0.0578  1.2943  0.2583
 5751SOL    HW218695   0.232   1.232  11.479 -2.1400  1.7631 -1.1702
 5752SOL     OW18696   0.852   1.153   2.065  0.0872  0.1405  0.2865
 5752SOL    HW118697   0.818   1.068   2.092 -1.2069  0.8366  0.9498
 5752SOL    HW218698   0.794   1.181   1.994 -0.6613  1.2468  1.2875
 5753SOL     OW18699   1.778   7.938   1.105  0.3508 -0.1557  0.4003
 5753SOL    HW118700   1.808   7.885   1.031  2.0112  0.9136  0.2648
 5753SOL    HW218701   1.710   7.885   1.147 -0.3089 -0.9702 -1.6162
 5754SOL     OW18702   0.449   7.770   0.533  0.0203 -0.1863  0.3019
 5754SOL    HW118703   0.491   7.855   0.543 -0.1581 -0.0286 -0.2289
 5754SOL    HW218704   0.519   7.712   0.501 -0.2028  0.1338 -0.8168
 5755SOL     OW18705   0.062   2.223   0.997  0.7850  0.2335  0.3205
 5755SOL    HW118706   0.142   2.225   0.945  0.3489  0.1529 -0.3634
 5755SOL    HW218707   0.074   2.148   1.056  0.5027 -0.8583 -0.9539
 5756SOL     OW18708   0.008   0.435  11.219 -0.7388 -0.1055 -0.3117
 5756SOL    HW118709  -0.046   0.367  11.259 -0.9987  0.3094  0.0503
 5756SOL    HW218710   0.093   0.426  11.260 -0.6190 -0.5592 -0.6561
 5757SOL     OW18711   0.484   7.266   1.637 -0.4707  0.1719 -0.1966
 5757SOL    HW118712   0.411   7.205   1.636 -1.4279  1.2892 -0.0387
 5757SOL    HW218713   0.444   7.352   1.652  0.9672  0.6648  1.0874
 5758SOL     OW18714   0.200   6.215  11.463 -0.3930 -0.4104  0.0375
 5758SOL    HW118715   0.176   6.168  11.543  0.5025 -0.1696  0.4605
 5758SOL    HW218716   0.117   6.249  11.429 -0.8548 -1.0295  0.5345
 5759SOL     OW18717   1.188   6.635  11.898 -0.4974  0.7070  0.8661
 5759SOL    HW118718   1.263   6.579  11.878 -0.1928  1.2950  0.3246
 5759SOL    HW218719   1.219   6.690  11.970 -0.7871  0.2069  1.3782
 5760SOL     OW18720   1.861   0.046   2.359 -0.5538  0.2647 -0.4505
 5760SOL    HW118721   1.830   0.052   2.269 -0.6092 -0.0157 -0.4496
 5760SOL    HW218722   1.864  -0.048   2.377 -2.0068  0.3486  0.3476
 5761SOL     OW18723   6.170   2.169   2.950 -0.0936  0.2640 -0.6813
 5761SOL    HW118724   6.078   2.175   2.924 -0.6360 -0.3720  0.9560
 5761SOL    HW218725   6.175   2.089   3.001  1.1973  0.7154 -0.0566
 5762SOL     OW18726   7.001   7.820   2.907  0.1884 -0.0317 -0.2325
 5762SOL    HW118727   6.992   7.869   2.989 -0.5489 -0.7969  0.1596
 5762SOL    HW218728   7.082   7.854   2.868 -0.6487  2.0084 -0.3396
 5763SOL     OW18729   2.433   7.065   2.535 -0.5317 -0.1968  0.0598
 5763SOL    HW118730   2.467   7.106   2.456 -0.6608  0.4070  0.3097
 5763SOL    HW218731   2.396   7.137   2.586  0.4220 -0.4142  1.1195
 5764SOL     OW18732   0.457   7.818   3.776  0.1940 -0.1286 -0.2953
 5764SOL    HW118733   0.411   7.757   3.718 -1.3797  0.5974  0.1371
 5764SOL    HW218734   0.510   7.761   3.832 -2.1748 -1.2608  0.9294
 5765SOL     OW18735   7.923   0.740   2.769 -0.1025 -0.4287 -0.0593
 5765SOL    HW118736   7.849   0.732   2.709 -0.2736  0.1610  0.0682
 5765SOL    HW218737   7.884   0.732   2.856 -0.4836  2.6434  0.1619
 5766SOL     OW18738   3.331   1.395   2.354 -0.0324 -0.2763  0.2261
 5766SOL    HW118739   3.380   1.467   2.313  1.2497 -1.5984 -0.6652
 5766SOL    HW218740   3.341   1.411   2.448  1.9175 -0.3287  0.0769
 5767SOL     OW18741   7.620   7.287   3.394 -0.3580  0.2867 -0.5124
 5767SOL    HW118742   7.581   7.212   3.351 -1.3170  0.0358  0.7418
 5767SOL    HW218743   7.714   7.271   3.391 -0.5039 -0.4651 -1.1328
 5768SOL     OW18744   7.722   7.627   0.643 -0.5005 -0.1882 -0.5326
 5768SOL    HW118745   7.685   7.547   0.678  0.3660 -0.9523 -1.3103
 5768SOL    HW218746   7.813   7.606   0.625 -0.0743  1.1705 -0.1463
 5769SOL     OW18747   7.949   7.531   5.561 -0.2352 -0.2797 -0.4342
 5769SOL    HW118748   8.025   7.502   5.512 -0.0661  0.4667 -0.6351
 5769SOL    HW218749   7.968   7.508   5.652  0.5776  0.5847 -0.3731
 5770SOL     OW18750   0.607   7.315   2.550  0.0207 -0.1364 -0.0312
 5770SOL    HW118751   0.549   7.391   2.553  1.8064  1.2670  0.4899
 5770SOL    HW218752   0.665   7.326   2.625 -0.4538 -2.7220  0.8232
 5771SOL     OW18753   1.114   7.976   2.751 -0.5395  0.1738 -0.0780
 5771SOL    HW118754   1.121   8.045   2.685 -2.2427  0.3866 -0.0881
 5771SOL    HW218755   1.200   7.935   2.752  0.1283  1.4734 -0.9810
 5772SOL     OW18756   7.620   1.527   3.724 -0.7719 -0.4491 -0.2990
 5772SOL    HW118757   7.569   1.447   3.728  0.4663 -1.3621 -1.6925
 5772SOL    HW218758   7.556   1.594   3.698 -1.5614 -1.2362 -0.4485
 5773SOL     OW18759   0.912   1.486   2.818 -0.6348  0.0543  0.2295
 5773SOL    HW118760   0.874   1.402   2.845  1.1862 -1.3300 -1.2825
 5773SOL    HW218761   0.858   1.513   2.744 -1.3490  0.3527  0.8433
 5774SOL     OW18762   1.031   6.523   3.371  0.4417  0.3603  0.3333
 5774SOL    HW118763   1.030   6.612   3.336 -0.5845  0.0895 -0.3717
 5774SOL    HW218764   0.938   6.499   3.377  0.6870 -0.4428  1.0932
 5775SOL     OW18765   1.675   6.908   4.445 -0.6114 -0.5934  0.2360
 5775SOL    HW118766   1.734   6.889   4.372 -1.3924  0.8348 -0.8334
 5775SOL    HW218767   1.626   6.985   4.416 -2.2523 -1.1022  1.5181
 5776SOL     OW18768   7.589   7.520   1.405 -0.4822  0.2068 -0.0463
 5776SOL    HW118769   7.674   7.547   1.370  0.5609 -0.8443  1.5107
 5776SOL    HW218770   7.562   7.592   1.461  0.7757 -0.5614  1.6375
 5777SOL     OW18771   0.465   2.483   2.178  0.1446 -0.2501 -0.3248
 5777SOL    HW118772   0.399   2.461   2.113  0.6036 -2.8112 -0.0523
 5777SOL    HW218773   0.546   2.493   2.129  0.1405 -0.2923 -0.3398
 5778SOL     OW18774   2.165   7.413   3.056  0.0654  0.1390  0.5206
 5778SOL    HW118775   2.209   7.432   3.138  0.5452 -0.1712  0.3385
 5778SOL    HW218776   2.079   7.456   3.064 -0.7428 -1.6013  2.0448
 5779SOL     OW18777   2.738   1.081   4.563 -0.1027 -0.1265 -0.9182
 5779SOL    HW118778   2.752   0.988   4.582 -1.3260 -0.2289 -0.4205
 5779SOL    HW218779   2.690   1.081   4.481  0.6074  0.1136 -1.3423
 5780SOL     OW18780   0.445   7.748   2.231  0.4315 -0.6877  0.2739
 5780SOL    HW118781   0.383   7.820   2.240 -0.7215 -1.1292 -2.9800
 5780SOL    HW218782   0.394   7.670   2.249 -0.0663 -1.0494 -2.3433
 5781SOL     OW18783   0.232   7.588   4.881  0.5363  0.1074  0.6736
 5781SOL    HW118784   0.271   7.676   4.877 -0.5536  0.5805  0.2179
 5781SOL    HW218785   0.299   7.531   4.842  0.5369  1.0040 -0.7027
 5782SOL     OW18786   1.267   7.627   3.628 -0.2023 -0.2549  0.2961
 5782SOL    HW118787   1.211   7.676   3.567  2.7276  1.2969 -1.3984
 5782SOL    HW218788   1.330   7.693   3.660  2.5733 -2.3905 -0.3651
 5783SOL     OW18789   0.006   0.269   2.132 -0.3618 -0.5701  0.1665
 5783SOL    HW118790  -0.090   0.275   2.132 -0.3466  0.2456 -1.1425
 5783SOL    HW218791   0.035   0.356   2.159 -0.0173 -0.2210 -1.2515
 5784SOL     OW18792   7.867   1.446   1.266 -0.4885  0.2247  0.1314
 5784SOL    HW118793   7.786   1.478   1.304 -2.1297 -1.3116 -1.7942
 5784SOL    HW218794   7.877   1.496   1.185  1.2290  1.2839  0.9556
 5785SOL     OW18795   1.028   0.501   2.312 -0.1351 -0.2338 -0.1494
 5785SOL    HW118796   1.105   0.525   2.260 -0.5924 -0.1659 -0.8100
 5785SOL    HW218797   1.059   0.433   2.371  0.8140  0.9028  0.6910
 5786SOL     OW18798   7.837   1.612   1.996 -0.2620 -0.2322  0.3919
 5786SOL    HW118799   7.909   1.591   2.055 -1.9916 -2.0197  2.0354
 5786SOL    HW218800   7.814   1.703   2.015  0.1585 -0.3401  1.4319
 5787SOL     OW18801   1.429   0.565   3.800  0.1267 -0.4180 -0.2559
 5787SOL    HW118802   1.343   0.548   3.838  0.2376 -0.3034  0.0507
 5787SOL    HW218803   1.424   0.528   3.712 -1.2471  2.1860 -1.3768
 5788SOL     OW18804   7.065   5.984   2.272 -0.4538 -0.5361 -0.2149
 5788SOL    HW118805   7.021   5.907   2.307  1.7517 -1.6214  0.3901
 5788SOL    HW218806   7.030   6.058   2.323 -0.0075 -1.6208  1.7605
 5789SOL     OW18807   1.252   7.234   2.858 -0.3162 -0.2625  0.1574
 5789SOL    HW118808   1.233   7.246   2.951 -0.7305  0.2262  0.0105
 5789SOL    HW218809   1.167   7.237   2.815 -0.4685 -3.2007  0.0289
 5790SOL     OW18810   2.013   0.280   2.984 -0.3976 -0.7048  0.7258
 5790SOL    HW118811   2.001   0.324   3.068 -0.6290 -0.9708  0.8344
 5790SOL    HW218812   2.088   0.324   2.944  0.3624 -1.2450  1.5156
 5791SOL     OW18813   0.254   7.652   3.677  0.0510 -0.4903  0.4257
 5791SOL    HW118814   0.231   7.602   3.600 -0.1200  1.1882 -0.6702
 5791SOL    HW218815   0.183   7.715   3.687  1.4224  1.1658  0.2490
 5792SOL     OW18816   1.458   6.291   4.717  0.1876  0.6370  0.2171
 5792SOL    HW118817   1.399   6.229   4.761 -1.2671  1.6539 -0.2163
 5792SOL    HW218818   1.534   6.296   4.775  0.2872 -1.4186  0.3256
 5793SOL     OW18819   0.693   7.684   2.504  0.5838 -0.2880  0.1019
 5793SOL    HW118820   0.630   7.616   2.480  0.9471  0.0650 -2.0201
 5793SOL    HW218821   0.661   7.718   2.587 -0.7954 -1.5976  0.1494
 5794SOL     OW18822   1.428   0.981   4.541 -0.4529  0.0506  0.1070
 5794SOL    HW118823   1.458   0.946   4.625 -0.6358  0.2727  0.2654
 5794SOL    HW218824   1.494   0.951   4.478 -0.1150  0.1881  0.3878
 5795SOL     OW18825   0.131   1.691   3.873 -0.2907 -0.1745  0.1463
 5795SOL    HW118826   0.093   1.721   3.956 -1.4065  2.0103 -1.0571
 5795SOL    HW218827   0.121   1.766   3.814  1.3232 -1.3251 -1.7186
 5796SOL     OW18828   0.434   0.217   3.295 -0.4306  0.2681  0.0081
 5796SOL    HW118829   0.375   0.144   3.315  0.0197 -0.1214 -0.0720
 5796SOL    HW218830   0.413   0.241   3.205  0.5654 -0.8713 -0.5546
 5797SOL     OW18831   0.660   1.536   1.447  0.4012  0.0516 -0.2504
 5797SOL    HW118832   0.602   1.554   1.521  1.2745  3.5268 -0.2414
 5797SOL    HW218833   0.723   1.472   1.481 -0.4967 -0.0717  1.2778
 5798SOL     OW18834   7.858   6.670   2.567  0.3880  0.6594  0.1474
 5798SOL    HW118835   7.853   6.575   2.559 -0.1329  0.6695  0.3226
 5798SOL    HW218836   7.779   6.702   2.523  0.4468  0.9984  0.2856
 5799SOL     OW18837   2.804   5.919   3.932  0.1906 -0.1749  0.0321
 5799SOL    HW118838   2.863   5.972   3.985  0.7205 -1.4310  0.7520
 5799SOL    HW218839   2.780   5.846   3.990  0.1453 -1.1553 -1.1958
 5800SOL     OW18840   1.357   6.464   1.250  0.2782  0.9147  0.3017
 5800SOL    HW118841   1.280   6.507   1.287  0.9027  2.4349 -0.0541
 5800SOL    HW218842   1.335   6.371   1.250 -1.1832  1.2210  1.0478
 5801SOL     OW18843   1.709   0.659   1.602  0.2125 -0.4491 -0.2047
 5801SOL    HW118844   1.713   0.572   1.561  1.1266 -1.2291  1.4364
 5801SOL    HW218845   1.780   0.708   1.560  0.8874 -1.1094  0.1446
 5802SOL     OW18846   7.775   0.564   3.371  0.2840  0.9969 -0.3950
 5802SOL    HW118847   7.795   0.623   3.443 -1.3710  0.0528  0.9168
 5802SOL    HW218848   7.719   0.615   3.313 -1.0880  0.7861  0.7014
 5803SOL     OW18849   1.522   6.845   4.104  0.4594 -0.5826  0.1874
 5803SOL    HW118850   1.494   6.931   4.135 -0.9171 -1.2168  0.7848
 5803SOL    HW218851   1.617   6.853   4.092  0.3548  0.9868  0.3029
 5804SOL     OW18852   0.692   0.752   4.298 -0.1971 -0.4118 -0.1847
 5804SOL    HW118853   0.619   0.797   4.255  1.5053  1.4247 -1.3939
 5804SOL    HW218854   0.652   0.681   4.347 -2.6523 -0.2471 -1.7876
 5805SOL     OW18855   7.885   1.909   2.834  0.6500 -0.5688  0.8672
 5805SOL    HW118856   7.971   1.916   2.875  0.7122  1.0647  0.5229
 5805SOL    HW218857   7.824   1.903   2.908  0.8600  1.1457  1.2185
 5806SOL     OW18858   7.756   0.095   1.413 -0.2492  0.2577 -0.4917
 5806SOL    HW118859   7.749   0.014   1.364 -0.7312 -0.5725  0.8922
 5806SOL    HW218860   7.844   0.127   1.394  0.6424 -1.5624  0.3410
 5807SOL     OW18861   0.697   7.047   1.986  0.7164 -0.1467 -0.3986
 5807SOL    HW118862   0.643   7.037   2.064 -0.6943 -0.5945 -1.3893
 5807SOL    HW218863   0.693   7.140   1.966  2.5262  0.2813  1.0196
 5808SOL     OW18864   7.849   7.090   3.200 -0.1095 -0.2156  0.0187
 5808SOL    HW118865   7.770   7.097   3.147  0.7301  0.1819 -1.2317
 5808SOL    HW218866   7.916   7.061   3.139  0.8932  0.2295  0.8759
 5809SOL     OW18867   0.383   7.610   3.079  0.4077  0.3016  0.1481
 5809SOL    HW118868   0.302   7.604   3.028 -0.9274  0.5113  2.1305
 5809SOL    HW218869   0.373   7.689   3.132  1.6500 -0.0047  0.8843
 5810SOL     OW18870   1.016   6.998   4.351 -0.2526  0.0181 -0.2876
 5810SOL    HW118871   0.976   6.920   4.389  0.3525  0.3265  1.0844
 5810SOL    HW218872   0.953   7.030   4.287 -0.5553 -1.5175 -0.7750
 5811SOL     OW18873   0.640   4.197   4.238  0.2307  0.0841  0.1380
 5811SOL    HW118874   0.627   4.105   4.215 -0.1071  0.4471 -1.2415
 5811SOL    HW218875   0.553   4.237   4.226  0.3020  0.5258  1.0310
 5812SOL     OW18876   0.173   1.525   2.631 -0.1277  0.0898  0.3588
 5812SOL    HW118877   0.215   1.448   2.667  1.5349  0.6743 -0.2308
 5812SOL    HW218878   0.241   1.569   2.581 -1.5801  0.8476 -1.0628
 5813SOL     OW18879   7.832   6.163   2.135 -0.2198 -0.0384 -0.6824
 5813SOL    HW118880   7.867   6.156   2.224 -0.5669  0.5465 -0.4949
 5813SOL    HW218881   7.905   6.138   2.078  0.7285  1.8158 -0.3324
 5814SOL     OW18882   7.597   6.896   3.668  0.2669  0.0598  0.0593
 5814SOL    HW118883   7.650   6.839   3.612  0.3668 -0.1468  0.3660
 5814SOL    HW218884   7.636   6.890   3.754  0.0843  0.3468  0.1672
 5815SOL     OW18885   7.488   6.577   3.551 -0.6000 -0.4883 -0.1553
 5815SOL    HW118886   7.576   6.603   3.580 -0.2965 -0.5712 -0.9794
 5815SOL    HW218887   7.473   6.493   3.595 -0.7472  0.0744  0.8956
 5816SOL     OW18888   7.734   7.029   2.429  0.0438  0.4056  0.2920
 5816SOL    HW118889   7.683   6.957   2.392 -0.5861  0.5437  0.8830
 5816SOL    HW218890   7.803   6.986   2.479  0.9235  0.2159 -1.0371
 5817SOL     OW18891   5.918   7.441   2.315  0.0029 -0.3238 -0.1513
 5817SOL    HW118892   5.826   7.448   2.341  0.7299  1.2613  2.2649
 5817SOL    HW218893   5.946   7.357   2.351  0.4736  0.9696  2.6979
 5818SOL     OW18894   7.926   2.281   3.345  0.5579  0.7576 -0.2246
 5818SOL    HW118895   7.917   2.265   3.439  2.5698  1.3286  0.1236
 5818SOL    HW218896   7.895   2.201   3.304  1.5811 -0.3438  1.0476
 5819SOL     OW18897   0.488   0.545   2.214 -0.5374  0.1610  0.2240
 5819SOL    HW118898   0.550   0.533   2.285  0.3797 -1.0983 -0.7456
 5819SOL    HW218899   0.411   0.584   2.256  0.4096  0.5526  1.6718
 5820SOL     OW18900   5.711   1.558   3.535  0.0419  0.2101  0.0224
 5820SOL    HW118901   5.702   1.559   3.440 -0.6396 -2.2761 -0.0296
 5820SOL    HW218902   5.722   1.465   3.556  2.6599  0.8965  2.1823
 5821SOL     OW18903   2.163   1.364   3.457 -0.5416 -0.3794  0.0571
 5821SOL    HW118904   2.159   1.390   3.365 -0.4458 -1.5831 -0.3066
 5821SOL    HW218905   2.126   1.275   3.459 -1.6373  0.0576  1.3654
 5822SOL     OW18906   1.180   7.093   3.643 -0.2214  0.4564 -0.0722
 5822SOL    HW118907   1.251   7.041   3.682 -0.7407 -0.1499  0.0744
 5822SOL    HW218908   1.101   7.064   3.689 -1.2832 -2.0646 -3.0976
 5823SOL     OW18909   0.931   2.143   1.752 -0.1594 -0.5529  0.2607
 5823SOL    HW118910   0.865   2.173   1.815  1.0594  0.0919  1.2833
 5823SOL    HW218911   1.012   2.185   1.781  0.5695 -0.7769 -1.3714
 5824SOL     OW18912   0.849   7.242   4.238 -0.4018 -0.0183 -0.2088
 5824SOL    HW118913   0.824   7.195   4.158 -2.2624  0.4132  0.0870
 5824SOL    HW218914   0.860   7.333   4.210  2.4159 -0.3863 -0.6189
 5825SOL     OW18915   0.717   0.254   1.233 -0.3503  0.5405 -0.0259
 5825SOL    HW118916   0.799   0.300   1.217  1.0378 -1.5885  0.5632
 5825SOL    HW218917   0.744   0.169   1.268 -2.7870 -0.4955 -0.4910
 5826SOL     OW18918   1.255   0.285   3.747  0.1112  0.3254  0.4178
 5826SOL    HW118919   1.207   0.250   3.822 -2.4724 -1.3722 -1.8054
 5826SOL    HW218920   1.227   0.376   3.741 -1.5525 -0.1697  0.1993
 5827SOL     OW18921   1.106   0.189   3.394 -0.0494  0.0672 -0.0906
 5827SOL    HW118922   1.032   0.182   3.455 -1.9648  0.5318 -2.2627
 5827SOL    HW218923   1.069   0.167   3.309  2.0886  1.3792 -1.4275
 5828SOL     OW18924   7.944   0.297   4.227  0.2099  0.1459  0.7068
 5828SOL    HW118925   7.968   0.266   4.315 -0.1552 -0.5732  0.5636
 5828SOL    HW218926   8.019   0.272   4.172  0.3102  0.3309  0.7596
 5829SOL     OW18927   6.948   7.348   4.397  0.1833  0.5160 -0.2384
 5829SOL    HW118928   7.004   7.305   4.333  0.6679  0.7130  0.0556
 5829SOL    HW218929   6.945   7.439   4.368 -1.0399  0.2640 -1.0035
 5830SOL     OW18930   1.463   7.142   3.869  0.4645 -0.2759 -0.1755
 5830SOL    HW118931   1.428   7.173   3.952 -0.2634 -1.8331  0.1294
 5830SOL    HW218932   1.469   7.221   3.815 -0.4205  0.5370  0.8647
 5831SOL     OW18933   7.076   6.232   5.804 -0.2982 -0.4973 -0.1197
 5831SOL    HW118934   7.032   6.163   5.753  0.1216 -1.1095  0.3337
 5831SOL    HW218935   7.145   6.186   5.852 -1.4350 -0.1524  1.9669
 5832SOL     OW18936   2.092   0.162   3.442  0.0821 -0.0545  0.9019
 5832SOL    HW118937   2.016   0.105   3.427  2.2049 -2.2878 -2.7527
 5832SOL    HW218938   2.054   0.250   3.451 -3.0139 -1.1647 -0.0102
 5833SOL     OW18939   0.309   7.586   6.784 -0.2544  0.6262 -0.0232
 5833SOL    HW118940   0.373   7.522   6.816 -0.2041  0.6107 -0.1539
 5833SOL    HW218941   0.259   7.610   6.862 -0.0896  0.6386  0.0799
 5834SOL     OW18942   0.417   1.733   3.947 -0.0588  0.3566  0.3742
 5834SOL    HW118943   0.425   1.825   3.923 -0.8998 -0.1886 -2.4291
 5834SOL    HW218944   0.323   1.719   3.957  0.1811  0.1939  2.7823
 5835SOL     OW18945   0.300   7.459   4.087 -0.7241  0.4753  0.6373
 5835SOL    HW118946   0.237   7.506   4.032 -0.7642 -0.7778 -0.4431
 5835SOL    HW218947   0.246   7.421   4.156 -0.9533  0.5717  0.5153
 5836SOL     OW18948   7.754   0.287   5.296  0.1689 -0.2585  0.3675
 5836SOL    HW118949   7.807   0.367   5.298 -1.5935  1.0066 -0.3730
 5836SOL    HW218950   7.796   0.229   5.359  1.3580  1.3712  1.1615
 5837SOL     OW18951   7.856   1.014   6.182  0.3315  0.0543  0.0110
 5837SOL    HW118952   7.939   0.980   6.150 -0.3892 -3.5080  1.4722
 5837SOL    HW218953   7.794   0.996   6.111 -0.2082 -2.8053  1.0753
 5838SOL     OW18954   1.027   0.297   6.188  0.1320  0.3965 -0.4346
 5838SOL    HW118955   1.105   0.343   6.218 -0.0362  1.0267 -0.9514
 5838SOL    HW218956   1.000   0.244   6.263  1.1737 -0.0035 -0.3162
 5839SOL     OW18957   1.635   0.196   4.451  0.6819  0.1465  0.1151
 5839SOL    HW118958   1.655   0.199   4.358  1.8386  0.3459  0.3566
 5839SOL    HW218959   1.579   0.119   4.461  0.2785  0.3086 -0.7808
 5840SOL     OW18960   7.545   7.333   5.470  0.3322 -0.3189  0.2602
 5840SOL    HW118961   7.543   7.341   5.565 -0.6640  2.5951  0.0943
 5840SOL    HW218962   7.456   7.307   5.447  0.4469 -0.5708  0.1028
 5841SOL     OW18963   7.679   0.168   4.126  0.0372  0.4264  0.5584
 5841SOL    HW118964   7.697   0.125   4.043 -0.5832  0.6744  0.2934
 5841SOL    HW218965   7.765   0.180   4.166  0.4530  1.4049 -0.5944
 5842SOL     OW18966   1.943   7.000   4.000  0.4488 -0.4985 -0.3954
 5842SOL    HW118967   1.872   7.062   3.987  1.2286  0.8000  1.2323
 5842SOL    HW218968   1.925   6.929   3.937 -0.6039  1.2092 -2.1232
 5843SOL     OW18969   1.110   6.738   6.173  0.2178  0.9271 -0.0890
 5843SOL    HW118970   1.130   6.809   6.234  3.1511 -0.1968  0.4093
 5843SOL    HW218971   1.163   6.757   6.096  0.8877 -0.5867 -0.0296
 5844SOL     OW18972   7.729   5.757   7.115  0.1179  0.3153  0.3644
 5844SOL    HW118973   7.813   5.717   7.094  0.6856  0.9052  1.3849
 5844SOL    HW218974   7.664   5.702   7.072  1.0002 -0.4339 -0.0410
 5845SOL     OW18975   7.660   6.969   2.771  0.1950 -0.0708  0.2085
 5845SOL    HW118976   7.643   6.880   2.803 -0.4852 -0.3423 -0.8281
 5845SOL    HW218977   7.595   7.023   2.815 -0.7373 -0.4388 -0.6677
 5846SOL     OW18978   1.814   7.942   5.441  0.3093 -0.7627 -0.1010
 5846SOL    HW118979   1.880   7.922   5.376  0.8976 -1.3156  0.6477
 5846SOL    HW218980   1.731   7.914   5.402  0.8706 -2.8840  0.1147
 5847SOL     OW18981   1.453   7.720   4.915  0.0580 -0.6368 -0.1141
 5847SOL    HW118982   1.435   7.725   5.009  0.7327 -1.4582  0.0635
 5847SOL    HW218983   1.463   7.812   4.888 -1.2115 -0.3282  0.3856
 5848SOL     OW18984   1.191   7.988   5.306 -0.1480 -0.7089 -0.0588
 5848SOL    HW118985   1.153   7.905   5.280 -1.4427  0.0659 -0.7080
 5848SOL    HW218986   1.119   8.050   5.303  1.1897  0.8684 -1.5740
 5849SOL     OW18987   7.283   7.382   4.387  0.4413 -0.0262  0.1271
 5849SOL    HW118988   7.358   7.435   4.413  0.3214  0.1343  0.1543
 5849SOL    HW218989   7.256   7.419   4.303  0.6552 -0.3604 -0.0894
 5850SOL     OW18990   0.474   7.670   4.174 -0.5966 -0.2713  0.2484
 5850SOL    HW118991   0.432   7.692   4.257 -0.2852 -1.1278  0.6479
 5850SOL    HW218992   0.419   7.603   4.136 -1.1984  0.7095 -0.6601
 5851SOL     OW18993   0.754   6.738   5.503 -0.1424  0.4215  0.1256
 5851SOL    HW118994   0.703   6.723   5.583  0.1640 -0.8264  0.1068
 5851SOL    HW218995   0.762   6.833   5.497 -0.8749  0.5631  1.1303
 5852SOL     OW18996   0.479   1.441   3.260 -0.2166 -0.2804 -0.4593
 5852SOL    HW118997   0.550   1.436   3.324  1.3272 -2.6796 -2.2104
 5852SOL    HW218998   0.401   1.414   3.308  0.2577  1.0227  1.1428
 5853SOL     OW18999   6.380   0.231   4.967 -0.4209  0.3714 -0.1970
 5853SOL    HW119000   6.403   0.241   4.875 -0.9703 -1.7763 -0.6304
 5853SOL    HW219001   6.454   0.269   5.015  1.2271 -0.9355 -1.5495
 5854SOL     OW19002   6.967   7.819   5.952 -0.6501  0.0404  0.3040
 5854SOL    HW119003   6.885   7.806   5.904 -0.4129  0.3892 -0.2095
 5854SOL    HW219004   6.967   7.913   5.974 -1.1337 -0.2655  1.6975
 5855SOL     OW19005   0.380   6.388   4.946  0.2957 -0.0110  0.0028
 5855SOL    HW119006   0.453   6.330   4.925 -0.5255 -1.0607 -0.0414
 5855SOL    HW219007   0.343   6.412   4.861 -0.9160 -1.4908  0.0774
 5856SOL     OW19008   2.375   6.451   5.611 -0.2342 -0.0381 -0.1316
 5856SOL    HW119009   2.345   6.419   5.526  0.2273 -1.0645  0.0697
 5856SOL    HW219010   2.352   6.381   5.672 -1.2736  1.0229  0.7407
 5857SOL     OW19011   1.164   6.962   4.785 -0.2101  0.2387 -0.2573
 5857SOL    HW119012   1.190   7.054   4.776  0.6018  0.1025  0.4989
 5857SOL    HW219013   1.093   6.962   4.849  0.9715  0.2039  1.1308
 5858SOL     OW19014   0.656   0.133   4.290 -0.6632  0.2894 -0.1632
 5858SOL    HW119015   0.615   0.103   4.371 -1.0720  0.0146 -0.4724
 5858SOL    HW219016   0.719   0.200   4.319  0.2787 -0.8566  0.5438
 5859SOL     OW19017   7.177   1.273   6.896 -0.5447  0.2586  0.3436
 5859SOL    HW119018   7.215   1.222   6.824 -0.6405 -0.1381  0.5730
 5859SOL    HW219019   7.082   1.269   6.881 -0.5573  0.2999  0.4112
 5860SOL     OW19020   6.519   7.636   4.427  0.3193 -0.1159  0.4279
 5860SOL    HW119021   6.545   7.553   4.468  0.9618 -0.1899 -0.1070
 5860SOL    HW219022   6.467   7.681   4.494  0.2682 -0.7908  0.8525
 5861SOL     OW19023   2.355   7.577   5.692 -0.1449  0.2142 -0.0572
 5861SOL    HW119024   2.439   7.530   5.686 -1.5082 -2.2399 -2.2168
 5861SOL    HW219025   2.315   7.545   5.773  0.2436  0.0069  0.0534
 5862SOL     OW19026   0.073   7.768   5.665  0.3315 -0.7739 -0.1790
 5862SOL    HW119027   0.050   7.840   5.724  0.4024  0.9276 -2.1141
 5862SOL    HW219028  -0.011   7.739   5.629  0.3998 -0.9358 -0.2086
 5863SOL     OW19029   7.347   0.669   4.518 -0.3873 -0.4671  0.1418
 5863SOL    HW119030   7.390   0.688   4.435 -0.7462 -1.9867 -0.4144
 5863SOL    HW219031   7.265   0.626   4.494  0.3437 -2.6053  1.2894
 5864SOL     OW19032   0.872   7.511   4.425  0.5130  0.2047  0.4931
 5864SOL    HW119033   0.948   7.548   4.381  0.9010 -0.3948  0.6379
 5864SOL    HW219034   0.908   7.468   4.503  0.1826 -1.0434 -0.0069
 5865SOL     OW19035   7.813   0.596   5.288  0.5699 -0.6623  0.6535
 5865SOL    HW119036   7.747   0.651   5.331  1.5982  0.3819  0.9365
 5865SOL    HW219037   7.876   0.575   5.357  0.8112 -1.2334  0.2684
 5866SOL     OW19038   1.658   6.929   2.742  0.1976  0.3206 -0.7110
 5866SOL    HW119039   1.593   6.982   2.788 -1.0792 -1.4340 -0.3815
 5866SOL    HW219040   1.681   6.981   2.665 -0.9487  1.3748 -0.3711
 5867SOL     OW19041   2.857   6.950   2.948  0.1041  0.7614  0.4255
 5867SOL    HW119042   2.937   6.934   2.899 -0.7189 -1.0373 -0.4407
 5867SOL    HW219043   2.797   6.989   2.884 -0.4249 -0.0223  0.4222
 5868SOL     OW19044   0.656   6.389   4.543  0.0512 -0.7080  0.2039
 5868SOL    HW119045   0.656   6.434   4.628 -0.4588 -0.7093  0.2107
 5868SOL    HW219046   0.578   6.333   4.546 -1.0477  0.6724 -0.9764
 5869SOL     OW19047   1.312   0.372   5.478  0.2186 -0.1825  0.2364
 5869SOL    HW119048   1.246   0.358   5.411 -0.8759  3.0859  0.4576
 5869SOL    HW219049   1.263   0.368   5.561  1.0035 -1.2645  0.6662
 5870SOL     OW19050   0.510   0.690   6.757  0.1552  0.3071 -0.7121
 5870SOL    HW119051   0.592   0.699   6.709 -0.6523  4.5379 -1.6688
 5870SOL    HW219052   0.443   0.678   6.690 -0.4722  1.6097 -0.3526
 5871SOL     OW19053   1.393   6.438   6.170  0.0828 -0.4480 -0.4550
 5871SOL    HW119054   1.434   6.524   6.161  1.1372 -0.8852 -0.0714
 5871SOL    HW219055   1.331   6.448   6.242 -0.1105  0.1054 -0.6984
 5872SOL     OW19056   0.394   6.138   6.373  0.4983 -0.3736 -0.5582
 5872SOL    HW119057   0.360   6.159   6.460 -0.5791 -0.9516 -0.8306
 5872SOL    HW219058   0.463   6.073   6.389 -0.1295 -0.9570 -0.1825
 5873SOL     OW19059   6.959   6.296   6.545  0.5989 -0.0872 -0.3214
 5873SOL    HW119060   7.027   6.303   6.611 -1.2144  1.6759  1.4863
 5873SOL    HW219061   7.006   6.291   6.462  2.9084 -0.7728  0.9583
 5874SOL     OW19062   0.258   2.488   3.207  0.1212  0.4857  0.1232
 5874SOL    HW119063   0.337   2.540   3.221  0.4348  0.4873 -1.5259
 5874SOL    HW219064   0.256   2.470   3.113 -0.8486 -1.0942  0.3955
 5875SOL     OW19065   0.764   6.594   4.420  0.3205 -0.2397  0.1887
 5875SOL    HW119066   0.713   6.527   4.464  0.2938 -0.2588  0.1295
 5875SOL    HW219067   0.849   6.592   4.463 -0.0452  0.5007  0.9838
 5876SOL     OW19068   0.552   1.220   4.121 -0.0649  0.1557  0.0518
 5876SOL    HW119069   0.583   1.293   4.068  1.4910  1.2306  2.2651
 5876SOL    HW219070   0.471   1.253   4.162 -0.1185  0.1170 -0.0232
 5877SOL     OW19071   2.178   7.282   5.820 -0.3935 -0.0225  0.4594
 5877SOL    HW119072   2.247   7.299   5.883  0.3776  0.5826 -0.5207
 5877SOL    HW219073   2.159   7.367   5.780 -1.3902 -0.2562  0.3888
 5878SOL     OW19074   0.367   0.099   3.675 -0.8819 -0.0068  0.2963
 5878SOL    HW119075   0.421   0.021   3.685  1.6370  1.8080  1.9313
 5878SOL    HW219076   0.413   0.151   3.609 -0.1494  1.8874  2.2213
 5879SOL     OW19077   7.799   7.784   3.760 -0.1784  0.3594  0.1716
 5879SOL    HW119078   7.776   7.785   3.667  1.1093 -1.9028 -0.2425
 5879SOL    HW219079   7.715   7.776   3.805 -0.8223  1.5530 -0.7521
 5880SOL     OW19080   7.620   7.164   3.659 -0.2318 -0.2137 -0.4373
 5880SOL    HW119081   7.641   7.186   3.568  0.8619  0.3235 -0.0843
 5880SOL    HW219082   7.600   7.071   3.657 -1.3875  0.0271 -1.4039
 5881SOL     OW19083   3.154   0.200   6.649 -0.1113 -0.4558  0.0792
 5881SOL    HW119084   3.103   0.280   6.662 -1.4219 -1.1341 -0.6900
 5881SOL    HW219085   3.115   0.159   6.572  0.7293 -1.6955  0.2855
 5882SOL     OW19086   0.338   0.004   5.494 -0.3839 -0.3216  0.5043
 5882SOL    HW119087   0.364   0.071   5.557  1.1307 -0.6248  0.2572
 5882SOL    HW219088   0.308  -0.069   5.548  0.0296 -0.2362  0.8584
 5883SOL     OW19089   0.453   7.235   4.033 -0.1047 -0.1474  0.3844
 5883SOL    HW119090   0.405   7.317   4.044 -0.3479 -0.5307  2.4895
 5883SOL    HW219091   0.397   7.168   4.072 -0.3832 -1.5534 -2.1869
 5884SOL     OW19092   0.146   0.344   3.959  0.0038  0.4510 -0.2931
 5884SOL    HW119093   0.214   0.278   3.954 -0.2163 -0.0154  2.0295
 5884SOL    HW219094   0.064   0.295   3.961 -0.2902  0.9051 -0.6838
 5885SOL     OW19095   0.740   6.392   5.273  0.4702 -0.1684  0.1165
 5885SOL    HW119096   0.728   6.383   5.368 -0.9541 -0.0624 -0.0326
 5885SOL    HW219097   0.675   6.457   5.247  1.1507  0.1240 -0.8819
 5886SOL     OW19098   1.714   0.272   4.174 -0.1097  0.2688 -0.1762
 5886SOL    HW119099   1.774   0.304   4.106  1.8543 -0.9646  0.8932
 5886SOL    HW219100   1.645   0.226   4.126  0.9590 -0.1426 -1.3633
 5887SOL     OW19101   7.495   1.384   2.926 -0.3510 -0.2649  0.2349
 5887SOL    HW119102   7.508   1.317   2.858 -0.1878 -1.7659  1.6909
 5887SOL    HW219103   7.559   1.452   2.905 -0.4402 -0.5908 -1.2157
 5888SOL     OW19104   2.903   5.685   5.938 -0.1282  0.2496  0.1295
 5888SOL    HW119105   2.893   5.773   5.974 -0.6157  1.1186 -1.9694
 5888SOL    HW219106   2.819   5.642   5.954  0.6753 -0.5383  2.7364
 5889SOL     OW19107   1.210   6.864   5.686  0.0023 -0.4137  0.6997
 5889SOL    HW119108   1.254   6.853   5.770  0.4463 -0.1887  0.5028
 5889SOL    HW219109   1.156   6.943   5.697  2.3348  1.4253 -0.1270
 5890SOL     OW19110   7.218   6.808   3.284 -0.3364  0.4334  0.1299
 5890SOL    HW119111   7.263   6.854   3.355  0.0739 -1.2224  0.9810
 5890SOL    HW219112   7.128   6.797   3.316 -0.2869  0.1490  0.1721
 5891SOL     OW19113   0.325   6.945   6.005 -0.0844 -0.1010  0.0961
 5891SOL    HW119114   0.351   6.982   5.920 -0.0208  0.7824  0.4845
 5891SOL    HW219115   0.235   6.916   5.991 -0.4327  0.9601 -0.0134
 5892SOL     OW19116   2.817   7.086   7.283  0.2609 -0.0961  0.2113
 5892SOL    HW119117   2.870   7.030   7.226  0.1314 -0.2680  0.2568
 5892SOL    HW219118   2.881   7.133   7.337  0.3549 -0.6232  0.5653
 5893SOL     OW19119   2.693   7.341   3.872 -0.1133 -0.2455 -0.5966
 5893SOL    HW119120   2.741   7.262   3.900  0.0951  0.1285  0.1413
 5893SOL    HW219121   2.762   7.401   3.844 -0.1835  0.0929 -0.0531
 5894SOL     OW19122   7.945   5.979   3.526 -0.2729 -0.5591 -0.1901
 5894SOL    HW119123   7.964   6.072   3.516  0.5754 -0.5766  0.9756
 5894SOL    HW219124   7.851   5.972   3.512 -0.3662  0.4985 -0.1839
 5895SOL     OW19125   1.238   6.589   6.383 -0.1878  0.3351 -0.0781
 5895SOL    HW119126   1.173   6.604   6.314 -0.3031  0.9074  0.1528
 5895SOL    HW219127   1.268   6.677   6.407  0.0093  0.1249  0.4528
 5896SOL     OW19128   7.480   7.602   6.585 -0.6070  0.6460  0.3807
 5896SOL    HW119129   7.548   7.667   6.570  0.4643 -0.4448  0.3539
 5896SOL    HW219130   7.492   7.575   6.677  0.9616 -1.6603 -0.4071
 5897SOL     OW19131   7.783   1.834   5.205 -0.5281  0.6221  0.4378
 5897SOL    HW119132   7.690   1.852   5.219 -0.7036 -0.5861  0.9714
 5897SOL    HW219133   7.827   1.868   5.283 -0.7969 -0.7238  1.2065
 5898SOL     OW19134   3.148   7.151   7.239 -0.4026 -0.0453 -0.2661
 5898SOL    HW119135   3.102   7.191   7.312  1.1455  2.3273 -0.4833
 5898SOL    HW219136   3.210   7.218   7.210  2.2999 -2.5689 -0.7834
 5899SOL     OW19137   1.811   6.615   6.599 -0.4828  0.0849 -0.2059
 5899SOL    HW119138   1.799   6.551   6.668  1.0236 -2.7578 -2.3629
 5899SOL    HW219139   1.813   6.564   6.518  0.4799  2.9012 -2.1449
 5900SOL     OW19140   3.827   6.579   5.384  0.2685  0.5762  0.3416
 5900SOL    HW119141   3.800   6.618   5.301  1.2784  1.7191  0.5199
 5900SOL    HW219142   3.874   6.649   5.429  1.9915 -0.7899  0.7718
 5901SOL     OW19143   0.651   0.822   5.157  0.2216  0.7648  0.3690
 5901SOL    HW119144   0.558   0.801   5.146  0.7125 -1.7677  0.5870
 5901SOL    HW219145   0.684   0.755   5.217  2.3667  1.1248 -0.3353
 5902SOL     OW19146   5.291   7.641   5.596  0.2211 -0.1188 -0.5604
 5902SOL    HW119147   5.373   7.680   5.627 -0.3975  1.4889 -0.8524
 5902SOL    HW219148   5.223   7.700   5.628 -0.8385 -1.3746 -0.4125
 5903SOL     OW19149   2.735   6.845   6.462 -0.2539 -0.1526  0.2374
 5903SOL    HW119150   2.645   6.877   6.473 -0.2014  0.1194 -0.1108
 5903SOL    HW219151   2.783   6.921   6.431 -0.1098 -0.5530 -0.5307
 5904SOL     OW19152   0.421   1.613   6.053  0.2231 -0.2015 -0.4992
 5904SOL    HW119153   0.397   1.567   5.973  1.4776  0.8876 -1.5327
 5904SOL    HW219154   0.490   1.673   6.027 -0.4321  1.3255  1.0751
 5905SOL     OW19155   0.873   7.512   7.912  0.3258  0.5201 -0.0164
 5905SOL    HW119156   0.813   7.587   7.908 -1.9876 -1.2404 -0.8050
 5905SOL    HW219157   0.838   7.457   7.981  0.9087 -0.6646 -0.6352
 5906SOL     OW19158   0.288   0.157   8.080  0.2951 -0.6285 -0.0438
 5906SOL    HW119159   0.377   0.194   8.087  0.0884  0.0072 -0.6943
 5906SOL    HW219160   0.292   0.098   8.005  0.8759 -2.7266  1.5387
 5907SOL     OW19161   0.994   1.575   5.203  0.0941  0.3972 -0.7098
 5907SOL    HW119162   1.012   1.574   5.109  0.8107 -0.7891 -0.5868
 5907SOL    HW219163   1.077   1.602   5.243  0.7590 -2.0631 -0.2890
 5908SOL     OW19164   0.894   0.428   7.398 -0.1429  0.1519  0.0956
 5908SOL    HW119165   0.961   0.360   7.391 -0.3453 -0.0122 -0.3071
 5908SOL    HW219166   0.885   0.462   7.309 -0.9440 -0.1755  0.0393
 5909SOL     OW19167   0.257   1.258   4.971  0.4761  0.1576 -0.9280
 5909SOL    HW119168   0.334   1.214   5.007 -0.6585 -1.0900  0.0884
 5909SOL    HW219169   0.217   1.302   5.046 -1.4439 -1.7512 -0.7353
 5910SOL     OW19170   1.798   0.015   7.177 -0.3610 -0.4011  0.3032
 5910SOL    HW119171   1.822  -0.017   7.091  0.9621  1.4774 -0.0876
 5910SOL    HW219172   1.708  -0.015   7.190 -0.2403 -1.5615 -1.2772
 5911SOL     OW19173   2.427   0.361   6.741 -0.0158 -0.1447 -0.4339
 5911SOL    HW119174   2.465   0.441   6.778 -1.5203  0.4081  0.0314
 5911SOL    HW219175   2.470   0.290   6.788  1.5698  0.3655 -1.0689
 5912SOL     OW19176   7.483   0.274   7.547  0.3933  0.2765 -0.3204
 5912SOL    HW119177   7.387   0.284   7.551  0.5572  3.1049 -1.0945
 5912SOL    HW219178   7.499   0.186   7.579 -2.2749  0.6603  2.5900
 5913SOL     OW19179   2.265   7.608   5.956  0.0837 -0.0924 -0.0788
 5913SOL    HW119180   2.291   7.521   5.987 -0.1084 -0.3043 -0.4933
 5913SOL    HW219181   2.343   7.662   5.965 -0.1035 -0.0162  1.2161
 5914SOL     OW19182   7.903   7.577   7.264 -0.6060  0.5072  0.1927
 5914SOL    HW119183   7.980   7.542   7.220 -0.8597  0.1265  0.0385
 5914SOL    HW219184   7.928   7.664   7.292  0.3376 -0.1168  1.3541
 5915SOL     OW19185   6.804   7.137   5.797 -0.0928  0.5424 -0.0645
 5915SOL    HW119186   6.784   7.231   5.804 -1.7886  0.3340 -1.5724
 5915SOL    HW219187   6.832   7.125   5.707 -1.1493 -0.6128 -0.2603
 5916SOL     OW19188   1.698   7.583   6.772 -0.1739  0.4255 -0.3564
 5916SOL    HW119189   1.710   7.655   6.711 -1.7568  0.0986 -1.0756
 5916SOL    HW219190   1.614   7.600   6.814 -0.1589 -0.5455  0.0985
 5917SOL     OW19191   1.897   0.715   6.547  0.3859  0.1504  0.0541
 5917SOL    HW119192   1.804   0.728   6.524  0.1627  0.0282  0.8683
 5917SOL    HW219193   1.939   0.798   6.525  0.0253  0.3131 -0.0302
 5918SOL     OW19194   2.158   7.879   6.815 -0.1607 -0.5280  0.2195
 5918SOL    HW119195   2.159   7.818   6.889 -0.5783  0.7629  1.3253
 5918SOL    HW219196   2.229   7.940   6.833  0.1499 -0.5637 -0.7939
 5919SOL     OW19197   1.089   6.240   4.962  0.1852  0.0551  0.2864
 5919SOL    HW119198   1.176   6.270   4.986  0.2501 -1.4752  2.2262
 5919SOL    HW219199   1.101   6.199   4.876  0.6011  2.8658 -1.1220
 5920SOL     OW19200   1.377   0.112   5.773  0.4220  0.3933 -0.1205
 5920SOL    HW119201   1.433   0.116   5.695 -0.5846  1.3576 -0.8427
 5920SOL    HW219202   1.295   0.152   5.744 -0.1644  0.2472  1.2908
 5921SOL     OW19203   0.248   7.299   8.573 -0.3615  0.0709  0.4577
 5921SOL    HW119204   0.337   7.317   8.600 -0.6484 -1.3177  2.4974
 5921SOL    HW219205   0.195   7.365   8.616 -0.3994  0.5779 -0.3388
 5922SOL     OW19206   7.555   0.811   7.050 -0.2498  0.2836 -0.4440
 5922SOL    HW119207   7.603   0.741   7.094 -0.9474  0.0732  0.0072
 5922SOL    HW219208   7.577   0.802   6.958 -1.1562 -1.2229 -0.5508
 5923SOL     OW19209   2.302   0.368   8.128 -0.4705  0.0658  1.0974
 5923SOL    HW119210   2.222   0.316   8.137  0.0760 -0.8853  0.6363
 5923SOL    HW219211   2.367   0.321   8.181 -0.3807  1.2214  2.0554
 5924SOL     OW19212   1.632   0.450   6.622  0.2542  0.0135 -0.2196
 5924SOL    HW119213   1.569   0.522   6.629 -1.3706 -1.3428  0.0032
 5924SOL    HW219214   1.687   0.460   6.700 -0.0436  0.9234 -0.1058
 5925SOL     OW19215   0.465   7.456   8.652  0.2618  0.2561 -0.2819
 5925SOL    HW119216   0.523   7.395   8.607  0.5176 -0.2734  0.7471
 5925SOL    HW219217   0.492   7.453   8.744 -0.2342  1.3324 -0.0773
 5926SOL     OW19218   2.622   7.126   7.488  0.3588 -0.5305 -0.1126
 5926SOL    HW119219   2.654   7.123   7.398  0.2220 -0.5353 -0.1619
 5926SOL    HW219220   2.542   7.073   7.486 -0.8023  1.1305 -0.4671
 5927SOL     OW19221   0.364   1.793   7.517  0.5460 -0.4439  0.2356
 5927SOL    HW119222   0.385   1.835   7.600  4.2598 -0.4425 -0.5142
 5927SOL    HW219223   0.411   1.710   7.520  0.0107 -0.8457 -1.4751
 5928SOL     OW19224   1.522   7.129   7.613 -0.2945  0.1189 -0.0732
 5928SOL    HW119225   1.458   7.144   7.682 -0.6585 -0.2998 -0.3121
 5928SOL    HW219226   1.571   7.211   7.608 -2.0927  1.2216 -1.2156
 5929SOL     OW19227   7.596   0.326   6.865 -0.1593 -0.0196  0.3655
 5929SOL    HW119228   7.528   0.274   6.822  0.4575 -0.2669 -0.3338
 5929SOL    HW219229   7.560   0.415   6.868 -1.2584 -0.4678  1.6393
 5930SOL     OW19230   7.283   0.096   6.224  0.0480 -0.4547  0.1898
 5930SOL    HW119231   7.316   0.078   6.135 -1.0212 -0.2773 -0.2506
 5930SOL    HW219232   7.263   0.010   6.260 -0.8081 -0.4426 -0.2505
 5931SOL     OW19233   0.752   0.283   4.992  0.0034  0.0039 -0.3097
 5931SOL    HW119234   0.747   0.317   5.082  2.0582  0.9490 -0.4975
 5931SOL    HW219235   0.664   0.298   4.957 -0.3229  1.3896  0.9536
 5932SOL     OW19236   1.029   7.631   5.883  0.3122 -0.4766 -0.2060
 5932SOL    HW119237   0.945   7.677   5.879  0.0967 -0.8649 -0.1235
 5932SOL    HW219238   1.016   7.562   5.947  2.2393  2.6386  4.0342
 5933SOL     OW19239   1.574   7.958   6.176  0.4537  0.1316  0.0524
 5933SOL    HW119240   1.501   7.921   6.226 -0.0941  1.4225  0.2422
 5933SOL    HW219241   1.651   7.913   6.209  0.0673  0.7146  1.8584
 5934SOL     OW19242   2.719   7.628   6.716  1.0035 -0.2366  0.1801
 5934SOL    HW119243   2.627   7.607   6.696  1.3476 -0.8209 -0.8483
 5934SOL    HW219244   2.727   7.720   6.695  0.5513 -0.0744  0.6797
 5935SOL     OW19245   0.246   7.812   4.637  0.5090 -0.4548  0.1131
 5935SOL    HW119246   0.170   7.778   4.685  0.3425 -2.6496 -1.5505
 5935SOL    HW219247   0.312   7.828   4.705 -2.0090  3.9090  1.9891
 5936SOL     OW19248   6.762   0.612   6.310  0.5960 -0.2461  0.7708
 5936SOL    HW119249   6.760   0.540   6.373  0.8306 -3.6141 -2.7512
 5936SOL    HW219250   6.672   0.617   6.277  1.0636 -0.4445 -0.5705
 5937SOL     OW19251   1.073   1.752   6.523  0.2696 -0.0951  0.1427
 5937SOL    HW119252   1.079   1.841   6.558  2.4851  1.1610 -3.0064
 5937SOL    HW219253   0.984   1.746   6.487 -0.8225 -0.2098  2.6531
 5938SOL     OW19254   1.145   0.137   6.386 -0.8181 -0.0422 -0.7601
 5938SOL    HW119255   1.221   0.186   6.356  0.5584 -2.6763 -1.8818
 5938SOL    HW219256   1.157   0.130   6.481 -1.8491  2.8848 -0.2939
 5939SOL     OW19257   7.765   0.456   8.580  0.5360  0.3500  0.6898
 5939SOL    HW119258   7.789   0.445   8.488 -1.1983 -2.2721  0.4439
 5939SOL    HW219259   7.723   0.542   8.584  0.4640  0.4218 -1.0145
 5940SOL     OW19260   0.461   0.602   7.030  0.2588 -0.3749  1.0370
 5940SOL    HW119261   0.531   0.537   7.033  0.0888 -0.6078  0.2988
 5940SOL    HW219262   0.477   0.650   6.948 -2.0088 -2.2578 -0.6542
 5941SOL     OW19263   6.914   1.835   4.041  0.0669  0.0717 -0.0938
 5941SOL    HW119264   6.875   1.750   4.024 -0.7515  0.2089  1.0260
 5941SOL    HW219265   6.843   1.888   4.076  0.7609  0.9785 -0.0153
 5942SOL     OW19266   1.208   0.696   6.679 -0.4997  0.6092 -0.5224
 5942SOL    HW119267   1.133   0.709   6.737  1.3917  1.5204  1.9091
 5942SOL    HW219268   1.204   0.769   6.617 -1.2166  1.0376  0.0227
 5943SOL     OW19269   0.440   7.392   5.907 -0.4183 -0.0709  0.4940
 5943SOL    HW119270   0.362   7.361   5.952 -1.4720  1.3422 -0.2939
 5943SOL    HW219271   0.464   7.321   5.847 -1.6134 -0.1684  0.1171
 5944SOL     OW19272   0.025   7.971   5.887 -0.2260 -0.1700  0.3016
 5944SOL    HW119273   0.112   8.010   5.895 -0.3051 -0.3126  2.4237
 5944SOL    HW219274  -0.033   8.045   5.869  0.2127  0.0630 -0.1481
 5945SOL     OW19275   2.945   7.494   7.252  0.0945  0.3285 -0.4946
 5945SOL    HW119276   2.921   7.583   7.227 -1.7551 -0.2279 -0.8220
 5945SOL    HW219277   2.884   7.438   7.204  3.2293 -1.3788 -2.8453
 5946SOL     OW19278   0.734   1.352   6.728 -0.2476  0.7238  0.2889
 5946SOL    HW119279   0.736   1.260   6.752 -0.2548  0.3017 -1.1883
 5946SOL    HW219280   0.814   1.365   6.677 -0.6087  1.3401 -0.1366
 5947SOL     OW19281   1.007   7.064   7.100 -0.0430  0.7636 -0.2906
 5947SOL    HW119282   1.085   7.017   7.129 -0.1550  0.3653 -0.6257
 5947SOL    HW219283   0.935   7.001   7.111 -0.9177  2.1495  3.1746
 5948SOL     OW19284   1.443   0.976   6.641  0.5051  0.1493  0.1051
 5948SOL    HW119285   1.508   1.031   6.599  1.2332 -0.5824  0.2410
 5948SOL    HW219286   1.486   0.945   6.721  0.0609 -0.4926  0.1028
 5949SOL     OW19287   0.020   1.051   6.459 -0.4012  0.6205 -0.7570
 5949SOL    HW119288  -0.042   1.088   6.521 -1.1511 -0.0706 -1.0720
 5949SOL    HW219289  -0.035   1.007   6.393  0.4206 -0.2743 -0.8725
 5950SOL     OW19290   7.015   7.393   5.379 -0.3710  0.2573  0.4440
 5950SOL    HW119291   6.960   7.471   5.388  0.9794  1.5417 -1.6913
 5950SOL    HW219292   7.004   7.366   5.288 -0.6334 -1.9821  1.0717
 5951SOL     OW19293   7.181   6.521   6.087 -0.0951 -0.5537 -0.5684
 5951SOL    HW119294   7.191   6.588   6.155 -1.2319  0.9077 -1.7904
 5951SOL    HW219295   7.238   6.449   6.117  0.0304  0.3295  1.5218
 5952SOL     OW19296   1.203   1.697   7.884  0.3957 -0.2005 -0.5382
 5952SOL    HW119297   1.211   1.631   7.952 -1.2064  0.0581 -0.0518
 5952SOL    HW219298   1.268   1.764   7.906  0.5649 -0.5949  0.1650
 5953SOL     OW19299   0.244   1.298   5.929  0.4899  0.2603  0.5951
 5953SOL    HW119300   0.305   1.245   5.981 -0.1458  0.0183  1.1127
 5953SOL    HW219301   0.159   1.285   5.972  0.3152  1.7083  0.7493
 5954SOL     OW19302   1.110   0.478   4.156  0.3598  0.0511 -0.1200
 5954SOL    HW119303   1.118   0.382   4.154  1.3427  0.0943  1.0404
 5954SOL    HW219304   1.021   0.494   4.187 -0.4301 -0.4547 -1.9580
 5955SOL     OW19305   2.844   7.053   6.321 -0.4464 -0.5157  0.0753
 5955SOL    HW119306   2.844   6.995   6.245  0.5618  0.3971 -0.6464
 5955SOL    HW219307   2.777   7.119   6.301  0.2106  0.0528 -0.3046
 5956SOL     OW19308   0.746   7.413   8.148  0.1214  0.1809  0.0834
 5956SOL    HW119309   0.811   7.347   8.173 -1.2707 -0.6216  1.8312
 5956SOL    HW219310   0.666   7.363   8.133 -0.2526  1.2007 -1.5715
 5957SOL     OW19311   7.805   2.403   7.916  0.3230  0.0319 -0.3609
 5957SOL    HW119312   7.763   2.391   8.001  0.4693  3.8232  0.4531
 5957SOL    HW219313   7.850   2.321   7.898  0.6072 -0.7967  3.4172
 5958SOL     OW19314   2.574   7.826   7.029  0.2894 -0.3960  0.1538
 5958SOL    HW119315   2.582   7.884   7.105 -0.3464  1.2865 -1.0012
 5958SOL    HW219316   2.513   7.871   6.971 -0.9836 -2.7153 -0.4110
 5959SOL     OW19317   2.723   6.560   6.648 -0.5737 -0.3912 -0.3312
 5959SOL    HW119318   2.748   6.652   6.647 -1.3087 -0.1891 -1.1022
 5959SOL    HW219319   2.633   6.558   6.616 -1.2495 -1.2021  1.4702
 5960SOL     OW19320   1.510   7.962   5.373 -0.0538  0.3972 -0.3341
 5960SOL    HW119321   1.510   7.886   5.432 -1.2483 -0.5951 -1.5325
 5960SOL    HW219322   1.505   8.038   5.431 -1.1439 -0.5419  0.8581
 5961SOL     OW19323   0.940   1.229   6.935 -0.6341 -0.3960  0.2438
 5961SOL    HW119324   0.955   1.142   6.899  1.4803 -0.0847  0.2778
 5961SOL    HW219325   0.948   1.288   6.860  1.6383  0.0623  0.7830
 5962SOL     OW19326   3.299   7.753   8.371  0.6112 -0.0314  0.6292
 5962SOL    HW119327   3.310   7.842   8.405  0.9156  0.2302 -0.1364
 5962SOL    HW219328   3.329   7.758   8.280  2.9971 -1.4703  1.2543
 5963SOL     OW19329   0.726   0.644   7.430 -0.3498 -0.0584  0.3917
 5963SOL    HW119330   0.751   0.668   7.341 -1.7140 -1.9644 -0.5951
 5963SOL    HW219331   0.756   0.554   7.440 -0.6120 -0.0222  1.7105
 5964SOL     OW19332   6.610   0.596   5.430  0.4889 -0.0745  0.0213
 5964SOL    HW119333   6.669   0.547   5.373 -0.8047  1.6212 -2.9755
 5964SOL    HW219334   6.522   0.571   5.401 -0.2025  2.2242 -0.0215
 5965SOL     OW19335   2.837   6.832   8.402  0.0276  0.4085 -0.2711
 5965SOL    HW119336   2.911   6.890   8.388 -0.2258  0.7411 -0.2512
 5965SOL    HW219337   2.769   6.888   8.439  0.6788 -0.4290  2.3791
 5966SOL     OW19338   1.555   7.473   8.598 -0.0079 -0.1280  0.3199
 5966SOL    HW119339   1.474   7.427   8.622 -0.5130  1.4680  1.8725
 5966SOL    HW219340   1.595   7.496   8.682  1.1390  0.6723 -0.4300
 5967SOL     OW19341   2.080   0.726   9.039  0.3733  0.2146  0.1857
 5967SOL    HW119342   2.132   0.799   9.004  0.6647  0.7201  1.5849
 5967SOL    HW219343   1.991   0.762   9.046  0.1709 -0.1119 -0.6706
 5968SOL     OW19344   3.230   6.124   7.694 -0.1553 -0.0504  0.1582
 5968SOL    HW119345   3.264   6.150   7.608  0.1460 -1.4397 -0.1694
 5968SOL    HW219346   3.171   6.050   7.675 -2.2856  1.3671  0.8729
 5969SOL     OW19347   1.754   0.655   8.184 -0.5056 -1.0877  0.0754
 5969SOL    HW119348   1.795   0.586   8.236 -0.9098 -1.1642  0.2929
 5969SOL    HW219349   1.802   0.653   8.101  0.5795 -0.5169  0.6714
 5970SOL     OW19350   0.774   7.988   5.586  0.3495  0.0685 -0.0804
 5970SOL    HW119351   0.721   7.960   5.661  0.2664  0.0004 -0.1633
 5970SOL    HW219352   0.845   7.923   5.581 -0.3822 -0.7088 -0.8573
 5971SOL     OW19353   1.916   0.613   7.987 -0.0735 -0.0784 -0.3953
 5971SOL    HW119354   1.996   0.662   7.966 -0.3683  0.8355  0.5393
 5971SOL    HW219355   1.898   0.563   7.907  1.7045 -0.6989 -0.4560
 5972SOL     OW19356   1.921   7.617   7.673  0.3923 -0.1465  0.0515
 5972SOL    HW119357   1.889   7.702   7.644  0.9374 -0.0722 -0.3511
 5972SOL    HW219358   1.844   7.573   7.710  0.2592  0.8177  0.9623
 5973SOL     OW19359   1.020   0.047   8.226  0.1661  0.5516  0.4904
 5973SOL    HW119360   1.085   0.051   8.156  0.3221  0.1591  0.6091
 5973SOL    HW219361   1.057  -0.013   8.290 -0.5037 -0.0171  0.3598
 5974SOL     OW19362   2.477   0.739   8.301 -0.1815  0.3503  0.0073
 5974SOL    HW119363   2.404   0.730   8.240 -0.5995  1.0345  0.4039
 5974SOL    HW219364   2.447   0.697   8.381  1.1362 -2.4669 -0.8363
 5975SOL     OW19365   0.030   0.349   8.763 -0.0106  0.6283 -0.2353
 5975SOL    HW119366   0.090   0.368   8.691 -0.8217 -0.2891 -1.1768
 5975SOL    HW219367   0.084   0.358   8.842  1.3675 -0.1369 -1.0522
 5976SOL     OW19368   1.536   0.247   7.159 -0.3472 -0.1044 -0.5905
 5976SOL    HW119369   1.629   0.226   7.171 -0.4511 -0.5491 -0.5485
 5976SOL    HW219370   1.500   0.170   7.115 -0.7328 -0.0033 -0.4499
 5977SOL     OW19371   2.298   7.481   8.610  0.1970  0.0069  0.4089
 5977SOL    HW119372   2.258   7.491   8.697 -1.2680  1.6022 -0.3732
 5977SOL    HW219373   2.275   7.562   8.564 -1.0540 -1.6946 -2.2236
 5978SOL     OW19374   1.294   2.029   9.220 -0.5897 -0.0322  0.0192
 5978SOL    HW119375   1.229   2.092   9.189 -0.3621  0.2586  0.1325
 5978SOL    HW219376   1.310   2.053   9.311  1.2925  1.2960 -0.5961
 5979SOL     OW19377   1.133   6.729  11.221  1.0369  0.0251 -0.2183
 5979SOL    HW119378   1.228   6.729  11.211  0.9819 -0.7655 -0.7686
 5979SOL    HW219379   1.110   6.637  11.235  0.3855  0.2567  0.2835
 5980SOL     OW19380   0.063   0.667   7.330 -0.3877 -0.7588  0.7293
 5980SOL    HW119381   0.001   0.658   7.258 -1.6762 -1.3651  1.8761
 5980SOL    HW219382   0.146   0.688   7.288 -1.3592  0.0485 -0.8454
 5981SOL     OW19383   1.006   0.088   6.923 -0.2210 -0.2217 -0.1348
 5981SOL    HW119384   0.984   0.017   6.984 -3.2631  0.9379  0.3034
 5981SOL    HW219385   1.074   0.138   6.968 -0.1387 -1.1930  0.8618
 5982SOL     OW19386   1.036   1.008   8.444  0.1591  0.0867  0.1961
 5982SOL    HW119387   0.964   0.960   8.404  0.6072 -1.1423  0.8115
 5982SOL    HW219388   0.994   1.064   8.510 -0.2786 -0.3084  0.2615
 5983SOL     OW19389   0.191   1.170   8.046 -0.1409  0.5267 -0.2936
 5983SOL    HW119390   0.242   1.228   7.989 -0.8667  0.4276 -1.0505
 5983SOL    HW219391   0.193   1.215   8.131 -1.0477  1.9091 -0.9635
 5984SOL     OW19392   7.463   5.031  10.096 -0.8519  0.7686 -0.0383
 5984SOL    HW119393   7.549   4.995  10.073 -0.5908  1.6422 -0.4902
 5984SOL    HW219394   7.438   4.985  10.176 -0.3240 -0.0693 -0.3435
 5985SOL     OW19395   0.053   0.856   8.619 -0.0578  0.1412 -1.0222
 5985SOL    HW119396   0.010   0.929   8.664  1.1996  0.6830 -0.6271
 5985SOL    HW219397   0.031   0.779   8.671  1.7446  0.8184  0.8861
 5986SOL     OW19398   0.936   6.896   8.567 -0.3405 -0.4140  0.2153
 5986SOL    HW119399   0.973   6.954   8.500  2.2807 -0.7996  1.2251
 5986SOL    HW219400   0.858   6.860   8.525 -1.5000  2.9100 -0.8694
 5987SOL     OW19401   2.057   1.083   8.880  0.0785 -0.3365  0.2699
 5987SOL    HW119402   2.092   1.082   8.791 -0.8659  2.2023 -0.2089
 5987SOL    HW219403   2.050   1.176   8.902 -3.1883 -0.7700  1.5905
 5988SOL     OW19404   0.632   7.356  11.047  0.0093  0.1432 -0.3032
 5988SOL    HW119405   0.576   7.279  11.050 -0.3275  0.4301  1.6828
 5988SOL    HW219406   0.721   7.322  11.053 -0.1720 -0.0840  1.6605
 5989SOL     OW19407   1.361   0.918   8.551  0.3375 -0.0706 -0.2608
 5989SOL    HW119408   1.313   0.988   8.507  0.1702  0.4007  0.6502
 5989SOL    HW219409   1.452   0.930   8.525  0.0798 -0.5216 -1.4139
 5990SOL     OW19410   0.819   7.459   7.621 -0.5463  0.5893 -0.2182
 5990SOL    HW119411   0.802   7.540   7.574 -2.1831 -0.7406 -2.1297
 5990SOL    HW219412   0.836   7.486   7.711  1.5049  3.1746 -1.2572
 5991SOL     OW19413   7.940   5.743   7.686  0.5599 -0.7723  0.0651
 5991SOL    HW119414   7.916   5.781   7.601 -0.1688 -0.4966  0.3864
 5991SOL    HW219415   7.948   5.817   7.745  1.7899 -0.8998  0.0862
 5992SOL     OW19416   1.498   2.008   8.204 -0.2811 -0.2816 -0.1937
 5992SOL    HW119417   1.590   1.995   8.226 -0.6877 -0.4444  1.5846
 5992SOL    HW219418   1.473   1.928   8.159 -0.3271 -1.7408  2.2274
 5993SOL     OW19419   7.813   0.430   8.325  0.4501  0.2974 -0.0983
 5993SOL    HW119420   7.831   0.348   8.278  0.5512  0.1584  0.1821
 5993SOL    HW219421   7.758   0.480   8.265  0.0951 -0.1231 -0.1278
 5994SOL     OW19422   2.463   1.024   6.428 -0.1368 -0.4430 -0.2028
 5994SOL    HW119423   2.453   0.950   6.368 -1.7242 -1.2121  0.9452
 5994SOL    HW219424   2.494   0.985   6.510 -0.6546  0.2002  0.3065
 5995SOL     OW19425   0.224   0.130   9.381  0.2415 -0.5027 -0.1085
 5995SOL    HW119426   0.241   0.037   9.392 -0.6576 -0.8626 -1.4725
 5995SOL    HW219427   0.304   0.165   9.341 -0.2273 -1.1522 -1.6785
 5996SOL     OW19428   2.400   0.409   7.880  0.0524  0.0380  0.4338
 5996SOL    HW119429   2.456   0.339   7.846 -1.7779 -1.3583  0.1467
 5996SOL    HW219430   2.372   0.378   7.966 -1.9353 -0.3012 -0.2958
 5997SOL     OW19431   1.901   0.157   8.403 -0.4213  0.4149 -0.6928
 5997SOL    HW119432   1.833   0.167   8.470  0.6032 -0.9484  0.6152
 5997SOL    HW219433   1.982   0.182   8.448  0.5493 -2.2365 -0.8214
 5998SOL     OW19434   1.917   7.784   8.010  0.0138  0.4793  0.0217
 5998SOL    HW119435   1.858   7.826   7.948 -1.9149  0.6615  1.8663
 5998SOL    HW219436   1.893   7.692   8.008  1.1256  0.1801 -0.6991
 5999SOL     OW19437   3.206   2.436   9.671 -0.4970 -0.4206 -0.5082
 5999SOL    HW119438   3.226   2.464   9.582  0.0338  0.1033 -0.2330
 5999SOL    HW219439   3.211   2.516   9.723  0.1885 -0.8765  0.1484
 6000SOL     OW19440   1.888   0.635   7.036 -0.2612 -0.1138  0.5134
 6000SOL    HW119441   1.882   0.723   6.999  3.9059  0.3715  0.5575
 6000SOL    HW219442   1.893   0.578   6.959  1.1392  0.1606  0.3764
 6001SOL     OW19443   0.483   0.260   5.981  0.0315 -0.2818 -0.7751
 6001SOL    HW119444   0.528   0.248   6.065  0.9093  0.9308 -1.0433
 6001SOL    HW219445   0.511   0.346   5.951 -0.5744 -0.5348 -2.1424
 6002SOL     OW19446   1.795   6.958   6.354  0.0874 -0.1016  0.5107
 6002SOL    HW119447   1.835   6.950   6.441 -1.8216 -0.0880  1.4429
 6002SOL    HW219448   1.740   6.880   6.346 -0.2431  0.2134 -0.4226
 6003SOL     OW19449   0.721   1.066   6.745  0.1980  0.1010 -0.3640
 6003SOL    HW119450   0.658   1.074   6.673  1.2036  0.4246 -1.2326
 6003SOL    HW219451   0.796   1.022   6.706  0.3794 -0.6146  0.7539
 6004SOL     OW19452   0.506   7.541   8.339  0.0552 -0.4367  0.0470
 6004SOL    HW119453   0.456   7.468   8.376 -0.6869 -0.2327 -0.5410
 6004SOL    HW219454   0.592   7.503   8.319  0.3285 -0.6697  1.5146
 6005SOL     OW19455   1.516   7.831   8.040 -0.2384 -0.3380  0.5667
 6005SOL    HW119456   1.498   7.891   8.113  1.9216 -1.2255  1.9544
 6005SOL    HW219457   1.573   7.881   7.981 -1.9029  0.3461 -0.5087
 6006SOL     OW19458   1.981   0.290   7.724  0.1103 -0.0129 -0.3488
 6006SOL    HW119459   1.889   0.298   7.751 -0.0648  0.1025 -0.9681
 6006SOL    HW219460   2.016   0.221   7.779 -0.4017 -0.1898 -0.2391
 6007SOL     OW19461   7.418   2.030   9.344  0.3460  0.4977 -0.1507
 6007SOL    HW119462   7.349   1.965   9.331  1.3148 -0.4708 -0.5934
 6007SOL    HW219463   7.441   2.023   9.436 -0.1831  0.8745  0.0156
 6008SOL     OW19464   7.395   7.800   8.590  0.2687 -0.1365 -0.2389
 6008SOL    HW119465   7.378   7.830   8.679  0.6247 -0.7594  0.0468
 6008SOL    HW219466   7.351   7.714   8.585 -0.5497  0.3003 -0.9656
 6009SOL     OW19467   1.718   6.924   5.466 -0.1470  0.0219  0.0367
 6009SOL    HW119468   1.764   6.955   5.544 -0.3255 -0.7794  0.4775
 6009SOL    HW219469   1.785   6.921   5.398 -0.3122  2.2052 -0.2815
 6010SOL     OW19470   2.241   0.957   8.148  0.0413 -0.2935 -0.0219
 6010SOL    HW119471   2.263   1.050   8.157  0.7857 -0.5375  0.8394
 6010SOL    HW219472   2.301   0.925   8.080 -0.8470  0.0423 -0.9875
 6011SOL     OW19473   0.921   0.175   9.295  0.3861  0.5558  0.3459
 6011SOL    HW119474   1.002   0.201   9.253 -0.1797 -1.6239 -2.3375
 6011SOL    HW219475   0.908   0.084   9.270 -1.6146  0.0146  2.8486
 6012SOL     OW19476   1.010   7.132   7.662 -0.3009  0.9807  0.5859
 6012SOL    HW119477   1.015   7.227   7.651 -0.5730  0.8290 -1.0297
 6012SOL    HW219478   1.008   7.097   7.573  1.8343 -0.6763  1.1095
 6013SOL     OW19479   3.364   0.046   8.571  0.1017 -0.2863 -0.8379
 6013SOL    HW119480   3.448   0.015   8.537  0.3599  0.0964 -0.5543
 6013SOL    HW219481   3.378   0.057   8.665 -0.2176 -0.0548 -0.8151
 6014SOL     OW19482   0.923   1.113   7.700  0.2345 -0.0914 -0.2768
 6014SOL    HW119483   0.870   1.044   7.739 -0.4477  1.2787  1.3605
 6014SOL    HW219484   1.001   1.068   7.667 -1.1083 -1.8954 -1.1220
 6015SOL     OW19485   0.762   2.220   8.894 -0.4020  0.3984 -0.0012
 6015SOL    HW119486   0.687   2.164   8.877 -1.8950  2.1659  0.4213
 6015SOL    HW219487   0.805   2.230   8.809 -1.1874  0.1051 -0.4389
 6016SOL     OW19488   2.063   0.178   7.504 -0.7848 -0.2153 -0.2877
 6016SOL    HW119489   2.020   0.208   7.423 -2.4468  0.7039  0.8743
 6016SOL    HW219490   2.028   0.235   7.572  1.6701 -0.0249  0.9102
 6017SOL     OW19491   1.749   0.561   8.842 -0.6596  0.0279  0.4329
 6017SOL    HW119492   1.718   0.471   8.850  0.5829 -1.0350 -3.8594
 6017SOL    HW219493   1.694   0.599   8.773  2.4476  0.4959 -2.0357
 6018SOL     OW19494   1.708   0.149   7.628  0.6282  0.0164  0.1189
 6018SOL    HW119495   1.677   0.224   7.679  0.4490 -0.1343  0.2328
 6018SOL    HW219496   1.634   0.129   7.570  0.6532 -0.1080  0.1306
 6019SOL     OW19497   1.281   7.872   7.232  0.1021  0.4865 -0.4656
 6019SOL    HW119498   1.292   7.806   7.301  0.8099 -0.8803 -1.8257
 6019SOL    HW219499   1.186   7.882   7.224  0.0069  0.5342  0.5606
 6020SOL     OW19500   1.456   0.846   7.745 -0.4060  0.1468 -0.3293
 6020SOL    HW119501   1.457   0.874   7.653  3.1780  2.6030  0.2689
 6020SOL    HW219502   1.386   0.898   7.785  0.2529  1.6622 -1.0535
 6021SOL     OW19503   1.755   6.715   8.135  0.3420 -0.3633  0.5232
 6021SOL    HW119504   1.811   6.644   8.103 -0.2157  0.5714 -3.0239
 6021SOL    HW219505   1.708   6.745   8.057 -1.3734  2.2067  2.3773
 6022SOL     OW19506   1.038   0.410   8.256 -0.0022  0.1045  0.1568
 6022SOL    HW119507   1.061   0.417   8.163 -0.0477 -0.5828  0.0848
 6022SOL    HW219508   1.104   0.352   8.293 -0.4906 -0.3350  0.3600
 6023SOL     OW19509   1.597   1.425   7.792  0.1538  0.3165 -0.0917
 6023SOL    HW119510   1.667   1.365   7.819  0.3029  0.0128 -1.1171
 6023SOL    HW219511   1.642   1.490   7.737 -0.4219 -0.1120 -1.0940
 6024SOL     OW19512   2.455   7.603   6.646  0.8778 -0.2935  0.0285
 6024SOL    HW119513   2.396   7.540   6.605  1.2112 -0.3811 -0.3144
 6024SOL    HW219514   2.419   7.689   6.622  0.0880 -0.3427  0.9764
 6025SOL     OW19515   0.106   1.362   8.771  0.2104 -0.6084 -0.0813
 6025SOL    HW119516   0.066   1.351   8.858 -1.2587  1.2196 -0.4556
 6025SOL    HW219517   0.197   1.386   8.790  0.1870 -1.2270  0.9104
 6026SOL     OW19518   1.354   0.026   9.524  0.3457  0.1589  0.1576
 6026SOL    HW119519   1.405   0.024   9.443 -2.0058  0.7100 -1.4664
 6026SOL    HW219520   1.278  -0.030   9.505 -0.6480  0.9254  1.6790
 6027SOL     OW19521   1.010   7.623   8.809 -0.1282 -0.0263  0.0586
 6027SOL    HW119522   1.097   7.664   8.811 -0.5305  0.9711 -1.2231
 6027SOL    HW219523   0.981   7.623   8.900 -0.0995  2.6074  0.1322
 6028SOL     OW19524   1.024   6.207   7.386 -0.4381  0.0663  0.2588
 6028SOL    HW119525   0.994   6.142   7.322 -0.1563 -0.9085  1.0980
 6028SOL    HW219526   1.115   6.184   7.403  0.1586  1.6348 -0.5682
 6029SOL     OW19527   3.545   1.532   8.397  0.3679 -0.0076  0.3725
 6029SOL    HW119528   3.524   1.602   8.460  1.4641  0.7843 -0.1100
 6029SOL    HW219529   3.508   1.563   8.314 -0.5782 -0.7894  0.4761
 6030SOL     OW19530   2.738   6.652   8.220  0.3844 -0.0468 -0.9969
 6030SOL    HW119531   2.769   6.563   8.235  0.4463  0.0516 -0.5188
 6030SOL    HW219532   2.772   6.703   8.294 -0.4323  0.1765 -0.7545
 6031SOL     OW19533   0.651   1.756   9.780 -0.3894 -0.0375 -0.5053
 6031SOL    HW119534   0.718   1.814   9.816  0.5320 -0.4619 -1.4606
 6031SOL    HW219535   0.569   1.805   9.789  0.3879  1.5332 -1.4762
 6032SOL     OW19536   0.465   0.617   8.853  0.0990  0.4557 -0.1660
 6032SOL    HW119537   0.523   0.636   8.927 -0.9300 -0.6257  0.9639
 6032SOL    HW219538   0.524   0.602   8.779  1.3323 -1.2737  1.0845
 6033SOL     OW19539   1.686   0.493  10.815 -0.3647  0.3111 -0.2404
 6033SOL    HW119540   1.594   0.495  10.789 -0.2167 -0.6676 -0.8899
 6033SOL    HW219541   1.714   0.403  10.796  0.5617  0.4224  0.5307
 6034SOL     OW19542   7.960   0.442  10.179 -0.1366 -0.3169 -0.1116
 6034SOL    HW119543   8.049   0.409  10.166 -0.2872 -0.5895 -0.4427
 6034SOL    HW219544   7.968   0.500  10.255  0.0576 -1.3891  0.7180
 6035SOL     OW19545   2.608   1.233  11.035  0.8023 -0.0139 -0.0929
 6035SOL    HW119546   2.545   1.163  11.018 -2.1634  2.5060 -0.6066
 6035SOL    HW219547   2.617   1.235  11.130 -0.2386 -0.1965  0.0191
 6036SOL     OW19548   1.009   6.707  10.174  0.1908  0.4639 -0.3466
 6036SOL    HW119549   0.943   6.720  10.242  2.1112  2.2120  1.3674
 6036SOL    HW219550   0.994   6.619  10.142 -2.2852  0.4420  0.6701
 6037SOL     OW19551   1.130   7.329   9.106 -0.0140 -0.4340 -0.2809
 6037SOL    HW119552   1.077   7.255   9.075 -0.1257 -0.9742  1.1314
 6037SOL    HW219553   1.072   7.404   9.102 -0.0018 -0.4634 -1.4147
 6038SOL     OW19554   1.551   7.086   9.165 -0.4649 -0.1419  0.3609
 6038SOL    HW119555   1.567   7.172   9.203 -1.7717  0.6154 -0.7243
 6038SOL    HW219556   1.471   7.056   9.208  0.5031 -1.2858  1.4512
 6039SOL     OW19557   1.798   7.627  10.632 -0.0948 -0.0133  0.2809
 6039SOL    HW119558   1.874   7.650  10.579  0.6149 -0.1772  1.1963
 6039SOL    HW219559   1.830   7.561  10.694 -0.3291  1.6333  2.2720
 6040SOL     OW19560   3.284   1.630   8.793 -0.2316 -0.6065 -0.0708
 6040SOL    HW119561   3.244   1.704   8.747 -0.7842 -2.2072 -2.3359
 6040SOL    HW219562   3.226   1.615   8.868  0.7307  2.1209  1.3821
 6041SOL     OW19563   2.752   5.880  11.602 -0.3474  0.0100  0.2585
 6041SOL    HW119564   2.828   5.872  11.661 -0.6073 -0.6430  0.5168
 6041SOL    HW219565   2.752   5.972  11.575  0.9272 -0.1194 -0.2634
 6042SOL     OW19566   1.301   7.788  11.502  0.2082 -0.4396  0.1312
 6042SOL    HW119567   1.268   7.699  11.511  1.2164 -0.7524  0.9658
 6042SOL    HW219568   1.225   7.840  11.475 -0.7094 -1.2948  1.0105
 6043SOL     OW19569   1.392   6.805   7.894  0.0625  0.5188  0.1031
 6043SOL    HW119570   1.361   6.799   7.985 -1.5946 -1.2366 -0.5073
 6043SOL    HW219571   1.314   6.828   7.843  0.6770  0.1676 -1.0309
 6044SOL     OW19572   1.040   0.228   7.762  0.3810 -0.5577 -0.1097
 6044SOL    HW119573   0.992   0.308   7.782 -0.7199 -0.4284 -2.7952
 6044SOL    HW219574   1.017   0.168   7.833 -0.9995  0.6350  0.5047
 6045SOL     OW19575   1.908   7.737  10.969 -0.4070 -0.1719  0.0550
 6045SOL    HW119576   1.984   7.701  11.016 -1.3972  0.0378  1.9068
 6045SOL    HW219577   1.939   7.820  10.934 -0.0268  0.3715  1.6161
 6046SOL     OW19578   1.129   0.510   9.368 -0.0057 -0.5627  0.5942
 6046SOL    HW119579   1.134   0.474   9.456 -0.3570 -0.5627  0.6157
 6046SOL    HW219580   1.207   0.475   9.323  0.5895  0.0540  1.1229
 6047SOL     OW19581   0.089   7.480   9.430  0.7257  0.3232 -0.1802
 6047SOL    HW119582   0.122   7.534   9.358 -0.8611  1.2345 -0.2733
 6047SOL    HW219583   0.013   7.528   9.462 -0.0618 -1.3137  0.4738
 6048SOL     OW19584   1.295   7.010   9.245 -0.5637  0.2209 -0.5898
 6048SOL    HW119585   1.258   6.924   9.226 -0.7844 -0.1915  1.4763
 6048SOL    HW219586   1.227   7.054   9.296 -1.0120  2.1932 -2.7276
 6049SOL     OW19587   2.366   6.083  10.980 -0.1619  0.8291  0.3559
 6049SOL    HW119588   2.455   6.081  10.945 -0.1312  1.7543  0.3769
 6049SOL    HW219589   2.330   5.997  10.957  0.1502  1.0789 -1.1750
 6050SOL     OW19590   2.224   2.685   8.689 -0.3692  0.1959  0.3019
 6050SOL    HW119591   2.287   2.758   8.685  0.8331 -0.8089  0.1600
 6050SOL    HW219592   2.154   2.710   8.629  0.8696  0.4868 -1.0818
 6051SOL     OW19593   2.465   0.232  11.485 -0.2703  0.6541 -0.2837
 6051SOL    HW119594   2.494   0.305  11.539  0.3989 -0.1996  0.5462
 6051SOL    HW219595   2.376   0.212  11.515 -0.6700  1.4501 -0.8873
 6052SOL     OW19596   1.820   7.169  11.426  0.1381 -0.3012  0.3015
 6052SOL    HW119597   1.867   7.221  11.361  0.2677 -1.2498 -0.3898
 6052SOL    HW219598   1.830   7.217  11.508  0.8424  0.3917 -0.1788
 6053SOL     OW19599   1.914   0.958   8.512  0.6796  0.3914 -0.4620
 6053SOL    HW119600   1.961   0.943   8.430  0.0465  3.3293 -1.4598
 6053SOL    HW219601   1.945   1.043   8.542  1.7671 -1.0500  3.0607
 6054SOL     OW19602   7.286   7.218   8.646  0.1951  0.5630  0.0724
 6054SOL    HW119603   7.344   7.178   8.711 -0.3927  1.2284  1.0342
 6054SOL    HW219604   7.245   7.291   8.693 -0.7026  0.6857 -0.8755
 6055SOL     OW19605   1.740   7.121   7.947  0.1325 -0.4922  0.3399
 6055SOL    HW119606   1.780   7.173   8.017  1.2538  1.1206 -1.3989
 6055SOL    HW219607   1.646   7.138   7.955  0.3715  0.7948  0.6238
 6056SOL     OW19608   7.628   7.332  11.691  0.3209  0.1158  0.0663
 6056SOL    HW119609   7.676   7.274  11.750 -0.2825 -0.1675  0.2913
 6056SOL    HW219610   7.536   7.313  11.709  0.1259 -0.3438 -1.3329
 6057SOL     OW19611   2.231   0.105   9.646 -0.4764  0.3598 -0.6648
 6057SOL    HW119612   2.253   0.190   9.609  3.0729 -0.4683 -0.8194
 6057SOL    HW219613   2.269   0.106   9.734 -1.6473 -0.5660 -0.1170
 6058SOL     OW19614   7.373   0.875  10.161  0.1410  0.2076 -0.1864
 6058SOL    HW119615   7.457   0.886  10.114  0.5524 -1.6967  0.0021
 6058SOL    HW219616   7.310   0.858  10.091 -0.2001  2.0247 -0.3598
 6059SOL     OW19617   1.626   1.567   9.931 -0.2804  0.5765  0.4122
 6059SOL    HW119618   1.687   1.559  10.004  0.0575  2.5081  0.4105
 6059SOL    HW219619   1.664   1.512   9.862 -0.1646 -0.6025  1.3876
 6060SOL     OW19620   0.083   7.093  10.093  0.0397 -0.0582 -0.3185
 6060SOL    HW119621   0.176   7.099  10.073  0.2234 -0.5907  0.3215
 6060SOL    HW219622   0.066   6.998  10.099 -0.5719  0.0311 -0.5841
 6061SOL     OW19623   2.851   7.392  11.130  0.2315  0.6382  0.6684
 6061SOL    HW119624   2.766   7.397  11.086  0.5580 -1.6364 -0.3727
 6061SOL    HW219625   2.861   7.299  11.151  2.2087  0.9540  1.2794
 6062SOL     OW19626   1.467   7.183   9.606  0.3465 -0.3127 -0.0849
 6062SOL    HW119627   1.434   7.093   9.603  1.5207 -0.7477 -0.3968
 6062SOL    HW219628   1.560   7.175   9.584 -0.0702  1.2545 -2.9374
 6063SOL     OW19629   1.257   7.074   8.947 -0.5608  0.7072  0.3192
 6063SOL    HW119630   1.228   6.988   8.977 -0.2031  0.8605  1.1461
 6063SOL    HW219631   1.310   7.108   9.020  1.4449  0.5551 -1.0135
 6064SOL     OW19632   1.414   2.057   9.493  0.1447 -0.3341 -0.2425
 6064SOL    HW119633   1.381   2.119   9.558  0.9480 -0.1278 -0.0140
 6064SOL    HW219634   1.375   1.973   9.518  0.0691 -0.1650  0.2225
 6065SOL     OW19635   7.876   7.963  12.366  0.1840 -0.2079 -0.4862
 6065SOL    HW119636   7.928   7.921  12.298  0.7011  1.5749 -1.2602
 6065SOL    HW219637   7.791   7.920  12.363  1.3160 -2.6779  0.2913
 6066SOL     OW19638   0.289   7.777  10.707 -0.2659 -0.0867  0.4401
 6066SOL    HW119639   0.327   7.757  10.622  0.5044  0.9000  0.5298
 6066SOL    HW219640   0.215   7.717  10.715  0.1793 -0.8022 -0.5336
 6067SOL     OW19641   1.162   0.767  10.758 -0.1759 -0.1231 -0.1617
 6067SOL    HW119642   1.089   0.705  10.759  0.2301 -0.6041 -0.0436
 6067SOL    HW219643   1.221   0.733  10.691 -0.3977  0.6629 -0.7713
 6068SOL     OW19644   0.399   7.716   8.918  0.5831 -0.3614 -0.5523
 6068SOL    HW119645   0.487   7.741   8.890  1.3477 -1.6350  0.6069
 6068SOL    HW219646   0.411   7.634   8.966 -1.0165  0.3404  1.1659
 6069SOL     OW19647   2.015   7.166  10.235 -0.2672  0.0953 -0.5560
 6069SOL    HW119648   1.943   7.218  10.270 -0.1511 -0.0897 -0.0352
 6069SOL    HW219649   2.087   7.181  10.296 -0.1039 -0.3381 -0.6377
 6070SOL     OW19650   0.913   7.187   9.341 -0.1061  0.3878  0.2960
 6070SOL    HW119651   0.881   7.253   9.280  3.2446  1.0179 -0.9985
 6070SOL    HW219652   0.890   7.103   9.300  0.9057  0.8117 -1.2279
 6071SOL     OW19653   2.880   1.380   8.071 -0.3917 -0.5147 -0.2759
 6071SOL    HW119654   2.889   1.446   8.139 -1.4999 -1.5684  0.9652
 6071SOL    HW219655   2.956   1.323   8.082 -0.8159 -0.9617  0.4322
 6072SOL     OW19656   1.008   5.753  10.616  0.2480  0.3633 -0.1182
 6072SOL    HW119657   0.988   5.708  10.534  0.1474  0.4644 -0.1486
 6072SOL    HW219658   1.027   5.682  10.678  1.9435  0.3110 -0.6323
 6073SOL     OW19659   1.989   6.971  11.700  0.0579  0.2326 -0.4279
 6073SOL    HW119660   1.899   6.942  11.687  0.6848 -1.7666 -0.6941
 6073SOL    HW219661   2.029   6.964  11.613  0.9502 -0.7602  0.0492
 6074SOL     OW19662   2.834   7.153   9.611  0.2743 -0.4953 -0.2063
 6074SOL    HW119663   2.910   7.164   9.554  1.0263  2.2644  1.1278
 6074SOL    HW219664   2.760   7.186   9.559  0.7357  0.7680 -0.0929
 6075SOL     OW19665   1.264   0.230  11.109 -0.0235  0.1428  0.9622
 6075SOL    HW119666   1.332   0.171  11.142  0.5549 -0.4531 -1.1420
 6075SOL    HW219667   1.274   0.310  11.161  1.8076 -0.1864  1.1766
 6076SOL     OW19668   0.149   7.547  11.782 -0.3206 -0.2129  0.4858
 6076SOL    HW119669   0.169   7.501  11.863 -2.0021 -0.5822  0.7328
 6076SOL    HW219670   0.095   7.486  11.732  0.8500 -0.0771 -1.0343
 6077SOL     OW19671   2.082   7.868   9.621  0.5578  0.0941  0.7107
 6077SOL    HW119672   1.995   7.904   9.637  0.1336 -0.0981 -0.9781
 6077SOL    HW219673   2.141   7.927   9.668 -0.3467  1.2899  0.3967
 6078SOL     OW19674   3.169   0.272  10.205  0.1836  0.2410 -0.1841
 6078SOL    HW119675   3.165   0.333  10.278  0.8751  0.2847 -0.1717
 6078SOL    HW219676   3.241   0.305  10.150  0.0568 -0.1202 -0.5763
 6079SOL     OW19677   1.962   0.985   9.755  0.0173  0.2319 -0.3447
 6079SOL    HW119678   1.883   0.977   9.700 -0.1482  1.1414 -0.2629
 6079SOL    HW219679   1.928   0.988   9.844  0.0176  1.8497 -0.3655
 6080SOL     OW19680   2.665   7.830   8.419  0.8616 -0.0630  0.1368
 6080SOL    HW119681   2.702   7.912   8.453 -2.6403  1.6527  0.1960
 6080SOL    HW219682   2.646   7.849   8.327  0.4236 -0.9932  0.0328
 6081SOL     OW19683   0.831   1.163  11.533 -0.2932  0.2603 -0.1210
 6081SOL    HW119684   0.836   1.125  11.445  0.3117  1.5829 -0.6887
 6081SOL    HW219685   0.784   1.098  11.585 -0.4726 -0.6402 -1.3715
 6082SOL     OW19686   0.389   0.604   8.476 -0.2894  0.1448  0.5833
 6082SOL    HW119687   0.378   0.699   8.476 -1.0444  0.0723 -0.5897
 6082SOL    HW219688   0.479   0.590   8.505  0.3099  1.2879 -0.6343
 6083SOL     OW19689   1.735   1.638   7.647 -0.1119 -0.6168  0.2059
 6083SOL    HW119690   1.804   1.611   7.587  0.9084  0.7517  0.7048
 6083SOL    HW219691   1.777   1.704   7.703 -1.4233 -0.8205  1.4819
 6084SOL     OW19692   2.019   7.693  10.443  0.2446 -0.0212  0.3260
 6084SOL    HW119693   2.104   7.693  10.399  0.1878 -1.9962  0.1589
 6084SOL    HW219694   1.956   7.697  10.371  0.1762  0.1103  0.3935
 6085SOL     OW19695   1.234   7.309  10.975  0.1468 -0.3777 -0.9179
 6085SOL    HW119696   1.290   7.276  11.046 -0.8985 -1.2607 -0.4780
 6085SOL    HW219697   1.295   7.340  10.909  1.1701  0.8689  0.5410
 6086SOL     OW19698   7.946   0.850   9.579 -0.4739  0.0960  0.2383
 6086SOL    HW119699   7.867   0.809   9.543  0.2552 -0.6911 -0.5065
 6086SOL    HW219700   7.916   0.892   9.660 -1.3265 -1.7666  0.9578
 6087SOL     OW19701   5.889   7.403  10.055  0.1283 -0.3065 -0.1557
 6087SOL    HW119702   5.837   7.325  10.036 -1.6097 -0.0110  2.9017
 6087SOL    HW219703   5.935   7.420   9.973 -0.0269 -4.0243 -1.2212
 6088SOL     OW19704   0.680   1.019   9.362  0.3535  0.5310 -0.1385
 6088SOL    HW119705   0.747   1.084   9.340  0.7029 -0.1259 -1.1240
 6088SOL    HW219706   0.646   0.991   9.276 -0.9036  0.5470  0.3245
 6089SOL     OW19707   1.612   0.046  10.101 -0.9184 -0.3608  0.4831
 6089SOL    HW119708   1.638   0.088  10.019 -2.2653 -1.2117 -0.4211
 6089SOL    HW219709   1.538  -0.010  10.077 -1.0502 -0.9851  2.2015
 6090SOL     OW19710   1.095   2.193   9.123  0.1575 -0.1481 -0.1978
 6090SOL    HW119711   1.029   2.124   9.112 -1.0644  0.5798  1.9991
 6090SOL    HW219712   1.045   2.269   9.153  1.9765  0.4260  1.5673
 6091SOL     OW19713   3.717   0.244  11.896  0.7485 -0.1610  0.1021
 6091SOL    HW119714   3.709   0.316  11.833 -0.4473 -0.6329 -0.3153
 6091SOL    HW219715   3.637   0.250  11.949 -0.0785 -2.0219 -0.8600
 6092SOL     OW19716   3.908   0.047  11.081  0.1972 -0.2015  0.0922
 6092SOL    HW119717   3.978  -0.016  11.068  0.5194  0.3400 -0.8888
 6092SOL    HW219718   3.950   0.121  11.125  0.4630  0.4709 -1.2255
 6093SOL     OW19719   1.510   1.225   8.877 -0.1959  0.0809  0.2175
 6093SOL    HW119720   1.586   1.193   8.828 -0.8502 -0.1272 -0.6715
 6093SOL    HW219721   1.510   1.320   8.863  0.5271  0.2391  1.1392
 6094SOL     OW19722   1.882   0.302  10.468 -0.4754 -0.3198 -0.0362
 6094SOL    HW119723   1.839   0.385  10.488 -0.8226 -0.5997  0.3793
 6094SOL    HW219724   1.811   0.242  10.447 -0.1789 -0.2899 -1.1868
 6095SOL     OW19725   2.266   6.589   9.862  0.1367  0.1210  0.0930
 6095SOL    HW119726   2.229   6.673   9.835  0.5763 -0.2036 -1.6994
 6095SOL    HW219727   2.276   6.541   9.780  0.4751 -1.4435  1.0202
 6096SOL     OW19728   2.438   7.514  10.236  0.1187  0.5503 -0.3039
 6096SOL    HW119729   2.364   7.524  10.175  0.1961 -0.0417 -0.4966
 6096SOL    HW219730   2.515   7.507  10.180  0.2306  0.3480 -0.1260
 6097SOL     OW19731   1.458   2.307   9.242  0.3897  0.0285 -0.0397
 6097SOL    HW119732   1.365   2.328   9.235 -0.3967 -3.2395 -1.2817
 6097SOL    HW219733   1.493   2.323   9.154  0.9836  1.0643  0.3720
 6098SOL     OW19734   1.303   7.662  10.565  0.1645 -0.1058  0.7597
 6098SOL    HW119735   1.253   7.581  10.554 -0.0211  0.1351 -0.2316
 6098SOL    HW219736   1.337   7.657  10.655  1.2153 -1.8717  0.3123
 6099SOL     OW19737   0.162   7.703  11.251  0.3777 -0.8035 -0.5756
 6099SOL    HW119738   0.177   7.619  11.208 -0.3314 -0.4371 -1.5767
 6099SOL    HW219739   0.183   7.768  11.183  0.7173 -0.1714  0.1202
 6100SOL     OW19740   0.344   6.677  11.811 -0.0364  0.6237 -0.5811
 6100SOL    HW119741   0.384   6.697  11.726 -1.7155  1.9137 -1.1412
 6100SOL    HW219742   0.418   6.675  11.872  1.2575 -0.6540 -2.0775
 6101SOL     OW19743   1.578   0.614  11.335  0.1243  0.0313  0.0431
 6101SOL    HW119744   1.487   0.613  11.303 -0.0063 -0.1785  0.4195
 6101SOL    HW219745   1.570   0.615  11.430  0.4884  2.0008  0.1106
 6102SOL     OW19746   1.380   0.284  10.407 -0.2694 -0.3219  0.5960
 6102SOL    HW119747   1.426   0.240  10.478 -1.8558 -1.2487  1.0996
 6102SOL    HW219748   1.318   0.342  10.452  0.1207  0.6389 -0.0655
 6103SOL     OW19749   6.690   1.018  10.512  0.2727 -0.6782 -0.0856
 6103SOL    HW119750   6.595   1.025  10.514  0.1635 -1.6208 -1.0497
 6103SOL    HW219751   6.714   1.035  10.420  1.2017  1.2942  0.4766
 6104SOL     OW19752   7.357   6.412  12.041 -0.2854 -0.6947 -0.7195
 6104SOL    HW119753   7.434   6.451  12.083 -0.1029 -1.2484 -0.5410
 6104SOL    HW219754   7.391   6.351  11.977 -0.5641 -1.5072 -0.1173
 6105SOL     OW19755   0.133   7.335   0.788  0.4617  0.6755  0.2306
 6105SOL    HW119756   0.200   7.266   0.783 -0.1499  0.0194  0.8198
 6105SOL    HW219757   0.050   7.289   0.777  0.0977  1.5160 -0.7310
 6106SOL     OW19758   0.319   0.531  12.213 -0.0644  0.0066 -0.0590
 6106SOL    HW119759   0.282   0.523  12.125  0.3225  0.5747 -0.2801
 6106SOL    HW219760   0.277   0.461  12.263  0.8969 -1.3807 -1.1043
 6107SOL     OW19761   1.930   6.173  10.443 -0.4608  0.3344  0.2910
 6107SOL    HW119762   1.891   6.132  10.366 -0.9744 -0.5564  0.9903
 6107SOL    HW219763   1.963   6.257  10.412  0.5418 -0.5531 -1.1938
 6108SOL     OW19764   0.757   0.281  12.129  0.0899  0.5899  0.1320
 6108SOL    HW119765   0.836   0.232  12.108  0.8802  1.9602 -0.2433
 6108SOL    HW219766   0.733   0.324  12.047 -2.1593 -1.2372 -0.2749
 6109SOL     OW19767   1.948   7.280  11.057  0.2274 -0.1250  0.0445
 6109SOL    HW119768   1.965   7.317  11.144  1.3778  0.4468 -0.3966
 6109SOL    HW219769   2.013   7.211  11.048  0.6719  0.3737 -0.6744
 6110SOL     OW19770   1.892   6.356  11.220  0.4162  0.5367  0.2930
 6110SOL    HW119771   1.826   6.416  11.256 -0.8897 -0.5476 -0.2340
 6110SOL    HW219772   1.853   6.270  11.228  1.2408 -0.0034 -1.2440
 6111SOL     OW19773   1.479   7.662  10.777  0.2369  0.2402 -0.2363
 6111SOL    HW119774   1.541   7.735  10.775  0.5035  0.2404  2.7946
 6111SOL    HW219775   1.440   7.667  10.864  0.7005 -3.5502  0.3613
 6112SOL     OW19776   7.869   7.179   0.961  0.2536  0.3524  0.5817
 6112SOL    HW119777   7.843   7.214   0.876 -1.4678 -1.9483  0.0485
 6112SOL    HW219778   7.925   7.105   0.940  0.2478  0.0857  1.4632
 6113SOL     OW19779   1.466   4.935   1.477  0.0880  0.0323 -0.5432
 6113SOL    HW119780   1.417   4.853   1.479 -0.0767  0.1412 -0.0714
 6113SOL    HW219781   1.435   4.984   1.553  1.5014 -0.2433  0.2601
 6114SOL     OW19782   0.861   1.929  10.604 -0.0899  0.2773  0.3269
 6114SOL    HW119783   0.860   2.009  10.657 -0.8327  0.7054 -0.3282
 6114SOL    HW219784   0.896   1.956  10.520  1.1809 -0.4293  0.5994
 6115SOL     OW19785   0.481   0.629  11.380  0.4797 -0.7127  0.4227
 6115SOL    HW119786   0.512   0.546  11.418  0.7677 -0.7764  0.0578
 6115SOL    HW219787   0.561   0.672  11.349  0.2621 -0.6205 -0.0250
 6116SOL     OW19788   0.783   0.911  11.022 -0.5690 -0.1777  0.5839
 6116SOL    HW119789   0.870   0.885  11.054 -1.1338 -0.0503  2.3544
 6116SOL    HW219790   0.780   0.878  10.933  0.8470 -1.2560  0.8850
 6117SOL     OW19791   2.385   0.609  12.084 -0.0327  0.1211 -0.1239
 6117SOL    HW119792   2.345   0.649  12.162 -0.2723 -1.1726  0.4358
 6117SOL    HW219793   2.417   0.684  12.033  0.1334  0.9981  1.2153
 6118SOL     OW19794   7.704   0.584  10.662  0.0790  0.2674 -0.6942
 6118SOL    HW119795   7.654   0.521  10.610  0.0749 -0.1496 -0.1935
 6118SOL    HW219796   7.795   0.562  10.646  0.0751  0.0194 -0.3855
 6119SOL     OW19797   7.412   7.586  11.608 -0.7558 -0.2709  0.0103
 6119SOL    HW119798   7.420   7.576  11.703  0.5696 -0.9830 -0.1449
 6119SOL    HW219799   7.485   7.534  11.573 -0.1353  1.4166 -1.3329
 6120SOL     OW19800   1.989   7.699  11.322 -0.4471  0.4572  0.0840
 6120SOL    HW119801   1.906   7.652  11.321  0.2670 -0.8525  0.1519
 6120SOL    HW219802   2.035   7.668  11.244  0.7763 -0.3516  1.0888
 6121SOL     OW19803   6.466   2.117  11.370  0.0915  0.3656 -0.0430
 6121SOL    HW119804   6.533   2.159  11.316  0.4652 -0.2451 -0.0601
 6121SOL    HW219805   6.446   2.035  11.323 -0.8800  0.6827 -0.1978
 6122SOL     OW19806   2.487   6.688  10.974 -0.5998  0.0913 -0.1643
 6122SOL    HW119807   2.579   6.700  10.949 -0.8832 -0.5082 -1.6021
 6122SOL    HW219808   2.484   6.709  11.067  0.6615  1.8658 -0.4679
 6123SOL     OW19809   0.617   7.343   0.696  0.0943 -0.3363 -0.5041
 6123SOL    HW119810   0.655   7.415   0.746 -0.9155 -0.8139  1.0116
 6123SOL    HW219811   0.629   7.266   0.752 -1.4287 -0.8260 -0.8044
 6124SOL     OW19812   2.134   0.876   0.605 -0.4798 -0.2942  0.2069
 6124SOL    HW119813   2.133   0.964   0.569 -1.5925  0.6743  2.4072
 6124SOL    HW219814   2.081   0.824   0.545 -0.0764  0.5820 -0.9411
 6125SOL     OW19815   0.281   7.944  11.614  0.1111 -0.5128 -0.1752
 6125SOL    HW119816   0.224   7.876  11.578  0.0232 -1.5511  1.7875
 6125SOL    HW219817   0.323   7.903  11.689  1.5358  1.0260 -0.0737
 6126SOL     OW19818   1.696   7.843  10.770  0.3399  0.0592 -0.0658
 6126SOL    HW119819   1.743   7.761  10.785 -1.4034 -0.8159  0.9216
 6126SOL    HW219820   1.719   7.868  10.681 -0.7536 -2.6788 -1.2201
 6127SOL     OW19821   0.745   0.552   0.509  0.0340  0.3533  0.1656
 6127SOL    HW119822   0.682   0.533   0.439  0.9211 -0.5702 -0.4036
 6127SOL    HW219823   0.726   0.486   0.577  1.5921 -1.1898 -0.8208
 6128SOL     OW19824   5.969   0.444   1.584  0.2656 -0.3717  0.3689
 6128SOL    HW119825   5.954   0.446   1.489  1.3335 -1.3865  0.1612
 6128SOL    HW219826   6.034   0.513   1.599 -0.2741  0.1265  0.4433
 6129SOL     OW19827   1.065   1.028  11.681  0.1906 -0.2020  0.1406
 6129SOL    HW119828   1.040   1.119  11.698 -0.1522 -0.6346  2.2932
 6129SOL    HW219829   1.027   0.979  11.755  1.5245 -1.8912 -0.2341
 6130SOL     OW19830   1.578   7.173  11.754  0.0353  0.0604  0.0717
 6130SOL    HW119831   1.655   7.203  11.705  1.0839  0.6221  1.9483
 6130SOL    HW219832   1.506   7.227  11.721  0.3995 -0.5396 -1.7953
 6131SOL     OW19833   2.767   6.270  12.316 -0.0190 -0.2001  0.2748
 6131SOL    HW119834   2.839   6.286  12.378 -0.6761  1.0048  0.7675
 6131SOL    HW219835   2.703   6.221  12.366 -0.4922  0.6571  0.5248
 6132SOL     OW19836   0.731   0.482  12.306 -0.2233 -0.0191  0.1785
 6132SOL    HW119837   0.739   0.409  12.245  0.4020  0.5338 -0.4105
 6132SOL    HW219838   0.820   0.514  12.319 -0.6809  2.4176 -1.8029
 6133SOL     OW19839   4.390   6.262  12.293 -0.3287  0.0907  0.3078
 6133SOL    HW119840   4.329   6.237  12.363 -0.5336 -3.2750 -0.9101
 6133SOL    HW219841   4.475   6.229  12.323  0.5254  2.5779  0.8637
 6134SOL     OW19842   6.598   7.629   1.449  0.5301 -0.0741  0.3430
 6134SOL    HW119843   6.627   7.636   1.359 -0.1767 -2.8707 -0.1999
 6134SOL    HW219844   6.506   7.655   1.447  0.7435  0.7162  0.4557
 6135SOL     OW19845   7.969   7.742  11.947  0.3675  0.1464  0.2841
 6135SOL    HW119846   7.915   7.668  11.919 -0.4335  1.0410 -0.6327
 6135SOL    HW219847   8.047   7.702  11.984 -0.1134 -1.1605 -0.0558
 6136SOL     OW19848   1.437   6.666  10.407 -0.4158 -0.5647 -0.7472
 6136SOL    HW119849   1.352   6.674  10.450 -1.0035 -0.3870 -1.9135
 6136SOL    HW219850   1.471   6.581  10.436 -1.7457 -1.4059 -1.5695
 6137SOL     OW19851   0.355   1.004   9.471 -0.2112 -0.0458  0.1603
 6137SOL    HW119852   0.359   0.992   9.376  0.7340  1.2409  0.0175
 6137SOL    HW219853   0.263   1.022   9.489 -0.5612 -1.1800 -0.3776
 6138SOL     OW19854   6.866   6.385  11.473 -0.5141  0.4662 -0.0162
 6138SOL    HW119855   6.897   6.440  11.401 -0.7611  0.1256 -0.3877
 6138SOL    HW219856   6.944   6.340  11.505 -0.3221  0.9790  0.2492
 6139SOL     OW19857   3.527   5.652   0.067  0.1777 -0.2659 -0.3971
 6139SOL    HW119858   3.582   5.656   0.145 -0.2052 -2.2571  0.0386
 6139SOL    HW219859   3.536   5.738   0.026  2.0172  0.1235  0.7215
 6140SOL     OW19860   0.187   0.443   0.144 -0.4561 -0.3189 -0.0185
 6140SOL    HW119861   0.172   0.372   0.082  1.8087 -1.9155  1.1390
 6140SOL    HW219862   0.199   0.399   0.229  3.0037  1.1507  0.4209
 6141SOL     OW19863   1.503   0.222  12.253 -0.5097  0.2189  0.4680
 6141SOL    HW119864   1.487   0.243  12.345 -0.3828 -2.2172  1.1186
 6141SOL    HW219865   1.512   0.127  12.252 -0.3652  0.2054 -2.0644
 6142SOL     OW19866   7.604   0.526  11.152 -0.5499 -0.3580 -0.1323
 6142SOL    HW119867   7.589   0.554  11.061 -0.7662 -2.9816 -0.9976
 6142SOL    HW219868   7.663   0.451  11.144 -0.3316 -0.4533  1.9459
 6143SOL     OW19869   4.144   6.474  12.411 -0.4783 -0.0320  0.1506
 6143SOL    HW119870   4.123   6.392  12.365 -0.5687  1.0141 -1.7593
 6143SOL    HW219871   4.239   6.475  12.417 -0.5154 -0.6908  1.0075
 6144SOL     OW19872   7.637   0.477  12.394 -0.4507  0.8384 -0.2031
 6144SOL    HW119873   7.725   0.481  12.357 -1.3781  0.1934 -2.6882
 6144SOL    HW219874   7.616   0.567  12.419  1.6743  0.6892  2.5763
 6145SOL     OW19875   2.169   7.404  10.559  0.2938 -0.1823 -0.0580
 6145SOL    HW119876   2.086   7.398  10.605 -0.6654 -0.2038 -1.7006
 6145SOL    HW219877   2.173   7.495  10.529  0.5977 -0.3143 -0.4281
 6146SOL     OW19878   2.994   6.293  12.466  0.0838 -0.2008 -0.0097
 6146SOL    HW119879   3.039   6.377  12.456 -0.2561 -0.0443 -0.2099
 6146SOL    HW219880   2.994   6.278  12.561  1.9638 -0.9733 -0.0692
 6147SOL     OW19881   1.506   1.305   2.137 -0.2004 -0.3807  0.5124
 6147SOL    HW119882   1.418   1.269   2.129  0.1850 -0.9598 -1.7585
 6147SOL    HW219883   1.552   1.243   2.194 -0.7743 -1.0669  0.2492
 6148SOL     OW19884   3.334   6.635  11.997  0.2435  0.1937 -0.3120
 6148SOL    HW119885   3.329   6.540  12.008  0.8784  0.0969 -0.7622
 6148SOL    HW219886   3.351   6.669  12.085 -0.4961 -0.0657 -0.0655
 6149SOL     OW19887   0.607   7.015   1.727 -0.3221  0.3528  0.2148
 6149SOL    HW119888   0.663   7.008   1.804  0.2038 -0.9279 -0.2615
 6149SOL    HW219889   0.610   7.108   1.704  1.0237  0.4399  0.6412
 6150SOL     OW19890   0.642   0.098  12.381 -0.5373  0.1023 -0.2244
 6150SOL    HW119891   0.708   0.091  12.312 -0.7603  0.3408 -0.4596
 6150SOL    HW219892   0.687   0.067  12.460 -0.2344 -0.0156 -0.4443
 6151SOL     OW19893   2.463   1.035   0.152  0.1614  0.2490  0.2457
 6151SOL    HW119894   2.535   1.043   0.089 -2.2980 -0.3466 -2.9088
 6151SOL    HW219895   2.425   1.122   0.155  0.9811  0.5884  1.9974
 6152SOL     OW19896   3.350   0.703   1.751 -0.7483  0.0548 -0.6787
 6152SOL    HW119897   3.344   0.786   1.799 -4.3623 -0.6163  0.3344
 6152SOL    HW219898   3.359   0.636   1.819 -0.5946 -0.5926 -1.3225
 6153SOL     OW19899   1.912   0.773   1.438  0.0767 -0.1683 -0.3131
 6153SOL    HW119900   1.900   0.691   1.390  1.4440 -0.6657  0.1409
 6153SOL    HW219901   1.921   0.839   1.369  0.2031 -0.5982 -0.7176
 6154SOL     OW19902   3.942   3.257   0.371 -0.1804 -0.1263  0.6140
 6154SOL    HW119903   4.027   3.215   0.374 -1.1633 -2.2147  0.8948
 6154SOL    HW219904   3.888   3.206   0.431 -2.2188 -0.3095 -1.2286
 6155SOL     OW19905   3.082   1.527   0.376  0.1396 -0.0080 -0.3808
 6155SOL    HW119906   3.151   1.590   0.395 -0.8946  0.3742  2.7667
 6155SOL    HW219907   3.001   1.571   0.402 -0.7144 -2.1896  0.9113
 6156SOL     OW19908   1.023   2.638   0.131  0.4280  0.0327  0.2109
 6156SOL    HW119909   1.006   2.544   0.125  3.0069 -0.5222  0.4733
 6156SOL    HW219910   0.995   2.673   0.046  0.2162 -1.1155 -0.2026
 6157SOL     OW19911   1.447   1.960   0.633  0.6067 -0.3458  0.4145
 6157SOL    HW119912   1.529   1.923   0.599  0.2751  0.0417 -0.8444
 6157SOL    HW219913   1.475   2.020   0.702  1.3065 -1.0732  0.7797
 6158SOL     OW19914   1.773   0.345   0.960 -0.3047  0.0925 -0.4616
 6158SOL    HW119915   1.859   0.334   1.001  0.2912  0.9880 -1.4299
 6158SOL    HW219916   1.752   0.437   0.973 -1.6208 -0.3237  0.6596
 6159SOL     OW19917   2.615   0.459  12.222 -0.1504  0.2157 -0.0114
 6159SOL    HW119918   2.563   0.420  12.292  0.6255 -1.0937 -0.1180
 6159SOL    HW219919   2.551   0.499  12.163 -0.8087  1.3664  1.4350
 6160SOL     OW19920   1.058   1.304   1.973 -0.5894 -0.0462  0.2094
 6160SOL    HW119921   0.991   1.249   2.013 -1.4718 -0.0720 -1.2195
 6160SOL    HW219922   1.022   1.393   1.975 -1.0366 -0.1603 -1.2017
 6161SOL     OW19923   1.056   0.605   1.384 -0.0765  0.1946  0.1690
 6161SOL    HW119924   1.029   0.686   1.426  0.8053  0.4310  0.2982
 6161SOL    HW219925   1.146   0.621   1.356 -0.1318 -0.4953 -0.4314
 6162SOL     OW19926   5.738   1.622   1.046 -0.0657 -0.0234  0.0632
 6162SOL    HW119927   5.662   1.678   1.061 -0.7220 -0.8539 -0.0827
 6162SOL    HW219928   5.786   1.665   0.975 -0.2615  0.6435  0.3336
 6163SOL     OW19929   2.743   2.285   1.521  0.2193  0.0039 -0.0035
 6163SOL    HW119930   2.665   2.231   1.511  1.6477 -1.9688 -1.3791
 6163SOL    HW219931   2.750   2.334   1.439  0.3594  0.2611  0.1587
 6164SOL     OW19932   1.103   3.616   1.708  0.1701  0.0549  0.4213
 6164SOL    HW119933   1.128   3.693   1.759 -0.6560  0.3985  0.3143
 6164SOL    HW219934   1.115   3.643   1.617 -0.8208  0.3144  0.3579
 6165SOL     OW19935   1.753   0.987   0.632  0.7386  0.1722  0.2147
 6165SOL    HW119936   1.720   1.032   0.710  0.8655  0.1516  0.2815
 6165SOL    HW219937   1.786   1.057   0.576 -2.3580  0.5535 -1.3382
 6166SOL     OW19938   0.497   2.120   0.650 -0.0628 -0.5375 -0.4303
 6166SOL    HW119939   0.461   2.099   0.736  0.2987 -1.5656 -0.5069
 6166SOL    HW219940   0.554   2.045   0.629  0.5419  0.1084 -1.1778
 6167SOL     OW19941   4.195   2.209   0.858 -0.8850  0.0985  0.1119
 6167SOL    HW119942   4.109   2.248   0.872  0.4237  2.8479  1.2793
 6167SOL    HW219943   4.256   2.281   0.874  1.6152 -1.4925 -1.6351
 6168SOL     OW19944   1.282   0.599  12.320 -0.2886  0.2574  0.4213
 6168SOL    HW119945   1.334   0.562  12.248 -0.0052  1.8323 -0.2295
 6168SOL    HW219946   1.232   0.670  12.279 -0.3115  1.0186  1.7275
 6169SOL     OW19947   1.729   1.219   0.048 -0.3979  0.3100  0.0438
 6169SOL    HW119948   1.759   1.147  -0.007  1.3419  0.5489  0.6280
 6169SOL    HW219949   1.704   1.177   0.130  0.1575  0.2952  0.2129
 6170SOL     OW19950   0.642   6.925   0.504  0.1280 -0.2948  0.1772
 6170SOL    HW119951   0.676   6.896   0.589  0.2869 -0.6639 -0.0073
 6170SOL    HW219952   0.694   7.001   0.482 -0.6260  0.4532  0.9050
 6171SOL     OW19953   5.194   0.455   0.818 -0.2223  0.3409 -0.4005
 6171SOL    HW119954   5.196   0.549   0.803  1.3776  0.4182  0.0546
 6171SOL    HW219955   5.244   0.418   0.745 -0.0494 -0.0648 -0.0830
 6172SOL     OW19956   1.788   1.203  11.534 -0.1126  0.0711 -0.1393
 6172SOL    HW119957   1.701   1.240  11.553  0.3017  0.5764  0.8814
 6172SOL    HW219958   1.831   1.268  11.479  0.4858  0.9917  1.3620
 6173SOL     OW19959   4.500   0.364   1.929  0.0181  0.1387  0.5955
 6173SOL    HW119960   4.567   0.429   1.951  0.9614 -0.2917 -0.8181
 6173SOL    HW219961   4.491   0.311   2.008  1.4225  0.1669  0.8104
 6174SOL     OW19962   2.493   1.058   0.452 -0.4499  0.5279 -0.4394
 6174SOL    HW119963   2.564   1.014   0.500 -0.3823  1.3578  0.2597
 6174SOL    HW219964   2.512   1.041   0.360  1.2278  1.5237 -0.3328
 6175SOL     OW19965   1.754   0.400  11.752 -0.4381 -0.4218  0.3721
 6175SOL    HW119966   1.809   0.448  11.813 -2.6162  0.7033  1.5858
 6175SOL    HW219967   1.698   0.345  11.807 -1.5146 -0.4497 -0.6906
 6176SOL     OW19968   2.627   1.958   0.379  0.1151 -0.3253 -0.1536
 6176SOL    HW119969   2.600   1.979   0.289  0.1355  0.0048 -0.0849
 6176SOL    HW219970   2.722   1.968   0.378 -0.0319  1.5893  0.3722
 6177SOL     OW19971   3.890   1.023   2.593  0.4025  0.2866 -0.1090
 6177SOL    HW119972   3.974   1.061   2.620  0.0588 -0.3892  2.1870
 6177SOL    HW219973   3.843   1.011   2.676 -1.3893 -0.6765 -1.2202
 6178SOL     OW19974   2.082   6.870   0.859 -0.7625  0.4864 -0.1161
 6178SOL    HW119975   2.067   6.939   0.924  2.6964  0.0131  1.4724
 6178SOL    HW219976   2.051   6.790   0.902 -1.5255  0.6091 -0.4455
 6179SOL     OW19977   2.540   2.078  12.010 -0.7169  0.6953 -0.3779
 6179SOL    HW119978   2.506   2.042  12.092 -0.3258 -0.1756 -0.5905
 6179SOL    HW219979   2.546   2.172  12.026  1.0607  0.3735  1.2311
 6180SOL     OW19980   4.426   2.672   1.293  0.1947  0.0421  0.5649
 6180SOL    HW119981   4.459   2.761   1.303 -0.2976  0.8300 -3.1936
 6180SOL    HW219982   4.371   2.676   1.215  0.0978 -3.5561  0.2880
 6181SOL     OW19983   3.507   1.916   2.603  0.1133 -0.1880  0.3724
 6181SOL    HW119984   3.596   1.910   2.567  0.0789 -0.0761  0.2661
 6181SOL    HW219985   3.453   1.869   2.540  0.4578 -2.6268  1.7735
 6182SOL     OW19986   2.059   0.537   2.169 -0.5202  0.1459 -0.2053
 6182SOL    HW119987   2.046   0.501   2.257  0.8516  0.0866 -0.0087
 6182SOL    HW219988   2.129   0.601   2.180  1.1179 -1.3239 -1.6135
 6183SOL     OW19989   1.763   0.626   1.018 -0.5680 -0.0796  0.0740
 6183SOL    HW119990   1.818   0.671   0.954  2.0030 -0.3671  1.9431
 6183SOL    HW219991   1.675   0.659   1.001  0.3640  1.5457 -2.0874
 6184SOL     OW19992   4.673   1.715   0.343  0.4624 -0.3767  0.3662
 6184SOL    HW119993   4.761   1.752   0.335  0.8751 -1.3229  0.4043
 6184SOL    HW219994   4.627   1.773   0.404  0.4299  1.2500 -1.1446
 6185SOL     OW19995   2.461   0.851  11.958 -0.3485  0.7310 -0.2691
 6185SOL    HW119996   2.392   0.909  11.927 -0.5928  0.2587 -0.6236
 6185SOL    HW219997   2.510   0.903  12.021  0.2062  1.7347 -1.4834
 6186SOL     OW19998   2.214   1.123   0.383  0.7375  0.3063 -0.0677
 6186SOL    HW119999   2.206   1.154   0.293 -0.4856 -1.3348 -0.5746
 6186SOL    HW220000   2.298   1.078   0.386  0.5266 -0.1240 -0.5510
 6187SOL     OW20001   3.904   1.680  12.035  0.2735 -0.0236 -0.0938
 6187SOL    HW120002   3.962   1.646  12.103 -0.5867  1.9625  1.7480
 6187SOL    HW220003   3.820   1.695  12.079 -0.4282  1.0254 -1.6632
 6188SOL     OW20004   1.295   7.814   2.870 -0.6534 -0.6817  0.0756
 6188SOL    HW120005   1.331   7.870   2.939 -1.6912 -0.4304  0.4187
 6188SOL    HW220006   1.229   7.761   2.914 -1.0447 -0.8047 -0.6526
 6189SOL     OW20007   4.848   0.693   1.743  0.4280 -0.3739 -0.1277
 6189SOL    HW120008   4.893   0.753   1.803 -1.6694  0.8218  0.3466
 6189SOL    HW220009   4.872   0.724   1.656  0.6868  0.1228  0.1116
 6190SOL     OW20010   2.038   0.718   1.777  0.7559  0.1991  0.1036
 6190SOL    HW120011   2.030   0.743   1.685  2.4064  0.5103  0.0219
 6190SOL    HW220012   1.984   0.782   1.824 -0.9500 -0.5860 -0.6937
 6191SOL     OW20013   2.248   1.691   0.552  0.0984  0.2537  0.5139
 6191SOL    HW120014   2.245   1.703   0.457  1.9902  1.3051  0.5298
 6191SOL    HW220015   2.340   1.709   0.575 -0.3768  0.2586  2.5649
 6192SOL     OW20016   2.835   7.295  12.370  0.1718 -0.0463 -0.3150
 6192SOL    HW120017   2.824   7.201  12.387 -0.7462 -0.3189 -2.1232
 6192SOL    HW220018   2.888   7.298  12.290  1.1552  1.0369  0.3417
 6193SOL     OW20019   0.105   7.311  12.000 -0.1176  0.3649  0.5800
 6193SOL    HW120020   0.115   7.243  11.934 -1.9137  0.1750  0.4566
 6193SOL    HW220021   0.177   7.296  12.062  0.1100 -0.9934  0.0010
 6194SOL     OW20022   1.688   2.175  11.893 -0.3674  0.0948 -0.0413
 6194SOL    HW120023   1.594   2.159  11.886 -0.5239  0.8491  0.1963
 6194SOL    HW220024   1.695   2.250  11.952  0.4773 -1.0129  1.3299
 6195SOL     OW20025   3.894   0.765   0.602  0.4016 -0.1576  0.3225
 6195SOL    HW120026   3.963   0.752   0.537  2.0174 -0.0648  1.9315
 6195SOL    HW220027   3.837   0.689   0.592  1.1156 -0.5946 -0.6032
 6196SOL     OW20028   1.789   1.600   1.568 -0.1314  0.7497 -0.0977
 6196SOL    HW120029   1.852   1.622   1.637 -0.2390  0.6509  0.0329
 6196SOL    HW220030   1.821   1.646   1.491 -0.2201  1.1677  0.1111
 6197SOL     OW20031   3.195   0.581  12.479 -0.3158  0.2138 -0.2469
 6197SOL    HW120032   3.176   0.667  12.514 -1.4851 -0.0198 -0.2827
 6197SOL    HW220033   3.273   0.594  12.424  1.2276  0.7017  1.9218
 6198SOL     OW20034   2.997   7.136   1.440 -0.6113 -0.0583 -0.4170
 6198SOL    HW120035   2.934   7.128   1.512  0.0255 -0.0681  0.1536
 6198SOL    HW220036   3.082   7.148   1.484 -0.2095 -0.0920 -1.1688
 6199SOL     OW20037   4.821   0.644  12.293 -0.3555  0.1519 -0.4267
 6199SOL    HW120038   4.893   0.664  12.233  0.5719 -2.2310 -0.2306
 6199SOL    HW220039   4.743   0.645  12.238 -0.0147  1.3820 -0.9264
 6200SOL     OW20040   1.874   2.667   0.244  0.5345 -0.2615 -0.1619
 6200SOL    HW120041   1.943   2.635   0.186  0.3374 -0.4804 -0.2763
 6200SOL    HW220042   1.871   2.761   0.227 -0.7589 -0.5510 -1.8616
 6201SOL     OW20043   3.848   1.409   1.597  0.2089  0.0449  0.1942
 6201SOL    HW120044   3.938   1.441   1.593  1.1568 -2.5144 -2.2974
 6201SOL    HW220045   3.801   1.462   1.533  0.8556 -0.9673 -1.1497
 6202SOL     OW20046   3.474   2.705   1.649  0.4512  0.4747 -0.1243
 6202SOL    HW120047   3.512   2.618   1.633 -1.9334 -0.8929  0.9359
 6202SOL    HW220048   3.505   2.730   1.735  0.3689  0.2023 -0.0151
 6203SOL     OW20049   1.838   0.552   1.282 -0.5635  0.0966  0.4293
 6203SOL    HW120050   1.814   0.562   1.190  1.0699  0.4368 -0.0031
 6203SOL    HW220051   1.867   0.461   1.289 -2.5577 -0.5411  1.1229
 6204SOL     OW20052   3.557   0.197   1.173  0.5724 -0.2517  0.5508
 6204SOL    HW120053   3.505   0.166   1.099 -0.2155  0.6626  0.7103
 6204SOL    HW220054   3.614   0.265   1.136  0.3841  0.0006  0.7220
 6205SOL     OW20055   2.275   2.070   0.665 -0.1202  0.1486 -0.0682
 6205SOL    HW120056   2.210   2.010   0.703  0.0498 -1.0144 -1.4950
 6205SOL    HW220057   2.262   2.061   0.570  1.9736  0.0655 -0.3820
 6206SOL     OW20058   2.118   2.658   0.566 -0.0478  0.3108 -0.4372
 6206SOL    HW120059   2.101   2.751   0.560 -1.6661 -0.0233 -1.3965
 6206SOL    HW220060   2.160   2.635   0.482 -0.1879  0.0663 -0.4421
 6207SOL     OW20061   0.164   1.187  11.922 -0.3498 -0.2919  0.1659
 6207SOL    HW120062   0.213   1.126  11.977  0.2821 -0.4547 -0.5570
 6207SOL    HW220063   0.226   1.213  11.854 -1.1509 -0.1886 -0.5398
 6208SOL     OW20064   3.001   1.999  11.720  0.3701  0.5009 -0.1593
 6208SOL    HW120065   3.054   2.076  11.739  0.0826  1.3392 -2.5020
 6208SOL    HW220066   2.938   1.995  11.793  0.9584  1.9295  0.4618
 6209SOL     OW20067   4.565   1.750   0.096  0.0972  0.0340 -0.6959
 6209SOL    HW120068   4.637   1.706   0.050  1.2654  1.9315 -0.7611
 6209SOL    HW220069   4.594   1.753   0.187 -0.4556 -0.2287 -0.5065
 6210SOL     OW20070   7.585   7.356   0.654  0.0532  0.0975  0.1628
 6210SOL    HW120071   7.495   7.328   0.674 -0.3021 -0.6740 -2.1991
 6210SOL    HW220072   7.582   7.383   0.563  2.1572  0.4396  0.1435
 6211SOL     OW20073   1.401   1.859  11.930 -0.0378  0.4197  0.7750
 6211SOL    HW120074   1.341   1.893  11.996 -0.0003  1.2092  0.4083
 6211SOL    HW220075   1.455   1.934  11.906 -0.3317  0.2541 -0.4641
 6212SOL     OW20076   1.227   0.669   1.133  0.1073 -0.2311  0.0223
 6212SOL    HW120077   1.291   0.739   1.149 -1.6961  1.6233 -0.3557
 6212SOL    HW220078   1.274   0.606   1.078  1.1562  1.9485 -1.7816
 6213SOL     OW20079   1.187   7.107   3.367 -0.5852 -0.2912 -0.3725
 6213SOL    HW120080   1.200   7.124   3.460  2.2052 -0.4505 -0.6293
 6213SOL    HW220081   1.232   7.024   3.351 -1.3997 -0.5012 -1.7901
 6214SOL     OW20082   1.751   0.178   0.052  0.2224  0.0165  0.3824
 6214SOL    HW120083   1.815   0.182  -0.019  1.2134 -0.6967  1.1970
 6214SOL    HW220084   1.735   0.084   0.065  1.4185  0.0189  2.2385
 6215SOL     OW20085   2.371   0.108  12.244  0.0026  0.8493  0.1993
 6215SOL    HW120086   2.344   0.176  12.183  1.1834  0.3927 -0.8796
 6215SOL    HW220087   2.431   0.152  12.304 -0.3985  1.0778  0.4400
 6216SOL     OW20088   1.404   0.291   0.836  0.3370  0.2484  0.0469
 6216SOL    HW120089   1.415   0.230   0.909  2.1350  2.2640  1.5938
 6216SOL    HW220090   1.487   0.287   0.789 -0.3105 -0.0361 -1.0800
 6217SOL     OW20091   3.556   0.817   0.438 -0.1947 -0.7546  0.0828
 6217SOL    HW120092   3.555   0.832   0.533  0.2174 -0.0743 -0.0126
 6217SOL    HW220093   3.484   0.756   0.422 -0.9909  0.0172  0.6903
 6218SOL     OW20094   3.030   6.624   0.652  0.0664 -0.1206  0.3599
 6218SOL    HW120095   3.052   6.533   0.631  0.1114  0.1414 -0.8134
 6218SOL    HW220096   3.114   6.670   0.652 -0.0999  0.2415 -0.8394
 6219SOL     OW20097   4.463   0.897  11.369  0.1425 -0.5403 -0.2822
 6219SOL    HW120098   4.445   0.817  11.418  0.0135  1.5421  3.3880
 6219SOL    HW220099   4.557   0.893  11.350  0.1970 -1.4204  0.1271
 6220SOL     OW20100   0.981   7.661   1.383  0.2247 -0.2023  0.2837
 6220SOL    HW120101   0.979   7.750   1.417 -0.7562  0.0302 -0.3713
 6220SOL    HW220102   1.064   7.625   1.416  1.3938  1.4470 -0.7215
 6221SOL     OW20103   2.142   6.933  12.465 -0.3914 -0.9514  0.1733
 6221SOL    HW120104   2.136   6.972  12.378  0.6759  2.9193  1.5934
 6221SOL    HW220105   2.232   6.899  12.470 -0.5531 -1.4612 -0.3117
 6222SOL     OW20106   3.919   6.103   0.035 -0.1580 -0.1326 -0.0625
 6222SOL    HW120107   3.988   6.135   0.093  1.3764 -2.3737 -0.4769
 6222SOL    HW220108   3.842   6.153   0.059  1.0328  0.8256  2.1142
 6223SOL     OW20109   3.015   6.454  12.031  0.0754  0.5128 -0.3893
 6223SOL    HW120110   3.023   6.450  12.127 -2.4608 -0.6878 -0.1397
 6223SOL    HW220111   3.099   6.422  11.999  0.7888  0.4048  1.4474
 6224SOL     OW20112   3.063   7.843   0.648 -0.5659 -0.0103  0.2942
 6224SOL    HW120113   3.085   7.914   0.587  0.4619 -0.4572  0.1134
 6224SOL    HW220114   3.116   7.769   0.618  0.5990 -0.0265  2.1961
 6225SOL     OW20115   1.616   2.829   0.694  0.3262  0.0876  0.1770
 6225SOL    HW120116   1.690   2.843   0.635 -0.2512 -1.0188 -0.8600
 6225SOL    HW220117   1.539   2.837   0.638 -0.3970  1.6718  1.3276
 6226SOL     OW20118   1.690   7.508   0.994  0.1705  0.0754 -0.1190
 6226SOL    HW120119   1.666   7.435   1.051  0.9468 -0.3261 -0.2864
 6226SOL    HW220120   1.739   7.467   0.922 -2.2436  0.3366 -2.0288
 6227SOL     OW20121   1.766   1.916  12.043 -0.0685 -0.0300  0.2999
 6227SOL    HW120122   1.831   1.853  12.011  2.2144  2.6082 -0.7210
 6227SOL    HW220123   1.692   1.907  11.982  0.7914 -0.7366 -0.6826
 6228SOL     OW20124   5.369   0.420  11.933  0.3501  0.0039  0.0238
 6228SOL    HW120125   5.359   0.327  11.914  0.5363 -0.0391  0.1318
 6228SOL    HW220126   5.301   0.439  11.998 -0.2510  0.1410 -0.6377
 6229SOL     OW20127   1.182   7.944   1.139 -0.0467  0.1432 -0.4247
 6229SOL    HW120128   1.226   7.936   1.055 -3.4636 -1.6838 -2.2605
 6229SOL    HW220129   1.232   7.888   1.198  0.2472 -1.7639 -2.3591
 6230SOL     OW20130   1.712   5.697   1.345  0.4707  0.5519 -0.2330
 6230SOL    HW120131   1.767   5.722   1.270  0.7719 -1.6482 -0.8275
 6230SOL    HW220132   1.665   5.620   1.315 -1.6539  1.3269  0.8934
 6231SOL     OW20133   3.344   1.208   1.858  0.9055 -0.0329  0.3585
 6231SOL    HW120134   3.378   1.278   1.801  0.1060  1.6565  1.8727
 6231SOL    HW220135   3.369   1.235   1.946 -0.1220 -1.2765  1.0471
 6232SOL     OW20136   3.705   7.680   0.609 -0.3042  0.1986 -0.0950
 6232SOL    HW120137   3.699   7.761   0.661 -2.3714 -0.3879  0.6530
 6232SOL    HW220138   3.615   7.663   0.581  0.4849 -0.5340 -2.3337
 6233SOL     OW20139   2.960   1.095   1.025 -0.2566  0.4147  0.2069
 6233SOL    HW120140   2.996   1.058   0.944  0.7268 -0.7332  1.1328
 6233SOL    HW220141   2.919   1.177   0.998 -0.5740 -0.2904 -1.5650
 6234SOL     OW20142   3.505   0.901   0.731 -0.3781 -0.0018  0.6443
 6234SOL    HW120143   3.483   0.994   0.729 -1.0060 -0.1560 -1.0291
 6234SOL    HW220144   3.576   0.895   0.795 -1.5301  1.3368  2.1026
 6235SOL     OW20145   4.351   1.408   1.640 -0.4504 -0.2669 -0.2914
 6235SOL    HW120146   4.386   1.401   1.551 -1.0723 -2.6142 -0.4149
 6235SOL    HW220147   4.418   1.456   1.688  0.7585 -0.5687 -1.6110
 6236SOL     OW20148   4.455   1.828   2.348  0.3193  0.1991  0.6025
 6236SOL    HW120149   4.443   1.881   2.427 -0.5157  1.1453 -0.1307
 6236SOL    HW220150   4.390   1.757   2.356  1.3481 -0.6717  1.5218
 6237SOL     OW20151   1.800   2.550   0.769  0.3124 -0.5317  0.2884
 6237SOL    HW120152   1.798   2.535   0.674  0.0473 -2.0604  0.5134
 6237SOL    HW220153   1.716   2.518   0.801 -1.2780  3.3912  0.6650
 6238SOL     OW20154   3.090   7.690  12.317  0.2928  0.4373 -0.3531
 6238SOL    HW120155   3.089   7.747  12.394  0.2915 -0.7167  0.5414
 6238SOL    HW220156   3.150   7.733  12.256  1.9822  0.3431  1.1466
 6239SOL     OW20157   1.805   7.663  12.397 -0.0587  0.6721  0.3840
 6239SOL    HW120158   1.758   7.663  12.314  0.9929 -0.5019 -0.2495
 6239SOL    HW220159   1.898   7.657  12.372  0.3576  1.6035  1.6126
 6240SOL     OW20160   3.899   1.225   0.583  0.3790 -0.8493  0.0742
 6240SOL    HW120161   3.848   1.160   0.536 -0.2229 -0.6794  0.4822
 6240SOL    HW220162   3.876   1.212   0.675 -1.5143  1.4020  0.0092
 6241SOL     OW20163   3.245   1.603   1.079  0.2549 -0.1886  0.4886
 6241SOL    HW120164   3.307   1.538   1.111 -0.4434 -1.3774 -0.4403
 6241SOL    HW220165   3.177   1.551   1.035 -1.0177  1.0996  0.8462
 6242SOL     OW20166   3.942   2.400   1.743  0.4028  0.4410 -0.1223
 6242SOL    HW120167   3.920   2.489   1.768 -0.5493  0.1615  0.0743
 6242SOL    HW220168   4.037   2.394   1.756  0.2965  1.0456  1.0828
 6243SOL     OW20169   3.691   1.908  12.438  0.5740  0.4638 -0.2665
 6243SOL    HW120170   3.749   1.973  12.478  1.9363 -1.0678  0.3471
 6243SOL    HW220171   3.715   1.908  12.346 -0.0224  1.3906 -0.4406
 6244SOL     OW20172   2.786   2.001   2.131 -0.1940 -0.2705  0.0710
 6244SOL    HW120173   2.836   1.945   2.072  0.3809 -0.3318  0.6057
 6244SOL    HW220174   2.845   2.016   2.206 -0.9537 -0.3108  0.6949
 6245SOL     OW20175   3.199   7.816   1.085  0.2693 -0.3226 -0.1717
 6245SOL    HW120176   3.199   7.857   1.171 -0.5563  1.0827 -0.8086
 6245SOL    HW220177   3.129   7.860   1.037  0.4272 -1.3720 -1.4376
 6246SOL     OW20178   3.121   7.202   0.675  0.6263 -0.6903 -0.1068
 6246SOL    HW120179   3.204   7.221   0.717  0.4691 -2.3198  1.0234
 6246SOL    HW220180   3.074   7.286   0.674  1.8751  0.0254  0.1208
 6247SOL     OW20181   2.304   0.647   0.733  0.3791  0.3325 -0.0578
 6247SOL    HW120182   2.268   0.714   0.676  2.0299 -1.1072 -3.0144
 6247SOL    HW220183   2.256   0.567   0.710 -0.0593 -0.0059  1.8267
 6248SOL     OW20184   2.237   1.461   0.333 -0.1110  0.0631 -0.5708
 6248SOL    HW120185   2.156   1.423   0.369 -0.0927 -0.8346 -1.4200
 6248SOL    HW220186   2.223   1.556   0.337 -0.6658 -0.0447  0.4840
 6249SOL     OW20187   3.889   0.796   1.037 -0.2230 -0.1409  0.0560
 6249SOL    HW120188   3.867   0.799   1.131  2.2593  1.3951  0.6736
 6249SOL    HW220189   3.915   0.706   1.022  0.4582 -0.1550  1.1609
 6250SOL     OW20190   2.364   1.029   1.238  0.3510  0.0332 -0.2584
 6250SOL    HW120191   2.373   1.036   1.143 -0.1130  0.5979 -0.2666
 6250SOL    HW220192   2.298   0.962   1.250 -0.2330  0.5822 -0.3617
 6251SOL     OW20193   1.626   1.750   0.903  0.1257 -0.0983  0.0170
 6251SOL    HW120194   1.607   1.843   0.913  0.7260  0.0722 -0.3630
 6251SOL    HW220195   1.699   1.733   0.962 -0.4447 -0.5016  0.6342
 6252SOL     OW20196   1.158   1.667   2.019 -0.8061 -0.2177 -0.6279
 6252SOL    HW120197   1.193   1.756   2.023  0.4279 -0.7346  2.3359
 6252SOL    HW220198   1.234   1.611   2.038 -2.4662 -1.5746  2.7146
 6253SOL     OW20199   3.507   1.312   1.364 -0.0234  0.1852  0.1584
 6253SOL    HW120200   3.509   1.402   1.332 -0.0460  0.1096 -0.0514
 6253SOL    HW220201   3.415   1.288   1.363 -0.0718  0.3339  0.6969
 6254SOL     OW20202   5.254   2.467   2.732 -0.0071  0.5743 -0.1812
 6254SOL    HW120203   5.244   2.476   2.638  0.5963 -0.2831 -0.3316
 6254SOL    HW220204   5.340   2.428   2.744  0.4344  1.7973  0.7852
 6255SOL     OW20205   4.442   0.716   2.168  0.3853  0.9560  0.3853
 6255SOL    HW120206   4.366   0.711   2.226  0.7000  0.4790  0.7665
 6255SOL    HW220207   4.517   0.716   2.227  0.6663  3.4973  0.1139
 6256SOL     OW20208   3.513   1.170   0.763 -0.3695 -0.2582  0.2069
 6256SOL    HW120209   3.601   1.193   0.792 -0.4354  0.8154 -0.4067
 6256SOL    HW220210   3.454   1.222   0.817 -0.5150  1.1149 -1.2046
 6257SOL     OW20211   1.084   7.519   3.321  0.5906 -0.1624 -0.2106
 6257SOL    HW120212   1.071   7.613   3.333 -0.9991 -0.3828 -0.0157
 6257SOL    HW220213   1.155   7.496   3.382  1.4955  1.0171 -0.7900
 6258SOL     OW20214   2.593   2.063   0.130 -0.8030  0.2759 -0.6029
 6258SOL    HW120215   2.683   2.056   0.099 -0.7081 -1.5871  0.0058
 6258SOL    HW220216   2.580   2.157   0.146  1.4937  0.4467  0.6326
 6259SOL     OW20217   4.299   6.768  12.366  0.1349 -0.5276 -0.6898
 6259SOL    HW120218   4.333   6.797  12.451 -0.3132 -0.8540 -0.3954
 6259SOL    HW220219   4.342   6.684  12.351 -0.3863 -0.8510 -0.4051
 6260SOL     OW20220   2.048   0.487   0.002 -0.6758  0.0169  0.4536
 6260SOL    HW120221   2.019   0.475   0.092 -1.5779  1.5425  0.3960
 6260SOL    HW220222   1.968   0.507  -0.047 -0.1790 -0.6355 -0.6649
 6261SOL     OW20223   2.719   1.416  12.145 -0.0319  0.6269  0.1879
 6261SOL    HW120224   2.796   1.438  12.092 -1.3762 -0.9879 -2.6492
 6261SOL    HW220225   2.749   1.347  12.203  1.5634  2.6419  1.9441
 6262SOL     OW20226   3.958   1.835   1.604  0.5214 -0.2558 -0.2185
 6262SOL    HW120227   3.983   1.925   1.627  3.7393 -0.7529 -1.2639
 6262SOL    HW220228   3.939   1.839   1.510  1.4619 -0.7696 -0.4438
 6263SOL     OW20229   3.281   7.776   0.179 -0.8596 -0.3608  0.4322
 6263SOL    HW120230   3.277   7.837   0.254  0.9670 -0.7460  0.8834
 6263SOL    HW220231   3.220   7.706   0.203 -1.7414  0.4589  0.6651
 6264SOL     OW20232   0.397   0.043  12.250 -0.2396  0.8380 -0.0480
 6264SOL    HW120233   0.400   0.120  12.193 -0.5738 -0.1741 -1.4843
 6264SOL    HW220234   0.482   0.044  12.294 -0.0834  1.8085 -0.3351
 6265SOL     OW20235   1.477   0.632   2.009  0.1480 -0.1720  0.1830
 6265SOL    HW120236   1.562   0.669   2.033  0.2138 -0.6094  0.6342
 6265SOL    HW220237   1.444   0.691   1.942  1.9229 -1.3796 -1.9028
 6266SOL     OW20238   3.789   0.252   0.456  0.3850  0.2172  0.1411
 6266SOL    HW120239   3.809   0.344   0.473 -0.1387  0.4322 -0.3545
 6266SOL    HW220240   3.719   0.231   0.517 -0.7958  0.6992 -1.0041
 6267SOL     OW20241   3.858   7.935   2.756  0.1843  0.2428  0.3060
 6267SOL    HW120242   3.913   7.927   2.679 -1.1098  1.5891 -0.8273
 6267SOL    HW220243   3.916   7.967   2.825  0.8334  1.6813 -0.8653
 6268SOL     OW20244   2.385   6.767   0.657  0.2947  0.0517  0.3449
 6268SOL    HW120245   2.379   6.776   0.752 -3.3940  1.2087  0.1672
 6268SOL    HW220246   2.427   6.848   0.627  0.7806  0.0145  0.9135
 6269SOL     OW20247   3.849   0.534   0.450  0.3623 -0.6231 -0.2176
 6269SOL    HW120248   3.914   0.593   0.412 -0.7439  1.7097  1.2247
 6269SOL    HW220249   3.784   0.521   0.381  0.6966 -0.2276 -0.6094
 6270SOL     OW20250   2.143   1.299   1.322 -0.6042 -0.4583  0.1694
 6270SOL    HW120251   2.218   1.357   1.310 -3.0204  3.0069  0.5027
 6270SOL    HW220252   2.148   1.271   1.414  1.2883 -2.0248 -0.3319
 6271SOL     OW20253   1.968   7.930   2.107  0.0990  0.0895  0.2442
 6271SOL    HW120254   2.062   7.925   2.124  0.1131  1.3958  0.7039
 6271SOL    HW220255   1.955   8.020   2.075 -1.0107 -0.0463  0.2842
 6272SOL     OW20256   3.205   0.809   1.225 -0.2137 -0.0677  0.1732
 6272SOL    HW120257   3.130   0.824   1.283 -0.2779 -0.5105  0.2113
 6272SOL    HW220258   3.225   0.895   1.188  0.1285  0.3238  1.2211
 6273SOL     OW20259   3.135   7.810   1.921 -0.4649  0.4391 -0.0587
 6273SOL    HW120260   3.121   7.759   2.001  0.5039  1.4820  0.8141
 6273SOL    HW220261   3.165   7.895   1.952  1.8304  0.2677 -1.5665
 6274SOL     OW20262   4.643   0.899   0.269  0.4255 -0.3564 -0.3803
 6274SOL    HW120263   4.657   0.988   0.238 -0.2974 -0.0739  0.1098
 6274SOL    HW220264   4.562   0.871   0.227  0.4472 -0.6464 -0.2317
 6275SOL     OW20265   4.979   7.569  12.259 -0.3120 -0.0545  0.6444
 6275SOL    HW120266   5.040   7.506  12.220  0.7394  2.1954 -1.6526
 6275SOL    HW220267   4.904   7.569  12.199 -1.8928 -1.5187  2.5095
 6276SOL     OW20268   4.516   7.260   1.233  0.7187 -0.1487 -0.0312
 6276SOL    HW120269   4.556   7.240   1.318  1.6937  4.8222  1.0119
 6276SOL    HW220270   4.425   7.282   1.255  1.0682  1.5129 -0.0689
 6277SOL     OW20271   2.490   7.708   2.469 -0.0554 -0.0452  0.3352
 6277SOL    HW120272   2.577   7.687   2.501  0.7032  1.0319 -0.9349
 6277SOL    HW220273   2.452   7.624   2.444  1.2925 -0.3513 -0.7461
 6278SOL     OW20274   1.020   0.927   2.878  0.0832 -0.0956 -0.1578
 6278SOL    HW120275   1.057   1.012   2.852  1.2243 -0.5806 -0.2149
 6278SOL    HW220276   1.082   0.863   2.842 -0.1055 -0.9072  0.9186
 6279SOL     OW20277   1.317   1.973   0.116 -0.7613 -0.0175  0.0261
 6279SOL    HW120278   1.284   1.940   0.200 -0.6733 -0.6188 -0.1644
 6279SOL    HW220279   1.254   2.039   0.089 -1.9367 -1.2913 -0.4323
 6280SOL     OW20280   2.431   6.742   3.284 -0.2060 -0.1235  0.8104
 6280SOL    HW120281   2.438   6.789   3.201  1.1132  0.6226  1.3068
 6280SOL    HW220282   2.449   6.651   3.263  1.9884  0.3254  0.5138
 6281SOL     OW20283   2.526   0.541   2.678  0.1813  0.2620  0.0046
 6281SOL    HW120284   2.460   0.559   2.746 -0.1982 -0.7096 -0.0861
 6281SOL    HW220285   2.604   0.515   2.727 -0.4360 -1.5914  0.1035
 6282SOL     OW20286   4.121   1.349   0.465 -0.1642 -0.7447 -0.1982
 6282SOL    HW120287   4.071   1.282   0.511  2.1048 -0.1560  3.5860
 6282SOL    HW220288   4.112   1.427   0.519  0.1263  1.0526 -2.5846
 6283SOL     OW20289   4.590   7.883   0.300 -0.1006  0.4419  0.6542
 6283SOL    HW120290   4.686   7.887   0.303 -0.0702 -0.4722  1.0888
 6283SOL    HW220291   4.569   7.794   0.328 -1.0365  0.3011 -0.4309
 6284SOL     OW20292   1.362   0.061   2.629 -0.2856  0.1524 -0.1358
 6284SOL    HW120293   1.379   0.063   2.723  0.7012 -1.9872 -0.2126
 6284SOL    HW220294   1.447   0.080   2.589 -0.6741  0.9294 -0.6149
 6285SOL     OW20295   0.303   7.521   0.438  0.1648  0.0702 -0.1171
 6285SOL    HW120296   0.351   7.603   0.437 -0.4406  0.4296 -0.5555
 6285SOL    HW220297   0.221   7.541   0.393 -0.0079 -0.7597 -0.1868
 6286SOL     OW20298   3.091   2.698   1.868 -0.2069  0.4428 -0.0902
 6286SOL    HW120299   3.118   2.738   1.785 -1.2985 -0.7708 -1.0631
 6286SOL    HW220300   3.111   2.605   1.858 -2.3975 -0.1077  0.0752
 6287SOL     OW20301   2.943   7.115  10.310 -0.0581 -0.5740  0.1799
 6287SOL    HW120302   2.910   7.103  10.220  0.5776 -1.3630  0.0434
 6287SOL    HW220303   2.878   7.073  10.365 -1.1450  1.0657  0.2211
 6288SOL     OW20304   2.432   1.356   2.400  0.0890 -0.0660 -0.6978
 6288SOL    HW120305   2.341   1.342   2.374  0.4445 -0.3810 -1.8161
 6288SOL    HW220306   2.431   1.440   2.445 -0.6126  0.3368 -1.4451
 6289SOL     OW20307   3.059   7.295   2.394  0.5363 -0.4368 -0.1872
 6289SOL    HW120308   3.011   7.308   2.312 -1.1667 -1.4993  0.5930
 6289SOL    HW220309   3.045   7.376   2.443 -1.3289 -1.0513  0.4032
 6290SOL     OW20310   0.831   0.332   2.495  0.3764 -0.4603  0.2077
 6290SOL    HW120311   0.799   0.356   2.582  0.1033  0.6302 -0.1916
 6290SOL    HW220312   0.758   0.285   2.455  0.9866 -2.2735  1.0653
 6291SOL     OW20313   1.584   2.520   0.065  0.3432  0.4214  0.2708
 6291SOL    HW120314   1.631   2.442   0.094 -0.2770 -0.9823 -2.2499
 6291SOL    HW220315   1.499   2.515   0.110 -0.4328 -1.4554 -1.3094
 6292SOL     OW20316   1.593   2.777   1.268  0.2595 -0.2278 -0.2220
 6292SOL    HW120317   1.617   2.801   1.178 -1.8594  1.2881 -0.4397
 6292SOL    HW220318   1.503   2.748   1.262 -0.0008  0.1407  1.4477
 6293SOL     OW20319   1.887   7.509   3.268 -0.9312 -0.1441  0.0693
 6293SOL    HW120320   1.920   7.427   3.304  0.9944  0.2302 -0.7133
 6293SOL    HW220321   1.809   7.483   3.219 -0.2612 -1.5543 -0.3149
 6294SOL     OW20322   4.733   1.593   1.167  0.0689 -0.0365  0.0022
 6294SOL    HW120323   4.670   1.546   1.114 -0.2305  0.6212 -0.2376
 6294SOL    HW220324   4.733   1.682   1.132 -2.1154  1.1887  2.7249
 6295SOL     OW20325   5.628   7.491   0.205  0.2504 -0.1023 -0.2694
 6295SOL    HW120326   5.713   7.525   0.178  0.6127 -1.2087 -0.5702
 6295SOL    HW220327   5.648   7.412   0.255 -0.5861 -0.1983 -0.0697
 6296SOL     OW20328   4.225   1.772   1.286  0.5353  0.4887  0.5165
 6296SOL    HW120329   4.237   1.794   1.194 -1.0635  1.6487  0.5561
 6296SOL    HW220330   4.314   1.760   1.319  1.1409 -2.3771 -1.6940
 6297SOL     OW20331   3.071   2.501   1.616  0.4296  0.0220 -0.0963
 6297SOL    HW120332   3.087   2.585   1.573  0.1464  0.2760  0.2867
 6297SOL    HW220333   2.979   2.505   1.643 -0.5815 -1.6789 -2.8623
 6298SOL     OW20334   1.213   0.644   0.530 -0.1884  0.6205  0.5812
 6298SOL    HW120335   1.236   0.560   0.570 -1.1530  0.5914  1.0843
 6298SOL    HW220336   1.138   0.624   0.474  1.6988  0.4528 -2.0754
 6299SOL     OW20337   2.078   1.150   2.719 -0.1071  0.7363  0.4879
 6299SOL    HW120338   2.154   1.183   2.767 -0.6613  2.3879  0.2924
 6299SOL    HW220339   2.108   1.143   2.628  0.1166  0.3694  0.5902
 6300SOL     OW20340   1.980   6.993   0.188 -1.1555 -0.6770  0.3269
 6300SOL    HW120341   1.973   7.086   0.165 -1.3215 -0.1214  2.4518
 6300SOL    HW220342   2.027   6.954   0.113  0.1059  1.3499 -0.0382
 6301SOL     OW20343   3.629   1.144   0.175  0.2378 -0.2346  0.5771
 6301SOL    HW120344   3.694   1.138   0.105  0.3348  0.4300  0.6076
 6301SOL    HW220345   3.591   1.056   0.180  1.3155 -0.7002  0.7503
 6302SOL     OW20346   1.370   2.810   0.582  0.4412  0.5696  0.0899
 6302SOL    HW120347   1.284   2.812   0.625  0.1768  1.0181 -0.4332
 6302SOL    HW220348   1.370   2.889   0.528  0.3115 -0.5245 -1.5895
 6303SOL     OW20349   2.517   0.159   0.844  0.1917  0.1700 -0.1549
 6303SOL    HW120350   2.434   0.206   0.849 -0.3228 -0.5859 -1.1196
 6303SOL    HW220351   2.562   0.180   0.926  0.5178  3.2705 -0.9596
 6304SOL     OW20352   3.157   7.911  12.454  0.3872  0.0338 -0.2216
 6304SOL    HW120353   3.219   7.957  12.397  0.4724  0.2688  0.0571
 6304SOL    HW220354   3.205   7.899  12.536  0.8057 -1.6492 -0.6851
 6305SOL     OW20355   4.730   1.880   3.730  0.2155 -0.4273  0.7041
 6305SOL    HW120356   4.706   1.841   3.646  0.0335  0.9640  0.0842
 6305SOL    HW220357   4.658   1.855   3.789 -1.7583  1.8608 -0.5859
 6306SOL     OW20358   3.921   1.806   1.293  0.3788  0.6276  0.0596
 6306SOL    HW120359   4.014   1.790   1.280  0.4040 -0.2725  1.1599
 6306SOL    HW220360   3.911   1.901   1.285  1.8071  1.0221  2.1917
 6307SOL     OW20361   1.239   1.181   1.763 -0.2408 -0.2473  0.2942
 6307SOL    HW120362   1.157   1.204   1.807 -0.9453 -0.8026 -0.6841
 6307SOL    HW220363   1.292   1.260   1.768  0.2212 -0.6207  3.1855
 6308SOL     OW20364   2.070   0.425   1.034 -0.1195  0.5357 -0.3692
 6308SOL    HW120365   2.081   0.499   1.094  3.5185  0.7613 -1.0881
 6308SOL    HW220366   2.105   0.350   1.082  1.7693  0.5020 -1.6770
 6309SOL     OW20367   3.528   2.142  12.416 -0.0833  0.2843 -0.1950
 6309SOL    HW120368   3.587   2.066  12.414  0.7826  0.9337  0.0271
 6309SOL    HW220369   3.554   2.195  12.340 -0.9768  0.1559 -0.6065
 6310SOL     OW20370   2.526   1.694   0.602  0.2888 -0.6240 -0.6795
 6310SOL    HW120371   2.594   1.758   0.620 -1.0718  0.9457 -0.9290
 6310SOL    HW220372   2.566   1.634   0.539  2.1953 -1.1543  0.9350
 6311SOL     OW20373   3.554   0.852  12.263  0.1555 -0.6163  0.5664
 6311SOL    HW120374   3.598   0.932  12.292  1.1544 -0.7064 -0.5876
 6311SOL    HW220375   3.617   0.810  12.204 -1.6583 -0.4903 -1.6104
 6312SOL     OW20376   3.929   1.219   1.784 -0.7865  0.1245 -0.0782
 6312SOL    HW120377   3.842   1.198   1.819 -0.6176 -1.9698 -0.7922
 6312SOL    HW220378   3.913   1.282   1.714 -1.7299 -0.2192 -0.1766
 6313SOL     OW20379   2.899   0.712   1.042  0.5566  0.2017  0.0809
 6313SOL    HW120380   2.842   0.782   1.074 -0.9862 -0.8667 -0.1831
 6313SOL    HW220381   2.896   0.721   0.947  0.8635  0.1633  0.0689
 6314SOL     OW20382   3.497   1.715   1.448  0.0988  0.0469  0.0432
 6314SOL    HW120383   3.546   1.729   1.529 -2.5237 -2.2937  2.2672
 6314SOL    HW220384   3.419   1.770   1.457 -0.6313 -0.8746 -0.4425
 6315SOL     OW20385   2.173   1.826   0.796  0.2055 -0.1992  0.5782
 6315SOL    HW120386   2.199   1.762   0.863 -0.0691  0.3327  1.2156
 6315SOL    HW220387   2.209   1.792   0.715  0.3341 -1.0010  0.9546
 6316SOL     OW20388   3.514   7.646   0.267 -0.0360 -0.1644 -0.0818
 6316SOL    HW120389   3.423   7.660   0.295 -0.0121  0.8708 -0.5020
 6316SOL    HW220390   3.508   7.636   0.172  0.2031 -0.9565 -0.0223
 6317SOL     OW20391   2.952   2.036   0.747  0.3347  0.1922 -0.3906
 6317SOL    HW120392   2.987   2.052   0.835  0.3846 -2.2392  0.1001
 6317SOL    HW220393   2.873   1.984   0.762 -0.3236  0.7693 -1.7469
 6318SOL     OW20394   3.589   7.647   1.342  0.0898 -0.4664  0.1415
 6318SOL    HW120395   3.595   7.695   1.424  1.1791 -2.1241  1.0783
 6318SOL    HW220396   3.495   7.646   1.321 -0.3012 -0.6569  1.7693
 6319SOL     OW20397   1.366   7.939  12.417  0.4014  0.3039 -0.1780
 6319SOL    HW120398   1.458   7.942  12.442  0.4438  1.8914 -0.4346
 6319SOL    HW220399   1.366   7.952  12.322 -0.0569 -0.4901 -0.2983
 6320SOL     OW20400   2.867   6.824   1.066  0.4022  0.0739 -0.0185
 6320SOL    HW120401   2.927   6.757   1.033 -0.4083 -0.3693 -0.6301
 6320SOL    HW220402   2.794   6.824   1.004  0.8549  2.2785 -0.6503
 6321SOL     OW20403   2.255   7.743   3.010  0.3486  0.4045  0.5041
 6321SOL    HW120404   2.170   7.701   3.010  0.1228  0.8587  1.1337
 6321SOL    HW220405   2.237   7.835   3.026  0.8505  0.7425 -0.6852
 6322SOL     OW20406   2.589   0.747   0.547  0.3009  0.1904  0.9024
 6322SOL    HW120407   2.575   0.767   0.640  0.0843  1.4060  0.6179
 6322SOL    HW220408   2.682   0.728   0.541  0.6495  1.7658  1.0872
 6323SOL     OW20409   4.295   7.937   0.256  0.7343 -0.0185 -0.2705
 6323SOL    HW120410   4.385   7.906   0.247 -0.1815 -2.9274 -0.5407
 6323SOL    HW220411   4.262   7.938   0.166  0.2342  0.0525 -0.0855
 6324SOL     OW20412   1.842   0.890  11.877  0.0753 -0.0266 -0.0836
 6324SOL    HW120413   1.907   0.885  11.947 -0.3633 -2.1226  0.2496
 6324SOL    HW220414   1.805   0.978  11.884  1.3654  0.4499  1.0823
 6325SOL     OW20415   2.891   0.212   0.731  0.3012  0.2174  0.0736
 6325SOL    HW120416   2.968   0.268   0.731  0.6165 -0.1683 -1.4431
 6325SOL    HW220417   2.909   0.145   0.797  1.4560 -0.1046 -0.5464
 6326SOL     OW20418   4.038   2.127   3.324  0.1993 -0.0274 -0.5667
 6326SOL    HW120419   3.973   2.084   3.380  1.1060 -0.2213  0.3672
 6326SOL    HW220420   3.998   2.212   3.303  0.4167  0.6926  1.5976
 6327SOL     OW20421   4.514   1.445   2.140 -0.1756 -0.2170  0.9158
 6327SOL    HW120422   4.594   1.495   2.121 -0.6255  0.4686  0.7932
 6327SOL    HW220423   4.443   1.498   2.105 -0.5426 -1.9309 -1.1525
 6328SOL     OW20424   4.880   0.743   0.757 -0.2904  0.5067  0.4524
 6328SOL    HW120425   4.935   0.715   0.684 -0.1760  0.3586  0.5955
 6328SOL    HW220426   4.930   0.812   0.800 -0.5622  0.9160  0.1131
 6329SOL     OW20427   2.201   0.397   0.652  0.4437 -0.3097  0.1664
 6329SOL    HW120428   2.108   0.415   0.666  0.3108 -0.5237 -0.4379
 6329SOL    HW220429   2.223   0.334   0.720  0.6890  1.3442  1.7236
 6330SOL     OW20430   3.681   2.614   2.143 -0.3837  0.9492  0.2540
 6330SOL    HW120431   3.633   2.622   2.226 -0.0215 -2.3439  0.9021
 6330SOL    HW220432   3.772   2.631   2.166 -0.3295  0.3802  0.4606
 6331SOL     OW20433   2.307   1.143  12.071  0.1926 -0.3085 -0.1065
 6331SOL    HW120434   2.226   1.097  12.050 -0.4677  1.8458 -2.9028
 6331SOL    HW220435   2.283   1.236  12.071  1.9306  0.3029  2.9491
 6332SOL     OW20436   1.920   7.533  11.603 -0.1477  0.9683 -0.3944
 6332SOL    HW120437   1.946   7.613  11.649  1.5290  0.3788 -0.2488
 6332SOL    HW220438   2.003   7.488  11.586 -1.0019 -0.3350 -1.2227
 6333SOL     OW20439   2.530   7.451   0.466 -0.1108  0.1797  0.1694
 6333SOL    HW120440   2.481   7.533   0.459 -0.5425  0.0388  1.3999
 6333SOL    HW220441   2.479   7.398   0.527  1.6068  0.0573  1.5522
 6334SOL     OW20442   3.357   1.619   1.947 -0.0464 -0.4454  0.3374
 6334SOL    HW120443   3.396   1.701   1.917 -1.9867  1.0998  1.7289
 6334SOL    HW220444   3.291   1.598   1.881  0.6947 -1.1198 -0.2048
 6335SOL     OW20445   4.474   7.906   0.722  0.0888  0.4206  0.0452
 6335SOL    HW120446   4.513   7.968   0.660  1.0420 -1.1341 -1.0029
 6335SOL    HW220447   4.549   7.863   0.763 -0.5461  0.3688  1.1768
 6336SOL     OW20448   2.205   1.864  11.854  0.3639 -0.2156  0.4863
 6336SOL    HW120449   2.248   1.814  11.924 -0.3174 -0.1091  0.9965
 6336SOL    HW220450   2.115   1.831  11.854  0.4821 -0.5898 -0.7097
 6337SOL     OW20451   2.159   0.844   1.254  0.0826 -0.2545 -0.2747
 6337SOL    HW120452   2.073   0.883   1.238  0.5305  0.6237 -0.6363
 6337SOL    HW220453   2.140   0.756   1.287 -0.9681  0.3739  0.8590
 6338SOL     OW20454   3.247   0.253  12.206 -0.0890  1.1530  0.0581
 6338SOL    HW120455   3.271   0.160  12.208  0.2735  1.2326  3.0923
 6338SOL    HW220456   3.173   0.260  12.266 -0.0888  2.8476 -0.1002
 6339SOL     OW20457   3.974   3.582   1.391  0.7906  0.2685  0.1493
 6339SOL    HW120458   4.026   3.616   1.318 -1.5133  0.7950 -1.3611
 6339SOL    HW220459   3.987   3.646   1.461  0.2472  1.7534 -1.0486
 6340SOL     OW20460   0.652   7.503   3.193  0.4447  0.1286 -0.3053
 6340SOL    HW120461   0.687   7.592   3.194  0.7546  0.0100  0.3281
 6340SOL    HW220462   0.726   7.448   3.219  0.2495 -0.3114 -0.6770
 6341SOL     OW20463   1.660   7.946  12.455 -0.1124 -0.4202 -0.1132
 6341SOL    HW120464   1.656   7.853  12.479  0.6459 -0.1347  1.2295
 6341SOL    HW220465   1.715   7.949  12.377 -0.3939 -1.1331 -0.3404
 6342SOL     OW20466   2.259   1.614   0.969  0.5401  0.2088  0.2577
 6342SOL    HW120467   2.349   1.610   0.939  1.2658  2.0489  1.9532
 6342SOL    HW220468   2.230   1.523   0.972  1.4206 -0.2746 -2.7788
 6343SOL     OW20469   4.165   1.128   1.475 -0.3375  0.2204  0.2641
 6343SOL    HW120470   4.243   1.158   1.429 -0.0903  1.9360  1.6946
 6343SOL    HW220471   4.187   1.136   1.568 -0.8470 -3.0320  0.7923
 6344SOL     OW20472   2.265   7.930   0.186  0.4229 -0.0875  0.3611
 6344SOL    HW120473   2.358   7.931   0.161  0.4423 -0.1710  0.4259
 6344SOL    HW220474   2.266   7.944   0.281  0.3767 -0.2104  0.3802
 6345SOL     OW20475   4.523   1.876   0.800  0.4097 -0.2662 -0.3524
 6345SOL    HW120476   4.452   1.923   0.844 -1.4452 -1.1799 -2.2172
 6345SOL    HW220477   4.502   1.784   0.812 -0.1841 -0.5455 -3.0445
 6346SOL     OW20478   2.744   6.691   0.502  0.6707 -0.4288  0.2586
 6346SOL    HW120479   2.830   6.681   0.461  0.6653 -0.3824  0.2362
 6346SOL    HW220480   2.755   6.658   0.591  1.0265  0.7221  0.6504
 6347SOL     OW20481   2.086   0.085   0.050 -0.0667  0.4377 -0.4798
 6347SOL    HW120482   2.152   0.034   0.097  0.5224  1.1410 -0.5179
 6347SOL    HW220483   2.022   0.108   0.117  0.6612  1.2588 -0.0330
 6348SOL     OW20484   3.254   7.576   0.935 -0.7505 -0.3844 -0.8561
 6348SOL    HW120485   3.251   7.661   0.980  0.2703 -0.6765 -0.2154
 6348SOL    HW220486   3.179   7.528   0.970  0.2516 -0.7557  0.8768
 6349SOL     OW20487   2.350   0.166   0.413 -0.2474  0.2287 -0.5070
 6349SOL    HW120488   2.302   0.248   0.423  3.0793  2.3083  0.1564
 6349SOL    HW220489   2.314   0.109   0.480 -1.9057  1.5372 -0.2164
 6350SOL     OW20490   2.293   1.178   0.780  0.6391  0.4211 -0.2907
 6350SOL    HW120491   2.348   1.185   0.702  0.3253 -0.2733 -0.5818
 6350SOL    HW220492   2.207   1.209   0.750  0.3344 -0.5135 -0.4296
 6351SOL     OW20493   3.330   2.403   2.552  0.2932 -0.8050  0.4099
 6351SOL    HW120494   3.251   2.410   2.500 -0.7785  0.7694  2.1438
 6351SOL    HW220495   3.398   2.444   2.498 -0.3670 -0.8759 -0.4949
 6352SOL     OW20496   2.615   6.857   0.887 -0.1214 -0.4014  0.6011
 6352SOL    HW120497   2.639   6.922   0.821  1.2368 -1.3582  0.1059
 6352SOL    HW220498   2.553   6.902   0.944 -1.0519  0.5656 -1.0951
 6353SOL     OW20499   2.758   7.337   2.483  0.3191  0.3725  0.0695
 6353SOL    HW120500   2.720   7.417   2.520 -0.5070 -0.4347  1.0675
 6353SOL    HW220501   2.843   7.329   2.525 -0.6992 -0.6526  2.1070
 6354SOL     OW20502   2.009   0.342   0.350  0.2491 -0.0614  0.0892
 6354SOL    HW120503   1.938   0.372   0.292  0.3832  0.7604  0.3425
 6354SOL    HW220504   2.088   0.378   0.310  0.4396 -0.2915  0.2625
 6355SOL     OW20505   0.955   7.868   0.513 -0.8992  0.2706 -0.2416
 6355SOL    HW120506   1.037   7.915   0.524 -1.3279  1.0503 -0.2531
 6355SOL    HW220507   0.974   7.778   0.538 -0.0721  0.4689 -0.1551
 6356SOL     OW20508   3.321   1.863   1.000  0.0754  0.0111 -0.3801
 6356SOL    HW120509   3.414   1.853   0.978  0.8777  3.1319  1.0641
 6356SOL    HW220510   3.292   1.774   1.020  2.3626 -1.2371 -2.1474
 6357SOL     OW20511   1.860   0.214   1.768 -0.1153  0.5112 -0.3544
 6357SOL    HW120512   1.912   0.187   1.692 -0.5785 -1.3812 -0.0554
 6357SOL    HW220513   1.806   0.286   1.737  1.0976  1.0537 -1.2742
 6358SOL     OW20514   1.207   0.783   2.763  0.6696 -0.0360 -0.1020
 6358SOL    HW120515   1.279   0.832   2.803 -1.2932  0.8724  2.5701
 6358SOL    HW220516   1.207   0.698   2.809 -0.0691  0.0585  0.0900
 6359SOL     OW20517   2.419   7.652   1.708 -0.3730  0.0918  0.4933
 6359SOL    HW120518   2.328   7.632   1.731 -0.0563 -1.0475  0.8185
 6359SOL    HW220519   2.459   7.567   1.691  0.1224  0.6931 -1.6868
 6360SOL     OW20520   0.782   1.450   2.480  0.4906 -0.2498  0.6483
 6360SOL    HW120521   0.836   1.374   2.501 -0.1613 -0.8751  0.1408
 6360SOL    HW220522   0.777   1.450   2.385  1.7045  1.3259  0.5542
 6361SOL     OW20523   3.566   1.680   3.290  0.4893 -0.2828  0.2658
 6361SOL    HW120524   3.653   1.706   3.259  0.6583  0.8206  1.5724
 6361SOL    HW220525   3.508   1.751   3.262  0.2582 -0.3399  0.5934
 6362SOL     OW20526   2.020   1.621   1.707  0.8133  0.2205  0.0229
 6362SOL    HW120527   2.055   1.560   1.642  1.1940 -1.7061  1.9121
 6362SOL    HW220528   2.096   1.650   1.757  0.5840  2.0236 -0.5822
 6363SOL     OW20529   4.582   0.003   3.401 -0.5145  0.4262 -0.3928
 6363SOL    HW120530   4.539  -0.019   3.318 -0.2449 -1.0488 -0.1815
 6363SOL    HW220531   4.639   0.076   3.380 -2.2209  1.6552 -0.9463
 6364SOL     OW20532   2.618   1.307   2.084 -0.0830  0.3254  0.3702
 6364SOL    HW120533   2.545   1.257   2.119  0.5460 -0.4879  0.5619
 6364SOL    HW220534   2.682   1.241   2.057  0.1878  0.9801 -0.6928
 6365SOL     OW20535   2.122   1.633   7.663 -0.1878 -0.1431  0.1142
 6365SOL    HW120536   2.148   1.550   7.623 -1.2148  0.1019 -1.1373
 6365SOL    HW220537   2.181   1.698   7.623  0.2318 -0.1921  0.6532
 6366SOL     OW20538   2.896   1.706   0.800  0.0943 -0.0480  0.2617
 6366SOL    HW120539   2.815   1.756   0.807 -0.8436 -1.6558  1.2062
 6366SOL    HW220540   2.918   1.682   0.890  0.7917 -0.9042 -0.1223
 6367SOL     OW20541   2.984   1.592   3.147  0.6105  0.3259 -0.3842
 6367SOL    HW120542   2.985   1.618   3.239  0.2623 -0.5980 -0.1073
 6367SOL    HW220543   2.910   1.639   3.110  1.6492  1.8784 -0.5682
 6368SOL     OW20544   2.906   1.372   2.047 -0.0081  0.0825  0.1024
 6368SOL    HW120545   2.917   1.407   1.959  0.4496  0.6468  0.3767
 6368SOL    HW220546   2.898   1.278   2.035  0.3153  0.1316 -0.5227
 6369SOL     OW20547   0.635   4.076   3.087  0.3249 -0.0124 -0.2196
 6369SOL    HW120548   0.675   4.045   3.006 -1.5380 -1.1606 -0.7748
 6369SOL    HW220549   0.603   3.996   3.129 -0.1846  0.7295  0.8514
 6370SOL     OW20550   2.828   0.286   2.382  0.4988 -0.1550  0.0088
 6370SOL    HW120551   2.855   0.374   2.410  0.6815 -0.8170  2.1525
 6370SOL    HW220552   2.761   0.261   2.445  0.0166 -1.3316 -0.9424
 6371SOL     OW20553   1.702   2.213   0.778  0.6269  0.0943 -0.5917
 6371SOL    HW120554   1.738   2.174   0.698  0.7462 -4.5251  1.4026
 6371SOL    HW220555   1.777   2.255   0.819  0.7421  1.7821 -2.3353
 6372SOL     OW20556   3.890   1.035   2.207  0.0666  0.5100 -0.0933
 6372SOL    HW120557   3.850   1.012   2.123 -0.0491 -1.5121  0.4664
 6372SOL    HW220558   3.885   1.130   2.211 -3.0926  0.4820 -0.8609
 6373SOL     OW20559   1.789   1.981   1.490  0.5152  0.1057 -0.8289
 6373SOL    HW120560   1.884   1.973   1.491  0.6009  0.4522  1.8942
 6373SOL    HW220561   1.760   1.920   1.422  2.6366 -0.4383 -1.3005
 6374SOL     OW20562   1.752   1.677  12.495 -1.2103 -0.4344 -0.0619
 6374SOL    HW120563   1.674   1.706  12.542  0.3206  0.9494  1.8305
 6374SOL    HW220564   1.782   1.599  12.544 -0.6124 -0.0757  0.1608
 6375SOL     OW20565   2.984   1.752   2.733  0.0911  0.2635 -0.6765
 6375SOL    HW120566   3.002   1.739   2.826  1.9912 -0.7416 -1.1471
 6375SOL    HW220567   2.892   1.779   2.730 -0.3703 -0.9229  1.3780
 6376SOL     OW20568   3.420   0.364   1.762  0.2011 -0.3876 -0.3912
 6376SOL    HW120569   3.359   0.369   1.836  0.7377  0.0030  0.0352
 6376SOL    HW220570   3.388   0.291   1.709  0.3012 -1.2340  0.6789
 6377SOL     OW20571   3.209   6.803   4.462 -0.1678 -0.0649  0.3866
 6377SOL    HW120572   3.279   6.857   4.499 -0.8959  0.0170  1.7211
 6377SOL    HW220573   3.129   6.840   4.498 -0.7445 -1.4448  0.5769
 6378SOL     OW20574   2.101   7.287   2.822 -0.3876  0.2074 -0.0922
 6378SOL    HW120575   2.122   7.324   2.908 -0.8475 -0.6932  0.4235
 6378SOL    HW220576   2.058   7.359   2.776 -1.4036  0.3122  0.9510
 6379SOL     OW20577   1.890   3.593   0.915  0.6273  0.2655 -0.1162
 6379SOL    HW120578   1.928   3.535   0.981  1.7656 -0.2217 -1.1665
 6379SOL    HW220579   1.795   3.589   0.932  0.8120 -0.6843  0.8087
 6380SOL     OW20580   2.384   2.043   1.019  0.1032 -0.1644 -0.1482
 6380SOL    HW120581   2.383   2.127   0.972  0.2353  0.8355  1.5657
 6380SOL    HW220582   2.333   1.984   0.963  1.5451  0.5160 -2.2991
 6381SOL     OW20583   2.354   7.749   2.217 -0.1595  0.1716 -0.2502
 6381SOL    HW120584   2.379   7.703   2.297  0.6493 -1.1450 -1.2186
 6381SOL    HW220585   2.331   7.837   2.247  0.6971 -0.0987  1.3477
 6382SOL     OW20586   3.256   1.216   1.427 -0.4323 -0.2215 -0.8151
 6382SOL    HW120587   3.238   1.171   1.510 -0.0474  0.5883 -0.2733
 6382SOL    HW220588   3.172   1.220   1.383 -0.9225  0.5149  0.1514
 6383SOL     OW20589   2.989   0.131   3.316  0.1072 -0.3329 -0.0120
 6383SOL    HW120590   2.990   0.038   3.340 -0.4320 -0.3874 -0.1747
 6383SOL    HW220591   3.056   0.171   3.372  0.1475 -0.7686  0.2613
 6384SOL     OW20592   3.052   1.398   2.272 -0.2345 -0.0443  0.3897
 6384SOL    HW120593   2.992   1.381   2.200  1.2144  3.1117 -1.8148
 6384SOL    HW220594   3.136   1.364   2.242  0.1813  0.3542  1.0573
 6385SOL     OW20595   2.182   1.040   1.844  0.0253  0.0011  0.3593
 6385SOL    HW120596   2.177   0.974   1.774 -0.4830 -0.5777  0.9237
 6385SOL    HW220597   2.267   1.025   1.885 -0.4529 -0.9276  1.0600
 6386SOL     OW20598   2.713   7.979   2.316 -0.5210 -0.2140  0.6373
 6386SOL    HW120599   2.655   8.016   2.383 -0.4687  0.8379  0.1238
 6386SOL    HW220600   2.658   7.968   2.239 -0.2875 -0.2210  0.4686
 6387SOL     OW20601   4.210   2.415   1.815 -0.0813  0.0773 -0.1720
 6387SOL    HW120602   4.214   2.374   1.902  1.1851 -0.1732 -0.3307
 6387SOL    HW220603   4.214   2.342   1.754  0.5888  0.3361 -0.4473
 6388SOL     OW20604   2.924   7.163   1.113  0.2025 -0.4383 -0.1037
 6388SOL    HW120605   3.013   7.177   1.145  0.3963  0.3852 -0.9513
 6388SOL    HW220606   2.935   7.108   1.035 -0.1182 -1.0643  0.2815
 6389SOL     OW20607   3.381   0.984   4.668  0.0771  0.3097  0.5047
 6389SOL    HW120608   3.348   1.015   4.753  0.5458  0.6335  0.5735
 6389SOL    HW220609   3.306   0.991   4.609  0.3407  2.2456  0.3468
 6390SOL     OW20610   2.170   1.387   1.589  0.2734  0.3182  0.2257
 6390SOL    HW120611   2.194   1.445   1.516  1.3617 -0.7319 -0.2820
 6390SOL    HW220612   2.227   1.311   1.579  1.2811  0.6360  2.8569
 6391SOL     OW20613   4.121   6.805   1.902  0.0932  0.1412 -0.0575
 6391SOL    HW120614   4.152   6.743   1.968 -0.3017  1.0371  0.9983
 6391SOL    HW220615   4.042   6.765   1.866 -1.3467  0.8608  2.0566
 6392SOL     OW20616   3.692   0.885   3.287  0.0482  0.9374  0.3368
 6392SOL    HW120617   3.738   0.801   3.294 -0.8139  0.4639  0.5770
 6392SOL    HW220618   3.669   0.893   3.195  0.6118  1.1747  0.2174
 6393SOL     OW20619   3.158   0.461   1.556 -0.1795  0.2822 -0.6160
 6393SOL    HW120620   3.096   0.530   1.580 -1.0410 -0.6236 -0.1309
 6393SOL    HW220621   3.167   0.408   1.636  1.1595  0.3346 -0.7047
 6394SOL     OW20622   2.552   1.384   1.103 -0.1973  0.1668 -0.0410
 6394SOL    HW120623   2.553   1.419   1.014  1.1188  1.2336  0.3483
 6394SOL    HW220624   2.474   1.422   1.144 -0.1755  0.6074 -0.4049
 6395SOL     OW20625   2.921   3.261   3.795  0.0575  0.6622 -0.1489
 6395SOL    HW120626   2.998   3.307   3.829  1.0217  0.0868 -1.4338
 6395SOL    HW220627   2.867   3.245   3.871  1.1629  1.1772  0.7848
 6396SOL     OW20628   0.269   6.017   3.661 -0.2215  0.4672  0.1734
 6396SOL    HW120629   0.290   6.102   3.700 -1.2437  0.5743  0.5157
 6396SOL    HW220630   0.232   6.039   3.576 -2.4132  0.5057  1.0866
 6397SOL     OW20631   2.995   0.219   5.104 -0.1080 -0.1794  0.8460
 6397SOL    HW120632   3.068   0.274   5.075 -1.8194  2.0021  0.3912
 6397SOL    HW220633   3.028   0.174   5.182  2.1285 -0.3100 -0.1104
 6398SOL     OW20634   1.880   1.447   4.272  1.0607 -0.3929  0.4164
 6398SOL    HW120635   1.875   1.431   4.178  0.1469  0.6488  0.2649
 6398SOL    HW220636   1.799   1.410   4.307  1.4608 -0.8961  0.8207
 6399SOL     OW20637   1.031   7.160   3.879  0.4037 -0.4733 -0.1964
 6399SOL    HW120638   1.095   7.173   3.950 -1.6470  3.6283  1.2155
 6399SOL    HW220639   1.060   7.219   3.810 -1.2216  0.7135  0.0829
 6400SOL     OW20640   3.651   6.643   1.207 -0.5451  0.2068  0.2712
 6400SOL    HW120641   3.605   6.561   1.223 -1.3990  0.0277 -2.6867
 6400SOL    HW220642   3.601   6.709   1.256 -1.1447 -0.6895  0.8833
 6401SOL     OW20643   1.075   1.836   2.574  0.1234 -0.5171 -0.7515
 6401SOL    HW120644   0.986   1.805   2.560  0.1653 -0.6521 -0.7171
 6401SOL    HW220645   1.124   1.758   2.600 -0.3038  0.0129  1.8968
 6402SOL     OW20646   1.828   2.565   0.476 -0.2284  0.1256  0.7639
 6402SOL    HW120647   1.917   2.585   0.504 -0.0787 -0.8625  1.0345
 6402SOL    HW220648   1.831   2.573   0.380  1.1290 -3.2801  0.3612
 6403SOL     OW20649   0.751   7.311   2.785 -0.6036 -0.1054  0.0753
 6403SOL    HW120650   0.720   7.292   2.873  0.8323 -0.1063  0.6219
 6403SOL    HW220651   0.796   7.395   2.794  1.3290 -1.0564 -0.1628
 6404SOL     OW20652   3.038   7.134   3.425 -0.0895  0.5418  0.1355
 6404SOL    HW120653   2.995   7.057   3.462  0.1321 -0.0535 -0.7910
 6404SOL    HW220654   3.005   7.139   3.335  0.2035  1.2967  0.0613
 6405SOL     OW20655   1.805   7.528   0.165 -0.4460 -0.0540 -0.1666
 6405SOL    HW120656   1.734   7.521   0.229 -1.2562  0.8191 -0.9467
 6405SOL    HW220657   1.843   7.615   0.180 -0.3475 -0.0244 -0.5889
 6406SOL     OW20658   0.921   0.209   2.832 -0.6879 -0.0151  0.1982
 6406SOL    HW120659   0.854   0.276   2.819 -0.1454  0.3740 -0.6118
 6406SOL    HW220660   0.942   0.177   2.744 -0.0106 -0.3313  0.4639
 6407SOL     OW20661   1.596   1.454   3.522  0.1574  0.0737 -0.1376
 6407SOL    HW120662   1.502   1.441   3.536  0.1293 -0.0555 -0.4335
 6407SOL    HW220663   1.638   1.393   3.583  0.0563  0.5197  0.3799
 6408SOL     OW20664   3.104   0.883   3.756 -0.1656  0.3484  0.0795
 6408SOL    HW120665   3.196   0.867   3.734 -0.2396 -0.4851  0.3248
 6408SOL    HW220666   3.078   0.956   3.699  0.9440  1.3375  0.7922
 6409SOL     OW20667   3.575   0.979   1.980  0.0949 -0.5305 -0.5067
 6409SOL    HW120668   3.492   0.968   1.933 -0.0741 -1.4376 -0.0196
 6409SOL    HW220669   3.633   0.914   1.940  0.7908  0.5517 -1.3045
 6410SOL     OW20670   1.362   1.648   1.477  0.2475 -0.0742 -0.3309
 6410SOL    HW120671   1.351   1.708   1.550 -0.4066 -0.6541  0.0570
 6410SOL    HW220672   1.408   1.699   1.410 -0.1611  0.7995  0.0472
 6411SOL     OW20673   1.153   5.525   1.007  0.2070 -0.6098 -0.5007
 6411SOL    HW120674   1.064   5.510   0.975  0.3748 -0.8605 -0.8584
 6411SOL    HW220675   1.175   5.444   1.055  0.1972 -0.4979 -0.3063
 6412SOL     OW20676   4.353   1.142   1.700 -0.1304 -0.5463 -0.0176
 6412SOL    HW120677   4.352   1.238   1.704  0.4527 -0.5472  0.3227
 6412SOL    HW220678   4.359   1.114   1.792  0.6540 -0.8821 -0.1593
 6413SOL     OW20679   1.503   1.191   3.091 -0.2049 -0.6919 -0.0731
 6413SOL    HW120680   1.560   1.160   3.162  0.8957  0.8936 -0.2130
 6413SOL    HW220681   1.507   1.286   3.097 -2.5633 -0.5315 -0.3660
 6414SOL     OW20682   1.277   1.398   1.363  0.0917 -0.5933  0.0709
 6414SOL    HW120683   1.349   1.353   1.407  0.4664  0.4374  0.5400
 6414SOL    HW220684   1.297   1.491   1.372 -1.6203 -0.2515  0.7658
 6415SOL     OW20685   0.862   7.158   2.314 -0.4881 -0.7468  0.2977
 6415SOL    HW120686   0.900   7.237   2.353 -1.6358  0.7969 -1.5646
 6415SOL    HW220687   0.928   7.130   2.250 -1.1974  0.3253 -0.9573
 6416SOL     OW20688   1.464   2.324   1.181  0.1433 -0.2078 -0.1158
 6416SOL    HW120689   1.440   2.410   1.218 -2.1114 -0.4923 -0.7712
 6416SOL    HW220690   1.559   2.320   1.191  0.2748  2.1899  0.3113
 6417SOL     OW20691   2.041   2.081   0.985 -0.1774 -0.2955  0.7804
 6417SOL    HW120692   2.031   2.165   0.939 -2.1309 -0.9586 -0.1354
 6417SOL    HW220693   2.073   2.104   1.072 -1.5324  1.5029  0.8530
 6418SOL     OW20694   3.738   1.216   1.446 -0.9007  0.2451 -0.1546
 6418SOL    HW120695   3.760   1.267   1.524 -1.3830  0.2353 -0.0117
 6418SOL    HW220696   3.657   1.254   1.414 -0.9252 -0.0213 -0.4149
 6419SOL     OW20697   1.311   1.904   1.986 -0.1377  0.4791  0.5503
 6419SOL    HW120698   1.258   1.982   2.004 -0.4565  1.0603 -2.3529
 6419SOL    HW220699   1.400   1.937   1.981 -0.2869  0.7489 -0.8082
 6420SOL     OW20700   1.715   7.301   2.694 -0.1110 -0.0267 -0.0284
 6420SOL    HW120701   1.778   7.320   2.764  0.7928 -0.3485 -0.7442
 6420SOL    HW220702   1.632   7.333   2.728  0.9119  3.2097 -0.2217
 6421SOL     OW20703   1.876   0.049   3.663 -0.6759 -0.2754 -0.0599
 6421SOL    HW120704   1.888   0.030   3.570  3.2156 -4.0358  0.9144
 6421SOL    HW220705   1.789   0.015   3.684 -0.8549 -1.0987 -1.9587
 6422SOL     OW20706   1.585   1.484   2.492 -0.4122 -0.4581  0.2390
 6422SOL    HW120707   1.665   1.447   2.529  1.4862  1.6591 -1.5053
 6422SOL    HW220708   1.575   1.569   2.535  0.6847  1.1239 -2.3922
 6423SOL     OW20709   1.259   7.224   2.360 -0.3782  0.6407 -0.3668
 6423SOL    HW120710   1.346   7.215   2.400 -0.4058  2.3076  0.1498
 6423SOL    HW220711   1.251   7.148   2.303  1.2858  0.2765 -0.1736
 6424SOL     OW20712   1.318   1.366   3.837 -0.1727 -0.3643 -0.1222
 6424SOL    HW120713   1.362   1.451   3.833  2.2971 -1.4630  0.9707
 6424SOL    HW220714   1.373   1.309   3.784 -0.6267 -1.6935  0.7732
 6425SOL     OW20715   4.172   0.978   2.173  0.4534 -0.0286 -0.1366
 6425SOL    HW120716   4.190   0.898   2.222 -0.0364  0.4488  0.8446
 6425SOL    HW220717   4.077   0.977   2.160  0.7643 -1.4584 -3.4125
 6426SOL     OW20718   1.909   0.996   1.700  0.0068  0.7675 -0.0547
 6426SOL    HW120719   1.911   0.957   1.613 -0.0902 -0.9220  0.6607
 6426SOL    HW220720   1.897   1.090   1.685  2.4929  0.8589 -1.9405
 6427SOL     OW20721   3.097   0.559   2.573  0.2053 -0.0344  0.0052
 6427SOL    HW120722   3.189   0.577   2.592  0.2735  1.0231 -1.1372
 6427SOL    HW220723   3.075   0.483   2.626  1.7586 -0.3387  0.2516
 6428SOL     OW20724   1.827   7.768   3.759 -0.1087  0.1142  0.1362
 6428SOL    HW120725   1.883   7.822   3.814  0.8052 -0.3313 -0.3221
 6428SOL    HW220726   1.845   7.678   3.787  1.3043 -0.2188 -1.6591
 6429SOL     OW20727   2.646   0.295   2.594 -0.1397  0.5029  0.4703
 6429SOL    HW120728   2.694   0.309   2.676 -0.0531  2.2958  0.1614
 6429SOL    HW220729   2.591   0.373   2.585  1.2557  1.3142 -2.0927
 6430SOL     OW20730   0.927   6.874   3.520  0.2578  0.4898  0.9390
 6430SOL    HW120731   0.939   6.817   3.444  0.2962 -1.4094  2.3016
 6430SOL    HW220732   0.995   6.942   3.510  1.2981 -0.6253  0.0883
 6431SOL     OW20733   2.656   0.622   0.272 -0.6272  0.0442 -0.5315
 6431SOL    HW120734   2.676   0.716   0.266 -0.2770 -0.0364 -0.6415
 6431SOL    HW220735   2.715   0.590   0.340 -1.4419  0.0910  0.2125
 6432SOL     OW20736   2.247   7.494   3.567 -0.5994 -0.1184 -0.6707
 6432SOL    HW120737   2.166   7.488   3.618  0.8082  0.6151  1.8078
 6432SOL    HW220738   2.300   7.420   3.596 -0.1382 -0.3082 -1.9084
 6433SOL     OW20739   3.632   0.684   2.495  0.0375  0.3260 -0.9844
 6433SOL    HW120740   3.708   0.677   2.552 -1.7836 -0.5822  1.5152
 6433SOL    HW220741   3.630   0.775   2.467  1.2614  0.6939  0.0584
 6434SOL     OW20742   2.864   6.676   2.317  0.2671 -0.1304 -0.9100
 6434SOL    HW120743   2.836   6.696   2.227 -1.7606 -0.9248 -0.5131
 6434SOL    HW220744   2.960   6.676   2.313  0.2286  0.2794 -2.9646
 6435SOL     OW20745   3.571   1.974   3.623 -0.0101  0.5199  0.4177
 6435SOL    HW120746   3.546   2.052   3.672 -0.7694  0.9718 -0.6375
 6435SOL    HW220747   3.582   2.005   3.533  1.5695 -0.2408  0.3153
 6436SOL     OW20748   2.819   6.130   1.705 -0.6273 -0.1564 -0.1728
 6436SOL    HW120749   2.850   6.131   1.796 -1.6145  2.8372  0.2677
 6436SOL    HW220750   2.881   6.186   1.658  0.5146 -2.5530 -1.6821
 6437SOL     OW20751   3.151   0.788   4.020  0.3706 -0.0713 -0.0461
 6437SOL    HW120752   3.087   0.840   4.068  1.2474 -0.1672  1.2711
 6437SOL    HW220753   3.168   0.839   3.940 -1.5922 -0.2319 -0.6108
 6438SOL     OW20754   2.030   7.760   1.870  0.3347  0.3833  0.3666
 6438SOL    HW120755   2.015   7.806   1.952  0.2421  0.4860  0.2927
 6438SOL    HW220756   1.956   7.785   1.815 -0.2674 -0.6317  0.6647
 6439SOL     OW20757   3.037   0.088   2.343 -0.2348  0.5914 -0.2194
 6439SOL    HW120758   2.949   0.126   2.341 -0.9922 -0.9604  1.2746
 6439SOL    HW220759   3.090   0.152   2.391 -1.0782  0.5725  0.7571
 6440SOL     OW20760   1.888   7.954   4.324  0.4386  0.1687 -0.1414
 6440SOL    HW120761   1.844   7.918   4.401  1.3876  0.0380  0.3523
 6440SOL    HW220762   1.981   7.955   4.348  0.5596  1.8315 -0.5957
 6441SOL     OW20763   4.771   1.420   2.364  0.0672  0.1003  0.3471
 6441SOL    HW120764   4.788   1.494   2.306  0.2184 -0.9196 -0.9331
 6441SOL    HW220765   4.827   1.436   2.440  2.2058 -0.0795 -1.1134
 6442SOL     OW20766   2.225   1.359   1.018 -0.5168  0.5265 -0.5646
 6442SOL    HW120767   2.258   1.303   0.947  1.7253  1.5810 -0.4552
 6442SOL    HW220768   2.198   1.298   1.086 -1.5685 -0.4817 -1.8237
 6443SOL     OW20769   3.901   1.897   5.447 -0.3983  0.0559  0.0857
 6443SOL    HW120770   3.863   1.972   5.493 -2.3360 -0.6385 -0.2696
 6443SOL    HW220771   3.853   1.892   5.365  0.2261 -1.1247 -0.2340
 6444SOL     OW20772   2.852   1.286   2.503  0.4770  0.5623 -0.4038
 6444SOL    HW120773   2.917   1.297   2.434  0.8067  0.9192 -0.0412
 6444SOL    HW220774   2.874   1.353   2.568  1.5121 -1.1092  1.0661
 6445SOL     OW20775   2.444   1.419   1.879  0.0600  0.2488  0.0633
 6445SOL    HW120776   2.518   1.456   1.831  0.2519  1.0093  0.9013
 6445SOL    HW220777   2.480   1.398   1.965 -0.8788  1.4819  0.7968
 6446SOL     OW20778   2.319   0.042   0.642  0.6792  0.2606 -0.0360
 6446SOL    HW120779   2.399  -0.010   0.650  0.5564  0.1420  0.4879
 6446SOL    HW220780   2.302   0.073   0.731 -1.2433 -1.8138  0.3938
 6447SOL     OW20781   2.669   1.073   0.831  0.3799 -0.1061  0.3960
 6447SOL    HW120782   2.583   1.039   0.855  0.8044 -0.6053  1.2557
 6447SOL    HW220783   2.690   1.031   0.748  0.5459 -1.3600  1.0479
 6448SOL     OW20784   1.820   1.994   2.590  0.0977 -0.6816 -0.4748
 6448SOL    HW120785   1.731   1.988   2.624  0.5482 -2.0483  0.5770
 6448SOL    HW220786   1.852   1.904   2.593  1.0555 -0.4311 -2.1596
 6449SOL     OW20787   2.811   1.013   3.077 -0.3028  0.0953  1.0256
 6449SOL    HW120788   2.725   0.975   3.093 -0.6686  0.7005  0.5701
 6449SOL    HW220789   2.808   1.099   3.119  0.1377  0.0536  1.1486
 6450SOL     OW20790   1.547   2.424   1.968 -0.2890  0.2142 -0.5938
 6450SOL    HW120791   1.474   2.481   1.993  0.2588  0.5216  0.3526
 6450SOL    HW220792   1.522   2.389   1.882 -2.0237 -0.5226  0.1693
 6451SOL     OW20793   3.194   1.960   2.979  0.0072  0.0569  0.4567
 6451SOL    HW120794   3.179   1.877   2.935 -0.0035  1.2883 -2.0701
 6451SOL    HW220795   3.107   2.000   2.985  0.1792  0.4417  0.4201
 6452SOL     OW20796   3.226   1.286   1.172  0.4635  0.0057  0.2913
 6452SOL    HW120797   3.215   1.334   1.255 -0.9122  1.3275 -0.5968
 6452SOL    HW220798   3.161   1.216   1.176  0.7184 -0.2212  0.5148
 6453SOL     OW20799   1.841   6.847   4.223 -0.1962 -0.2012  0.2079
 6453SOL    HW120800   1.865   6.760   4.256  1.6767  0.7471  1.5643
 6453SOL    HW220801   1.862   6.844   4.130 -0.6613 -1.3524  0.1206
 6454SOL     OW20802   4.202   1.223   2.309  0.5411 -0.4229 -0.0611
 6454SOL    HW120803   4.295   1.236   2.331 -0.1262  1.7690  1.9056
 6454SOL    HW220804   4.201   1.145   2.254  3.6319 -0.0735 -0.8032
 6455SOL     OW20805   2.797   7.728   3.133 -0.3621 -0.3332  0.0996
 6455SOL    HW120806   2.852   7.750   3.057  0.3713  0.3423  0.8041
 6455SOL    HW220807   2.752   7.810   3.155 -0.9882 -0.6623  0.0731
 6456SOL     OW20808   1.889   6.627   3.711  0.1383  0.4189  0.1287
 6456SOL    HW120809   1.838   6.709   3.712 -0.0778  0.2890 -0.1995
 6456SOL    HW220810   1.975   6.652   3.743  0.3227  0.9383 -0.7395
 6457SOL     OW20811   4.665   0.223   3.233  0.2067  0.6418 -0.2574
 6457SOL    HW120812   4.737   0.285   3.246 -0.0649  0.6892  1.2796
 6457SOL    HW220813   4.586   0.275   3.243 -0.0254  0.2780 -0.1505
 6458SOL     OW20814   2.108   2.582   1.747  0.0830  0.1620 -0.1863
 6458SOL    HW120815   2.144   2.554   1.662 -0.7534  1.4502 -1.0029
 6458SOL    HW220816   2.179   2.566   1.809  0.9426 -0.2595 -1.2287
 6459SOL     OW20817   2.677   2.223   2.364  0.2988 -0.4133  0.3931
 6459SOL    HW120818   2.756   2.270   2.391 -0.3198  0.6424  0.4621
 6459SOL    HW220819   2.706   2.167   2.292  0.8137  1.2403 -0.7793
 6460SOL     OW20820   3.401   7.930   3.703 -0.3793 -0.0542 -0.6219
 6460SOL    HW120821   3.490   7.907   3.730 -0.5848  0.3320  0.4461
 6460SOL    HW220822   3.364   7.849   3.669  0.3252 -0.2566 -0.9282
 6461SOL     OW20823   2.438   2.320   3.308  0.1783  0.7928  0.1464
 6461SOL    HW120824   2.514   2.263   3.298  0.2942  0.8176  0.8654
 6461SOL    HW220825   2.429   2.363   3.223  0.6869  0.4411 -0.0865
 6462SOL     OW20826   4.250   1.564   1.971  0.0678  0.0414 -0.3031
 6462SOL    HW120827   4.178   1.624   1.951 -0.8112 -0.4824  1.1363
 6462SOL    HW220828   4.216   1.477   1.950  0.5274 -0.1567 -0.2495
 6463SOL     OW20829   3.778   0.302   1.836 -0.1131 -0.3382 -0.0449
 6463SOL    HW120830   3.857   0.349   1.811 -0.9104  1.2255  0.2675
 6463SOL    HW220831   3.806   0.243   1.906  0.7132  0.4537  0.3075
 6464SOL     OW20832   2.523   0.772   3.823  0.5836  0.0454  0.0112
 6464SOL    HW120833   2.528   0.716   3.900  1.6445 -0.0252 -0.1014
 6464SOL    HW220834   2.550   0.859   3.854  0.4877  0.1376 -0.1590
 6465SOL     OW20835   3.674   1.854   3.879 -0.0723 -0.3206  0.4414
 6465SOL    HW120836   3.631   1.905   3.811  2.1294 -2.1311 -2.6236
 6465SOL    HW220837   3.603   1.808   3.924 -1.6849  1.7133  0.1120
 6466SOL     OW20838   4.330   1.938   1.994 -0.1322 -0.1108 -0.2734
 6466SOL    HW120839   4.303   1.852   1.962  0.9365 -0.2650 -0.8137
 6466SOL    HW220840   4.425   1.939   1.983 -0.1401  1.1886 -0.4074
 6467SOL     OW20841   3.886   7.041   1.909  0.2089 -0.3459  0.2985
 6467SOL    HW120842   3.930   6.956   1.913  0.0712 -0.5038 -1.2147
 6467SOL    HW220843   3.793   7.021   1.907  0.1868 -0.2010 -0.5878
 6468SOL     OW20844   0.226   6.996   2.813 -0.2135  0.0347 -0.6569
 6468SOL    HW120845   0.157   7.044   2.766 -0.1375  0.2806 -0.5165
 6468SOL    HW220846   0.302   7.055   2.811 -0.6567  0.7291  1.1279
 6469SOL     OW20847   2.334   0.504   1.829 -0.0146 -0.7366 -0.2586
 6469SOL    HW120848   2.271   0.434   1.815 -0.4945 -0.9002  2.2017
 6469SOL    HW220849   2.377   0.482   1.912 -0.9836  2.3608  1.2506
 6470SOL     OW20850   1.270   1.154   2.110  0.1057 -0.0926 -0.1360
 6470SOL    HW120851   1.199   1.191   2.058  1.1763  0.0140 -1.5618
 6470SOL    HW220852   1.273   1.062   2.084 -0.6474 -0.5376  1.2491
 6471SOL     OW20853   1.713   7.584   1.832  0.3848  0.3466 -0.0655
 6471SOL    HW120854   1.754   7.647   1.891  1.0918 -0.5641  0.4400
 6471SOL    HW220855   1.681   7.637   1.759 -0.4259  1.4852  1.0686
 6472SOL     OW20856   0.211   0.804   3.682  0.3489  0.0448  0.3430
 6472SOL    HW120857   0.178   0.892   3.697  1.1923  0.5162 -0.4490
 6472SOL    HW220858   0.153   0.768   3.615 -1.2827 -0.8035  2.1021
 6473SOL     OW20859   2.846   1.049   2.333 -0.1150 -0.1002  0.5522
 6473SOL    HW120860   2.805   1.110   2.394 -0.9447 -0.1509  0.0555
 6473SOL    HW220861   2.893   0.987   2.389 -0.2150  0.3171  1.1031
 6474SOL     OW20862   1.194   7.940   2.434 -0.2972 -0.1816  0.1675
 6474SOL    HW120863   1.112   7.980   2.461 -0.0647 -0.1041  0.7800
 6474SOL    HW220864   1.259   7.975   2.494  0.5879  1.4008 -1.6274
 6475SOL     OW20865   3.441   1.317   2.708  0.0071  0.5769  0.1161
 6475SOL    HW120866   3.400   1.397   2.675 -0.7486  0.1434 -0.0286
 6475SOL    HW220867   3.474   1.273   2.630 -2.3459 -0.7650 -0.2436
 6476SOL     OW20868   0.635   5.726   1.771  0.3598  0.4755 -0.3571
 6476SOL    HW120869   0.631   5.702   1.863  0.5884  0.1142 -0.4405
 6476SOL    HW220870   0.630   5.822   1.771  2.4288  0.6297  0.1604
 6477SOL     OW20871   4.304   0.592   0.135 -0.0703  0.4532  0.1878
 6477SOL    HW120872   4.294   0.507   0.179  0.2441  0.9099  1.1797
 6477SOL    HW220873   4.229   0.644   0.165 -0.7344  0.2690 -1.0850
 6478SOL     OW20874   2.134   0.455   3.195 -0.2236 -0.6094 -0.0438
 6478SOL    HW120875   2.196   0.382   3.199 -1.4511 -1.6290  0.9319
 6478SOL    HW220876   2.143   0.499   3.279  1.6913  1.4293 -1.2205
 6479SOL     OW20877   3.151   2.819   3.184  0.0798  0.0364 -1.0363
 6479SOL    HW120878   3.081   2.842   3.245  1.6960  1.4843  0.3965
 6479SOL    HW220879   3.143   2.724   3.172 -1.9875  0.1357 -0.8154
 6480SOL     OW20880   4.212   0.749   2.336 -0.2248 -0.1326  0.4877
 6480SOL    HW120881   4.137   0.798   2.369  0.9167  1.7578  0.4608
 6480SOL    HW220882   4.177   0.664   2.312 -2.1606  0.3605  1.3519
 6481SOL     OW20883   1.404   1.727   2.307  0.7107  0.5407 -0.0503
 6481SOL    HW120884   1.478   1.788   2.306  0.9807  0.2234 -1.5775
 6481SOL    HW220885   1.411   1.680   2.224 -0.1427 -0.7943  0.6152
 6482SOL     OW20886   2.523   0.212   1.608  0.5373  0.3475  0.3276
 6482SOL    HW120887   2.562   0.207   1.695 -1.8986 -0.2854  1.4539
 6482SOL    HW220888   2.541   0.127   1.568  0.9128  0.3369  0.5113
 6483SOL     OW20889   2.496   0.481   2.052 -0.1370  0.1159 -0.2906
 6483SOL    HW120890   2.588   0.457   2.063 -0.3869 -1.5526 -1.3756
 6483SOL    HW220891   2.492   0.573   2.076  1.6889  0.0652  0.3960
 6484SOL     OW20892   1.810   3.013   0.526  0.0282 -0.1903  0.0466
 6484SOL    HW120893   1.889   3.014   0.579  0.2577  1.2342 -0.2925
 6484SOL    HW220894   1.745   3.060   0.577  0.6676  2.5507 -1.4605
 6485SOL     OW20895   2.223   0.251   2.636 -0.3364 -0.1581 -0.0281
 6485SOL    HW120896   2.129   0.239   2.624 -0.3465 -0.6071  0.4377
 6485SOL    HW220897   2.232   0.338   2.675 -0.5027  0.1548 -0.6737
 6486SOL     OW20898   0.536   0.732   2.964 -0.4014  0.4090  0.1043
 6486SOL    HW120899   0.618   0.769   2.996  0.0637 -0.4789 -0.0213
 6486SOL    HW220900   0.473   0.750   3.033  0.5007 -1.1406  1.4007
 6487SOL     OW20901   3.100   1.955   2.618 -0.0601 -0.2610  0.2333
 6487SOL    HW120902   3.150   1.981   2.695 -2.4274  2.0881  1.1133
 6487SOL    HW220903   3.079   1.862   2.634  0.3661 -0.1041  1.9207
 6488SOL     OW20904   1.868   7.645   5.189  0.2450  0.0358  1.1524
 6488SOL    HW120905   1.776   7.669   5.197 -0.4963 -2.4487  0.8050
 6488SOL    HW220906   1.910   7.724   5.153 -1.6724  1.2783  1.4955
 6489SOL     OW20907   3.080   1.664   1.464 -0.4988 -0.0226 -0.3857
 6489SOL    HW120908   3.077   1.572   1.438 -0.2478  0.3119 -1.6440
 6489SOL    HW220909   3.059   1.713   1.385 -1.4886  0.9998  0.4682
 6490SOL     OW20910   1.155   1.882   1.549 -0.1258 -0.3468  0.2731
 6490SOL    HW120911   1.226   1.845   1.601 -0.0631  0.6270  0.8935
 6490SOL    HW220912   1.137   1.967   1.589 -0.0850  0.4296 -1.2874
 6491SOL     OW20913   1.478   1.921   2.961  0.0085 -0.1045 -0.6573
 6491SOL    HW120914   1.503   1.981   2.890 -0.3463 -0.3308 -0.9789
 6491SOL    HW220915   1.423   1.856   2.918 -0.8475  0.1957 -0.0269
 6492SOL     OW20916   4.741   1.661   1.481  0.1744  0.1533 -0.1032
 6492SOL    HW120917   4.763   1.594   1.417  1.9832 -1.4371  2.0186
 6492SOL    HW220918   4.816   1.721   1.479  0.2621  0.0728  0.5154
 6493SOL     OW20919   3.773   1.438   3.059  0.1147 -0.0820  0.7958
 6493SOL    HW120920   3.750   1.510   3.001 -0.5489  0.5075  1.7457
 6493SOL    HW220921   3.706   1.372   3.042  1.7772 -1.3196 -1.4181
 6494SOL     OW20922   1.072   7.743   5.191  0.1222 -0.6887 -0.3073
 6494SOL    HW120923   1.115   7.668   5.231  1.3010 -0.5015 -1.1852
 6494SOL    HW220924   0.982   7.738   5.222  0.0167 -2.7949 -0.7944
 6495SOL     OW20925   2.136   1.375   4.334 -0.4708 -0.4247 -0.3218
 6495SOL    HW120926   2.187   1.452   4.309 -0.3005 -0.3562  0.2205
 6495SOL    HW220927   2.045   1.400   4.317 -0.6581  0.8216  2.0650
 6496SOL     OW20928   1.027   7.337   2.492 -0.1015  0.3658 -0.3062
 6496SOL    HW120929   1.122   7.328   2.478 -0.1595 -2.4173  0.3595
 6496SOL    HW220930   1.012   7.430   2.502  2.7191  0.8082  0.5180
 6497SOL     OW20931   3.277   0.815   2.156 -0.5201 -0.5347  0.8243
 6497SOL    HW120932   3.305   0.726   2.176 -1.0957 -0.2655  3.1152
 6497SOL    HW220933   3.344   0.870   2.197 -0.5719  0.0853  0.0812
 6498SOL     OW20934   3.071   2.414   4.506 -0.7268 -0.1892  0.0915
 6498SOL    HW120935   3.103   2.408   4.596 -1.0413  0.5324  0.2584
 6498SOL    HW220936   3.125   2.352   4.457 -1.2834 -1.4178  0.9715
 6499SOL     OW20937   2.442   7.386   2.997  0.1540 -0.8364 -0.3428
 6499SOL    HW120938   2.497   7.386   3.075  0.0671  0.6079 -0.2590
 6499SOL    HW220939   2.353   7.393   3.030  0.0469 -1.2150 -0.5446
 6500SOL     OW20940   3.265   0.867   3.067 -0.2127  0.0830 -0.0082
 6500SOL    HW120941   3.194   0.881   3.128 -1.1446 -0.9902 -0.8018
 6500SOL    HW220942   3.249   0.780   3.031  0.9390  0.2307 -0.9465
 6501SOL     OW20943   1.596   7.951   1.375  0.1054 -0.0534 -0.2005
 6501SOL    HW120944   1.591   8.045   1.353  1.2053 -0.0103 -0.3203
 6501SOL    HW220945   1.586   7.948   1.470 -0.3980  0.1432 -0.2438
 6502SOL     OW20946   1.736   1.601   2.853  0.7442 -0.0605 -0.2829
 6502SOL    HW120947   1.800   1.534   2.877  0.9577 -0.2289 -1.2897
 6502SOL    HW220948   1.732   1.659   2.930  0.7550 -1.0530  0.4968
 6503SOL     OW20949   2.196   0.869   2.560  0.2496  0.5843 -0.1483
 6503SOL    HW120950   2.213   0.959   2.533  0.2559  0.5159 -0.3805
 6503SOL    HW220951   2.276   0.822   2.537  0.6255  0.7065  0.8654
 6504SOL     OW20952   2.686   0.912   1.719  0.0685  0.3171  0.6159
 6504SOL    HW120953   2.624   0.976   1.753  0.1549  1.5943 -1.4289
 6504SOL    HW220954   2.719   0.867   1.797 -2.2020  0.6880  1.8816
 6505SOL     OW20955   2.892   7.417   1.308  0.5904 -0.2052 -0.0609
 6505SOL    HW120956   2.949   7.354   1.352  1.2085  1.4185  1.6078
 6505SOL    HW220957   2.806   7.403   1.347  1.2078  1.4828  2.1584
 6506SOL     OW20958   2.427   0.763   2.492  0.5838  0.0228  0.7290
 6506SOL    HW120959   2.465   0.687   2.535  1.3064  0.7084  1.3397
 6506SOL    HW220960   2.502   0.807   2.451  0.1405  0.2731  0.1755
 6507SOL     OW20961   0.224   7.543   1.818 -0.3633  0.2459  0.4870
 6507SOL    HW120962   0.172   7.540   1.898  0.3408 -1.3160  0.9305
 6507SOL    HW220963   0.161   7.562   1.749 -0.8867  2.2650  1.4438
 6508SOL     OW20964   4.439   1.881   4.438  0.3327 -0.3400  0.6322
 6508SOL    HW120965   4.423   1.975   4.448 -1.1201 -0.4670 -0.2425
 6508SOL    HW220966   4.359   1.839   4.469  1.3765 -1.3672  2.0456
 6509SOL     OW20967   2.292   6.931   1.507 -0.2458  0.5290  0.0202
 6509SOL    HW120968   2.287   6.986   1.585 -1.4114 -0.2964  0.5438
 6509SOL    HW220969   2.261   6.845   1.535 -1.0973  0.3203 -1.4501
 6510SOL     OW20970   2.769   2.641   2.367 -0.4765 -0.2706  0.3452
 6510SOL    HW120971   2.688   2.593   2.351 -0.5786 -0.0123  0.0913
 6510SOL    HW220972   2.764   2.717   2.310  0.1025 -0.4341  0.0671
 6511SOL     OW20973   0.654   1.817   1.401  0.0308 -0.0175 -0.0203
 6511SOL    HW120974   0.710   1.848   1.473  0.2091  1.2514 -0.6709
 6511SOL    HW220975   0.690   1.731   1.379  0.7669  0.1189  0.5740
 6512SOL     OW20976   3.159   7.984   1.284 -0.0146  0.5666 -0.0247
 6512SOL    HW120977   3.190   8.073   1.301  0.4795  0.5038 -0.5571
 6512SOL    HW220978   3.069   7.983   1.315 -0.6072  1.7574 -1.6330
 6513SOL     OW20979   1.951   1.493   3.649 -0.3880  0.0560  0.2116
 6513SOL    HW120980   1.971   1.569   3.594 -0.2387 -0.1992 -0.0955
 6513SOL    HW220981   2.020   1.430   3.627 -0.5745 -0.2065  0.3798
 6514SOL     OW20982   2.459   2.213  12.295  0.0634  0.1208 -0.0365
 6514SOL    HW120983   2.434   2.282  12.233  0.3722 -0.2112 -0.5363
 6514SOL    HW220984   2.551   2.231  12.314  0.3039 -0.4704 -0.6014
 6515SOL     OW20985   3.459   0.667   4.111 -0.6680 -0.1050 -0.5904
 6515SOL    HW120986   3.475   0.692   4.202 -0.2199 -0.3391 -0.6053
 6515SOL    HW220987   3.456   0.750   4.063 -1.9527  0.0895 -0.2006
 6516SOL     OW20988   3.482   7.228   4.047  0.4431 -0.2170 -0.2331
 6516SOL    HW120989   3.500   7.281   4.124 -0.9920 -0.0694  0.0404
 6516SOL    HW220990   3.497   7.287   3.972  0.5534  0.0368 -0.0119
 6517SOL     OW20991   1.709   1.713   3.120  0.1839 -0.7262 -0.7363
 6517SOL    HW120992   1.636   1.767   3.149 -0.0284  0.1521 -2.7679
 6517SOL    HW220993   1.719   1.648   3.189 -3.0408 -1.3854 -0.7311
 6518SOL     OW20994   2.393   2.246   1.859 -1.1256 -0.7069 -0.3820
 6518SOL    HW120995   2.488   2.237   1.863 -1.2492 -1.7984  0.7083
 6518SOL    HW220996   2.376   2.290   1.776  0.3375 -0.3724 -0.5252
 6519SOL     OW20997   0.062   1.017   3.641  0.1037 -0.3688 -0.1629
 6519SOL    HW120998   0.120   1.088   3.669  1.3399 -1.1119 -0.7684
 6519SOL    HW220999   0.065   1.020   3.546 -1.3775 -0.0310 -0.2280
 6520SOL     OW21000   4.921   1.062   2.910  0.2805 -0.4024 -0.2467
 6520SOL    HW121001   4.960   0.993   2.964  1.3271  0.9287  0.7671
 6520SOL    HW221002   4.835   1.076   2.948  0.9689  0.4505  1.0617
 6521SOL     OW21003   1.239   7.798   3.971  0.2298 -0.5442  0.6848
 6521SOL    HW121004   1.164   7.830   4.023  0.0524 -0.3259  0.2957
 6521SOL    HW221005   1.213   7.811   3.880 -0.0933 -2.3716  0.4791
 6522SOL     OW21006   3.166   1.050   2.619  0.4158  0.0571 -0.3083
 6522SOL    HW121007   3.187   1.082   2.531 -1.2488 -1.6997 -1.4558
 6522SOL    HW221008   3.104   1.114   2.653 -0.6035 -0.3230 -1.3546
 6523SOL     OW21009   3.651   0.881   3.558  0.0288 -0.3325  0.1449
 6523SOL    HW121010   3.644   0.961   3.610  1.5969  0.1425 -0.3164
 6523SOL    HW221011   3.653   0.910   3.467  3.1576 -0.5571  0.0124
 6524SOL     OW21012   2.464   1.992   2.339  0.6682 -0.3678  0.0215
 6524SOL    HW121013   2.418   1.982   2.422  0.3228  0.3163 -0.0842
 6524SOL    HW221014   2.534   2.055   2.356 -1.1858  2.0821 -0.8696
 6525SOL     OW21015   2.046   0.897   2.886  0.1510 -0.3035 -0.1255
 6525SOL    HW121016   1.983   0.914   2.956  0.3033 -0.5921  0.0849
 6525SOL    HW221017   2.048   0.978   2.835 -1.9341 -0.9956 -1.3793
 6526SOL     OW21018   3.694   0.939   2.396  0.1347  0.1744 -0.3196
 6526SOL    HW121019   3.749   0.973   2.466  1.6784 -0.1754 -1.3075
 6526SOL    HW221020   3.756   0.912   2.328 -1.3039  0.4726 -1.8108
 6527SOL     OW21021   1.595   2.254   2.163  0.4583  0.1985 -0.7424
 6527SOL    HW121022   1.568   2.328   2.108 -0.3015 -0.5523 -1.4063
 6527SOL    HW221023   1.548   2.179   2.127  1.4828 -0.6860 -0.2946
 6528SOL     OW21024   1.354   1.429   1.779  0.5010 -0.2711 -0.1654
 6528SOL    HW121025   1.449   1.437   1.789  0.4617 -0.5922  0.4733
 6528SOL    HW221026   1.330   1.505   1.727  0.9524  0.4865  0.6975
 6529SOL     OW21027   1.380   7.900   3.116  0.2700 -0.5905 -0.1615
 6529SOL    HW121028   1.419   7.965   3.173  0.4231 -0.5484 -0.3123
 6529SOL    HW221029   1.424   7.818   3.138 -1.4905 -1.1146  1.6103
 6530SOL     OW21030   1.461   0.762   2.930 -0.7229  0.0668 -0.2448
 6530SOL    HW121031   1.422   0.691   2.982 -0.7741  0.1619 -0.1534
 6530SOL    HW221032   1.552   0.735   2.917 -0.9583 -0.4437 -0.9551
 6531SOL     OW21033   4.670   7.969   1.901  0.2458 -0.3808  0.5624
 6531SOL    HW121034   4.656   8.013   1.817  0.4641 -0.1631  0.6398
 6531SOL    HW221035   4.584   7.972   1.944  0.4159  0.5849  0.8562
 6532SOL     OW21036   1.953   0.452   2.407 -0.0207  0.2169  0.3220
 6532SOL    HW121037   1.976   0.515   2.476 -2.5052  0.5373  0.9730
 6532SOL    HW221038   1.924   0.374   2.454 -0.7379  0.0520 -0.3653
 6533SOL     OW21039   2.272   1.246   2.028 -0.7727 -0.8357 -0.1738
 6533SOL    HW121040   2.197   1.224   1.972 -2.7644  2.2478  0.9767
 6533SOL    HW221041   2.316   1.318   1.981  0.5184 -1.5231 -0.0544
 6534SOL     OW21042   2.648   7.937   3.227 -0.0662 -0.0341  0.3695
 6534SOL    HW121043   2.615   8.027   3.235 -0.8057  0.0429 -2.4609
 6534SOL    HW221044   2.585   7.884   3.276 -1.2901  0.7243 -0.3319
 6535SOL     OW21045   2.809   0.571   2.616 -0.2951  0.1112 -0.2285
 6535SOL    HW121046   2.896   0.592   2.583 -1.1380  1.2094 -1.8949
 6535SOL    HW221047   2.762   0.655   2.615 -1.6437 -0.6119 -0.2056
 6536SOL     OW21048   0.456   1.042   3.803 -0.5383 -0.4573  0.3039
 6536SOL    HW121049   0.549   1.019   3.800 -0.4725 -0.2653  0.7457
 6536SOL    HW221050   0.421   0.992   3.877 -0.4894  0.5085  1.0056
 6537SOL     OW21051   4.449   1.663   1.791 -0.1288 -0.0706  0.0010
 6537SOL    HW121052   4.375   1.616   1.831  0.2080  0.8179  1.8082
 6537SOL    HW221053   4.409   1.740   1.751 -0.2440  0.2128  0.6443
 6538SOL     OW21054   0.964   1.174   4.146 -1.0322  0.4205  0.0830
 6538SOL    HW121055   0.928   1.123   4.074  0.0097  0.2649 -0.3405
 6538SOL    HW221056   1.023   1.237   4.104 -1.5454  1.3272  0.6764
 6539SOL     OW21057   2.974   7.523   2.513 -0.5588  0.4139 -0.2256
 6539SOL    HW121058   2.924   7.579   2.454 -1.1503  0.2502  0.1132
 6539SOL    HW221059   2.954   7.555   2.600 -1.1291 -0.4846 -0.0069
 6540SOL     OW21060   2.320   0.250   1.134  0.1243  0.0503  0.1471
 6540SOL    HW121061   2.358   0.336   1.120 -1.7212  0.7321 -1.0609
 6540SOL    HW221062   2.321   0.238   1.229  0.8974  1.1455  0.2894
 6541SOL     OW21063   3.159   7.158  12.358  0.0647  0.3628 -0.0650
 6541SOL    HW121064   3.232   7.138  12.417 -0.4490  0.4554  0.6224
 6541SOL    HW221065   3.167   7.251  12.340  0.9443  0.0917 -1.1613
 6542SOL     OW21066   3.265   6.768   2.089 -0.2630 -0.5232  0.7290
 6542SOL    HW121067   3.348   6.799   2.125 -0.4951  0.9874  0.0397
 6542SOL    HW221068   3.208   6.844   2.093 -0.9425 -0.9180 -0.8493
 6543SOL     OW21069   3.363   0.266   2.932  0.0468  0.3179  0.4387
 6543SOL    HW121070   3.408   0.183   2.945 -1.8868 -0.7038  0.8408
 6543SOL    HW221071   3.318   0.256   2.848 -0.7570  0.6858  0.8173
 6544SOL     OW21072   1.744   3.106   1.916 -0.0919  0.5407 -0.2399
 6544SOL    HW121073   1.726   3.059   1.997  1.7270  0.1206 -0.0440
 6544SOL    HW221074   1.720   3.044   1.847 -0.1713  0.3108 -0.0078
 6545SOL     OW21075   2.174   6.415   2.259  0.6116  0.2612 -0.2732
 6545SOL    HW121076   2.094   6.455   2.291  1.2047 -0.5551  2.6034
 6545SOL    HW221077   2.146   6.354   2.191 -1.0409  0.8607 -0.1570
 6546SOL     OW21078   2.193   0.217   4.150  0.1469  0.3013 -0.0628
 6546SOL    HW121079   2.171   0.142   4.206 -3.1721  2.2066  1.4918
 6546SOL    HW221080   2.108   0.253   4.124  1.5632  1.0017 -4.4923
 6547SOL     OW21081   3.255   1.753   0.385  0.2762  0.1073 -0.0685
 6547SOL    HW121082   3.252   1.814   0.458  1.5070  0.7098 -0.4828
 6547SOL    HW221083   3.335   1.777   0.337 -0.2001 -0.6286 -1.2883
 6548SOL     OW21084   3.194   7.616   2.133 -0.6161 -0.4431  0.6647
 6548SOL    HW121085   3.137   7.539   2.137 -1.3132  0.0434  0.3043
 6548SOL    HW221086   3.228   7.626   2.223  0.0993 -1.6076  0.5516
 6549SOL     OW21087   2.525   0.826   3.457 -0.4818  0.1274  0.0495
 6549SOL    HW121088   2.508   0.736   3.487 -0.0240  0.0358  0.0462
 6549SOL    HW221089   2.439   0.866   3.452 -0.7054 -0.3541 -0.0752
 6550SOL     OW21090   1.038   2.076   2.918  0.7780 -0.5608  0.1733
 6550SOL    HW121091   0.977   2.078   2.992 -0.8906  0.1297 -1.1725
 6550SOL    HW221092   1.084   1.993   2.927 -0.7606 -1.3690  0.9106
 6551SOL     OW21093   0.663   0.916   2.407  0.0296 -0.6034 -0.0252
 6551SOL    HW121094   0.712   0.996   2.427 -0.1548  0.4460 -3.1711
 6551SOL    HW221095   0.725   0.845   2.419  0.5921  0.1246  1.5515
 6552SOL     OW21096   3.957   6.754   2.483 -0.0266 -0.0438  0.4059
 6552SOL    HW121097   3.957   6.832   2.428  1.7262  0.4635  1.0340
 6552SOL    HW221098   3.909   6.780   2.562 -0.3445  0.0638  0.1766
 6553SOL     OW21099   1.846   6.666   0.818 -0.4942  0.1777  0.6847
 6553SOL    HW121100   1.914   6.614   0.862 -0.3404  0.4836  0.8165
 6553SOL    HW221101   1.768   6.611   0.822 -0.6430  0.4404  1.8990
 6554SOL     OW21102   4.726   1.142   2.399 -0.1380  0.6880 -0.2457
 6554SOL    HW121103   4.677   1.133   2.481  0.6906 -0.7530  0.1309
 6554SOL    HW221104   4.736   1.236   2.387  0.8437  0.9334  2.0068
 6555SOL     OW21105   1.192   0.323   2.491  0.1027 -0.1652  0.5584
 6555SOL    HW121106   1.282   0.305   2.463 -0.3021  0.8058 -1.6617
 6555SOL    HW221107   1.141   0.252   2.453 -0.2290  0.0486  0.6019
 6556SOL     OW21108   2.787   0.473   0.999  0.0103 -0.2478 -0.8591
 6556SOL    HW121109   2.829   0.546   1.044  1.6031 -0.5003 -1.8384
 6556SOL    HW221110   2.778   0.502   0.908 -2.1747 -0.1404 -0.6589
 6557SOL     OW21111   3.425   6.878   3.746  0.0531  0.2996 -0.1202
 6557SOL    HW121112   3.408   6.846   3.657 -1.8809 -2.8078  1.1753
 6557SOL    HW221113   3.443   6.798   3.796  2.9100  2.1071  2.0091
 6558SOL     OW21114   2.369   1.948   1.269 -0.2000  0.3060 -0.1426
 6558SOL    HW121115   2.383   1.986   1.182 -1.0229 -0.6117 -0.6956
 6558SOL    HW221116   2.321   1.867   1.252  0.1651 -0.1937  1.1302
 6559SOL     OW21117   2.641   1.492   1.730 -0.3477 -0.2716 -0.5039
 6559SOL    HW121118   2.705   1.558   1.703 -1.1561  1.0067  0.6088
 6559SOL    HW221119   2.659   1.418   1.672  1.8182  0.2045 -0.5519
 6560SOL     OW21120   2.435   1.123   2.231 -0.3454 -0.3398  0.0359
 6560SOL    HW121121   2.431   1.190   2.298  0.7771  1.2323 -1.4048
 6560SOL    HW221122   2.347   1.123   2.192 -0.7010 -0.5756  0.8090
 6561SOL     OW21123   3.425   0.568   2.181  0.0693  0.3086  0.1570
 6561SOL    HW121124   3.351   0.526   2.227  0.2295  0.8555  0.9252
 6561SOL    HW221125   3.500   0.555   2.240  0.4784  0.1972 -0.3877
 6562SOL     OW21126   0.577   7.198   2.312  0.5982 -0.5319 -0.3341
 6562SOL    HW121127   0.672   7.190   2.312  0.6268 -0.2288  0.6739
 6562SOL    HW221128   0.557   7.255   2.385 -0.1941  1.7416 -2.2008
 6563SOL     OW21129   3.458   7.835   1.183 -0.6860  0.3113 -0.1611
 6563SOL    HW121130   3.525   7.788   1.134 -1.1537 -0.4416 -0.1108
 6563SOL    HW221131   3.381   7.832   1.126 -1.1697 -0.3731  0.5010
 6564SOL     OW21132   2.411   6.887   2.743  0.3015  0.0526 -0.6124
 6564SOL    HW121133   2.319   6.860   2.744 -0.3845  2.0827  2.3515
 6564SOL    HW221134   2.416   6.950   2.671 -0.6882  0.1685 -0.5916
 6565SOL     OW21135   3.408   2.110   2.783  0.2243  0.4665  0.3558
 6565SOL    HW121136   3.475   2.118   2.850  0.1056  0.5125  0.4706
 6565SOL    HW221137   3.441   2.043   2.723  0.8284  1.1866 -0.1347
 6566SOL     OW21138   1.445   1.621   2.820 -0.4217 -0.5803 -0.5826
 6566SOL    HW121139   1.434   1.675   2.741 -0.2764  0.4028  0.0433
 6566SOL    HW221140   1.540   1.614   2.830 -0.2913  2.4351  1.5001
 6567SOL     OW21141   3.957   0.767   5.165 -0.1391 -0.4461  0.7973
 6567SOL    HW121142   4.030   0.772   5.226  0.0131  0.1838  0.5669
 6567SOL    HW221143   3.880   0.792   5.216  0.1740  1.3914  0.4214
 6568SOL     OW21144   2.326   7.137   4.947 -0.2205 -0.2393 -0.2905
 6568SOL    HW121145   2.258   7.070   4.946 -0.7379  0.2378 -2.2776
 6568SOL    HW221146   2.388   7.109   4.879  1.0454 -0.1327  0.7808
 6569SOL     OW21147   2.310   0.427   4.796  0.1023 -0.5520 -1.0701
 6569SOL    HW121148   2.358   0.410   4.715  0.2208 -0.4789 -1.0148
 6569SOL    HW221149   2.366   0.487   4.846  1.2593 -2.6034  0.2231
 6570SOL     OW21150   4.701   3.405   5.332 -0.5106 -0.5831  0.4465
 6570SOL    HW121151   4.610   3.376   5.329 -1.5668  2.4319  0.0665
 6570SOL    HW221152   4.696   3.499   5.352  2.4869 -0.1650 -0.2559
 6571SOL     OW21153   2.230   7.069   3.206  0.1627 -0.1612 -0.1596
 6571SOL    HW121154   2.229   7.065   3.110  1.7641 -1.7263 -0.1531
 6571SOL    HW221155   2.199   6.983   3.234 -1.8853  0.8315  0.7907
 6572SOL     OW21156   3.419   6.767   3.205  0.7610 -0.0581 -0.0515
 6572SOL    HW121157   3.355   6.698   3.189 -1.1289  1.7872 -0.9085
 6572SOL    HW221158   3.498   6.737   3.160 -0.0619 -1.5567 -0.5707
 6573SOL     OW21159   2.851   1.501   5.475  0.6119 -0.2703  0.2628
 6573SOL    HW121160   2.791   1.556   5.424  0.8190  0.8961  1.2480
 6573SOL    HW221161   2.795   1.432   5.511  0.1941 -0.2199 -0.2781
 6574SOL     OW21162   3.031   0.078   6.419 -0.3484  0.4095  0.6168
 6574SOL    HW121163   3.115   0.086   6.372  0.0355  1.7275  1.4811
 6574SOL    HW221164   3.030  -0.013   6.449 -0.7244 -0.5826 -2.0740
 6575SOL     OW21165   2.334   1.073   5.760 -0.3439  0.1297 -0.1127
 6575SOL    HW121166   2.369   0.984   5.760 -0.3977  0.0891 -1.3670
 6575SOL    HW221167   2.407   1.128   5.789 -0.3343 -0.3308  0.7356
 6576SOL     OW21168   1.553   0.547   4.938 -0.3040 -0.0421  0.1897
 6576SOL    HW121169   1.622   0.509   4.884 -0.3078 -0.0271  0.1744
 6576SOL    HW221170   1.474   0.541   4.884  0.0291  1.6365 -0.5489
 6577SOL     OW21171   3.266   1.724   5.449  0.0997 -0.6416  0.5535
 6577SOL    HW121172   3.305   1.791   5.505  0.6726 -1.6432  1.3912
 6577SOL    HW221173   3.339   1.667   5.426  0.3364  0.8006 -2.9161
 6578SOL     OW21174   3.249   7.597   4.916 -0.2362 -0.6671 -0.2642
 6578SOL    HW121175   3.323   7.550   4.955  0.5371 -0.0471 -0.9403
 6578SOL    HW221176   3.193   7.619   4.991  0.8259 -0.1773  0.4270
 6579SOL     OW21177   1.915   7.498   6.003  0.1337 -0.6992  0.1022
 6579SOL    HW121178   1.933   7.563   6.071  0.0875 -0.3435 -0.2147
 6579SOL    HW221179   1.839   7.533   5.957  0.2063 -0.8978 -0.1714
 6580SOL     OW21180   4.026   0.751   5.760  0.1542 -0.1861 -0.2296
 6580SOL    HW121181   3.931   0.737   5.753 -0.1700  1.1468  0.9179
 6580SOL    HW221182   4.034   0.840   5.796  1.7886 -0.9236  1.3532
 6581SOL     OW21183   2.321   2.048   5.677  1.0329 -0.1274 -0.2721
 6581SOL    HW121184   2.291   2.016   5.762  1.6435  0.2250  0.0827
 6581SOL    HW221185   2.360   1.972   5.635 -0.4304 -0.6234 -0.7908
 6582SOL     OW21186   3.063   2.013   5.349  0.5826 -0.1023 -0.1845
 6582SOL    HW121187   3.147   1.983   5.316  1.1219  1.8123 -0.6535
 6582SOL    HW221188   3.068   2.000   5.444  0.9069 -1.1301 -0.3337
 6583SOL     OW21189   1.517   7.845   3.875  0.2049  0.0899  0.8779
 6583SOL    HW121190   1.590   7.855   3.937  1.9057  0.5855 -1.0852
 6583SOL    HW221191   1.438   7.856   3.929  1.5775  0.4220  2.9461
 6584SOL     OW21192   3.562   0.814   5.649  0.0922 -0.1881 -0.2612
 6584SOL    HW121193   3.471   0.788   5.637  0.4423 -1.3282 -0.6026
 6584SOL    HW221194   3.562   0.869   5.727 -0.4850 -2.4772  1.4405
 6585SOL     OW21195   1.554   1.897   4.036  0.5085  0.0684  0.6936
 6585SOL    HW121196   1.491   1.935   3.974  1.2247  0.4890  0.2092
 6585SOL    HW221197   1.510   1.903   4.121  0.3242  1.3733  0.5333
 6586SOL     OW21198   0.413   2.417   4.119  0.0088  0.0227 -0.0980
 6586SOL    HW121199   0.505   2.392   4.111 -0.3930 -1.3852 -0.5585
 6586SOL    HW221200   0.409   2.466   4.202  1.3255  0.9435 -0.5387
 6587SOL     OW21201   2.342   1.581   3.690 -0.2812  0.6381  0.3639
 6587SOL    HW121202   2.349   1.504   3.634 -1.1767  0.1212  0.9476
 6587SOL    HW221203   2.433   1.603   3.712  0.1056  0.9335 -1.3775
 6588SOL     OW21204   0.974   0.454   6.849  0.3608  0.4411 -0.3239
 6588SOL    HW121205   1.036   0.438   6.778  0.4503 -2.2443  0.2791
 6588SOL    HW221206   0.908   0.385   6.840 -2.5678  3.0381 -0.8216
 6589SOL     OW21207   2.141   2.166   3.967 -0.0810 -0.4683  0.1614
 6589SOL    HW121208   2.180   2.164   4.053 -0.6989 -0.5807  0.4481
 6589SOL    HW221209   2.102   2.079   3.955  1.1280 -0.9084 -0.7745
 6590SOL     OW21210   1.819   1.008   4.783 -0.0869 -0.7540  0.1944
 6590SOL    HW121211   1.789   0.921   4.809 -0.3199 -1.3923 -2.0599
 6590SOL    HW221212   1.891   1.027   4.844 -0.7939 -1.9833  1.4912
 6591SOL     OW21213   4.643   1.125   1.022  0.5101 -0.1977 -0.2655
 6591SOL    HW121214   4.549   1.137   1.028  0.4326 -1.1293  0.8417
 6591SOL    HW221215   4.658   1.098   0.931 -0.2481  0.2508 -0.5276
 6592SOL     OW21216   3.130   7.866   2.431  0.1192  0.2112  0.4501
 6592SOL    HW121217   3.056   7.832   2.480 -0.4048 -0.2843 -0.6679
 6592SOL    HW221218   3.104   7.955   2.407  0.3121  0.3968  0.8969
 6593SOL     OW21219   2.931   1.487   2.875 -0.1750 -0.4670 -0.8576
 6593SOL    HW121220   2.864   1.554   2.870  0.0601 -0.1389  0.1316
 6593SOL    HW221221   2.990   1.517   2.944 -0.4515 -2.0115  0.1179
 6594SOL     OW21222   2.384   1.244   4.548 -0.3564 -0.7470 -0.0190
 6594SOL    HW121223   2.294   1.218   4.531 -0.3967 -0.7286  0.1676
 6594SOL    HW221224   2.386   1.267   4.640  0.3322 -2.8491  0.5628
 6595SOL     OW21225   4.371   2.597   5.847 -0.3482  0.0413 -0.9061
 6595SOL    HW121226   4.285   2.611   5.807 -1.0246  1.6175  0.9270
 6595SOL    HW221227   4.397   2.684   5.879  0.3220 -1.0013  1.6177
 6596SOL     OW21228   1.130   7.509   5.321  0.3737  0.1565  1.0396
 6596SOL    HW121229   1.154   7.446   5.388  1.6693 -1.3575 -0.7439
 6596SOL    HW221230   1.038   7.490   5.302  1.1352 -2.4399 -0.6024
 6597SOL     OW21231   2.309   1.252   2.771  0.1721  0.1198 -0.2302
 6597SOL    HW121232   2.333   1.343   2.754 -0.0207  0.3784  0.8209
 6597SOL    HW221233   2.375   1.221   2.833 -0.5259 -0.0335  0.4580
 6598SOL     OW21234   4.407   0.332   4.687  0.4508 -0.0050 -0.1261
 6598SOL    HW121235   4.376   0.409   4.733  0.8281  0.8346 -1.2411
 6598SOL    HW221236   4.328   0.292   4.652  0.1363 -0.7610  1.3497
 6599SOL     OW21237   2.731   1.430   5.131 -0.6301 -0.3306 -0.0316
 6599SOL    HW121238   2.638   1.441   5.152 -0.3781  0.3413  0.7910
 6599SOL    HW221239   2.773   1.510   5.163  0.4307 -1.1911  0.8250
 6600SOL     OW21240   1.398   0.324   4.401  0.0504 -0.2549  0.1801
 6600SOL    HW121241   1.485   0.286   4.414  0.3996  0.2963 -0.5415
 6600SOL    HW221242   1.347   0.291   4.476  0.2565 -2.3640 -0.5287
 6601SOL     OW21243   3.639   7.913   5.025  0.1370 -0.2144 -0.5990
 6601SOL    HW121244   3.673   7.991   5.070 -3.0643  0.0091  1.8309
 6601SOL    HW221245   3.557   7.943   4.985 -0.4337 -1.9942 -0.8541
 6602SOL     OW21246   2.207   3.131   4.623  0.4311  0.1992  0.2225
 6602SOL    HW121247   2.187   3.139   4.716  1.0858 -0.6841  0.4518
 6602SOL    HW221248   2.297   3.162   4.615  0.2988  0.4896 -0.1527
 6603SOL     OW21249   2.551   0.767   4.750  0.2275 -0.2686  0.1056
 6603SOL    HW121250   2.629   0.714   4.736  0.2492 -0.4587  0.9019
 6603SOL    HW221251   2.529   0.800   4.663 -0.0971 -2.0026 -0.4993
 6604SOL     OW21252   0.961   7.697   3.111 -0.1399 -0.1865 -0.2549
 6604SOL    HW121253   0.876   7.734   3.133  0.4915 -0.2471  2.7243
 6604SOL    HW221254   1.022   7.771   3.119  0.4727 -0.7813  0.7196
 6605SOL     OW21255   3.856   2.195   5.246 -0.0853  0.3059 -0.1540
 6605SOL    HW121256   3.867   2.251   5.169  1.2417  0.8700  0.4317
 6605SOL    HW221257   3.900   2.241   5.317 -1.9298  0.1606  1.1582
 6606SOL     OW21258   1.198   2.390   5.760 -0.1311  0.4276 -0.1047
 6606SOL    HW121259   1.226   2.301   5.782  0.8328  0.5981 -0.5614
 6606SOL    HW221260   1.103   2.385   5.755 -0.0780 -0.6375 -0.3631
 6607SOL     OW21261   4.811   0.830   4.573  0.1376  0.5102 -0.1322
 6607SOL    HW121262   4.746   0.860   4.509  0.7402  1.4499 -0.3317
 6607SOL    HW221263   4.895   0.840   4.529  0.6215  1.7809  0.9992
 6608SOL     OW21264   2.773   7.923   3.489  0.0711  0.3147  0.5587
 6608SOL    HW121265   2.741   8.012   3.474 -0.4743 -0.0477 -0.5471
 6608SOL    HW221266   2.733   7.871   3.419  1.0330 -0.6490  0.6948
 6609SOL     OW21267   2.144   6.929   5.670 -0.1148  0.2617  0.2993
 6609SOL    HW121268   2.200   6.870   5.620  0.2209  1.0986 -0.3291
 6609SOL    HW221269   2.205   6.989   5.713 -0.5148  1.5005 -0.7915
 6610SOL     OW21270   7.732   6.905   4.207 -0.1223  0.2254 -0.2658
 6610SOL    HW121271   7.656   6.921   4.264 -0.4385 -0.1582 -0.5716
 6610SOL    HW221272   7.793   6.975   4.229 -0.5140  0.4673  0.0778
 6611SOL     OW21273   0.971   1.456   4.735  0.0216 -0.2690  0.5982
 6611SOL    HW121274   1.001   1.385   4.678 -0.6103  0.4943 -0.7255
 6611SOL    HW221275   0.989   1.536   4.686 -2.1745  0.3274  0.6375
 6612SOL     OW21276   2.401   7.192   3.631  0.0846 -0.2378  0.5068
 6612SOL    HW121277   2.315   7.160   3.660  0.0873 -1.2730 -0.5888
 6612SOL    HW221278   2.392   7.203   3.537  1.1617 -0.3398  0.3813
 6613SOL     OW21279   2.971   2.094   5.086  0.3675  0.2851  0.5577
 6613SOL    HW121280   3.028   2.091   5.162 -0.4730 -1.4526  1.1568
 6613SOL    HW221281   2.894   2.144   5.116  0.3047  0.1326  0.6490
 6614SOL     OW21282   3.297   1.255   3.644  0.0051  0.6290  0.5351
 6614SOL    HW121283   3.366   1.246   3.579 -0.2265  1.5992  0.1325
 6614SOL    HW221284   3.294   1.350   3.662 -0.1870  0.4280  1.6775
 6615SOL     OW21285   2.738   0.078   5.172  0.6557 -0.3098 -0.7701
 6615SOL    HW121286   2.812   0.111   5.122 -0.5437  1.5909 -1.4069
 6615SOL    HW221287   2.756   0.103   5.263  0.3771  1.0512 -1.0642
 6616SOL     OW21288   4.329   0.807   1.622  0.1369 -0.5543  0.2545
 6616SOL    HW121289   4.336   0.797   1.717  2.7531  2.0551  0.4993
 6616SOL    HW221290   4.283   0.891   1.610  1.0098 -0.1907 -0.6915
 6617SOL     OW21291   1.596   0.822   3.220 -0.0335 -0.0881  0.0021
 6617SOL    HW121292   1.641   0.737   3.213  2.2054  1.0631 -0.6875
 6617SOL    HW221293   1.505   0.803   3.196 -0.2564 -2.7299  2.3571
 6618SOL     OW21294   2.678   1.270   4.764 -0.4853 -0.6610  0.6369
 6618SOL    HW121295   2.697   1.208   4.694 -0.4782 -0.1474  0.1701
 6618SOL    HW221296   2.582   1.276   4.765 -0.4655 -0.0428  0.0907
 6619SOL     OW21297   1.731   1.309   3.730  0.3853 -0.1392 -0.2395
 6619SOL    HW121298   1.761   1.400   3.738 -0.6339  0.0797  1.5228
 6619SOL    HW221299   1.809   1.257   3.746  0.4659  0.4281  1.3525
 6620SOL     OW21300   1.795   7.860   4.097  0.4619 -0.2844 -0.3912
 6620SOL    HW121301   1.849   7.900   4.029  1.5329  1.1294  1.1929
 6620SOL    HW221302   1.829   7.897   4.179 -0.6226 -2.0756  0.9448
 6621SOL     OW21303   2.954   1.089   5.462 -0.1066  0.2007  0.0369
 6621SOL    HW121304   2.910   1.108   5.379 -1.6368  0.5752  0.8924
 6621SOL    HW221305   3.008   1.166   5.479  2.4044 -0.9866 -1.8938
 6622SOL     OW21306   2.432   0.591   4.343  0.5672  0.0585 -0.0843
 6622SOL    HW121307   2.435   0.686   4.354 -2.0818  0.2685 -0.6259
 6622SOL    HW221308   2.454   0.578   4.250 -0.8373  0.3276 -0.4736
 6623SOL     OW21309   3.057   2.403   3.518  0.1655 -0.1297  0.1100
 6623SOL    HW121310   3.043   2.497   3.514  1.5531  0.0791 -0.5498
 6623SOL    HW221311   3.101   2.388   3.602 -0.7401 -0.3078  0.5649
 6624SOL     OW21312   3.414   0.879   5.414 -0.4714 -0.4516 -0.2297
 6624SOL    HW121313   3.488   0.873   5.475 -0.7043  0.1051  0.1062
 6624SOL    HW221314   3.340   0.845   5.463 -0.5276 -0.6210 -0.4296
 6625SOL     OW21315   3.505   2.919   3.623 -0.0026  0.0508 -0.4316
 6625SOL    HW121316   3.445   2.926   3.549 -0.5188  2.2925  0.1032
 6625SOL    HW221317   3.449   2.930   3.700  0.6158 -1.5618  0.3059
 6626SOL     OW21318   2.216   0.635   4.053  0.1080  0.1478  0.1133
 6626SOL    HW121319   2.170   0.617   4.135 -1.0319  2.2186 -0.0106
 6626SOL    HW221320   2.280   0.702   4.075  0.0300  0.4740 -0.6267
 6627SOL     OW21321   2.422   6.298   2.339 -0.4502 -0.5404  0.1719
 6627SOL    HW121322   2.410   6.216   2.386  0.2141 -0.9676 -0.3746
 6627SOL    HW221323   2.334   6.326   2.315 -0.7011 -0.9195  0.6574
 6628SOL     OW21324   3.135   1.360   3.146  0.2107  0.3207  0.2785
 6628SOL    HW121325   3.078   1.436   3.135  1.3029  1.2096  0.5296
 6628SOL    HW221326   3.223   1.398   3.155  0.9175 -1.0208 -0.6644
 6629SOL     OW21327   2.152   2.175   1.241 -0.4070  0.2669  0.0852
 6629SOL    HW121328   2.129   2.115   1.311  1.3459 -1.9877 -1.1342
 6629SOL    HW221329   2.243   2.200   1.259 -0.0904  0.0318 -1.1074
 6630SOL     OW21330   0.919   0.259   3.583  0.4316 -0.5468 -0.3260
 6630SOL    HW121331   0.827   0.279   3.598 -0.0215 -1.5103 -1.6185
 6630SOL    HW221332   0.953   0.232   3.668 -0.2817  0.5093  0.3110
 6631SOL     OW21333   4.212   1.721   4.968  0.3636 -0.1353  0.4525
 6631SOL    HW121334   4.298   1.680   4.953  0.3393  0.2214 -0.8475
 6631SOL    HW221335   4.211   1.794   4.907 -0.7340  0.0726  0.7117
 6632SOL     OW21336   2.826   2.341   4.601 -0.3298  0.3037  1.0762
 6632SOL    HW121337   2.886   2.278   4.640 -0.6179  1.0830  2.8964
 6632SOL    HW221338   2.881   2.395   4.544  0.2568 -0.4119  0.9562
 6633SOL     OW21339   4.656   7.548   7.951 -0.2380 -0.1994  0.4731
 6633SOL    HW121340   4.750   7.538   7.931 -0.6041  0.4808 -1.9974
 6633SOL    HW221341   4.640   7.642   7.939 -1.6097 -0.6093 -1.2918
 6634SOL     OW21342   2.722   0.550   4.735 -0.2112 -0.8301 -0.0392
 6634SOL    HW121343   2.704   0.469   4.688  0.5748 -1.2413  0.3543
 6634SOL    HW221344   2.809   0.538   4.772 -0.3438 -0.0603  0.5575
 6635SOL     OW21345   3.381   1.113   4.248 -0.2158 -0.2860 -0.9056
 6635SOL    HW121346   3.386   1.168   4.326  0.2636 -3.3506  1.4592
 6635SOL    HW221347   3.288   1.100   4.233 -0.3176 -0.0191 -0.5207
 6636SOL     OW21348   2.073   1.291   4.582  0.1707 -0.4712  0.8488
 6636SOL    HW121349   2.039   1.209   4.546  0.4992 -1.1623  2.0678
 6636SOL    HW221350   2.113   1.335   4.507  0.7332 -1.8141  0.3328
 6637SOL     OW21351   3.386   0.931   5.817  0.1346  0.0292 -0.3414
 6637SOL    HW121352   3.304   0.904   5.860  0.1019  1.8413  0.8386
 6637SOL    HW221353   3.362   1.012   5.770  1.7245  2.0559  2.0973
 6638SOL     OW21354   2.090   0.948   4.019 -0.6892  0.0213  0.5512
 6638SOL    HW121355   2.059   1.033   4.051 -1.1574  0.1404 -0.1801
 6638SOL    HW221356   2.027   0.885   4.053 -0.9037  0.0881  0.2819
 6639SOL     OW21357   2.909   2.012   3.744 -0.3294 -0.7954  0.1340
 6639SOL    HW121358   2.870   1.944   3.689  1.7874 -1.6901 -0.3695
 6639SOL    HW221359   2.928   1.967   3.827 -0.5304 -0.3259  0.4385
 6640SOL     OW21360   1.978   0.380   4.930 -0.5178 -0.4394  0.5523
 6640SOL    HW121361   1.957   0.349   5.019 -1.5602 -0.1482  0.4268
 6640SOL    HW221362   2.006   0.470   4.942  0.1732 -0.6692  0.6721
 6641SOL     OW21363   2.581   7.284   4.610  0.5665  0.1318  0.1760
 6641SOL    HW121364   2.636   7.314   4.683  0.4156 -0.4068  0.5177
 6641SOL    HW221365   2.643   7.260   4.542  0.7175  0.3935  0.2179
 6642SOL     OW21366   2.067   0.634   5.005  0.2800  0.4822  0.1252
 6642SOL    HW121367   2.160   0.634   4.980  0.6241 -2.0928  1.0352
 6642SOL    HW221368   2.069   0.634   5.100 -0.4849 -1.9277  0.2147
 6643SOL     OW21369   1.960   2.390   6.018  0.1345  0.1622  0.9206
 6643SOL    HW121370   1.952   2.441   6.099  0.5124 -1.4555  2.0075
 6643SOL    HW221371   2.024   2.322   6.038 -1.7762 -1.9720  0.1922
 6644SOL     OW21372   3.502   6.689   4.716  0.5794  0.3074  0.0860
 6644SOL    HW121373   3.449   6.617   4.683  1.9830  0.0244 -1.6817
 6644SOL    HW221374   3.488   6.687   4.811 -2.6022  0.3321 -0.2673
 6645SOL     OW21375   2.489   1.455   4.376 -0.5928  0.1294 -0.4560
 6645SOL    HW121376   2.461   1.389   4.440 -0.7791 -1.8344 -2.4602
 6645SOL    HW221377   2.529   1.524   4.430  0.6278 -2.0827  1.7114
 6646SOL     OW21378   3.097   0.253   3.587  0.4885  0.1315 -0.6465
 6646SOL    HW121379   3.180   0.219   3.552  2.8451  1.9425  2.5926
 6646SOL    HW221380   3.069   0.319   3.523  3.2868  1.6645 -0.4292
 6647SOL     OW21381   1.292   0.271   4.907  0.0501 -0.3383 -0.3588
 6647SOL    HW121382   1.246   0.355   4.902 -0.3730 -0.6131 -1.3323
 6647SOL    HW221383   1.304   0.256   5.000 -3.7206 -1.2310  0.1731
 6648SOL     OW21384   3.218   0.756   6.589  0.9555  0.1953 -0.0872
 6648SOL    HW121385   3.145   0.764   6.651  1.8000 -0.3533  1.0264
 6648SOL    HW221386   3.273   0.686   6.626  1.0701 -0.7441 -1.9047
 6649SOL     OW21387   2.051   0.952   6.355 -0.2785  0.0572  0.3845
 6649SOL    HW121388   2.003   0.991   6.282  0.0783 -0.0793  0.0750
 6649SOL    HW221389   2.142   0.949   6.326 -0.0836  0.2712  0.9468
 6650SOL     OW21390   2.921   6.507   3.537  0.2648 -0.0172 -0.2509
 6650SOL    HW121391   2.893   6.596   3.517 -0.2284 -0.3513 -1.0706
 6650SOL    HW221392   2.903   6.497   3.631 -1.1621  0.2193 -0.4842
 6651SOL     OW21393   2.328   0.741   5.286  0.0838 -0.6519  0.7343
 6651SOL    HW121394   2.297   0.653   5.263  0.3370 -0.2537 -1.2653
 6651SOL    HW221395   2.420   0.729   5.309  0.5969 -0.7234 -1.1823
 6652SOL     OW21396   4.079   7.729   3.091 -0.6542  0.0064 -0.7910
 6652SOL    HW121397   4.120   7.642   3.083 -1.0486 -0.4625  1.5729
 6652SOL    HW221398   4.132   7.785   3.034  2.6730 -0.7800  1.2243
 6653SOL     OW21399   3.959   1.147   4.687  0.1377 -0.1315 -0.2013
 6653SOL    HW121400   3.895   1.098   4.739  1.0130 -0.9335  0.1646
 6653SOL    HW221401   4.024   1.176   4.751  1.5909 -1.7163 -0.8805
 6654SOL     OW21402   2.832   0.048   4.286  0.4654  0.3328 -0.1983
 6654SOL    HW121403   2.891   0.062   4.212 -1.5027  3.9679 -1.3233
 6654SOL    HW221404   2.884   0.074   4.363  1.0194  1.3507 -0.8979
 6655SOL     OW21405   2.056   2.307   4.672 -1.0354  0.4485 -0.2013
 6655SOL    HW121406   2.033   2.371   4.604 -0.9340  0.1002 -0.5609
 6655SOL    HW221407   2.034   2.352   4.754 -1.4223  0.7653 -0.4709
 6656SOL     OW21408   1.916   1.344   2.876  0.2032  0.7534  0.7904
 6656SOL    HW121409   1.969   1.419   2.902  0.2703  0.6624  0.9200
 6656SOL    HW221410   1.978   1.287   2.828 -0.0172  1.1161  0.0548
 6657SOL     OW21411   0.428   7.463   4.681 -0.0738  0.1827 -0.3983
 6657SOL    HW121412   0.507   7.410   4.695 -0.1626  0.6095  2.2134
 6657SOL    HW221413   0.461   7.548   4.652  0.2789 -0.2808 -1.3804
 6658SOL     OW21414   2.402   1.805   5.602 -0.4870  0.6198 -0.3138
 6658SOL    HW121415   2.423   1.718   5.636 -1.5492  0.8318  1.0043
 6658SOL    HW221416   2.358   1.788   5.518  2.0097  0.0690 -1.5888
 6659SOL     OW21417   2.202   0.129   5.141 -0.7145 -0.0186  0.0964
 6659SOL    HW121418   2.277   0.083   5.178 -1.4549 -0.7813  0.6775
 6659SOL    HW221419   2.184   0.200   5.202 -0.0218  0.6301 -0.4282
 6660SOL     OW21420   2.796   1.660   6.545  0.5866 -0.6793  0.2515
 6660SOL    HW121421   2.847   1.647   6.465  0.5139 -0.1223  0.1084
 6660SOL    HW221422   2.733   1.587   6.545 -0.1671 -0.0683 -0.8030
 6661SOL     OW21423   3.075   1.203   4.478 -0.1079 -0.5796 -0.0615
 6661SOL    HW121424   3.167   1.226   4.469 -0.0478  0.6222  2.8067
 6661SOL    HW221425   3.029   1.264   4.420  0.8385 -1.3160 -1.6671
 6662SOL     OW21426   3.876   1.750   4.871  0.2835  0.1092 -0.5721
 6662SOL    HW121427   3.892   1.666   4.912  1.3609  0.1711 -0.8338
 6662SOL    HW221428   3.898   1.815   4.938 -1.3698  0.2040 -0.0759
 6663SOL     OW21429   1.443   0.822   4.798  0.7720 -0.3748 -0.3767
 6663SOL    HW121430   1.378   0.765   4.759  1.7552 -0.0753 -2.5642
 6663SOL    HW221431   1.438   0.803   4.892 -1.6376 -1.1613 -0.5992
 6664SOL     OW21432   2.797   0.386   5.016 -0.7361 -0.4011  0.0115
 6664SOL    HW121433   2.853   0.449   4.969 -0.2746 -0.3565  0.6107
 6664SOL    HW221434   2.857   0.317   5.043 -0.9616 -0.3427  0.6827
 6665SOL     OW21435   3.395   0.773   3.639 -0.0906 -0.2500 -0.2823
 6665SOL    HW121436   3.447   0.793   3.717 -0.1637  1.1682 -0.5621
 6665SOL    HW221437   3.456   0.783   3.566 -0.0991 -1.2646 -0.4452
 6666SOL     OW21438   3.902   7.472   4.219 -0.3755  0.5830 -0.0269
 6666SOL    HW121439   3.855   7.553   4.238  3.3839  3.0218  0.0664
 6666SOL    HW221440   3.889   7.459   4.125 -0.0652  2.0653 -0.3046
 6667SOL     OW21441   4.041   0.587   4.193  0.6311  0.5260  0.0184
 6667SOL    HW121442   4.077   0.609   4.279 -0.3051  0.2383  0.4887
 6667SOL    HW221443   4.118   0.571   4.139  1.2257  0.3300  0.9001
 6668SOL     OW21444   3.058   7.929   7.780  0.6098 -0.5594  0.2695
 6668SOL    HW121445   3.044   7.982   7.858  1.0724  0.3770 -0.2668
 6668SOL    HW221446   3.153   7.913   7.779  0.7385  0.2051 -0.5802
 6669SOL     OW21447   1.373   0.182   5.153 -0.7463 -0.0219  0.4350
 6669SOL    HW121448   1.459   0.210   5.185 -1.4428 -0.1258  2.5623
 6669SOL    HW221449   1.341   0.120   5.219 -2.6908  0.4451  0.0150
 6670SOL     OW21450   1.999   7.957   4.952 -0.5569  0.1258  0.4900
 6670SOL    HW121451   1.925   8.015   4.937  0.6653  1.6668  0.2032
 6670SOL    HW221452   1.973   7.875   4.910 -1.1997  1.3291 -1.6372
 6671SOL     OW21453   4.052   2.731   4.464 -0.4199  0.3234  0.6427
 6671SOL    HW121454   4.114   2.745   4.535  0.1629  1.1933 -0.0252
 6671SOL    HW221455   3.994   2.807   4.466 -0.4074  0.3500  0.1911
 6672SOL     OW21456   2.500   2.265   4.641 -0.0764 -0.6124 -0.0535
 6672SOL    HW121457   2.449   2.321   4.583 -0.6315 -1.6404 -0.5929
 6672SOL    HW221458   2.576   2.317   4.665 -0.6793  0.4340 -0.3752
 6673SOL     OW21459   2.779   0.284   4.641 -0.0003 -0.3548 -0.0838
 6673SOL    HW121460   2.823   0.258   4.722 -1.1122  0.3680  0.7844
 6673SOL    HW221461   2.830   0.242   4.572 -0.0752 -2.5309  1.0745
 6674SOL     OW21462   2.959   0.739   3.557 -0.0134 -0.0672 -0.5176
 6674SOL    HW121463   2.969   0.676   3.628 -1.1283  0.6803  0.3543
 6674SOL    HW221464   3.040   0.789   3.557  0.6011 -1.0297 -0.7705
 6675SOL     OW21465   2.943   2.776   5.120 -0.2277  0.3236 -0.0080
 6675SOL    HW121466   2.927   2.842   5.053 -2.7475 -1.3366 -1.2208
 6675SOL    HW221467   2.917   2.818   5.202  0.0248  1.4067 -0.4612
 6676SOL     OW21468   3.722   0.235   4.264  0.2456 -0.1639 -0.2573
 6676SOL    HW121469   3.778   0.295   4.215 -1.3531  0.8652 -0.9020
 6676SOL    HW221470   3.633   0.266   4.248 -0.4672 -1.0501  1.6449
 6677SOL     OW21471   2.142   6.430   4.578 -0.4112 -1.2983 -0.8469
 6677SOL    HW121472   2.201   6.451   4.651 -1.2936  1.5571 -0.8529
 6677SOL    HW221473   2.200   6.423   4.502  0.1126 -0.2951 -0.5528
 6678SOL     OW21474   1.696   0.687   5.121  0.2924 -0.0100 -0.0733
 6678SOL    HW121475   1.648   0.615   5.079  0.8719 -1.3268  1.3875
 6678SOL    HW221476   1.711   0.655   5.211 -1.0666  2.7282  1.2404
 6679SOL     OW21477   2.639   0.346   4.307 -0.1854 -0.2744  0.2289
 6679SOL    HW121478   2.689   0.266   4.322  0.4674  0.3665  1.6448
 6679SOL    HW221479   2.572   0.345   4.375  0.6107  0.9826  1.0574
 6680SOL     OW21480   3.187   6.847   5.760 -0.3786  0.3224 -0.2484
 6680SOL    HW121481   3.273   6.889   5.748  0.1777 -1.2577 -2.6010
 6680SOL    HW221482   3.163   6.866   5.850  1.4458  2.6309 -0.1508
 6681SOL     OW21483   3.012   1.542   3.585 -0.1706  0.2390  0.5712
 6681SOL    HW121484   3.076   1.597   3.540 -0.4044  0.7693  0.8760
 6681SOL    HW221485   3.006   1.462   3.532 -0.7336  1.0077 -0.5535
 6682SOL     OW21486   1.997   0.645   5.279 -0.2912  0.4001 -0.3761
 6682SOL    HW121487   2.016   0.620   5.370 -1.8057  1.9962  0.4316
 6682SOL    HW221488   1.908   0.613   5.264  0.0643 -0.1368 -1.4462
 6683SOL     OW21489   1.410   7.649   5.421  0.0854  0.1690  0.3391
 6683SOL    HW121490   1.365   7.615   5.499 -1.1522  0.7807 -0.0721
 6683SOL    HW221491   1.464   7.577   5.391 -0.2575 -0.4481  1.1448
 6684SOL     OW21492   3.922   0.328   5.253 -0.3319  0.0194 -0.3609
 6684SOL    HW121493   3.895   0.388   5.322 -1.1256 -0.1428 -0.5259
 6684SOL    HW221494   3.890   0.369   5.172 -2.2412 -1.3442 -0.3633
 6685SOL     OW21495   2.953   1.689   4.441  0.2335 -0.0560  0.1481
 6685SOL    HW121496   2.881   1.743   4.474 -0.6424 -0.9826 -0.1901
 6685SOL    HW221497   3.029   1.717   4.492 -0.1180  1.6983 -0.2284
 6686SOL     OW21498   3.595   2.239   5.047 -0.1640 -0.6460  0.1641
 6686SOL    HW121499   3.642   2.313   5.086 -1.1704  0.3724 -0.4821
 6686SOL    HW221500   3.551   2.197   5.121  0.5625 -0.7270  0.5614
 6687SOL     OW21501   1.023   0.493   2.904  0.0598  0.3622  0.0110
 6687SOL    HW121502   0.999   0.497   2.811 -3.0331 -0.3951  0.6630
 6687SOL    HW221503   1.090   0.425   2.909  1.4378  1.5042 -1.8117
 6688SOL     OW21504   2.456   7.591   4.578  0.2798  0.4350 -0.1874
 6688SOL    HW121505   2.499   7.624   4.657  1.9940 -0.4874 -0.6873
 6688SOL    HW221506   2.457   7.665   4.517 -2.1158  1.5361  0.9698
 6689SOL     OW21507   4.929   0.716   4.937 -0.0491  0.2119  0.2067
 6689SOL    HW121508   5.016   0.706   4.899  0.0247 -1.8468  0.8048
 6689SOL    HW221509   4.917   0.811   4.947  1.9073  0.5450 -0.3208
 6690SOL     OW21510   3.993   0.653   4.752 -0.2700 -0.0434 -0.0890
 6690SOL    HW121511   3.980   0.731   4.806  1.2360 -0.0985  0.4048
 6690SOL    HW221512   3.905   0.622   4.732 -0.9111  1.8597 -0.4104
 6691SOL     OW21513   4.349   1.474   5.561  0.1650 -0.1859  0.0671
 6691SOL    HW121514   4.438   1.444   5.577  0.5708  1.4948  1.2638
 6691SOL    HW221515   4.300   1.449   5.639 -0.6210 -1.6657 -0.8445
 6692SOL     OW21516   1.850   1.257   3.200  0.1240  0.6300 -0.0707
 6692SOL    HW121517   1.781   1.322   3.186 -0.3182 -0.1422 -1.8198
 6692SOL    HW221518   1.805   1.183   3.241  0.0299  0.3773 -0.6181
 6693SOL     OW21519   2.477   0.392   3.762 -0.1515  0.0451  0.2029
 6693SOL    HW121520   2.510   0.341   3.836 -2.5849 -3.6940 -0.9758
 6693SOL    HW221521   2.391   0.422   3.791 -0.2364  0.3593 -0.3640
 6694SOL     OW21522   3.458   0.922   4.030  0.3559  0.9679  0.4599
 6694SOL    HW121523   3.408   0.941   3.950 -2.7898 -0.6139  1.8682
 6694SOL    HW221524   3.427   0.988   4.092 -0.9405 -0.7189  1.6806
 6695SOL     OW21525   0.864   1.001   3.958 -0.5330 -0.2820 -0.0018
 6695SOL    HW121526   0.777   0.974   3.987  0.1671 -1.0767  1.4828
 6695SOL    HW221527   0.868   0.975   3.866 -1.2959 -1.7563  0.3483
 6696SOL     OW21528   2.474   0.060   3.805  0.0996  0.2029  0.2432
 6696SOL    HW121529   2.520  -0.022   3.821 -0.9781 -0.2854  1.0048
 6696SOL    HW221530   2.442   0.088   3.891 -1.1933  0.3904 -0.2622
 6697SOL     OW21531   3.134   3.050   6.226  0.2954 -0.1635  0.6530
 6697SOL    HW121532   3.055   3.026   6.178  1.0040 -0.4735 -0.3919
 6697SOL    HW221533   3.131   3.146   6.231  0.5908 -0.0545 -0.7363
 6698SOL     OW21534   2.449   6.908   5.654 -0.2526  0.6566  0.2142
 6698SOL    HW121535   2.400   6.830   5.628 -0.9495  1.3337 -0.5553
 6698SOL    HW221536   2.475   6.891   5.745 -0.4922 -0.4195  0.0919
 6699SOL     OW21537   2.768   7.148   5.002 -0.5821  0.3077 -0.0151
 6699SOL    HW121538   2.855   7.113   5.020 -0.6092  0.5519  0.6324
 6699SOL    HW221539   2.734   7.093   4.931 -0.0569 -0.0379 -0.0055
 6700SOL     OW21540   2.278   0.732   3.679  0.2604 -0.1258  0.0777
 6700SOL    HW121541   2.218   0.719   3.753  0.0339  2.1059  0.3585
 6700SOL    HW221542   2.365   0.734   3.719  0.3965 -1.5001 -0.0933
 6701SOL     OW21543   3.562   1.408   6.321  0.1739  0.2391  0.2564
 6701SOL    HW121544   3.533   1.473   6.257  0.8218  1.3984  1.0953
 6701SOL    HW221545   3.481   1.365   6.350 -0.4341  1.5641  0.6077
 6702SOL     OW21546   0.740   6.995   5.458  0.2682  0.0596  0.1612
 6702SOL    HW121547   0.807   7.057   5.428  0.0292  0.5776  0.6877
 6702SOL    HW221548   0.692   7.042   5.526 -0.9065 -0.1472 -0.4982
 6703SOL     OW21549   0.975   7.005   6.419  0.1799 -0.1107 -1.0666
 6703SOL    HW121550   0.927   7.049   6.349 -0.4914 -0.5260 -0.8803
 6703SOL    HW221551   1.051   7.061   6.436 -0.3969  0.7177 -1.1760
 6704SOL     OW21552   2.971   7.781   3.592 -0.0373  0.0816 -0.9194
 6704SOL    HW121553   2.919   7.852   3.555 -0.4932  0.7444  0.8694
 6704SOL    HW221554   2.932   7.702   3.557 -0.4951  0.6644 -1.7512
 6705SOL     OW21555   3.322   1.557   5.755 -0.2189 -0.4510 -0.4938
 6705SOL    HW121556   3.272   1.478   5.732  0.5583 -1.0495 -0.1936
 6705SOL    HW221557   3.406   1.545   5.710 -0.0091  0.0935 -0.2484
 6706SOL     OW21558   3.064   0.802   4.778  0.1817  0.3818 -0.4197
 6706SOL    HW121559   3.024   0.888   4.785 -1.2971 -0.1005 -2.1064
 6706SOL    HW221560   3.048   0.775   4.688  1.3511 -1.3093 -0.1798
 6707SOL     OW21561   3.012   0.258   3.880 -0.0887  0.0158 -0.4055
 6707SOL    HW121562   3.048   0.203   3.950  1.0911 -0.0326 -1.0177
 6707SOL    HW221563   3.009   0.200   3.804 -2.0578 -0.1470 -0.2479
 6708SOL     OW21564   3.149   1.625   5.207 -0.0428  0.1043  0.2263
 6708SOL    HW121565   3.066   1.577   5.218  0.9774 -1.5322  1.2897
 6708SOL    HW221566   3.176   1.646   5.297  0.8466  0.3210 -0.0850
 6709SOL     OW21567   2.962   0.380   5.702 -0.2175 -0.1039 -0.2346
 6709SOL    HW121568   2.951   0.285   5.694 -0.6976  0.0048 -0.9734
 6709SOL    HW221569   2.897   0.406   5.768 -0.4321 -0.2227 -0.4001
 6710SOL     OW21570   0.976   1.224   4.586  0.0981  0.0897  0.5230
 6710SOL    HW121571   1.060   1.193   4.621  0.7063  1.3958  0.3102
 6710SOL    HW221572   0.912   1.204   4.654  0.4643 -1.4842  0.4318
 6711SOL     OW21573   1.299   6.768   4.998  0.2033  0.0343  0.1063
 6711SOL    HW121574   1.295   6.674   5.011 -0.4831  0.2433  1.6462
 6711SOL    HW221575   1.253   6.783   4.916 -1.5470 -0.8150  0.8703
 6712SOL     OW21576   1.054   1.381   5.971 -0.1758  0.3317  0.4594
 6712SOL    HW121577   1.113   1.332   5.914 -0.1962 -0.4379  1.0798
 6712SOL    HW221578   1.112   1.437   6.022 -0.0025 -0.1202  0.7716
 6713SOL     OW21579   3.636   1.141   3.727  0.2580 -0.3796 -0.0224
 6713SOL    HW121580   3.606   1.171   3.641  0.4431  0.4669  0.1997
 6713SOL    HW221581   3.639   1.220   3.780 -1.2064 -1.0848  1.1855
 6714SOL     OW21582   3.732   7.682   2.808 -0.2312  0.3503  0.8870
 6714SOL    HW121583   3.740   7.680   2.904  3.1319  0.4367  0.7123
 6714SOL    HW221584   3.760   7.770   2.784 -1.2098  0.3824 -0.2138
 6715SOL     OW21585   5.235   2.462   4.399 -0.1899  0.4604  0.0731
 6715SOL    HW121586   5.178   2.535   4.375 -3.3094 -1.8827 -0.2632
 6715SOL    HW221587   5.245   2.412   4.318  0.0267 -0.6330  0.7571
 6716SOL     OW21588   4.530   2.720   4.549 -0.1054 -0.0730 -0.2488
 6716SOL    HW121589   4.605   2.743   4.604 -0.1560 -0.4189 -0.0379
 6716SOL    HW221590   4.466   2.684   4.609 -0.4849  0.3121 -0.4165
 6717SOL     OW21591   0.643   0.865   5.692  0.1514  0.1036  0.1268
 6717SOL    HW121592   0.574   0.822   5.641 -0.5059 -0.3450  1.3340
 6717SOL    HW221593   0.725   0.838   5.651 -0.3176 -1.0462 -0.0871
 6718SOL     OW21594   0.500   1.486   4.845 -0.3560 -0.0487 -0.4943
 6718SOL    HW121595   0.468   1.405   4.886 -3.4333  1.2234 -0.0683
 6718SOL    HW221596   0.486   1.553   4.912  1.3261  0.9985 -1.1389
 6719SOL     OW21597   2.330   1.271   4.016  0.3508  0.5258  0.1393
 6719SOL    HW121598   2.240   1.300   4.033  0.4695  1.8578 -1.3084
 6719SOL    HW221599   2.385   1.344   4.047  0.9616 -0.2977  1.0607
 6720SOL     OW21600   3.368   2.935   5.657 -0.4763  0.0969  0.2507
 6720SOL    HW121601   3.326   3.004   5.710  1.5561  1.7992 -0.2110
 6720SOL    HW221602   3.337   2.951   5.568  0.1771  0.6140  0.1042
 6721SOL     OW21603   1.176   1.409   5.703 -0.5283 -0.4230 -0.0314
 6721SOL    HW121604   1.135   1.494   5.720 -1.3184 -1.2185  2.5626
 6721SOL    HW221605   1.121   1.369   5.636 -0.5890  0.7969 -0.7355
 6722SOL     OW21606   2.978   7.710   4.427  0.0537 -0.1884 -0.2156
 6722SOL    HW121607   2.963   7.752   4.342 -2.6270  0.8744  0.6739
 6722SOL    HW221608   2.902   7.653   4.438  0.1142  0.0530  1.6567
 6723SOL     OW21609   0.610   3.265   4.526  0.3602 -0.7329 -0.1042
 6723SOL    HW121610   0.698   3.238   4.501  0.6509  1.7626 -2.1887
 6723SOL    HW221611   0.622   3.349   4.570 -0.9654  0.1889 -1.3791
 6724SOL     OW21612   3.333   7.307   4.842 -0.0590  0.2419  0.5018
 6724SOL    HW121613   3.285   7.238   4.796  0.0830 -0.1941  0.9953
 6724SOL    HW221614   3.265   7.365   4.876 -0.2047  0.0706  0.5065
 6725SOL     OW21615   3.486   1.597   5.345  0.3251 -0.0989 -0.2256
 6725SOL    HW121616   3.454   1.557   5.264  0.1666  0.7800 -0.6137
 6725SOL    HW221617   3.575   1.626   5.324  0.3221  0.0379 -0.0551
 6726SOL     OW21618   3.778   7.352   3.060  0.7790  0.0647  0.6623
 6726SOL    HW121619   3.683   7.349   3.053  0.6539  0.2694  2.0467
 6726SOL    HW221620   3.802   7.442   3.041  0.4326  0.6509  2.7043
 6727SOL     OW21621   1.472   0.821   5.592  0.3077  0.1583 -0.0589
 6727SOL    HW121622   1.377   0.827   5.604  0.4414  0.1031  1.1559
 6727SOL    HW221623   1.488   0.727   5.584  0.3004  0.1445  0.0882
 6728SOL     OW21624   3.071   1.059   3.561 -0.1495  0.3179 -0.2565
 6728SOL    HW121625   3.090   1.151   3.576  0.1219  0.1851  0.2247
 6728SOL    HW221626   3.002   1.059   3.495 -1.4642  0.9228  1.0703
 6729SOL     OW21627   2.732   0.440   6.128 -0.4011 -0.3015  1.1369
 6729SOL    HW121628   2.801   0.396   6.077  0.9492  0.7749  1.9739
 6729SOL    HW221629   2.651   0.407   6.091  0.3357  2.2018 -3.4904
 6730SOL     OW21630   3.488   1.040   3.103  0.0656  0.0043 -0.0594
 6730SOL    HW121631   3.428   0.996   3.043 -1.2515  1.5620  0.0293
 6730SOL    HW221632   3.458   1.013   3.190  0.8292 -0.8323 -0.0434
 6731SOL     OW21633   3.043   1.674   5.623  0.1344 -0.0853  0.2228
 6731SOL    HW121634   2.990   1.616   5.569  0.1817  0.3032 -0.2404
 6731SOL    HW221635   3.131   1.668   5.585 -0.1472  1.3604 -0.6984
 6732SOL     OW21636   4.022   1.041   7.435  0.0036 -0.0150 -0.0703
 6732SOL    HW121637   4.006   0.998   7.519  0.5951 -0.4574 -0.1739
 6732SOL    HW221638   4.025   1.134   7.456 -0.2080 -0.0960  0.3409
 6733SOL     OW21639   3.352   1.129   6.095  0.2599 -0.2196  0.1708
 6733SOL    HW121640   3.358   1.186   6.172 -0.3071 -0.8387  0.6890
 6733SOL    HW221641   3.438   1.087   6.090  0.7472  0.8045 -0.3274
 6734SOL     OW21642   2.647   0.189   3.498 -0.1874  0.4943  0.0002
 6734SOL    HW121643   2.721   0.243   3.525 -0.7972  0.5900  1.5625
 6734SOL    HW221644   2.638   0.206   3.404  1.2055  1.1559 -0.0374
 6735SOL     OW21645   3.225   0.383   3.171  0.5823 -0.0611  0.3597
 6735SOL    HW121646   3.262   0.378   3.083  1.1277 -0.7935  0.6217
 6735SOL    HW221647   3.300   0.398   3.228  0.2656  0.1316  0.7364
 6736SOL     OW21648   2.795   0.450   3.952 -0.7298  0.3617  0.0628
 6736SOL    HW121649   2.710   0.405   3.956 -0.5901  0.1526  1.7837
 6736SOL    HW221650   2.858   0.380   3.933 -0.8073  0.2693  0.1400
 6737SOL     OW21651   4.690   1.809   4.665  0.4920  0.0904 -0.0430
 6737SOL    HW121652   4.637   1.867   4.719  0.0136  0.6588 -1.0861
 6737SOL    HW221653   4.713   1.737   4.723  0.5365  0.9875  1.0867
 6738SOL     OW21654   1.992   1.797   4.561 -0.1698 -0.1822  1.1370
 6738SOL    HW121655   1.937   1.786   4.484 -2.4521  0.4193  2.5938
 6738SOL    HW221656   2.005   1.892   4.567  0.1008 -0.2378  1.4393
 6739SOL     OW21657   1.499   0.197   5.520 -0.4556 -0.1833 -0.7274
 6739SOL    HW121658   1.438   0.263   5.488  0.1252 -0.0216 -1.5326
 6739SOL    HW221659   1.582   0.244   5.528 -0.5705 -0.1906  1.0936
 6740SOL     OW21660   1.403   1.619   4.160  0.3081 -0.2317  0.2870
 6740SOL    HW121661   1.309   1.603   4.156 -0.0096  1.3271  1.0047
 6740SOL    HW221662   1.413   1.698   4.213  2.0496 -0.5464  0.5089
 6741SOL     OW21663   2.047   0.578   4.273 -0.2965  0.6543  0.6269
 6741SOL    HW121664   2.019   0.508   4.331 -0.7936  1.1089  0.9398
 6741SOL    HW221665   1.996   0.655   4.300 -1.4618  0.5853 -1.1760
 6742SOL     OW21666   2.932   0.950   4.062 -0.6287 -0.1448 -0.4848
 6742SOL    HW121667   2.970   1.025   4.017 -0.6338  1.2030  1.6122
 6742SOL    HW221668   2.843   0.943   4.026 -1.1890  1.8816  0.3513
 6743SOL     OW21669   1.729   0.533   3.296  0.2256 -0.5948  0.1463
 6743SOL    HW121670   1.687   0.499   3.217  0.0243 -1.4760  0.6231
 6743SOL    HW221671   1.722   0.462   3.359 -1.5517  0.8391  1.6600
 6744SOL     OW21672   1.765   1.712   5.686 -0.0601  0.2638  0.4068
 6744SOL    HW121673   1.739   1.628   5.650  1.4770  0.2506 -0.7600
 6744SOL    HW221674   1.691   1.740   5.739 -1.2698 -1.0274 -0.5564
 6745SOL     OW21675   0.818   1.820   4.326  0.2444  0.3331 -0.6653
 6745SOL    HW121676   0.831   1.912   4.304  3.7342 -0.1114 -1.0218
 6745SOL    HW221677   0.780   1.821   4.413 -0.3697  2.1067 -0.9227
 6746SOL     OW21678   3.707   2.929   3.410 -0.3352 -0.5579 -0.4385
 6746SOL    HW121679   3.779   2.878   3.446 -1.6118 -2.3815 -0.3373
 6746SOL    HW221680   3.650   2.947   3.485 -0.4904  0.0374 -0.6883
 6747SOL     OW21681   3.091   6.232   5.057 -0.2357 -0.2942 -0.5484
 6747SOL    HW121682   3.138   6.307   5.091  1.5510 -1.6128  0.0360
 6747SOL    HW221683   3.032   6.268   4.990  0.1710  1.6510  0.0940
 6748SOL     OW21684   2.369   0.586   5.652 -0.2960  0.0370 -0.1149
 6748SOL    HW121685   2.276   0.563   5.645  0.1659 -1.8301 -0.6545
 6748SOL    HW221686   2.407   0.560   5.568  0.8722  0.0301  0.3912
 6749SOL     OW21687   1.366   1.504   5.870  0.4576 -1.0201  0.6550
 6749SOL    HW121688   1.428   1.432   5.881 -0.0667 -1.5189  0.3662
 6749SOL    HW221689   1.314   1.479   5.794  0.9033  0.1196 -0.0557
 6750SOL     OW21690   4.126   2.264   6.284  0.3516  0.5699  0.1752
 6750SOL    HW121691   4.204   2.228   6.241  0.1586 -0.1250  0.3816
 6750SOL    HW221692   4.073   2.299   6.212 -1.1683 -2.8307 -0.5722
 6751SOL     OW21693   2.775   6.422   3.765  0.2272  0.5927 -0.5233
 6751SOL    HW121694   2.697   6.448   3.814 -0.1415  1.5693 -1.5760
 6751SOL    HW221695   2.843   6.411   3.831 -0.8942 -0.7384  0.4778
 6752SOL     OW21696   3.352   1.288   4.435 -0.0063 -0.1374 -0.3095
 6752SOL    HW121697   3.318   1.368   4.394 -0.0933  0.0087  0.0468
 6752SOL    HW221698   3.400   1.319   4.512 -0.1226 -0.4357 -0.1158
 6753SOL     OW21699   4.688   7.536   5.817  0.4035  0.2699 -0.0371
 6753SOL    HW121700   4.625   7.608   5.821  0.8734  0.6865  0.1130
 6753SOL    HW221701   4.743   7.548   5.894  0.9423  0.1832 -0.3966
 6754SOL     OW21702   2.359   1.601   6.334  0.0350 -0.0154  0.0965
 6754SOL    HW121703   2.320   1.543   6.400 -0.2759 -1.2802 -1.1548
 6754SOL    HW221704   2.299   1.675   6.328 -0.1225 -0.0600  0.9487
 6755SOL     OW21705   3.370   1.025   3.809  0.0036  0.5086  0.3430
 6755SOL    HW121706   3.451   1.035   3.760 -0.6113 -1.3852 -1.1816
 6755SOL    HW221707   3.315   1.098   3.781  0.8729  1.3596  0.8031
 6756SOL     OW21708   1.256   0.576   5.132  0.4533  0.7407  0.0181
 6756SOL    HW121709   1.305   0.550   5.210 -1.3271  2.0539  1.6726
 6756SOL    HW221710   1.284   0.665   5.115  1.9157 -0.0110 -1.8107
 6757SOL     OW21711   2.307   2.528   5.502  0.3675 -0.0358 -0.2844
 6757SOL    HW121712   2.329   2.436   5.489 -0.8397 -0.3848  0.0099
 6757SOL    HW221713   2.214   2.528   5.522  0.2165  1.3008 -0.8337
 6758SOL     OW21714   1.584   1.012   3.613 -0.1908  0.8455 -0.1121
 6758SOL    HW121715   1.533   1.071   3.670 -0.4476  0.1424  0.4026
 6758SOL    HW221716   1.669   1.005   3.657 -0.1842  0.7837 -0.1347
 6759SOL     OW21717   1.776   2.336   4.394 -0.4887 -0.2823  0.3714
 6759SOL    HW121718   1.760   2.346   4.487  1.3196  0.6305  0.6293
 6759SOL    HW221719   1.842   2.267   4.388  1.7799  1.7681  0.0828
 6760SOL     OW21720   1.713   0.540   5.389  0.2386 -0.0461  0.3569
 6760SOL    HW121721   1.639   0.554   5.449 -0.1034 -1.3923  0.2742
 6760SOL    HW221722   1.788   0.527   5.446  0.1647  0.0072  0.4670
 6761SOL     OW21723   0.287   0.588   3.949  0.4015 -0.2644  0.1684
 6761SOL    HW121724   0.244   0.659   3.900 -2.9561 -1.2046  1.4362
 6761SOL    HW221725   0.282   0.513   3.889  0.7868 -0.2615  0.1312
 6762SOL     OW21726   1.983   1.719   5.057  0.6063  0.2139  0.3525
 6762SOL    HW121727   1.977   1.721   4.962  1.1476  2.9727  0.2781
 6762SOL    HW221728   1.938   1.638   5.083 -0.8359  0.1176 -2.1528
 6763SOL     OW21729   3.408   7.168   4.437  0.1569  0.5544  0.1022
 6763SOL    HW121730   3.400   7.120   4.519 -1.2478 -0.4187 -0.5880
 6763SOL    HW221731   3.455   7.108   4.379  0.3922  0.9127 -0.0805
 6764SOL     OW21732   3.607   0.833   4.720  0.2605  0.3140  0.6470
 6764SOL    HW121733   3.513   0.854   4.714  0.4409  1.0834  0.3556
 6764SOL    HW221734   3.650   0.919   4.721  0.9053  0.0040  1.8636
 6765SOL     OW21735   3.023   0.588   3.789  0.5893  0.3374 -0.1787
 6765SOL    HW121736   3.070   0.663   3.827  0.6969 -0.0972  0.5740
 6765SOL    HW221737   2.943   0.581   3.842  0.7116 -0.2451 -0.0666
 6766SOL     OW21738   2.851   1.160   5.160  0.0290 -0.0180  0.4783
 6766SOL    HW121739   2.815   1.239   5.120  0.9614  0.5598  0.7263
 6766SOL    HW221740   2.944   1.181   5.173  0.3870 -1.3348  0.1285
 6767SOL     OW21741   2.262   2.868   2.797  0.1856 -0.1255 -0.7930
 6767SOL    HW121742   2.345   2.843   2.757  1.5063  0.1217  1.6480
 6767SOL    HW221743   2.279   2.953   2.838 -1.8591  0.8860 -1.8672
 6768SOL     OW21744   2.500   7.768   4.364  0.1972  0.7324 -0.3172
 6768SOL    HW121745   2.588   7.804   4.356  0.4633 -0.1009 -1.3232
 6768SOL    HW221746   2.455   7.796   4.285 -0.0132  0.0080 -0.4599
 6769SOL     OW21747   2.978   6.464   5.292 -0.0746 -0.2807 -0.1398
 6769SOL    HW121748   3.030   6.421   5.360 -0.8951  0.5392  1.0429
 6769SOL    HW221749   3.044   6.501   5.232  0.6862 -0.3397  0.6356
 6770SOL     OW21750   3.214   1.785   4.243 -0.4139 -0.0612 -0.4493
 6770SOL    HW121751   3.122   1.780   4.217 -1.7794  0.8852  3.4732
 6770SOL    HW221752   3.232   1.878   4.254  0.0789 -0.3401  1.4865
 6771SOL     OW21753   3.344   6.769   2.676 -0.3225  0.1625  0.1927
 6771SOL    HW121754   3.410   6.706   2.649 -0.0260  0.1695  0.8965
 6771SOL    HW221755   3.285   6.720   2.733 -1.2717  0.0034 -0.8928
 6772SOL     OW21756   1.614   0.172   3.135  0.0627  0.0845 -0.4112
 6772SOL    HW121757   1.707   0.165   3.113  0.5305  0.7872  1.2230
 6772SOL    HW221758   1.602   0.109   3.206 -0.5157  0.5845 -0.0604
 6773SOL     OW21759   2.587   2.894   5.940  0.5322  0.2176 -0.0207
 6773SOL    HW121760   2.566   2.873   6.031  2.2404 -0.2443  0.2961
 6773SOL    HW221761   2.628   2.981   5.945 -1.8760  1.4970 -0.7269
 6774SOL     OW21762   2.440   0.849   4.425  0.5921 -0.1819 -0.0578
 6774SOL    HW121763   2.349   0.852   4.453 -0.1390 -0.8757 -2.1376
 6774SOL    HW221764   2.459   0.939   4.398 -0.0277 -0.3349 -1.0865
 6775SOL     OW21765   1.338   1.381   3.547 -0.2341 -0.1309  0.2593
 6775SOL    HW121766   1.309   1.310   3.490 -0.6708 -1.8464  2.4428
 6775SOL    HW221767   1.270   1.447   3.539  0.4077  0.3166 -2.1695
 6776SOL     OW21768   3.674   7.827   3.659  0.2724 -0.4542 -0.4675
 6776SOL    HW121769   3.754   7.778   3.638  1.2076  1.8207 -2.6980
 6776SOL    HW221770   3.603   7.773   3.624  0.6389 -2.7126  1.9168
 6777SOL     OW21771   2.767   7.891   6.587  0.1488 -0.2684  0.4258
 6777SOL    HW121772   2.859   7.879   6.567 -0.1851  0.1169 -1.5947
 6777SOL    HW221773   2.722   7.871   6.505 -1.5260  0.0282  1.2271
 6778SOL     OW21774   3.126   0.352   7.110  0.2976  0.5882  0.1350
 6778SOL    HW121775   3.174   0.401   7.177 -1.8281 -0.5934  2.7334
 6778SOL    HW221776   3.184   0.280   7.086  1.0984  1.0224  0.7307
 6779SOL     OW21777   1.117   0.898   4.985 -0.0613 -0.1943  0.0806
 6779SOL    HW121778   1.024   0.918   4.979 -0.1816 -1.1604 -1.9715
 6779SOL    HW221779   1.160   0.973   4.944  0.1767  0.6570  1.7769
 6780SOL     OW21780   0.611   2.200   7.792  0.0365 -0.0117 -0.4516
 6780SOL    HW121781   0.670   2.172   7.722  0.7639 -0.2472  0.2332
 6780SOL    HW221782   0.670   2.230   7.862 -0.6923  2.3253 -0.7679
 6781SOL     OW21783   3.385   0.406   7.662  0.3373  0.8447 -0.0618
 6781SOL    HW121784   3.446   0.412   7.735  1.2427  0.3210 -0.7419
 6781SOL    HW221785   3.369   0.496   7.636  1.4442  0.9771 -0.3525
 6782SOL     OW21786   3.232   7.995   6.053 -0.0349 -0.1559 -0.4687
 6782SOL    HW121787   3.217   8.087   6.072 -3.5704 -0.7798  0.3864
 6782SOL    HW221788   3.320   7.978   6.086 -1.1596  1.7321  4.3162
 6783SOL     OW21789   4.026   7.667   7.305 -0.0965 -0.4276 -0.2756
 6783SOL    HW121790   3.976   7.738   7.345 -0.3854 -0.7512 -0.0528
 6783SOL    HW221791   4.049   7.610   7.378 -0.6426 -1.0346 -0.5652
 6784SOL     OW21792   3.208   1.090   6.811 -0.4315  0.6806 -0.9835
 6784SOL    HW121793   3.177   1.145   6.883  0.0132 -0.0676 -0.2077
 6784SOL    HW221794   3.196   1.000   6.843  2.1954  0.3385 -0.7584
 6785SOL     OW21795   2.746   1.290   6.646 -0.3960  0.1478 -0.3404
 6785SOL    HW121796   2.801   1.352   6.599  0.9968 -0.3078  0.5926
 6785SOL    HW221797   2.777   1.204   6.616  0.2034 -0.1376  1.0103
 6786SOL     OW21798   3.673   0.503   7.330 -0.0758 -0.6691  0.1089
 6786SOL    HW121799   3.646   0.570   7.393 -0.4570  0.0542 -0.8062
 6786SOL    HW221800   3.608   0.433   7.341 -1.3679  0.3292 -0.8779
 6787SOL     OW21801   3.416   1.153   7.403  0.4156 -0.4279  0.2324
 6787SOL    HW121802   3.446   1.213   7.335 -2.6829  2.8702  1.4523
 6787SOL    HW221803   3.477   1.166   7.476  0.4232  0.4836  0.0752
 6788SOL     OW21804   2.154   1.096   4.297 -0.0613 -0.5178  0.6473
 6788SOL    HW121805   2.157   1.192   4.294  1.1685 -0.5538  0.5527
 6788SOL    HW221806   2.065   1.075   4.270 -0.4207  0.6070  0.8829
 6789SOL     OW21807   4.835   3.036   5.983 -0.1746 -0.3394  0.3324
 6789SOL    HW121808   4.780   3.004   5.912 -0.0194 -0.6122  0.3330
 6789SOL    HW221809   4.910   3.076   5.940 -0.9996  1.2474  0.2891
 6790SOL     OW21810   2.247   0.569   6.287  0.6834 -0.0271 -0.5018
 6790SOL    HW121811   2.224   0.609   6.370 -0.8469 -1.5579 -0.1287
 6790SOL    HW221812   2.204   0.624   6.221 -1.8934 -1.2426  0.0312
 6791SOL     OW21813   1.528   1.308   5.875  0.0336  0.3640 -0.0827
 6791SOL    HW121814   1.529   1.287   5.781 -0.6461  1.0732 -0.2599
 6791SOL    HW221815   1.619   1.331   5.895 -0.1081  1.8083 -0.9649
 6792SOL     OW21816   2.963   3.045   5.997 -0.0050 -0.4402  0.1902
 6792SOL    HW121817   3.025   3.118   6.000  0.1284 -0.5897  1.5452
 6792SOL    HW221818   2.881   3.084   5.969  0.1749  0.1525  0.4662
 6793SOL     OW21819   3.119   1.864   8.350 -0.5049  0.1630 -0.5485
 6793SOL    HW121820   3.200   1.878   8.301 -1.9408  1.0091 -2.8405
 6793SOL    HW221821   3.059   1.931   8.317 -2.4268 -0.9937  0.4002
 6794SOL     OW21822   0.902   2.009   6.307 -0.5356 -0.3001  0.3588
 6794SOL    HW121823   0.819   2.054   6.318 -0.0900  0.4130  0.8910
 6794SOL    HW221824   0.907   1.948   6.380  0.0241  0.6486  1.1321
 6795SOL     OW21825   1.625   1.170   6.582 -0.3003  0.0438 -0.0314
 6795SOL    HW121826   1.618   1.194   6.674 -3.0092  3.0271 -0.8293
 6795SOL    HW221827   1.713   1.200   6.556 -0.7297  2.3340  0.8878
 6796SOL     OW21828   2.255   1.043   6.898 -0.7692  0.0007 -0.1431
 6796SOL    HW121829   2.327   1.106   6.896 -0.4032 -0.3831  0.4918
 6796SOL    HW221830   2.276   0.981   6.828 -1.5464  0.9956 -1.3150
 6797SOL     OW21831   1.646   7.704   5.562  0.0419  0.2117  0.0819
 6797SOL    HW121832   1.597   7.684   5.483 -1.3970 -3.4871  1.6615
 6797SOL    HW221833   1.737   7.681   5.541 -0.8025 -3.9815  0.2501
 6798SOL     OW21834   4.270   0.173   5.934 -0.0215 -0.6743  0.7370
 6798SOL    HW121835   4.352   0.172   5.984 -1.7311  0.0544  3.8442
 6798SOL    HW221836   4.281   0.245   5.872  2.0336 -1.2730  0.3079
 6799SOL     OW21837   2.188   1.434   6.452  0.2335 -0.6081 -0.0827
 6799SOL    HW121838   2.114   1.410   6.397 -0.6912 -0.9193  1.2586
 6799SOL    HW221839   2.194   1.364   6.518  1.4570 -0.3724  0.0923
 6800SOL     OW21840   3.702   2.522   5.589  0.9941  0.3696  0.5597
 6800SOL    HW121841   3.669   2.473   5.665  1.2322 -0.0412  0.4010
 6800SOL    HW221842   3.629   2.579   5.564 -0.0223 -1.2827 -0.4390
 6801SOL     OW21843   0.648   7.941   3.409 -0.0176  0.1907 -0.2251
 6801SOL    HW121844   0.682   7.925   3.497  3.0976  0.7285 -1.2190
 6801SOL    HW221845   0.677   8.030   3.388 -1.5447  0.4476 -1.4854
 6802SOL     OW21846   2.592   1.284   6.377  0.8322  0.1085  0.3203
 6802SOL    HW121847   2.664   1.238   6.421  0.1414 -0.8125  0.4942
 6802SOL    HW221848   2.513   1.237   6.402  0.1673  1.0110 -0.0061
 6803SOL     OW21849   5.099   7.786   6.640 -0.0282  0.3092 -0.6255
 6803SOL    HW121850   5.057   7.719   6.586 -1.8049 -0.3718  1.4515
 6803SOL    HW221851   5.169   7.739   6.686 -2.5908 -0.8819  2.4555
 6804SOL     OW21852   0.958   0.728   6.816 -0.4274  0.6564  0.4664
 6804SOL    HW121853   0.883   0.755   6.763 -1.4261 -1.2889  0.7814
 6804SOL    HW221854   0.937   0.638   6.842  1.7014  0.3204  1.1728
 6805SOL     OW21855   7.534   1.596   7.322  0.1540 -0.4342  0.0525
 6805SOL    HW121856   7.560   1.588   7.414  1.5878 -0.2982 -0.3106
 6805SOL    HW221857   7.461   1.535   7.312  1.1475 -1.7941  0.8655
 6806SOL     OW21858   2.824   1.144   7.813 -0.3892  0.1566 -0.2828
 6806SOL    HW121859   2.829   1.105   7.725  0.0235  1.6524 -0.9518
 6806SOL    HW221860   2.747   1.104   7.852 -1.2027  0.2461 -1.7306
 6807SOL     OW21861   2.222   7.970   7.425 -0.2965 -0.0498  0.3465
 6807SOL    HW121862   2.168   8.041   7.459 -1.2132  0.1087 -1.3184
 6807SOL    HW221863   2.161   7.914   7.377  0.6682 -1.0914  0.2939
 6808SOL     OW21864   0.606   0.333   7.366 -0.5284  0.6900  0.1870
 6808SOL    HW121865   0.693   0.314   7.329 -1.0763  1.1037 -1.4026
 6808SOL    HW221866   0.619   0.330   7.460  1.2925  1.0654 -0.0154
 6809SOL     OW21867   2.756   1.632   5.970  0.0801 -0.0854  0.1509
 6809SOL    HW121868   2.735   1.700   5.907 -0.5498  1.0105  1.4845
 6809SOL    HW221869   2.692   1.563   5.953  1.3119 -0.8157 -1.8273
 6810SOL     OW21870   4.434   1.942   6.473 -0.2523 -0.0715 -0.5097
 6810SOL    HW121871   4.461   1.970   6.386 -1.8226 -1.6249 -1.5485
 6810SOL    HW221872   4.492   1.868   6.494 -0.8094 -0.6119 -0.8606
 6811SOL     OW21873   3.583   0.406   9.127  0.0551  0.1602  0.3035
 6811SOL    HW121874   3.527   0.478   9.100  0.4461  0.8273  1.1968
 6811SOL    HW221875   3.523   0.336   9.152 -0.3314  0.2139 -0.4720
 6812SOL     OW21876   2.154   3.782   7.603 -0.0450  0.0616  0.5572
 6812SOL    HW121877   2.218   3.712   7.614 -0.2992 -0.3809 -0.6104
 6812SOL    HW221878   2.201   3.861   7.630  0.1166 -0.5840  2.2595
 6813SOL     OW21879   3.260   1.389   4.867 -0.1569 -0.6189 -0.0921
 6813SOL    HW121880   3.192   1.448   4.898 -0.9994 -1.0135 -1.0885
 6813SOL    HW221881   3.283   1.422   4.780  0.6210 -0.7407  0.0586
 6814SOL     OW21882   2.452   1.531   5.122  0.0867  0.5839  0.2051
 6814SOL    HW121883   2.511   1.606   5.110 -0.3695  1.0295  0.7175
 6814SOL    HW221884   2.453   1.486   5.037  1.9146  0.0174  0.4975
 6815SOL     OW21885   4.715   1.053   6.403 -0.0997 -0.3398  0.7823
 6815SOL    HW121886   4.666   1.128   6.436  1.6417  1.0657  0.3183
 6815SOL    HW221887   4.669   1.027   6.323  1.5196  2.9520 -1.4342
 6816SOL     OW21888   2.648   1.974   5.555  0.4714 -0.4474  0.2543
 6816SOL    HW121889   2.697   1.962   5.473 -0.0539  1.7431 -0.4298
 6816SOL    HW221890   2.586   1.901   5.556  0.9991 -0.9458 -0.9154
 6817SOL     OW21891   3.451   0.031   6.768 -0.2157 -0.0194 -0.3194
 6817SOL    HW121892   3.496   0.015   6.684  2.2497 -0.6498  1.0157
 6817SOL    HW221893   3.401   0.112   6.753 -0.1288 -0.3034 -2.4810
 6818SOL     OW21894   3.510   0.809  10.079 -0.4699 -0.2915  0.1350
 6818SOL    HW121895   3.495   0.901  10.057 -0.4786 -0.3396 -0.0690
 6818SOL    HW221896   3.605   0.798  10.071 -0.6492 -0.7813 -1.8362
 6819SOL     OW21897   3.653   1.982   7.842 -0.2436  0.2975  0.1705
 6819SOL    HW121898   3.714   2.010   7.910  0.2565  0.7867 -0.4657
 6819SOL    HW221899   3.701   1.916   7.792 -0.4978  0.1654  0.0964
 6820SOL     OW21900   1.797   1.269   5.935  0.1016  0.5883 -0.0852
 6820SOL    HW121901   1.780   1.329   6.008 -1.1047 -0.0351  0.1790
 6820SOL    HW221902   1.840   1.194   5.976  1.8792  1.3682 -0.4613
 6821SOL     OW21903   2.660   1.295   5.517 -0.3448 -0.0298 -0.2621
 6821SOL    HW121904   2.665   1.204   5.490 -0.6148 -0.5330  1.2760
 6821SOL    HW221905   2.582   1.329   5.473  0.1966 -0.2949 -1.4681
 6822SOL     OW21906   1.508   0.535   5.574 -0.3687 -0.1643  0.4178
 6822SOL    HW121907   1.445   0.487   5.520 -0.6727  0.2177  0.4345
 6822SOL    HW221908   1.531   0.473   5.644 -0.2166 -0.5437  0.0399
 6823SOL     OW21909   1.593   1.348   7.350 -1.0608 -0.4058 -0.2431
 6823SOL    HW121910   1.524   1.298   7.394 -1.2239 -0.9235 -1.0867
 6823SOL    HW221911   1.665   1.350   7.414 -2.3256  1.3420  1.2311
 6824SOL     OW21912   2.624   7.182   5.994  0.1954  0.3605  0.6313
 6824SOL    HW121913   2.603   7.089   5.982 -0.8709  0.5233  1.0510
 6824SOL    HW221914   2.675   7.206   5.917 -0.6123 -0.2702 -0.1142
 6825SOL     OW21915   2.961   6.270   7.030 -0.0731 -0.6090 -0.0589
 6825SOL    HW121916   2.914   6.279   6.947 -0.3706  0.7841  0.2328
 6825SOL    HW221917   3.051   6.251   7.006  0.4811  2.4690 -0.8616
 6826SOL     OW21918   2.412   3.253   6.650 -0.3078  0.2508  0.0090
 6826SOL    HW121919   2.382   3.181   6.596  1.9588  1.0183 -2.5085
 6826SOL    HW221920   2.333   3.303   6.671 -1.5168 -1.3156 -0.6748
 6827SOL     OW21921   2.102   0.691   6.108 -0.0086  0.1269 -0.5267
 6827SOL    HW121922   2.063   0.698   6.021  0.2277 -0.0154 -0.6451
 6827SOL    HW221923   2.030   0.660   6.164  0.5209 -2.6522 -1.2296
 6828SOL     OW21924   0.753   1.709   4.592 -0.5028 -0.2434 -0.3594
 6828SOL    HW121925   0.717   1.621   4.608 -1.8022  0.4918  0.9990
 6828SOL    HW221926   0.677   1.767   4.593  0.5829  1.2545  1.6111
 6829SOL     OW21927   0.218   2.200   6.090 -0.1418 -0.0611  0.4786
 6829SOL    HW121928   0.291   2.250   6.053  1.0749  0.2830  3.0986
 6829SOL    HW221929   0.243   2.109   6.078 -0.4346  0.0077 -0.7344
 6830SOL     OW21930   2.778   1.069   5.751 -0.1448  0.0477 -0.2013
 6830SOL    HW121931   2.746   1.115   5.674 -1.6700  0.1168  0.4232
 6830SOL    HW221932   2.731   1.110   5.824  3.1701  1.7930  1.1401
 6831SOL     OW21933   1.867   0.942   6.787 -0.6870 -0.1042  0.6131
 6831SOL    HW121934   1.926   0.998   6.837  1.5367 -1.7290 -0.0236
 6831SOL    HW221935   1.888   0.960   6.695 -2.6648  0.7435  0.2919
 6832SOL     OW21936   4.101   2.689   5.018 -0.1924 -0.2361  0.0973
 6832SOL    HW121937   4.078   2.782   5.022 -1.1710 -0.5091  1.8501
 6832SOL    HW221938   4.193   2.686   5.044  0.2496  0.3293 -1.2852
 6833SOL     OW21939   3.457   1.681   7.255  0.1726 -0.3690 -0.0841
 6833SOL    HW121940   3.503   1.724   7.182  0.0780  0.9460  0.6094
 6833SOL    HW221941   3.484   1.730   7.332  1.0503 -2.3426  0.9435
 6834SOL     OW21942   3.128   0.848   6.873  0.1862  0.1005  0.1527
 6834SOL    HW121943   3.149   0.756   6.887  0.0550 -0.0159 -0.3897
 6834SOL    HW221944   3.084   0.876   6.954 -0.8491 -0.6285 -0.1393
 6835SOL     OW21945   2.527   2.095   5.036 -0.4585 -0.2544  0.0852
 6835SOL    HW121946   2.436   2.087   5.062  0.1053  0.8809  2.7592
 6835SOL    HW221947   2.526   2.084   4.941 -3.1318 -1.8760  0.1937
 6836SOL     OW21948   4.819   7.823   7.118  0.4799  0.1712  0.4647
 6836SOL    HW121949   4.904   7.780   7.105 -0.8068 -2.1315 -0.9676
 6836SOL    HW221950   4.835   7.915   7.096  1.9640 -0.7635 -2.9515
 6837SOL     OW21951   0.573   0.473   6.474  0.2270  0.1483 -0.8637
 6837SOL    HW121952   0.623   0.392   6.460 -1.1439 -1.1998  1.3475
 6837SOL    HW221953   0.484   0.451   6.446  0.1186  1.3873 -1.5616
 6838SOL     OW21954   2.728   0.333   7.243 -0.2064 -0.3188  0.2769
 6838SOL    HW121955   2.780   0.328   7.323  0.4424  2.4845  0.1467
 6838SOL    HW221956   2.789   0.366   7.177 -1.1123 -1.1359 -1.0226
 6839SOL     OW21957   3.873   2.339   8.508  0.0487 -0.9098  0.3879
 6839SOL    HW121958   3.798   2.394   8.483  2.1411  2.0475  0.1338
 6839SOL    HW221959   3.922   2.327   8.427  1.1295 -0.6691  0.9884
 6840SOL     OW21960   0.955   0.126   5.357 -0.1863  0.0374  0.1344
 6840SOL    HW121961   0.860   0.113   5.355 -0.2537  0.1529  1.4167
 6840SOL    HW221962   0.970   0.204   5.303 -0.6152 -0.8965 -1.4023
 6841SOL     OW21963   0.857   7.576   6.486 -0.5399  0.0672  0.2308
 6841SOL    HW121964   0.882   7.503   6.543  2.9743  0.6227 -0.3571
 6841SOL    HW221965   0.924   7.577   6.417 -2.6494  1.5399 -1.9945
 6842SOL     OW21966   2.725   7.866   7.418  0.6587 -0.2613  0.3274
 6842SOL    HW121967   2.770   7.911   7.489  0.2370 -1.4580  1.3913
 6842SOL    HW221968   2.647   7.919   7.400  0.5458 -0.1736  1.0591
 6843SOL     OW21969   2.168   7.761   5.602  0.1838  0.4117 -0.4533
 6843SOL    HW121970   2.218   7.816   5.542 -1.0075  0.5288 -1.3635
 6843SOL    HW221971   2.234   7.703   5.642  1.1444  1.0829 -1.0365
 6844SOL     OW21972   2.039   1.175   8.295 -0.3340  0.7196 -0.5328
 6844SOL    HW121973   1.989   1.172   8.213  0.5885 -0.9309 -1.0600
 6844SOL    HW221974   2.130   1.186   8.268  0.3189 -2.2976  0.0672
 6845SOL     OW21975   2.291   3.588   7.183 -0.0430 -0.2819  0.0487
 6845SOL    HW121976   2.206   3.614   7.219 -0.4178 -0.1006 -0.9516
 6845SOL    HW221977   2.348   3.583   7.260 -0.1778  2.5474  0.4372
 6846SOL     OW21978   3.873   0.902   7.640  0.0016 -0.4348 -0.3402
 6846SOL    HW121979   3.837   0.989   7.658 -2.1772 -1.1700 -0.7935
 6846SOL    HW221980   3.849   0.850   7.717 -0.1512 -1.0270 -0.7840
 6847SOL     OW21981   0.566   0.517   5.923  0.1219  0.2480 -0.3672
 6847SOL    HW121982   0.483   0.564   5.924 -0.1439 -0.1203  1.8539
 6847SOL    HW221983   0.627   0.574   5.970  0.1126 -0.9864  1.2646
 6848SOL     OW21984   3.309   7.123   5.594  0.6451 -0.1807  0.3426
 6848SOL    HW121985   3.360   7.045   5.578 -2.0905 -1.6886 -1.9123
 6848SOL    HW221986   3.333   7.184   5.524 -0.7509 -1.0170 -0.9165
 6849SOL     OW21987   1.551   7.978   7.284 -0.4682 -0.1256 -0.1461
 6849SOL    HW121988   1.475   7.929   7.254  0.9108 -2.7369  0.3373
 6849SOL    HW221989   1.528   8.006   7.373 -1.4238  0.4695 -0.5667
 6850SOL     OW21990   2.305   2.009   6.501  0.7158 -0.3291  0.0875
 6850SOL    HW121991   2.267   2.051   6.578 -1.5322 -1.7932 -0.1337
 6850SOL    HW221992   2.395   2.041   6.498  0.4177  0.9251  2.4452
 6851SOL     OW21993   3.249   7.702   3.640 -0.0598 -0.1336  0.0981
 6851SOL    HW121994   3.167   7.751   3.645  0.7252  1.1094  3.1654
 6851SOL    HW221995   3.229   7.616   3.677 -0.1585 -0.1269  0.0604
 6852SOL     OW21996   3.948   1.384   5.498  0.3990 -0.1559  0.5032
 6852SOL    HW121997   3.928   1.476   5.520  1.8174  0.8522 -2.0242
 6852SOL    HW221998   3.916   1.374   5.408  2.6865 -1.2828 -0.2423
 6853SOL     OW21999   1.665   0.140   6.685  0.0949 -0.6484 -0.2900
 6853SOL    HW122000   1.617   0.078   6.630 -0.0987  0.8016 -1.8756
 6853SOL    HW222001   1.735   0.173   6.628 -0.2921  1.1323  0.2029
 6854SOL     OW22002   2.403   1.362   5.447 -0.1381  0.5517 -0.2341
 6854SOL    HW122003   2.321   1.406   5.423 -0.6804  0.4529  1.3502
 6854SOL    HW222004   2.393   1.273   5.411 -1.2520  0.1760  0.9401
 6855SOL     OW22005   2.946   0.736   5.120 -0.1718 -0.5936  0.0350
 6855SOL    HW122006   3.029   0.769   5.085 -0.3865  0.0467  0.1107
 6855SOL    HW222007   2.885   0.743   5.046 -0.6830  0.9681  0.5511
 6856SOL     OW22008   2.541   0.950   6.684  0.0242  0.1735 -0.4146
 6856SOL    HW122009   2.461   0.901   6.704  0.3529  0.6008  2.4296
 6856SOL    HW222010   2.611   0.902   6.729  1.3270  0.1231 -2.3666
 6857SOL     OW22011   3.837   0.959   5.340  0.1967 -0.1503 -0.1885
 6857SOL    HW122012   3.786   0.978   5.419 -1.4684 -1.9842 -0.7622
 6857SOL    HW222013   3.915   1.014   5.349  0.4079 -0.7651  3.0578
 6858SOL     OW22014   1.542   0.964   6.081 -0.1201  0.2585  0.3313
 6858SOL    HW122015   1.581   0.919   6.006  0.0967 -1.6236  1.4813
 6858SOL    HW222016   1.614   0.974   6.143 -1.0511 -2.2441  2.0247
 6859SOL     OW22017   2.629   7.507   5.364 -0.1044  0.0559 -0.4669
 6859SOL    HW122018   2.570   7.485   5.437 -0.7957 -0.8817 -1.2773
 6859SOL    HW222019   2.625   7.430   5.307  1.3916  0.2736 -0.8839
 6860SOL     OW22020   4.003   7.872   6.992 -0.1484  0.3460 -0.3198
 6860SOL    HW122021   4.082   7.845   7.039  0.6917  2.8518 -0.1387
 6860SOL    HW222022   4.036   7.907   6.909 -1.3434 -1.0633 -1.4407
 6861SOL     OW22023   2.668   1.751   7.246  0.2913  0.2425  0.2571
 6861SOL    HW122024   2.602   1.699   7.293 -0.4622  0.2546 -0.7651
 6861SOL    HW222025   2.724   1.685   7.205 -0.8209  0.1800 -1.2592
 6862SOL     OW22026   4.127   1.538   7.040  0.1692 -0.2082  0.1605
 6862SOL    HW122027   4.068   1.468   7.013  0.9572 -0.3569 -1.3001
 6862SOL    HW222028   4.174   1.562   6.960  0.8057  1.1369  0.8961
 6863SOL     OW22029   1.890   2.073   6.685 -0.2889  0.2258  0.5429
 6863SOL    HW122030   1.875   2.077   6.590  1.2514  2.2431  0.3349
 6863SOL    HW222031   1.886   1.979   6.705 -2.0350 -0.1620 -1.2306
 6864SOL     OW22032   3.612   0.633   8.543  0.0609 -0.4360  0.6201
 6864SOL    HW122033   3.549   0.591   8.484 -0.7144  1.1702  0.2493
 6864SOL    HW222034   3.654   0.701   8.490  0.3902  0.0865  1.5194
 6865SOL     OW22035   1.512   1.215   5.594  0.1868  0.5534 -0.6572
 6865SOL    HW122036   1.545   1.158   5.525  0.7391  1.0757 -0.8301
 6865SOL    HW222037   1.487   1.296   5.549  2.4661  1.6863 -0.0151
 6866SOL     OW22038   3.315   0.053   6.364  0.0594 -0.3849  0.1998
 6866SOL    HW122039   3.361   0.000   6.429  1.3489  0.8871  0.3552
 6866SOL    HW222040   3.373   0.055   6.288  0.8486  2.1551  0.7922
 6867SOL     OW22041   4.184   1.624   4.680 -0.2588  0.2235  0.2438
 6867SOL    HW122042   4.141   1.585   4.756  1.0313 -0.0551  0.8552
 6867SOL    HW222043   4.276   1.601   4.690 -0.4594 -3.0019 -3.2842
 6868SOL     OW22044   4.229   0.863   4.682  0.2721 -0.0128 -0.1043
 6868SOL    HW122045   4.286   0.803   4.729  0.7188 -0.2993 -0.9936
 6868SOL    HW222046   4.153   0.875   4.740  0.8594 -0.2538  0.7307
 6869SOL     OW22047   3.748   1.144   6.362 -0.3391  0.5162 -0.0483
 6869SOL    HW122048   3.806   1.096   6.421 -2.7450 -1.8417  0.6079
 6869SOL    HW222049   3.676   1.174   6.417 -0.3774  2.3804 -1.0205
 6870SOL     OW22050   3.332   7.837   7.806  0.4246  0.2005 -0.3362
 6870SOL    HW122051   3.364   7.905   7.864  0.8406  0.1355 -0.4828
 6870SOL    HW222052   3.411   7.791   7.777  0.0444 -2.0590  1.8173
 6871SOL     OW22053   3.629   2.336   6.248  0.1321 -0.2148  0.0640
 6871SOL    HW122054   3.709   2.389   6.239  0.9254 -1.7607 -3.6471
 6871SOL    HW222055   3.636   2.299   6.336  4.1727 -1.1138 -0.4000
 6872SOL     OW22056   1.846   1.674   4.764  0.7154  0.2550 -0.2614
 6872SOL    HW122057   1.893   1.701   4.685 -0.7793  1.3276 -0.8319
 6872SOL    HW222058   1.820   1.584   4.747 -1.2559  1.0622 -1.8879
 6873SOL     OW22059   2.720   6.127   5.841 -0.0134 -0.1646 -0.0659
 6873SOL    HW122060   2.671   6.141   5.922 -0.0194  1.5274 -0.3274
 6873SOL    HW222061   2.684   6.047   5.804 -1.8580  0.4584  0.3014
 6874SOL     OW22062   4.143   5.386   5.745 -0.1616 -0.0375  0.2670
 6874SOL    HW122063   4.085   5.312   5.758 -0.0498 -0.3723 -1.0105
 6874SOL    HW222064   4.219   5.367   5.800  0.0762 -1.1238 -0.4032
 6875SOL     OW22065   2.725   1.871   5.819 -0.5512  0.1176 -0.1380
 6875SOL    HW122066   2.773   1.939   5.867  1.0041 -1.4776  0.6990
 6875SOL    HW222067   2.733   1.896   5.727  0.9722  0.5060  0.0684
 6876SOL     OW22068   1.395   1.486   6.978  0.3679 -0.2039 -0.0281
 6876SOL    HW122069   1.399   1.392   6.962 -1.6046 -0.2106 -0.7546
 6876SOL    HW222070   1.409   1.526   6.892 -1.0495  0.0782 -0.1414
 6877SOL     OW22071   2.783   1.411   7.789  0.2886  0.3222  0.3130
 6877SOL    HW122072   2.819   1.426   7.877 -0.3067 -0.2365  0.6641
 6877SOL    HW222073   2.780   1.315   7.781  0.0763  0.3686 -0.2080
 6878SOL     OW22074   1.516   1.231   7.101 -0.1864  0.0639  0.0085
 6878SOL    HW122075   1.556   1.285   7.169 -0.2782  0.1093  0.0266
 6878SOL    HW222076   1.423   1.229   7.124 -0.3777  0.8901 -0.6657
 6879SOL     OW22077   1.203   1.140   7.123  0.1767  0.7174 -0.6970
 6879SOL    HW122078   1.137   1.162   7.057 -1.7237 -2.5474 -0.0694
 6879SOL    HW222079   1.229   1.051   7.102  0.8576  0.2512  1.8901
 6880SOL     OW22080   2.070   0.681   5.792 -0.2190  0.6691 -0.1592
 6880SOL    HW122081   2.098   0.710   5.706  1.0035  0.8835  0.3008
 6880SOL    HW222082   2.021   0.600   5.775  0.2194  0.5791 -1.0252
 6881SOL     OW22083   3.527   7.946   6.487 -0.3002 -0.1257  0.7514
 6881SOL    HW122084   3.615   7.956   6.523 -0.2620 -0.2427  0.6931
 6881SOL    HW222085   3.534   7.869   6.431 -0.8355 -1.0991  1.9725
 6882SOL     OW22086   3.088   2.082   6.185  0.4137  0.0835 -0.1415
 6882SOL    HW122087   3.161   2.120   6.137  0.5683 -0.2549 -0.1783
 6882SOL    HW222088   3.123   2.063   6.272  0.2337  0.3641 -0.0051
 6883SOL     OW22089   3.248   2.210   5.520  0.1487 -0.7570  0.3852
 6883SOL    HW122090   3.229   2.278   5.584 -0.7807 -0.6121 -0.0244
 6883SOL    HW222091   3.246   2.255   5.436 -0.5716 -1.2855  0.1012
 6884SOL     OW22092   2.270   2.477   6.524 -0.2530  0.4322  0.7098
 6884SOL    HW122093   2.214   2.464   6.601 -0.6738  0.4593  0.4127
 6884SOL    HW222094   2.356   2.499   6.560 -0.4113  0.3015  1.1738
 6885SOL     OW22095   1.561   3.409   7.911 -0.5857  0.0762  0.3621
 6885SOL    HW122096   1.606   3.486   7.876 -2.5801  0.9441 -0.4344
 6885SOL    HW222097   1.540   3.433   8.002  2.1955 -1.1224  1.4355
 6886SOL     OW22098   4.555   1.725   6.557 -0.0773 -0.0718  0.7489
 6886SOL    HW122099   4.520   1.737   6.645  0.3855 -0.5419  1.0044
 6886SOL    HW222100   4.649   1.739   6.567 -0.2411  2.0284 -0.0779
 6887SOL     OW22101   0.987   1.032   6.275 -0.0380  0.4255 -0.2560
 6887SOL    HW122102   1.061   1.079   6.236  0.7031  1.4842  2.2350
 6887SOL    HW222103   1.000   0.941   6.248  2.4825  0.4891  0.4558
 6888SOL     OW22104   3.634   7.010   7.214 -0.2320 -0.5654  0.0804
 6888SOL    HW122105   3.712   7.051   7.177 -1.0605  0.8325 -0.1822
 6888SOL    HW222106   3.661   6.981   7.301  0.6247 -0.2838 -0.0853
 6889SOL     OW22107   2.750   0.884   6.877 -0.5688  0.4189  0.2452
 6889SOL    HW122108   2.812   0.952   6.905  0.3086  0.0658 -0.7798
 6889SOL    HW222109   2.791   0.802   6.905  0.1659  0.0786 -1.6660
 6890SOL     OW22110   4.560   1.265   6.491  0.2611 -0.2577 -0.2226
 6890SOL    HW122111   4.625   1.335   6.486 -1.0680  1.0162 -0.6498
 6890SOL    HW222112   4.476   1.311   6.495 -0.6983 -1.8380 -1.0592
 6891SOL     OW22113   1.790   0.135   6.436  0.1320 -0.6099 -1.0415
 6891SOL    HW122114   1.716   0.076   6.448 -0.6562  0.9316  4.2711
 6891SOL    HW222115   1.867   0.078   6.439 -0.6415 -1.8814 -3.1384
 6892SOL     OW22116   3.009   0.653   8.347 -0.1608 -0.1077  0.2923
 6892SOL    HW122117   3.052   0.581   8.300  0.5142  1.3162 -1.4078
 6892SOL    HW222118   3.079   0.716   8.364 -1.1060  1.1514 -0.3123
 6893SOL     OW22119   0.466   1.494   8.598 -0.0735 -0.3492  0.0600
 6893SOL    HW122120   0.439   1.438   8.525 -0.0015  0.4452 -0.6004
 6893SOL    HW222121   0.541   1.543   8.564  0.7450 -0.8419  1.0879
 6894SOL     OW22122   1.977   7.291   4.775 -0.3487  0.1602  0.1189
 6894SOL    HW122123   1.948   7.200   4.769  0.7290 -0.2376  0.6146
 6894SOL    HW222124   1.910   7.341   4.729 -0.6779 -0.9452 -0.6447
 6895SOL     OW22125   5.683   1.030   6.499  0.2785  1.0313 -0.1960
 6895SOL    HW122126   5.631   0.987   6.567 -1.1887  2.0703 -0.6195
 6895SOL    HW222127   5.753   0.967   6.479 -0.3848 -0.1011  0.9016
 6896SOL     OW22128   2.206   7.721   7.042  0.3286  0.4468  0.0296
 6896SOL    HW122129   2.267   7.663   7.087  0.9071  1.5999  0.7728
 6896SOL    HW222130   2.161   7.768   7.112  1.0898  2.1150 -0.5283
 6897SOL     OW22131   2.922   7.738   5.906  0.4721 -0.4251  0.3037
 6897SOL    HW122132   2.838   7.719   5.864  1.8876 -1.5394 -2.2812
 6897SOL    HW222133   2.934   7.667   5.970 -0.4459 -0.3449  0.5768
 6898SOL     OW22134   2.819   0.283   5.922 -0.2559 -0.2375 -0.6055
 6898SOL    HW122135   2.881   0.224   5.963 -0.0408 -1.2273 -2.2633
 6898SOL    HW222136   2.749   0.226   5.889 -0.6957  0.5658 -1.1160
 6899SOL     OW22137   0.379   1.474   7.081  0.3758  0.3724 -0.1713
 6899SOL    HW122138   0.428   1.456   7.162  1.4087  1.4662 -0.5162
 6899SOL    HW222139   0.333   1.555   7.099 -0.2837  0.0293 -0.3077
 6900SOL     OW22140   3.321   0.883   7.112 -1.0115 -0.5254  0.0137
 6900SOL    HW122141   3.333   0.881   7.017 -1.6053 -1.4615 -0.0583
 6900SOL    HW222142   3.343   0.972   7.137  1.2091 -0.8190 -0.7053
 6901SOL     OW22143   2.030   0.248   6.865 -0.3068  0.2761 -0.3662
 6901SOL    HW122144   2.003   0.175   6.921  0.8830  0.5260  0.5905
 6901SOL    HW222145   1.951   0.301   6.855 -0.5666  0.2178  1.1081
 6902SOL     OW22146   3.113   1.211   5.218 -0.1140 -0.0629  0.4778
 6902SOL    HW122147   3.132   1.273   5.288  0.7613 -0.7828  0.9100
 6902SOL    HW222148   3.174   1.138   5.234 -1.2814 -1.1459  0.1380
 6903SOL     OW22149   2.651   0.347   5.664 -0.1310 -0.0402  0.3207
 6903SOL    HW122150   2.673   0.440   5.668 -1.0696  0.1618  1.4787
 6903SOL    HW222151   2.603   0.330   5.745 -2.5128 -0.8560 -1.1420
 6904SOL     OW22152   2.271   2.187   7.104 -0.2405 -0.2214 -0.6371
 6904SOL    HW122153   2.355   2.208   7.064  0.1061 -0.1905  0.0923
 6904SOL    HW222154   2.215   2.161   7.031  0.1718  0.4942 -1.2133
 6905SOL     OW22155   3.182   6.233   6.881 -1.0700  0.0785 -0.1357
 6905SOL    HW122156   3.262   6.218   6.931 -2.4027  1.2686  2.5835
 6905SOL    HW222157   3.171   6.153   6.828  1.0707 -0.7508  0.5825
 6906SOL     OW22158   1.442   0.781   6.287 -0.2855  0.3449 -0.6282
 6906SOL    HW122159   1.472   0.819   6.205 -1.8687 -0.6709 -1.7218
 6906SOL    HW222160   1.451   0.687   6.276 -0.3042  0.1986  0.4531
 6907SOL     OW22161   2.528   1.240   5.858  0.1722 -0.0566 -0.2067
 6907SOL    HW122162   2.507   1.261   5.949  0.6659 -1.7740  0.3421
 6907SOL    HW222163   2.523   1.324   5.812  1.7613  1.2216  1.7675
 6908SOL     OW22164   2.543   0.802   7.040  0.4478  0.5548  0.1118
 6908SOL    HW122165   2.538   0.710   7.065  0.3301  0.7214  0.7342
 6908SOL    HW222166   2.612   0.806   6.974  0.4125  0.0101  0.0413
 6909SOL     OW22167   2.026   1.433   6.787  0.1293  0.3977  0.5656
 6909SOL    HW122168   1.977   1.480   6.854 -0.4741  1.0872 -0.3397
 6909SOL    HW222169   2.095   1.494   6.759  0.6235 -0.0313  0.8196
 6910SOL     OW22170   7.813   1.816   6.697 -0.0580 -0.4503  0.4246
 6910SOL    HW122171   7.896   1.776   6.671 -0.8688 -1.8070 -0.1470
 6910SOL    HW222172   7.794   1.779   6.783 -0.6189 -1.0219  0.0625
 6911SOL     OW22173   3.230   1.586   7.151  0.4599  0.3922  0.3643
 6911SOL    HW122174   3.307   1.623   7.194  0.6838  0.9387 -0.4717
 6911SOL    HW222175   3.248   1.597   7.058  0.2544 -1.3082  0.1029
 6912SOL     OW22176   3.173   7.665   5.165  0.1251  0.7023  0.4481
 6912SOL    HW122177   3.114   7.738   5.150 -0.3851  0.2520  0.2508
 6912SOL    HW222178   3.241   7.701   5.223  1.9847  2.4169 -2.4851
 6913SOL     OW22179   1.046   0.997   6.855  0.1499  0.1536  0.3751
 6913SOL    HW122180   0.997   0.914   6.857 -1.4905  1.0300  3.8052
 6913SOL    HW222181   1.127   0.977   6.900  0.5603  0.0309 -0.3982
 6914SOL     OW22182   1.524   0.953   7.451  0.7718  0.4847 -0.6049
 6914SOL    HW122183   1.619   0.953   7.462  0.5536  0.7245  2.0227
 6914SOL    HW222184   1.501   1.045   7.440  0.5423  1.2277  4.0244
 6915SOL     OW22185   3.082   7.864   7.105 -0.0509  0.5371  0.0412
 6915SOL    HW122186   2.999   7.818   7.091 -0.8023  1.1550  2.0526
 6915SOL    HW222187   3.098   7.910   7.023 -0.2755 -1.6957 -1.3590
 6916SOL     OW22188   2.903   0.606   7.474  0.8957  0.2318 -0.5524
 6916SOL    HW122189   2.939   0.518   7.487  1.7820  0.3353 -2.0867
 6916SOL    HW222190   2.808   0.593   7.476  0.9771 -0.3600  1.5515
 6917SOL     OW22191   2.781   7.455   6.021  0.0491  0.0154  0.2695
 6917SOL    HW122192   2.808   7.370   5.985 -0.1303  0.0967 -0.0697
 6917SOL    HW222193   2.745   7.502   5.945 -0.5809  0.0922  0.6135
 6918SOL     OW22194   1.560   3.503   8.178 -0.0111  0.0943  0.1085
 6918SOL    HW122195   1.601   3.567   8.235 -0.3460 -0.2381  0.7310
 6918SOL    HW222196   1.543   3.427   8.234 -1.5318  0.2404 -0.0960
 6919SOL     OW22197   1.037   6.550   7.339 -0.3168  0.1998  0.2853
 6919SOL    HW122198   1.119   6.549   7.390  0.5366  0.8213 -1.0267
 6919SOL    HW222199   1.038   6.469   7.289 -1.1369 -0.3914  1.1908
 6920SOL     OW22200   2.821   0.820   5.693 -0.0174 -0.3610  0.4256
 6920SOL    HW122201   2.799   0.912   5.704 -0.3542 -0.4878  0.8424
 6920SOL    HW222202   2.881   0.818   5.618 -0.3193  0.1472  0.1660
 6921SOL     OW22203   1.581   1.027   5.408  0.8242 -0.0578 -0.2141
 6921SOL    HW122204   1.553   0.961   5.471 -2.5127  0.7471 -0.6954
 6921SOL    HW222205   1.659   0.989   5.367  0.5695 -2.4819  1.3270
 6922SOL     OW22206   0.131   2.893   7.190  0.3806 -0.3210  0.2293
 6922SOL    HW122207   0.174   2.940   7.118 -0.7298  2.4588  1.2464
 6922SOL    HW222208   0.046   2.868   7.155 -0.2888  1.3144  0.6060
 6923SOL     OW22209   2.474   0.754   6.338 -0.5749 -0.6476  0.7199
 6923SOL    HW122210   2.525   0.674   6.340 -1.8677 -1.5356 -0.1760
 6923SOL    HW222211   2.397   0.732   6.286 -1.3048  0.9747  1.0515
 6924SOL     OW22212   2.968   1.671   6.299 -0.1991 -0.5227 -0.2900
 6924SOL    HW122213   3.051   1.645   6.338  0.2044  0.0551 -0.7535
 6924SOL    HW222214   2.992   1.715   6.218 -1.0141 -1.3331 -0.9955
 6925SOL     OW22215   1.052   2.000   4.251 -0.3904 -0.7422  0.2893
 6925SOL    HW122216   1.070   1.908   4.269 -1.3720 -0.6827  1.7153
 6925SOL    HW222217   0.957   2.006   4.247 -0.3089  0.0609 -0.7196
 6926SOL     OW22218   2.505   2.811   6.187  0.7172  0.1076  0.1355
 6926SOL    HW122219   2.468   2.867   6.256  0.6553  0.0912  0.1162
 6926SOL    HW222220   2.536   2.733   6.233  0.0888 -0.1904  0.0681
 6927SOL     OW22221   0.793   0.227   6.816  0.1648  0.6470 -0.4519
 6927SOL    HW122222   0.863   0.171   6.850 -0.0297  0.1857 -0.7982
 6927SOL    HW222223   0.759   0.179   6.740 -0.4388  0.9334 -0.3649
 6928SOL     OW22224   3.030   0.442   6.215  0.5870  0.2550 -0.0852
 6928SOL    HW122225   3.087   0.492   6.273  0.8379 -1.1200  0.9122
 6928SOL    HW222226   2.942   0.454   6.252  0.6913 -0.2769  0.3565
 6929SOL     OW22227   3.008   1.705   5.899 -0.2865 -0.3111  0.2634
 6929SOL    HW122228   3.027   1.706   5.805  0.6781  1.8645  0.4240
 6929SOL    HW222229   2.932   1.647   5.907 -1.1349  0.3633 -2.0179
 6930SOL     OW22230   2.893   2.339   2.934 -0.4856 -0.1397 -0.4303
 6930SOL    HW122231   2.963   2.334   2.870 -0.3675  2.2416 -0.5956
 6930SOL    HW222232   2.837   2.411   2.903 -0.8686  0.5429  1.6627
 6931SOL     OW22233   1.398   2.697   6.968 -0.0331 -0.3045 -0.0161
 6931SOL    HW122234   1.337   2.767   6.993  0.4668  0.3059 -0.4752
 6931SOL    HW222235   1.358   2.617   7.002 -1.1320  0.0736 -0.3765
 6932SOL     OW22236   3.308   0.386   7.986 -0.0161  0.4619  0.4810
 6932SOL    HW122237   3.258   0.459   7.949 -1.8681 -0.2586  1.3969
 6932SOL    HW222238   3.399   0.405   7.964 -0.5703  2.4182 -0.3382
 6933SOL     OW22239   3.116   2.648   7.032  0.5896 -0.1597 -0.2322
 6933SOL    HW122240   3.168   2.626   6.955  2.0549 -0.8833  0.9207
 6933SOL    HW222241   3.102   2.743   7.025 -0.0589 -0.3333 -1.8041
 6934SOL     OW22242   3.778   1.215   6.069  0.6345 -0.3269  0.2431
 6934SOL    HW122243   3.784   1.175   6.156  1.4757 -0.0651  0.3128
 6934SOL    HW222244   3.738   1.147   6.015 -0.6631 -0.1931  1.0101
 6935SOL     OW22245   3.027   1.519   9.044 -0.0273 -0.3183 -0.0108
 6935SOL    HW122246   3.074   1.463   8.983  1.9117 -0.4852  1.5232
 6935SOL    HW222247   3.025   1.469   9.126  0.4045  1.1936  0.9675
 6936SOL     OW22248   2.530   0.510   7.088  0.1779 -0.4809  0.4434
 6936SOL    HW122249   2.460   0.446   7.102 -0.5531  0.6441  2.4482
 6936SOL    HW222250   2.608   0.469   7.125  0.1773 -0.9884 -0.1017
 6937SOL     OW22251   3.489   6.936   5.569 -0.0484 -0.3708 -0.2519
 6937SOL    HW122252   3.571   6.926   5.618 -0.8007 -0.8688  0.9785
 6937SOL    HW222253   3.451   6.848   5.568 -1.0409  0.0358  0.0884
 6938SOL     OW22254   0.919   2.001   4.987  0.3287 -0.3330 -0.1269
 6938SOL    HW122255   0.980   1.965   4.923  0.0524 -0.9536 -0.0488
 6938SOL    HW222256   0.969   2.006   5.068  1.0609  1.5966 -0.6292
 6939SOL     OW22257   0.973   1.781   6.027 -0.3820  0.2815  0.9735
 6939SOL    HW122258   0.959   1.875   6.041 -2.3664  0.6917 -2.5419
 6939SOL    HW222259   1.012   1.775   5.940 -0.9269 -2.1859  0.8248
 6940SOL     OW22260   2.880   7.766   5.405 -0.0391 -0.2466  0.1104
 6940SOL    HW122261   2.807   7.706   5.393 -0.8589  0.3976  1.6223
 6940SOL    HW222262   2.932   7.729   5.477  0.9665 -0.5263 -0.7290
 6941SOL     OW22263   3.615   0.993   7.120 -0.2869  0.0921 -0.1438
 6941SOL    HW122264   3.565   0.959   7.046 -1.2576 -0.6673  0.8348
 6941SOL    HW222265   3.571   1.075   7.143 -0.1745  0.1711 -0.2092
 6942SOL     OW22266   0.642   0.080   5.822  0.1309  0.1041 -1.0513
 6942SOL    HW122267   0.662   0.160   5.871  0.7221  1.1032 -2.8420
 6942SOL    HW222268   0.571   0.105   5.763 -0.9275 -1.2211 -0.3839
 6943SOL     OW22269   3.051   1.949   5.617 -0.0908  0.6217 -0.1401
 6943SOL    HW122270   3.096   1.965   5.700 -0.4183 -0.0061  0.1699
 6943SOL    HW222271   3.040   1.854   5.614 -0.7949  0.7108 -0.5307
 6944SOL     OW22272   4.251   0.547   4.817  0.0411  0.0068 -0.1697
 6944SOL    HW122273   4.162   0.570   4.788 -1.1645 -2.1600  1.5237
 6944SOL    HW222274   4.251   0.563   4.911  1.2157 -0.6914 -0.0290
 6945SOL     OW22275   1.043   1.431   6.728 -0.5949  0.7195 -0.0792
 6945SOL    HW122276   1.064   1.388   6.645  2.5660  2.2808 -0.2305
 6945SOL    HW222277   0.999   1.512   6.702  2.2811  2.2858 -0.5619
 6946SOL     OW22278   0.955   0.754   5.790  0.6382 -0.0921  0.7925
 6946SOL    HW122279   0.904   0.725   5.715 -0.1753  1.1191  0.8604
 6946SOL    HW222280   0.956   0.849   5.784 -0.6150  0.1347  3.0602
 6947SOL     OW22281   1.986   2.498   6.249  0.1869 -0.6856 -0.5120
 6947SOL    HW122282   2.043   2.574   6.257  0.5557 -1.0638  0.8209
 6947SOL    HW222283   2.040   2.424   6.278 -0.0449 -1.5428 -2.1288
 6948SOL     OW22284   2.695   1.604   6.270  0.3731 -0.2600  0.1102
 6948SOL    HW122285   2.671   1.669   6.205  0.4237  0.4644  0.7927
 6948SOL    HW222286   2.790   1.614   6.280  0.4782 -0.8701 -0.2294
 6949SOL     OW22287   2.332   0.326   8.693 -0.0509  0.0628 -0.1426
 6949SOL    HW122288   2.419   0.355   8.664  0.8394 -2.3041 -0.1053
 6949SOL    HW222289   2.329   0.348   8.786  1.5523 -1.9327  0.4485
 6950SOL     OW22290   4.029   7.407   6.539  0.0953  0.0098  0.1306
 6950SOL    HW122291   4.003   7.443   6.624 -0.8239 -0.6700  0.1572
 6950SOL    HW222292   3.989   7.467   6.475  3.3666  2.3774  0.0754
 6951SOL     OW22293   2.276   7.875   6.266  0.2346  0.0605  0.2301
 6951SOL    HW122294   2.214   7.943   6.239  0.1811  0.0116  0.2290
 6951SOL    HW222295   2.361   7.906   6.235 -0.1354 -1.1759 -2.2676
 6952SOL     OW22296   3.431   0.596   8.751  0.3430 -0.2832 -0.3928
 6952SOL    HW122297   3.365   0.664   8.737 -0.4946 -1.1020 -0.4340
 6952SOL    HW222298   3.504   0.622   8.694 -0.4999 -0.1269 -1.4308
 6953SOL     OW22299   3.022   0.100   5.639  0.9167 -0.3026  0.0222
 6953SOL    HW122300   2.996   0.059   5.556  0.4439  1.8552 -0.9498
 6953SOL    HW222301   3.032   0.026   5.699 -0.8787 -1.7869 -1.3567
 6954SOL     OW22302   3.377   1.838   5.882  0.2979 -0.2040 -0.0334
 6954SOL    HW122303   3.466   1.859   5.854  0.6988  0.4207  1.6088
 6954SOL    HW222304   3.375   1.742   5.883  0.3228 -0.2664 -1.8678
 6955SOL     OW22305   2.467   1.866   5.948 -0.2290  0.6118  0.0594
 6955SOL    HW122306   2.532   1.867   5.878  0.0062 -1.1512  0.1873
 6955SOL    HW222307   2.519   1.879   6.028 -0.3390  1.4270  0.0023
 6956SOL     OW22308   1.809   2.504   2.942 -0.1601  0.0158  0.1019
 6956SOL    HW122309   1.812   2.409   2.931 -0.4900  0.0112  0.0592
 6956SOL    HW222310   1.821   2.539   2.853 -2.2812 -0.0162 -0.2486
 6957SOL     OW22311   2.629   2.234   5.581  0.0345  0.7922 -0.0263
 6957SOL    HW122312   2.620   2.241   5.676  0.5721  0.8183  0.0270
 6957SOL    HW222313   2.647   2.141   5.565 -1.2262  0.5681 -0.2118
 6958SOL     OW22314   4.642   0.107   7.783  0.1872 -0.0118 -0.3457
 6958SOL    HW122315   4.637   0.102   7.688 -1.4818  0.1657 -0.3019
 6958SOL    HW222316   4.723   0.155   7.800  1.2779 -1.3141 -1.6035
 6959SOL     OW22317   4.257   1.477   7.281 -0.0398 -0.2576 -0.4709
 6959SOL    HW122318   4.348   1.454   7.263 -0.8737 -2.7972 -1.9776
 6959SOL    HW222319   4.223   1.510   7.198 -0.9459 -1.0745 -0.4467
 6960SOL     OW22320   3.228   6.201   5.749  0.1636  0.7771  0.1605
 6960SOL    HW122321   3.139   6.227   5.773  0.9968  1.4094  3.0673
 6960SOL    HW222322   3.243   6.120   5.797  1.3989  1.1035  0.3623
 6961SOL     OW22323   2.492   7.810   7.711  0.5457 -0.1832 -0.4860
 6961SOL    HW122324   2.492   7.888   7.655 -0.1280  1.3873  1.5552
 6961SOL    HW222325   2.585   7.795   7.730  0.7902 -0.7867 -2.0063
 6962SOL     OW22326   2.462   0.495   5.879 -0.3470  0.0826 -0.3080
 6962SOL    HW122327   2.430   0.492   5.788  0.7238 -2.9823 -0.7298
 6962SOL    HW222328   2.537   0.554   5.877 -1.8189  2.0231 -0.7966
 6963SOL     OW22329   3.914   0.154   5.813 -0.1782 -0.0059 -0.2861
 6963SOL    HW122330   3.942   0.152   5.905 -0.7423  0.9119 -0.0859
 6963SOL    HW222331   3.994   0.170   5.763 -0.1689  1.6324  0.2077
 6964SOL     OW22332   3.424   0.523   8.364  0.0744  0.3206 -0.1447
 6964SOL    HW122333   3.345   0.530   8.311 -0.2770 -0.1026  0.3109
 6964SOL    HW222334   3.441   0.429   8.368 -0.2498  0.2922  0.9844
 6965SOL     OW22335   2.654   2.523   4.719 -0.1743 -0.2394 -0.2922
 6965SOL    HW122336   2.729   2.465   4.707  0.7146  1.1899 -2.1280
 6965SOL    HW222337   2.692   2.606   4.749 -1.3397 -0.3226  1.5635
 6966SOL     OW22338   1.509   0.523   6.216  0.3553 -0.1319 -0.0619
 6966SOL    HW122339   1.571   0.453   6.238  1.7580  1.1625  0.3292
 6966SOL    HW222340   1.538   0.552   6.129 -1.3355 -1.1710 -1.0213
 6967SOL     OW22341   1.434   3.876   6.944 -0.0273 -0.7093 -0.5357
 6967SOL    HW122342   1.482   3.956   6.923 -0.8384 -0.4562 -1.4759
 6967SOL    HW222343   1.479   3.842   7.022 -0.1863  1.0931  0.4037
 6968SOL     OW22344   1.371   7.857   5.912  0.2869  0.0142 -0.6432
 6968SOL    HW122345   1.438   7.863   5.980 -1.5455  1.2677  1.2019
 6968SOL    HW222346   1.384   7.937   5.860  0.5518 -0.0148 -0.6254
 6969SOL     OW22347   3.251   1.769   6.374  0.0770 -0.0454 -0.2441
 6969SOL    HW122348   3.277   1.828   6.303 -1.0080  0.5314 -0.1754
 6969SOL    HW222349   3.222   1.826   6.444  0.5493 -0.6341  0.4532
 6970SOL     OW22350   1.985   1.199   7.356 -0.0524  0.5245  0.0049
 6970SOL    HW122351   2.057   1.146   7.390  0.3291  0.5543 -0.7535
 6970SOL    HW222352   2.026   1.260   7.295 -1.0351 -1.2665 -2.5907
 6971SOL     OW22353   0.688   1.785   7.165  0.0715  0.7999  0.0206
 6971SOL    HW122354   0.759   1.725   7.188 -2.7063 -3.1231 -0.6087
 6971SOL    HW222355   0.715   1.822   7.081  1.8860  0.4277  0.3927
 6972SOL     OW22356   2.797   1.060   7.555  0.2134  0.7107  0.0116
 6972SOL    HW122357   2.843   1.133   7.513  0.7968  0.3919  0.0897
 6972SOL    HW222358   2.788   0.995   7.485 -1.6333  1.4279 -0.4742
 6973SOL     OW22359   5.290   6.660   5.113  0.3314  0.0451 -0.2615
 6973SOL    HW122360   5.328   6.743   5.140  1.9390 -0.4523 -0.8861
 6973SOL    HW222361   5.365   6.605   5.090 -0.6939 -1.5169 -0.0618
 6974SOL     OW22362   3.939   1.154   5.826  0.6702 -0.6937  0.6452
 6974SOL    HW122363   3.925   1.248   5.841 -1.3568 -0.3346 -2.5940
 6974SOL    HW222364   3.900   1.112   5.903 -0.3967  1.0624  1.1321
 6975SOL     OW22365   2.546   3.302   6.382  0.2253 -0.2374  0.3815
 6975SOL    HW122366   2.575   3.236   6.446  1.3636 -0.7137 -0.5881
 6975SOL    HW222367   2.451   3.304   6.392  0.4409  0.9733  3.3069
 6976SOL     OW22368   1.316   0.561   7.441 -0.0341 -0.0786 -0.1305
 6976SOL    HW122369   1.224   0.544   7.459 -0.2081 -0.0836 -0.9588
 6976SOL    HW222370   1.319   0.652   7.413  0.2047 -0.0911 -0.1495
 6977SOL     OW22371   4.711   0.202   6.916 -0.0858 -0.1539  0.6617
 6977SOL    HW122372   4.652   0.130   6.935  0.1450  0.1097  2.5280
 6977SOL    HW222373   4.746   0.228   7.001  3.1579 -0.6345 -0.3989
 6978SOL     OW22374   3.785   7.888   7.880 -0.0533  0.3101  0.4972
 6978SOL    HW122375   3.821   7.960   7.829 -1.0659  1.1948  0.9876
 6978SOL    HW222376   3.724   7.844   7.820  1.3752 -0.8397 -0.1521
 6979SOL     OW22377   2.435   1.370   7.292 -0.0919  0.7198 -0.3119
 6979SOL    HW122378   2.446   1.465   7.294 -1.5054  0.8982  0.2145
 6979SOL    HW222379   2.425   1.346   7.384  0.6691 -0.0072 -0.4118
 6980SOL     OW22380   2.025   1.776   5.900 -0.1065 -0.1073 -0.2606
 6980SOL    HW122381   1.937   1.804   5.924  0.1305 -0.0630  0.5728
 6980SOL    HW222382   2.016   1.684   5.878 -0.0336 -0.6282  1.7153
 6981SOL     OW22383   2.407   2.375   6.790 -0.1102 -0.2074  0.1063
 6981SOL    HW122384   2.353   2.435   6.842 -1.4881  0.0079 -1.4957
 6981SOL    HW222385   2.471   2.432   6.747 -0.2035 -0.1442  0.0529
 6982SOL     OW22386   3.968   6.908   8.164 -0.0640  0.2924 -0.7778
 6982SOL    HW122387   4.033   6.973   8.138 -0.3619  0.8311 -0.2086
 6982SOL    HW222388   3.913   6.953   8.228  0.1378 -0.7318  0.1529
 6983SOL     OW22389   1.291   7.861   5.553  0.2033  0.1403  0.0560
 6983SOL    HW122390   1.292   7.918   5.476  1.7706  0.8541  0.5642
 6983SOL    HW222391   1.361   7.797   5.537 -0.9838 -1.1728 -0.1279
 6984SOL     OW22392   5.292   0.313   7.488 -0.0215 -0.3719 -0.0897
 6984SOL    HW122393   5.274   0.359   7.570  0.8149 -0.2596  0.0436
 6984SOL    HW222394   5.206   0.302   7.447 -0.2505  1.3400 -0.1353
 6985SOL     OW22395   0.841   2.701   3.405 -0.2528 -0.2158  0.4254
 6985SOL    HW122396   0.915   2.754   3.378  1.0729 -1.5671  1.2503
 6985SOL    HW222397   0.766   2.761   3.402  0.7810  1.0804 -0.7962
 6986SOL     OW22398   1.375   2.156   7.643 -0.4904  0.0555 -0.2893
 6986SOL    HW122399   1.337   2.125   7.561 -0.0628  2.0626 -1.3259
 6986SOL    HW222400   1.449   2.098   7.660 -0.9148 -0.7149 -1.0355
 6987SOL     OW22401   0.597   0.172   8.325  0.2131 -0.0178 -0.4492
 6987SOL    HW122402   0.621   0.194   8.235 -0.4142 -0.9940 -0.8754
 6987SOL    HW222403   0.547   0.090   8.318 -0.2385  0.1195  0.7392
 6988SOL     OW22404   1.722   0.249   9.428 -0.4808  0.2431  0.0667
 6988SOL    HW122405   1.709   0.159   9.457 -1.1467  0.6299  1.0567
 6988SOL    HW222406   1.711   0.301   9.508  1.4586  1.0984 -0.1595
 6989SOL     OW22407   3.167   0.614   7.887 -0.7909  0.0358  0.3243
 6989SOL    HW122408   3.218   0.674   7.941  2.1003 -2.8782  1.1343
 6989SOL    HW222409   3.208   0.618   7.801  1.1257 -2.3617  0.9932
 6990SOL     OW22410   3.602   0.028   8.460 -0.0947 -0.4322  0.1577
 6990SOL    HW122411   3.652   0.030   8.542  1.2018  0.0313 -0.6148
 6990SOL    HW222412   3.608   0.117   8.425 -0.0470 -0.7850 -0.7760
 6991SOL     OW22413   4.371   1.194   8.091  0.0765  0.1789 -0.1623
 6991SOL    HW122414   4.362   1.258   8.021 -0.5378  1.0627  0.7027
 6991SOL    HW222415   4.459   1.207   8.126 -0.1860  0.8287  0.2662
 6992SOL     OW22416   3.950   0.840   9.146 -0.1792 -0.0492 -0.0221
 6992SOL    HW122417   4.018   0.801   9.201 -0.3270  0.7816  0.7892
 6992SOL    HW222418   3.986   0.838   9.057  1.6206  1.7782  0.5814
 6993SOL     OW22419   3.052   0.939   6.423 -0.3561  0.3513 -0.1474
 6993SOL    HW122420   3.133   0.892   6.443  0.0465  1.2753  0.4842
 6993SOL    HW222421   3.070   0.984   6.340 -1.0050 -1.1544 -1.1557
 6994SOL     OW22422   3.909   7.740   8.460  0.0571 -0.1898  0.3893
 6994SOL    HW122423   3.906   7.799   8.535 -0.5576 -1.3417  1.3052
 6994SOL    HW222424   3.819   7.711   8.448  0.5748 -2.2529  1.0712
 6995SOL     OW22425   4.030   0.022   9.884  0.3409  0.1196 -0.0363
 6995SOL    HW122426   4.010   0.006   9.791  1.0322 -0.2841 -0.1187
 6995SOL    HW222427   4.005  -0.059   9.928  4.3004 -1.5846 -0.5205
 6996SOL     OW22428   3.468   0.994   8.671  0.0721  0.4345 -0.4740
 6996SOL    HW122429   3.388   1.003   8.618  0.6806  0.1825 -1.4697
 6996SOL    HW222430   3.517   0.924   8.627 -0.0379 -0.7999  1.2667
 6997SOL     OW22431   2.818   2.195   9.175 -0.0612 -0.2399 -0.0913
 6997SOL    HW122432   2.816   2.101   9.193  0.9652 -0.4146 -0.7871
 6997SOL    HW222433   2.832   2.236   9.260 -0.0376 -0.7511  0.1513
 6998SOL     OW22434   3.448   7.560   8.499  0.3388 -1.0387 -0.0624
 6998SOL    HW122435   3.414   7.635   8.451  1.6669 -0.1865  0.2709
 6998SOL    HW222436   3.439   7.585   8.591 -1.5402 -2.3626  0.1569
 6999SOL     OW22437   2.762   3.268   7.392  0.1422  0.2909  0.4425
 6999SOL    HW122438   2.816   3.256   7.470  1.2254  0.4323 -0.2577
 6999SOL    HW222439   2.786   3.355   7.359  0.2093 -0.0302 -0.4015
 7000SOL     OW22440   2.082   7.401   7.740 -0.1200 -0.0279  0.4549
 7000SOL    HW122441   2.032   7.483   7.747  0.1368  0.0930  0.9140
 7000SOL    HW222442   2.016   7.332   7.750  0.0933  0.0771  4.2694
 7001SOL     OW22443   1.459   2.009   6.629  0.2519  0.4182 -0.0027
 7001SOL    HW122444   1.519   1.939   6.607 -1.1677 -0.5971 -0.8352
 7001SOL    HW222445   1.493   2.046   6.710  2.4036  0.4198 -0.8524
 7002SOL     OW22446   2.792   2.407   9.353  0.3150  0.1440  0.2269
 7002SOL    HW122447   2.886   2.398   9.368  0.2292  1.0995  1.4337
 7002SOL    HW222448   2.784   2.481   9.292  0.4618 -1.6661 -2.1471
 7003SOL     OW22449   2.014   2.243  10.592  0.0955  0.2231  0.0441
 7003SOL    HW122450   2.011   2.334  10.622 -1.8302 -0.3157  1.7549
 7003SOL    HW222451   2.054   2.195  10.664 -2.0644 -0.7189  0.7106
 7004SOL     OW22452   3.394   2.188   7.851 -0.0339  0.0725  0.0563
 7004SOL    HW122453   3.373   2.237   7.772 -1.1833  1.4843  1.1788
 7004SOL    HW222454   3.398   2.097   7.822 -0.1706  0.5749 -1.6628
 7005SOL     OW22455   2.811   0.958   9.551  0.4607  0.3246  0.1197
 7005SOL    HW122456   2.891   0.931   9.505  1.1168  0.4738  1.1492
 7005SOL    HW222457   2.829   1.047   9.580 -1.0621  1.3322 -1.8057
 7006SOL     OW22458   0.685   3.238  10.387 -0.5872 -0.2301 -0.2001
 7006SOL    HW122459   0.622   3.179  10.429 -1.2634  0.0961 -0.7288
 7006SOL    HW222460   0.654   3.326  10.410 -0.0247 -0.0682 -0.0470
 7007SOL     OW22461   1.397   0.399   7.662 -1.0526  0.4174 -0.3681
 7007SOL    HW122462   1.339   0.443   7.600  1.0282  0.4716 -2.4148
 7007SOL    HW222463   1.478   0.451   7.660  0.2606 -1.5096 -0.2171
 7008SOL     OW22464   4.263   7.857   9.160  0.0099 -0.2547 -0.2913
 7008SOL    HW122465   4.173   7.823   9.159  0.0436 -0.3589  0.2155
 7008SOL    HW222466   4.269   7.910   9.080 -1.1591  1.4956  0.7293
 7009SOL     OW22467   2.946   1.742   8.559 -0.0534 -0.0498 -0.4921
 7009SOL    HW122468   2.975   1.746   8.650  0.3459 -0.7701 -0.5769
 7009SOL    HW222469   3.008   1.797   8.511  0.5655 -0.7488 -0.5176
 7010SOL     OW22470   4.791   1.736   7.745 -0.3907 -0.5014  0.8013
 7010SOL    HW122471   4.850   1.752   7.671 -0.3767  0.3148  0.9857
 7010SOL    HW222472   4.726   1.806   7.741  0.9559  0.9809  2.9104
 7011SOL     OW22473   0.993   1.720   6.877  0.0861  0.2054 -0.4142
 7011SOL    HW122474   1.042   1.653   6.925  0.9476  1.4092  0.4373
 7011SOL    HW222475   0.902   1.691   6.883  0.5631 -1.5934 -1.2623
 7012SOL     OW22476   3.785   7.784   9.037  0.2025 -0.0402  0.2008
 7012SOL    HW122477   3.714   7.788   9.101 -0.4847  1.5853 -0.6118
 7012SOL    HW222478   3.862   7.817   9.083  0.5763 -2.1515  1.1985
 7013SOL     OW22479   4.079   2.012   9.377 -0.2425 -0.9966  0.4889
 7013SOL    HW122480   4.078   2.042   9.286  0.4054 -0.0664  0.7741
 7013SOL    HW222481   4.106   1.920   9.371 -1.2524 -1.2671 -0.3262
 7014SOL     OW22482   2.358   1.176   8.843  0.0072  0.4547  0.7185
 7014SOL    HW122483   2.444   1.216   8.833  0.3728 -0.2560  0.9669
 7014SOL    HW222484   2.341   1.134   8.759 -0.7322  1.7831  0.1738
 7015SOL     OW22485   3.591   1.287   6.615 -0.3244  0.0876  0.4641
 7015SOL    HW122486   3.657   1.228   6.652  1.8474  0.7056 -2.0898
 7015SOL    HW222487   3.639   1.365   6.590 -1.8255  0.3351 -2.1132
 7016SOL     OW22488   3.710   1.715   7.698 -0.6128 -0.1781  0.1837
 7016SOL    HW122489   3.795   1.678   7.674 -0.8558  0.2312 -1.4062
 7016SOL    HW222490   3.664   1.726   7.615 -1.6701  0.9687  0.8815
 7017SOL     OW22491   3.886   7.175   9.476  0.2952  0.0085 -0.0958
 7017SOL    HW122492   3.938   7.107   9.433 -0.4898 -0.5239 -0.2228
 7017SOL    HW222493   3.842   7.130   9.548  0.7579  0.6654  0.6195
 7018SOL     OW22494   3.556   0.307   8.488  0.5591  0.2442  0.2719
 7018SOL    HW122495   3.482   0.262   8.529  0.9860 -0.0903  0.6904
 7018SOL    HW222496   3.597   0.356   8.560  1.0362  0.0290  0.1467
 7019SOL     OW22497   2.625   0.069   7.190  0.4770 -0.3309  0.1432
 7019SOL    HW122498   2.647   0.102   7.103 -0.2008  0.4825  0.2612
 7019SOL    HW222499   2.641   0.144   7.248 -1.8965  0.1303  0.3046
 7020SOL     OW22500   2.099   2.066  10.251  0.1546  0.4975 -0.0443
 7020SOL    HW122501   2.155   2.054  10.327  1.1351  2.4289 -0.4087
 7020SOL    HW222502   2.108   1.984  10.202  1.5048  0.1977  0.6528
 7021SOL     OW22503   1.450   6.854   9.024 -0.4730  0.1692  0.0506
 7021SOL    HW122504   1.509   6.835   8.951 -2.1618  1.0906 -1.6376
 7021SOL    HW222505   1.492   6.926   9.071  1.0458 -0.9849  0.5692
 7022SOL     OW22506   2.886   0.772   6.199  0.2717  0.0237 -0.1392
 7022SOL    HW122507   2.884   0.744   6.290 -1.5826  0.2467 -0.0747
 7022SOL    HW222508   2.890   0.867   6.203 -0.5289  0.0643 -0.2802
 7023SOL     OW22509   4.084   1.248   7.843  0.5229 -0.2193 -0.3188
 7023SOL    HW122510   4.159   1.282   7.892  0.1864  3.7191 -2.1718
 7023SOL    HW222511   4.122   1.183   7.784  2.2503  0.6596 -0.2394
 7024SOL     OW22512   2.593   2.824   8.588  0.5769  0.1667 -0.4502
 7024SOL    HW122513   2.540   2.821   8.668  0.5152 -0.0377 -0.4980
 7024SOL    HW222514   2.571   2.743   8.542 -1.1781  1.3766 -1.8396
 7025SOL     OW22515   3.135   2.327   8.604 -0.0896  0.7721 -0.1280
 7025SOL    HW122516   3.170   2.317   8.516 -1.2775 -0.3824 -0.5053
 7025SOL    HW222517   3.190   2.272   8.659 -1.1358 -0.9224 -0.6899
 7026SOL     OW22518   3.310   7.996   9.628 -0.1339 -0.3778 -0.0465
 7026SOL    HW122519   3.268   7.918   9.664  0.3095 -1.2255 -1.2920
 7026SOL    HW222520   3.239   8.046   9.588 -0.1775 -1.0432 -0.8101
 7027SOL     OW22521   2.590   0.134  10.779  0.6385  0.9606  0.1301
 7027SOL    HW122522   2.501   0.147  10.747 -0.9155 -0.4334  3.4056
 7027SOL    HW222523   2.622   0.059  10.730 -0.1062  1.2413 -0.8249
 7028SOL     OW22524   4.811   0.934   9.496  0.2252 -0.3320  0.2302
 7028SOL    HW122525   4.806   1.029   9.505 -1.2468 -0.3177 -0.4509
 7028SOL    HW222526   4.900   0.917   9.467  0.5721  0.8168  0.5652
 7029SOL     OW22527   5.570   1.603  10.059  0.2290  0.2028  0.1343
 7029SOL    HW122528   5.504   1.593  10.128  0.0395 -0.2366 -0.1095
 7029SOL    HW222529   5.557   1.528  10.002  3.1026 -1.7864  1.8369
 7030SOL     OW22530   4.796   1.781   9.248 -0.1738  0.2095  0.0408
 7030SOL    HW122531   4.840   1.725   9.185 -1.0627 -0.5923  0.1152
 7030SOL    HW222532   4.717   1.810   9.203  0.5646  1.9384 -0.2273
 7031SOL     OW22533   5.045   7.097   7.556 -0.3719  0.7013 -0.0050
 7031SOL    HW122534   4.969   7.142   7.519  0.4016  1.2458 -0.9707
 7031SOL    HW222535   5.044   7.011   7.514 -0.6272  0.5871  0.2285
 7032SOL     OW22536   2.395   1.070   8.439 -0.2832 -0.6807  0.3028
 7032SOL    HW122537   2.364   0.983   8.415 -1.7808 -0.1354  0.1232
 7032SOL    HW222538   2.464   1.090   8.376 -0.0014 -1.6799  0.2790
 7033SOL     OW22539   1.480   0.662   6.710  0.3430 -0.4304  0.0446
 7033SOL    HW122540   1.388   0.687   6.697  0.8900  1.6818 -0.1217
 7033SOL    HW222541   1.483   0.627   6.799 -0.3487  1.0758  0.6926
 7034SOL     OW22542   2.144   1.046   7.525 -0.3204 -0.3142  0.0906
 7034SOL    HW122543   2.158   1.068   7.617 -0.5310  2.0664 -0.3853
 7034SOL    HW222544   2.221   0.993   7.502  0.0212 -0.4653  1.4730
 7035SOL     OW22545   5.259   1.206   9.555 -0.3020  0.0699 -0.0431
 7035SOL    HW122546   5.197   1.190   9.484  0.1962 -0.6684 -0.3237
 7035SOL    HW222547   5.204   1.217   9.632 -0.8036 -0.0501 -0.3764
 7036SOL     OW22548   2.921   0.512   7.898 -0.0851  0.0133 -0.3667
 7036SOL    HW122549   2.904   0.454   7.824  0.2649  0.8406 -1.1253
 7036SOL    HW222550   3.014   0.533   7.892 -0.3996  1.4712 -0.7608
 7037SOL     OW22551   3.713   7.887  11.024 -0.0139 -0.5724  0.3760
 7037SOL    HW122552   3.667   7.920  11.101 -0.4221  1.0992 -0.5428
 7037SOL    HW222553   3.792   7.940  11.017  1.0723 -2.0749  0.7728
 7038SOL     OW22554   3.137   2.052   9.409  1.1605  0.0731 -0.3435
 7038SOL    HW122555   3.134   2.146   9.389  1.7290 -0.0291 -0.9596
 7038SOL    HW222556   3.195   2.046   9.485  2.1573  0.1155 -1.0792
 7039SOL     OW22557   3.212   2.308   7.991  0.1328 -0.4703 -0.2934
 7039SOL    HW122558   3.223   2.399   8.017 -0.0079 -0.8645  1.3086
 7039SOL    HW222559   3.300   2.278   7.968 -0.1670  0.7093 -3.3112
 7040SOL     OW22560   4.018   1.249   8.291  0.0170  1.0056 -0.2917
 7040SOL    HW122561   4.111   1.239   8.310 -0.2411  0.7387  0.9066
 7040SOL    HW222562   4.014   1.263   8.196  1.2054  0.1734 -0.4789
 7041SOL     OW22563   4.123   1.339   9.814  0.6105 -0.0932  0.0384
 7041SOL    HW122564   4.143   1.412   9.755 -0.0068  2.4235  2.7075
 7041SOL    HW222565   4.204   1.324   9.862  0.8511 -1.5375 -0.7410
 7042SOL     OW22566   2.880   1.139   8.697  0.4931 -0.5982  0.1482
 7042SOL    HW122567   2.816   1.157   8.629 -0.1042 -1.3118  0.5120
 7042SOL    HW222568   2.954   1.100   8.651  1.7953  2.4968 -0.6619
 7043SOL     OW22569   2.925   0.005   8.254 -0.3823  0.1605 -0.4818
 7043SOL    HW122570   2.854   0.048   8.301 -0.3139  0.7774 -0.9363
 7043SOL    HW222571   3.003   0.021   8.308 -0.4579  0.1166 -0.3603
 7044SOL     OW22572   3.241   1.350   8.391 -0.3303  0.7252  0.2272
 7044SOL    HW122573   3.273   1.360   8.481  0.3619  0.4390  0.0158
 7044SOL    HW222574   3.229   1.440   8.360  2.7491  0.9799 -0.5540
 7045SOL     OW22575   1.747   0.971   6.287  0.9518  0.0807  0.4145
 7045SOL    HW122576   1.796   1.047   6.318  2.1818 -0.7396  0.5818
 7045SOL    HW222577   1.719   0.927   6.366 -0.6972  0.9098  0.3208
 7046SOL     OW22578   2.236   0.224   8.965  0.0132 -0.2014 -0.0006
 7046SOL    HW122579   2.254   0.316   8.946  1.6100  0.1267  2.5739
 7046SOL    HW222580   2.141   0.221   8.978 -0.1040  1.0136 -0.4150
 7047SOL     OW22581   3.461   1.591   8.146 -0.0821  0.1506 -0.2985
 7047SOL    HW122582   3.517   1.614   8.072  1.4873 -1.6345  0.2616
 7047SOL    HW222583   3.395   1.532   8.110  0.5625 -0.5606 -0.3233
 7048SOL     OW22584   3.073   2.875   9.985  0.5952  0.0906  0.3130
 7048SOL    HW122585   3.160   2.908   9.965 -0.3812  2.1733 -0.8486
 7048SOL    HW222586   3.054   2.906  10.073  0.9349 -0.1817  0.4834
 7049SOL     OW22587   1.732   7.934   9.147 -0.2635  0.1426 -0.6412
 7049SOL    HW122588   1.679   7.855   9.159  0.6055 -0.4226 -0.4410
 7049SOL    HW222589   1.760   7.931   9.056  1.3808 -0.8303 -0.1366
 7050SOL     OW22590   2.894   2.785   7.552  1.0160 -0.2506 -0.4840
 7050SOL    HW122591   2.967   2.806   7.495  0.4759  0.4638 -0.9356
 7050SOL    HW222592   2.825   2.756   7.493  0.5888  0.0988 -0.1689
 7051SOL     OW22593   2.411   1.586   8.208 -0.5496 -0.5806 -0.9010
 7051SOL    HW122594   2.478   1.645   8.174 -0.8481  0.1460 -0.2759
 7051SOL    HW222595   2.356   1.566   8.133  0.9880 -2.1050 -1.6958
 7052SOL     OW22596   2.546   5.255   7.064 -0.0705  0.0584  0.3412
 7052SOL    HW122597   2.483   5.204   7.012 -0.3048 -0.0049  0.6792
 7052SOL    HW222598   2.631   5.222   7.037 -0.0395  1.6405 -1.7296
 7053SOL     OW22599   3.157   0.438   9.269  0.2982  0.5467  0.0329
 7053SOL    HW122600   3.157   0.530   9.295 -0.3637  0.9525 -1.3087
 7053SOL    HW222601   3.201   0.437   9.184  0.2110 -0.3578 -0.0136
 7054SOL     OW22602   2.365   7.929   5.483  0.1876 -0.2865 -0.1762
 7054SOL    HW122603   2.374   8.020   5.454 -0.5150 -0.3326 -0.5384
 7054SOL    HW222604   2.417   7.879   5.420 -1.3137 -0.3860 -1.3813
 7055SOL     OW22605   2.576   7.520  11.960  0.1159  0.3904  0.0923
 7055SOL    HW122606   2.626   7.471  11.895 -0.6427  0.0471 -0.2498
 7055SOL    HW222607   2.491   7.476  11.963 -0.4392  1.4250  0.0802
 7056SOL     OW22608   2.849   2.721  11.247 -0.0897 -0.2114  0.5126
 7056SOL    HW122609   2.942   2.742  11.258  0.2333 -1.9962  1.4729
 7056SOL    HW222610   2.804   2.784  11.304  0.4999  0.8179 -0.1359
 7057SOL     OW22611   5.019   0.515   9.875 -0.1259 -0.7043 -0.4345
 7057SOL    HW122612   4.935   0.492   9.915  0.6652  1.1850  2.7094
 7057SOL    HW222613   5.014   0.610   9.861  1.2786 -0.6411 -0.7126
 7058SOL     OW22614   2.546   2.156   8.624  0.3835  0.1234  0.2413
 7058SOL    HW122615   2.641   2.142   8.620  0.5791  0.9642  1.3787
 7058SOL    HW222616   2.536   2.235   8.678 -1.0039 -0.3967  0.7899
 7059SOL     OW22617   4.336   0.126   9.225 -0.3022 -0.3910 -0.4007
 7059SOL    HW122618   4.290   0.124   9.308 -0.2607  1.1012 -0.3262
 7059SOL    HW222619   4.306   0.047   9.179 -1.2365 -0.5938  0.5361
 7060SOL     OW22620   1.754   0.181   8.610 -0.1293  0.0684  0.7529
 7060SOL    HW122621   1.822   0.201   8.674 -0.9369 -0.9686  1.9708
 7060SOL    HW222622   1.699   0.260   8.607  0.8282  0.7368  0.0954
 7061SOL     OW22623   3.074   0.550   8.655 -0.4497  0.3004 -0.3239
 7061SOL    HW122624   3.020   0.475   8.679  1.5179 -0.6279  1.4743
 7061SOL    HW222625   3.080   0.546   8.559  0.1652 -2.2893 -0.2360
 7062SOL     OW22626   1.241   0.184   7.019 -0.2396  0.4529  0.0381
 7062SOL    HW122627   1.290   0.240   7.080 -0.2686  0.4257  0.0865
 7062SOL    HW222628   1.285   0.197   6.935  0.9287 -0.8360  0.3993
 7063SOL     OW22629   3.382   0.148   8.212 -0.1328 -0.4739 -0.3552
 7063SOL    HW122630   3.388   0.239   8.186  0.9617 -0.7469 -1.1232
 7063SOL    HW222631   3.447   0.103   8.158  1.7265 -1.1932  2.2648
 7064SOL     OW22632   3.685   2.203   9.037 -0.6875  0.8632 -0.0807
 7064SOL    HW122633   3.601   2.239   9.008 -1.1303  0.5252  0.7463
 7064SOL    HW222634   3.706   2.251   9.117 -0.7612  0.0305  0.4492
 7065SOL     OW22635   3.735   1.969   8.901 -0.1322 -0.0936  0.4571
 7065SOL    HW122636   3.738   1.999   8.810  1.0572 -0.8748  0.2147
 7065SOL    HW222637   3.717   2.048   8.952  1.4336  0.7890 -0.2807
 7066SOL     OW22638   2.463   1.254   7.056  0.2816 -0.1197  0.0036
 7066SOL    HW122639   2.547   1.285   7.023 -0.8876  0.6599 -2.4492
 7066SOL    HW222640   2.451   1.302   7.139  2.8414 -1.3469  1.1954
 7067SOL     OW22641   1.893   2.620   6.608 -0.0737  0.0291  0.0518
 7067SOL    HW122642   1.903   2.527   6.624  0.7191  0.0227 -0.4230
 7067SOL    HW222643   1.842   2.652   6.682  2.1825 -0.2492  1.8603
 7068SOL     OW22644   3.130   7.657   7.970  0.0575  0.0426 -0.0867
 7068SOL    HW122645   3.147   7.722   7.901  1.7332  0.8346  1.0096
 7068SOL    HW222646   3.079   7.589   7.926  1.7982  0.0912 -2.3616
 7069SOL     OW22647   2.273   7.877   8.296  0.1782 -0.0027 -0.0272
 7069SOL    HW122648   2.257   7.810   8.363 -0.6867  0.6995  0.4794
 7069SOL    HW222649   2.188   7.890   8.255  0.4952  0.2988 -0.5908
 7070SOL     OW22650   2.491   0.434   8.933 -0.3286  0.6691 -0.2242
 7070SOL    HW122651   2.426   0.461   8.998 -1.7618  0.9553 -1.7211
 7070SOL    HW222652   2.511   0.514   8.884 -0.2391  0.2096 -0.9554
 7071SOL     OW22653   2.511   2.521   6.320 -0.1766 -1.1783 -0.1587
 7071SOL    HW122654   2.464   2.496   6.241  1.0561 -1.1384 -0.9242
 7071SOL    HW222655   2.595   2.476   6.313  0.9126  0.7546 -0.0880
 7072SOL     OW22656   4.575   0.769   8.094 -0.3540 -0.5016 -0.1316
 7072SOL    HW122657   4.518   0.826   8.042  0.2651 -0.3041 -0.5940
 7072SOL    HW222658   4.641   0.828   8.130 -0.8017 -0.6253  0.9327
 7073SOL     OW22659   2.485   0.221   8.258 -0.1821  0.1780  0.1722
 7073SOL    HW122660   2.531   0.302   8.281  0.7690 -0.5268  0.7937
 7073SOL    HW222661   2.461   0.182   8.342 -0.6391 -0.1965 -0.1277
 7074SOL     OW22662   3.027   7.722   8.504 -0.0245 -1.1881  0.6927
 7074SOL    HW122663   2.972   7.734   8.427  0.7127  0.3230  0.3561
 7074SOL    HW222664   3.116   7.742   8.475  0.2037 -0.0869  2.0115
 7075SOL     OW22665   3.673   6.785   7.782  0.3811 -0.0820 -0.0387
 7075SOL    HW122666   3.697   6.859   7.837  0.6925  0.3399 -0.7377
 7075SOL    HW222667   3.738   6.784   7.712  0.5121 -1.1438  0.0713
 7076SOL     OW22668   3.864   7.439   7.852  0.1088  0.1684  0.3134
 7076SOL    HW122669   3.939   7.380   7.857 -0.5480 -0.5680  2.6431
 7076SOL    HW222670   3.892   7.508   7.792  3.3219  0.7862  2.2978
 7077SOL     OW22671   3.455   2.826   8.987 -0.0451  0.5005  0.1977
 7077SOL    HW122672   3.496   2.827   9.073  0.6179 -0.3849 -0.0939
 7077SOL    HW222673   3.467   2.915   8.953 -2.5004  1.6289  1.9909
 7078SOL     OW22674   2.954   0.058   5.344 -0.7303  0.4360  0.1437
 7078SOL    HW122675   2.906  -0.019   5.373 -0.4634  0.4730  0.6972
 7078SOL    HW222676   2.937   0.124   5.411 -2.0519  1.3074 -0.9982
 7079SOL     OW22677   2.801   0.684   8.542  0.1976 -0.3395  0.1551
 7079SOL    HW122678   2.870   0.673   8.477  1.0341 -0.8307  1.0984
 7079SOL    HW222679   2.780   0.595   8.570  0.0609 -0.1226  0.7622
 7080SOL     OW22680   2.907   1.328   7.470 -0.1441 -0.1634 -0.8063
 7080SOL    HW122681   2.879   1.378   7.546 -0.4851 -1.1295 -0.2781
 7080SOL    HW222682   2.987   1.373   7.440  0.3550 -0.1264  0.5009
 7081SOL     OW22683   3.516   2.879   9.665 -0.0567  0.5524 -0.3574
 7081SOL    HW122684   3.427   2.846   9.648 -0.1610 -0.4343  1.7282
 7081SOL    HW222685   3.551   2.901   9.579 -1.7737 -0.5039 -1.3765
 7082SOL     OW22686   2.800   3.336   8.386 -0.3534  0.0904  0.0383
 7082SOL    HW122687   2.790   3.406   8.321 -0.6581 -1.4999 -1.7359
 7082SOL    HW222688   2.889   3.348   8.420 -0.2243  1.0325 -0.5786
 7083SOL     OW22689   2.484   7.978   8.144  0.4852 -0.3385  0.8672
 7083SOL    HW122690   2.406   7.944   8.187  1.7503 -2.1197  1.8678
 7083SOL    HW222691   2.499   8.063   8.186 -0.9698  0.1217  0.5318
 7084SOL     OW22692   2.878   0.263   7.730  0.1092  0.1952 -0.4973
 7084SOL    HW122693   2.817   0.247   7.802 -1.9201  0.5720 -2.0381
 7084SOL    HW222694   2.965   0.255   7.770 -0.9178 -0.2224  1.8284
 7085SOL     OW22695   1.912   7.837   9.297  0.3711  0.0719  0.1268
 7085SOL    HW122696   1.844   7.836   9.230  0.8572 -0.1926 -0.3732
 7085SOL    HW222697   1.967   7.761   9.277 -0.3887 -0.9527  1.7855
 7086SOL     OW22698   2.915   0.998   8.175  0.7802  0.0368 -0.2352
 7086SOL    HW122699   2.826   0.964   8.176  1.2348 -1.2475  1.6310
 7086SOL    HW222700   2.965   0.936   8.122  1.0125 -0.6418  0.7370
 7087SOL     OW22701   1.637   1.781   7.297  0.2837 -0.1987 -0.4075
 7087SOL    HW122702   1.551   1.807   7.328 -0.2237 -0.0194 -1.9051
 7087SOL    HW222703   1.625   1.692   7.264  0.4461  0.1646 -1.4731
 7088SOL     OW22704   0.866   4.053   6.742  0.0922 -0.5477  0.2115
 7088SOL    HW122705   0.812   4.012   6.675 -1.8212 -2.7729  2.9066
 7088SOL    HW222706   0.804   4.100   6.798  1.1611 -1.2282  2.0677
 7089SOL     OW22707   1.773   1.228   9.327 -0.1282 -0.2243 -0.1244
 7089SOL    HW122708   1.855   1.244   9.374 -0.6192  0.9709  0.3746
 7089SOL    HW222709   1.799   1.182   9.247  0.8119 -1.5913  0.9195
 7090SOL     OW22710   2.908   2.439   9.615  0.3017 -0.0495  0.2445
 7090SOL    HW122711   2.863   2.368   9.661  0.3273  0.8989  1.8289
 7090SOL    HW222712   2.997   2.437   9.652  0.8895 -0.4230 -1.1467
 7091SOL     OW22713   2.732   7.413   9.448  0.2067  0.3575 -0.1166
 7091SOL    HW122714   2.689   7.337   9.409 -2.1400  3.0768 -3.4208
 7091SOL    HW222715   2.814   7.422   9.399  0.9999 -0.5726  1.0030
 7092SOL     OW22716   2.396   0.630   9.524 -0.8435 -0.1232  0.3826
 7092SOL    HW122717   2.392   0.720   9.558 -0.8557  0.7296 -1.7186
 7092SOL    HW222718   2.452   0.636   9.447 -2.1998 -1.5742 -0.7781
 7093SOL     OW22719   3.191   1.591   8.282 -0.3571  0.8232 -0.6374
 7093SOL    HW122720   3.158   1.672   8.320  0.5178  0.1843  1.6831
 7093SOL    HW222721   3.275   1.616   8.243 -0.2879  1.1228 -0.3057
 7094SOL     OW22722   4.206   1.307  10.170  0.1564  0.0193  0.0611
 7094SOL    HW122723   4.296   1.275  10.158 -0.2548 -1.1374 -0.0639
 7094SOL    HW222724   4.180   1.275  10.256 -0.9037 -1.6440 -0.8205
 7095SOL     OW22725   3.554   0.418   9.495 -0.2979 -0.4847  0.1340
 7095SOL    HW122726   3.595   0.421   9.581 -1.4452 -1.1544  0.7265
 7095SOL    HW222727   3.462   0.400   9.512 -0.4552 -1.1782 -1.2640
 7096SOL     OW22728   2.274   2.075   6.756  0.4374  0.4600 -0.3694
 7096SOL    HW122729   2.195   2.074   6.809 -0.7430 -0.4082 -2.0532
 7096SOL    HW222730   2.334   2.134   6.802 -0.7964  0.3259  1.4801
 7097SOL     OW22731   2.445   1.060   7.382 -0.2429 -0.1210  0.1672
 7097SOL    HW122732   2.535   1.051   7.351 -0.2719  0.8515 -0.2354
 7097SOL    HW222733   2.391   1.033   7.309 -0.3038  1.8221 -0.5727
 7098SOL     OW22734   3.299   3.501   7.168  0.5902  0.4960 -0.5083
 7098SOL    HW122735   3.326   3.410   7.178 -0.1103  0.3273 -0.1440
 7098SOL    HW222736   3.292   3.514   7.073  0.2097  0.0333 -0.5418
 7099SOL     OW22737   2.642   6.474  11.181  0.7240  0.0331  0.4478
 7099SOL    HW122738   2.583   6.548  11.197  0.8927 -0.2043  2.3202
 7099SOL    HW222739   2.722   6.514  11.148 -0.3161  0.3861 -1.8728
 7100SOL     OW22740   2.627   1.082   8.870  0.4245  0.3721  0.1257
 7100SOL    HW122741   2.705   1.138   8.880  1.5077 -0.8577 -1.0476
 7100SOL    HW222742   2.632   1.050   8.781 -2.0252  1.0434 -0.3271
 7101SOL     OW22743   1.105   3.408   9.266 -0.0203  0.6824 -0.2927
 7101SOL    HW122744   1.044   3.343   9.300  1.0497 -0.6005 -0.7364
 7101SOL    HW222745   1.164   3.425   9.339  0.0655  0.7031 -0.3673
 7102SOL     OW22746   3.822   0.871   9.391  0.1877  0.3816  0.2482
 7102SOL    HW122747   3.773   0.811   9.448 -0.3238 -0.3174 -0.8993
 7102SOL    HW222748   3.859   0.816   9.323  0.5295  1.2357 -0.2827
 7103SOL     OW22749   3.401   0.234   9.213  0.0661  0.3989 -0.3108
 7103SOL    HW122750   3.396   0.143   9.241 -0.1405  0.2431 -0.8479
 7103SOL    HW222751   3.342   0.281   9.274 -0.2258  0.0943 -0.3562
 7104SOL     OW22752   1.938   0.304   8.796  0.0557 -0.6769 -0.0644
 7104SOL    HW122753   1.965   0.396   8.793 -2.2252  0.1077  0.8926
 7104SOL    HW222754   1.912   0.290   8.887 -1.4614 -1.6934 -0.6173
 7105SOL     OW22755   1.620   0.737   9.731  0.0197 -0.4942  0.7606
 7105SOL    HW122756   1.586   0.649   9.750 -0.3211 -0.3294  0.9189
 7105SOL    HW222757   1.609   0.746   9.636 -0.0075 -0.5978  0.7529
 7106SOL     OW22758   2.537   1.018   9.741  0.4878  0.6171  0.2210
 7106SOL    HW122759   2.624   1.051   9.720  0.9692 -0.8665 -0.2612
 7106SOL    HW222760   2.552   0.951   9.808 -0.3363  0.6936  0.4945
 7107SOL     OW22761   2.904   0.563  10.057  0.1665  0.0156 -0.3470
 7107SOL    HW122762   2.951   0.480  10.045  1.7790  0.6501  1.1508
 7107SOL    HW222763   2.965   0.630  10.025 -0.3757  0.7380  0.1053
 7108SOL     OW22764   1.605   6.192   8.202  0.1458  0.7071 -0.0500
 7108SOL    HW122765   1.634   6.247   8.129  0.1921 -0.6462 -1.0982
 7108SOL    HW222766   1.615   6.102   8.170  2.4901 -0.0844  2.4810
 7109SOL     OW22767   4.160   0.379   6.543 -0.1274  0.2979  0.3177
 7109SOL    HW122768   4.144   0.392   6.636 -1.5988 -0.6071  0.2264
 7109SOL    HW222769   4.098   0.437   6.499 -0.1649 -0.0388 -0.0854
 7110SOL     OW22770   2.416   1.776   9.000 -0.3980 -0.3992  0.2296
 7110SOL    HW122771   2.399   1.837   9.072  0.1757  2.1167 -1.6198
 7110SOL    HW222772   2.502   1.802   8.967 -1.4551 -0.1489 -2.5484
 7111SOL     OW22773   3.937   1.884   9.068 -0.4293 -0.1275  0.1765
 7111SOL    HW122774   3.865   1.907   9.009 -0.0535 -0.4488 -0.4184
 7111SOL    HW222775   3.942   1.789   9.063  0.7865 -0.0487 -0.7172
 7112SOL     OW22776   3.769   1.955   9.392 -0.8168 -0.0014  0.4646
 7112SOL    HW122777   3.786   1.970   9.485 -0.9515 -2.4092  0.9336
 7112SOL    HW222778   3.856   1.957   9.351 -0.6715  0.1697  0.7762
 7113SOL     OW22779   1.827   0.907  10.210  0.1162  0.0231  0.2752
 7113SOL    HW122780   1.845   0.908  10.116  0.8444  2.4574  0.3774
 7113SOL    HW222781   1.733   0.925  10.216 -0.2475 -1.6084  0.0273
 7114SOL     OW22782   4.153   1.002   7.707 -0.1851  0.2275 -0.1135
 7114SOL    HW122783   4.184   0.913   7.722  0.4455  0.7084  1.6439
 7114SOL    HW222784   4.195   1.029   7.625  1.3836 -0.3371  0.4735
 7115SOL     OW22785   3.379   7.593   8.777  0.4971 -0.7202 -0.3018
 7115SOL    HW122786   3.364   7.555   8.863 -0.6238  1.3329  0.4944
 7115SOL    HW222787   3.460   7.644   8.787  1.0057 -1.3903 -0.8384
 7116SOL     OW22788   3.430   0.582   6.723  0.6757  0.0075 -0.3343
 7116SOL    HW122789   3.515   0.624   6.730 -0.2884  1.9542  0.5818
 7116SOL    HW222790   3.445   0.491   6.749  2.6225  0.0480 -1.1991
 7117SOL     OW22791   2.274   0.659   8.149 -0.6509 -0.2090  0.2706
 7117SOL    HW122792   2.259   0.567   8.125 -0.7900 -0.2854  0.6318
 7117SOL    HW222793   2.246   0.709   8.072  0.3861 -0.5082 -0.3176
 7118SOL     OW22794   3.771   1.133   9.559  0.3039 -0.2747 -0.2947
 7118SOL    HW122795   3.816   1.215   9.544  0.1634 -0.1725 -0.1667
 7118SOL    HW222796   3.786   1.082   9.479 -0.9840  0.5091 -1.0837
 7119SOL     OW22797   2.209   7.732   9.244 -0.0599 -0.3596  0.2767
 7119SOL    HW122798   2.275   7.666   9.264  1.5198  0.5595 -1.5924
 7119SOL    HW222799   2.218   7.797   9.313  0.8471 -0.3640  0.1736
 7120SOL     OW22800   2.789   1.473   9.526  0.2815  0.5350 -0.4838
 7120SOL    HW122801   2.724   1.481   9.456 -0.2273 -0.0444 -0.0716
 7120SOL    HW222802   2.741   1.488   9.607  0.3805 -1.2438 -0.0748
 7121SOL     OW22803   1.045   0.687   7.431  0.3070 -0.3559  0.0494
 7121SOL    HW122804   0.957   0.683   7.467  1.0147  0.5852  1.9936
 7121SOL    HW222805   1.043   0.760   7.369 -0.1203  0.0601  0.5484
 7122SOL     OW22806   3.305   0.679   7.656  0.5956  0.2599  0.0519
 7122SOL    HW122807   3.222   0.715   7.627 -0.0540 -0.7659  0.5726
 7122SOL    HW222808   3.371   0.725   7.604 -0.4565 -0.9007 -2.4478
 7123SOL     OW22809   3.022   2.196   7.524 -0.3895  0.0165 -0.3025
 7123SOL    HW122810   3.072   2.115   7.522  1.1468  0.8738  1.0121
 7123SOL    HW222811   2.994   2.209   7.434 -1.0504 -2.1524 -0.4849
 7124SOL     OW22812   2.394   1.075   9.290  0.1125  0.3586  0.3835
 7124SOL    HW122813   2.308   1.066   9.331  0.1454  0.6764  0.5263
 7124SOL    HW222814   2.444   1.001   9.323 -0.3844 -0.3626 -0.4245
 7125SOL     OW22815   1.743   1.970   8.282 -0.4159  0.7164 -0.8763
 7125SOL    HW122816   1.789   2.029   8.222  0.3260  0.4389 -0.5893
 7125SOL    HW222817   1.798   1.968   8.360 -0.1280 -0.7998 -1.0852
 7126SOL     OW22818   3.755   7.301   8.819 -0.1241 -0.0206 -0.0908
 7126SOL    HW122819   3.758   7.376   8.759 -0.1688  0.3004  0.3021
 7126SOL    HW222820   3.812   7.326   8.892  0.4140 -0.6663 -0.2882
 7127SOL     OW22821   3.714   3.204   9.074  0.1406 -0.0180  0.5429
 7127SOL    HW122822   3.747   3.277   9.127  2.3667  0.3504 -1.1969
 7127SOL    HW222823   3.762   3.127   9.105 -0.0799 -0.1921  0.4583
 7128SOL     OW22824   2.138   1.705   9.386  0.4787  1.0092 -0.4118
 7128SOL    HW122825   2.216   1.667   9.347 -0.3059  0.7305 -1.8009
 7128SOL    HW222826   2.065   1.658   9.345 -0.4220  0.4701  1.6839
 7129SOL     OW22827   3.091   0.275   8.882  0.6132  0.0245  0.4835
 7129SOL    HW122828   3.084   0.180   8.875  1.3387 -0.0443  0.7012
 7129SOL    HW222829   3.008   0.307   8.845 -0.0629 -0.7125  1.3136
 7130SOL     OW22830   2.483   3.565   8.395 -0.3923  0.3519  0.1576
 7130SOL    HW122831   2.411   3.501   8.395 -0.1271 -0.1622 -3.3335
 7130SOL    HW222832   2.559   3.515   8.364  0.1936  1.9737 -1.1851
 7131SOL     OW22833   3.753   1.087   7.832  0.3576  0.2331 -0.2535
 7131SOL    HW122834   3.826   1.038   7.870  0.6464  0.7243 -0.1506
 7131SOL    HW222835   3.693   1.102   7.904  0.4827  0.4098 -0.1851
 7132SOL     OW22836   2.486   3.620   8.051  0.3334 -0.3925  0.6904
 7132SOL    HW122837   2.506   3.645   7.961 -0.5259 -1.4967  0.1711
 7132SOL    HW222838   2.504   3.699   8.102 -0.8618  0.8357 -0.6765
 7133SOL     OW22839   2.325   7.971   8.876 -0.2602 -0.4964 -0.0465
 7133SOL    HW122840   2.415   7.958   8.847 -0.7945  1.1202 -2.7298
 7133SOL    HW222841   2.324   8.059   8.914 -0.8664 -0.1683 -0.8099
 7134SOL     OW22842   3.364   1.009   8.958 -0.0950  0.1113  0.3593
 7134SOL    HW122843   3.402   0.945   9.019  0.1055  0.3179  0.4510
 7134SOL    HW222844   3.377   0.970   8.871 -3.9809 -2.1923  0.5719
 7135SOL     OW22845   3.703   2.679   9.576  0.0311  0.2585  0.0837
 7135SOL    HW122846   3.799   2.677   9.584 -0.0881 -0.5167  1.8508
 7135SOL    HW222847   3.680   2.772   9.587  0.5021  0.2663  1.1200
 7136SOL     OW22848   2.119   7.116   8.534 -0.2449  0.1025 -0.2806
 7136SOL    HW122849   2.159   7.148   8.453 -0.0321 -1.0922 -0.6652
 7136SOL    HW222850   2.038   7.166   8.542 -0.2012  0.3295 -1.1662
 7137SOL     OW22851   3.372   3.328   7.411  0.3822  0.3712 -0.5227
 7137SOL    HW122852   3.401   3.401   7.466 -0.1081  2.0900 -2.4101
 7137SOL    HW222853   3.433   3.328   7.337 -0.6844  0.0306 -1.4277
 7138SOL     OW22854   1.982   2.906   9.178 -0.0660  0.2336  0.1721
 7138SOL    HW122855   2.010   2.869   9.095  1.1252  1.0907  0.1753
 7138SOL    HW222856   1.960   2.997   9.159 -2.5643 -0.2586  0.2526
 7139SOL     OW22857   1.763   1.873   9.346 -0.5300  0.1841  0.2614
 7139SOL    HW122858   1.733   1.845   9.260  0.7437 -0.7462  0.0912
 7139SOL    HW222859   1.754   1.794   9.401 -2.3696  1.0478  1.3007
 7140SOL     OW22860   2.243   2.782   8.352  0.8046 -0.4750 -0.6009
 7140SOL    HW122861   2.280   2.869   8.345  1.7635 -0.8710 -0.5894
 7140SOL    HW222862   2.295   2.729   8.292  0.7381 -1.1994 -0.0348
 7141SOL     OW22863   4.444   6.735   7.478  0.2821  0.5131  0.4625
 7141SOL    HW122864   4.353   6.722   7.451 -0.3554  0.4692  2.4874
 7141SOL    HW222865   4.466   6.823   7.449 -0.2859  0.4108 -0.3136
 7142SOL     OW22866   2.297   2.844   7.876  0.3204 -0.0738  0.1686
 7142SOL    HW122867   2.304   2.917   7.938  1.8117 -0.2122  0.2033
 7142SOL    HW222868   2.259   2.883   7.797 -0.8044  0.2820  0.8657
 7143SOL     OW22869   2.844   1.876   9.144 -0.4475  0.5967 -0.1162
 7143SOL    HW122870   2.818   1.786   9.123  1.4102 -0.5082  1.8728
 7143SOL    HW222871   2.768   1.912   9.190 -1.3980  0.2355 -1.3636
 7144SOL     OW22872   1.717   2.067   7.347  0.1458 -0.2543 -0.0654
 7144SOL    HW122873   1.704   1.994   7.408 -0.8203 -0.1331 -0.1024
 7144SOL    HW222874   1.773   2.128   7.394  0.9617 -1.0064 -0.0261
 7145SOL     OW22875   2.339   7.896   9.422 -0.8408  0.5105 -0.0023
 7145SOL    HW122876   2.318   7.989   9.415 -0.4583  0.6057  0.0816
 7145SOL    HW222877   2.354   7.881   9.515 -1.3433  0.2625  0.0446
 7146SOL     OW22878   1.728   1.498   6.375 -0.2425 -0.1981 -0.5273
 7146SOL    HW122879   1.770   1.524   6.457 -0.6806  1.7074 -0.8551
 7146SOL    HW222880   1.636   1.483   6.399 -0.0936 -1.0387 -0.4366
 7147SOL     OW22881   2.942   3.267   7.605  0.4021 -0.2477  0.4246
 7147SOL    HW122882   2.976   3.351   7.575 -0.9792 -0.0716 -0.7015
 7147SOL    HW222883   3.016   3.206   7.595  0.7546  0.3744 -0.8332
 7148SOL     OW22884   4.215   7.530   7.458  0.7563  0.0581  0.2149
 7148SOL    HW122885   4.270   7.602   7.490  0.2298  0.7935 -0.4940
 7148SOL    HW222886   4.277   7.462   7.433  1.3934  0.9995 -0.8790
 7149SOL     OW22887   0.419   0.588   9.208  0.5510  0.1526  0.4437
 7149SOL    HW122888   0.457   0.638   9.136  1.0045  1.1458  1.3461
 7149SOL    HW222889   0.330   0.622   9.216  0.0589 -0.8383 -0.4255
 7150SOL     OW22890   4.465   0.842   9.003  0.3081  0.4456  0.2030
 7150SOL    HW122891   4.535   0.787   9.039  0.4249 -1.2055 -2.3166
 7150SOL    HW222892   4.388   0.784   9.000 -0.2069  1.1381 -0.3154
 7151SOL     OW22893   2.914   2.545   8.038 -0.2389 -0.0498 -0.0743
 7151SOL    HW122894   2.940   2.572   7.951 -0.1883 -0.7453 -0.2805
 7151SOL    HW222895   2.948   2.613   8.096  0.0444  0.2213 -0.5563
 7152SOL     OW22896   3.585   0.955   6.530  0.1757 -0.1938 -0.1568
 7152SOL    HW122897   3.572   0.872   6.484 -1.8673 -1.3634  2.2946
 7152SOL    HW222898   3.497   0.990   6.543  0.9748  2.6611 -1.4464
 7153SOL     OW22899   3.674   1.301   5.604 -0.1692  0.3589  0.1928
 7153SOL    HW122900   3.743   1.273   5.664  1.0115  4.6481  1.1605
 7153SOL    HW222901   3.720   1.323   5.523 -0.8394  0.4482 -0.1759
 7154SOL     OW22902   1.498   0.809   8.863 -0.1554 -0.0269  0.1525
 7154SOL    HW122903   1.404   0.814   8.847 -0.1183  1.1977  0.2452
 7154SOL    HW222904   1.514   0.870   8.935  0.8796  0.7465 -0.6975
 7155SOL     OW22905   5.505   0.485   7.735 -0.2868 -0.3981  0.8717
 7155SOL    HW122906   5.523   0.391   7.726 -1.4230 -0.5875  0.4359
 7155SOL    HW222907   5.411   0.493   7.717 -0.3450  0.7302  1.6078
 7156SOL     OW22908   3.128   2.392   7.674  0.0404 -0.5514 -0.0416
 7156SOL    HW122909   3.063   2.446   7.720 -1.4728  0.3264 -2.9896
 7156SOL    HW222910   3.077   2.320   7.636  0.8208 -0.1362 -1.9739
 7157SOL     OW22911   4.489   7.374   7.836 -0.2019 -0.5834  0.0562
 7157SOL    HW122912   4.540   7.441   7.882  0.2722 -1.0528  0.2211
 7157SOL    HW222913   4.449   7.421   7.763  1.5383 -0.4572 -0.8782
 7158SOL     OW22914   1.889   1.451   7.147 -0.8503 -0.0064 -0.5556
 7158SOL    HW122915   1.837   1.378   7.112 -0.6525  0.4199 -1.8090
 7158SOL    HW222916   1.974   1.411   7.170 -1.1904 -0.4087  0.0313
 7159SOL     OW22917   2.290   7.329   8.364 -0.1302 -0.1795  0.0615
 7159SOL    HW122918   2.328   7.350   8.449 -0.3062 -0.0522  0.1101
 7159SOL    HW222919   2.341   7.255   8.332  0.9433  0.7431 -0.4208
 7160SOL     OW22920   1.806   0.922   7.480  0.2121  0.0847 -0.8025
 7160SOL    HW122921   1.893   0.945   7.447 -0.2689  1.1432 -1.3903
 7160SOL    HW222922   1.798   0.970   7.562  1.2596 -2.2535  0.7735
 7161SOL     OW22923   3.824   2.019  10.959 -1.0130  0.9057 -0.6075
 7161SOL    HW122924   3.779   1.938  10.937  0.3276 -0.6045  1.7902
 7161SOL    HW222925   3.909   1.991  10.993 -0.3839  3.3487  0.0435
 7162SOL     OW22926   2.137   7.923   8.691  0.7126 -0.4081 -0.1536
 7162SOL    HW122927   2.111   8.013   8.671 -0.2052 -0.5413  0.3887
 7162SOL    HW222928   2.207   7.932   8.756  1.4712 -0.0654 -0.9965
 7163SOL     OW22929   2.515   1.104   7.642 -0.3735 -0.3402 -0.7788
 7163SOL    HW122930   2.487   1.088   7.552 -1.7112 -0.6110 -0.3393
 7163SOL    HW222931   2.609   1.089   7.641 -0.5763 -1.7003 -1.8293
 7164SOL     OW22932   5.267   0.029   9.794 -1.4284  0.2191 -0.1006
 7164SOL    HW122933   5.319  -0.043   9.758 -1.4829  1.3113 -2.5654
 7164SOL    HW222934   5.217  -0.010   9.866  2.8068 -0.9090  2.6068
 7165SOL     OW22935   3.220   0.807   8.414 -0.1870  0.2048 -0.3650
 7165SOL    HW122936   3.225   0.902   8.423 -0.9097  0.0985  1.9598
 7165SOL    HW222937   3.234   0.774   8.503 -1.8078 -1.7510 -0.7500
 7166SOL     OW22938   1.834   1.483  10.107 -0.8579 -1.0709  0.0576
 7166SOL    HW122939   1.919   1.524  10.126 -1.7429  0.5853  0.5841
 7166SOL    HW222940   1.796   1.464  10.193 -2.0750  0.4908 -0.0989
 7167SOL     OW22941   3.124   0.249   7.822 -0.1298  0.8909 -0.1256
 7167SOL    HW122942   3.172   0.312   7.876 -0.3851 -0.3532  1.6474
 7167SOL    HW222943   3.179   0.170   7.823 -0.9465  0.3043 -0.2558
 7168SOL     OW22944   3.222   1.204  10.388 -0.4818 -0.1718 -0.1074
 7168SOL    HW122945   3.287   1.147  10.431 -1.4377 -0.2654  1.2573
 7168SOL    HW222946   3.241   1.194  10.294  0.7446 -1.0789  0.2053
 7169SOL     OW22947   3.087   1.221   8.160 -0.4932  0.1345  0.1042
 7169SOL    HW122948   3.135   1.246   8.238  0.7797  0.1224 -0.6542
 7169SOL    HW222949   3.046   1.137   8.182  2.3418 -1.4341 -0.1977
 7170SOL     OW22950   2.453   1.469   8.809 -0.5071 -0.3968  0.5157
 7170SOL    HW122951   2.394   1.515   8.750  2.5256  2.1695 -0.8518
 7170SOL    HW222952   2.471   1.386   8.765 -1.1354 -0.1115 -0.3077
 7171SOL     OW22953   3.612   1.078   9.281  0.3885 -0.3933 -0.1120
 7171SOL    HW122954   3.580   1.154   9.329 -1.5661 -0.1257 -1.6932
 7171SOL    HW222955   3.578   1.003   9.330 -0.6261 -0.1533 -0.4368
 7172SOL     OW22956   3.175   7.769   9.006  1.0374  0.0505 -0.0311
 7172SOL    HW122957   3.250   7.710   8.998  0.8498 -0.2714  0.5145
 7172SOL    HW222958   3.104   7.723   8.962  0.9551 -0.0135  0.1690
 7173SOL     OW22959   3.078   1.184   7.893  0.6716  0.2973 -0.0110
 7173SOL    HW122960   3.077   1.188   7.988 -0.3031 -2.0935  0.1306
 7173SOL    HW222961   2.989   1.158   7.868  1.4674 -1.3269 -1.3916
 7174SOL     OW22962   3.613   7.964  10.622 -0.2709  0.5729  0.5933
 7174SOL    HW122963   3.688   8.018  10.596  0.5201 -0.4301  0.7226
 7174SOL    HW222964   3.587   7.999  10.707  0.4797  0.5224  0.8554
 7175SOL     OW22965   3.995   2.740   7.675  0.5331  0.3103 -0.5188
 7175SOL    HW122966   4.005   2.832   7.699 -2.6889  0.7702 -0.4940
 7175SOL    HW222967   3.983   2.694   7.758 -0.1043  0.2458 -0.6394
 7176SOL     OW22968   3.915   0.907   9.890  0.4864 -0.2302  0.2525
 7176SOL    HW122969   3.911   1.001   9.874  1.2037 -0.0724  0.9167
 7176SOL    HW222970   4.007   0.885   9.879  0.2828 -0.9158 -0.1621
 7177SOL     OW22971   1.957   2.465  11.403  0.0774  0.2635  0.0786
 7177SOL    HW122972   1.972   2.407  11.477 -0.9457 -0.2166 -0.0722
 7177SOL    HW222973   1.918   2.409  11.336 -2.6608  1.3915  0.5652
 7178SOL     OW22974   2.297   1.622  10.436 -0.3711  0.1343 -0.3189
 7178SOL    HW122975   2.304   1.555  10.368  0.1098 -0.9880  0.7969
 7178SOL    HW222976   2.374   1.677  10.423 -0.2100 -0.1488 -0.5820
 7179SOL     OW22977   0.835   1.425   7.108 -0.1371 -0.1757 -0.2373
 7179SOL    HW122978   0.907   1.462   7.160  0.3035 -0.0284 -0.9410
 7179SOL    HW222979   0.869   1.341   7.077  0.2892  0.5263 -1.7543
 7180SOL     OW22980   4.821   0.647   6.066  0.6189  0.1673 -0.6865
 7180SOL    HW122981   4.873   0.689   6.134  2.2597 -1.1683 -1.0382
 7180SOL    HW222982   4.883   0.587   6.022 -1.1110 -1.1572 -1.4315
 7181SOL     OW22983   4.001   0.669  10.306  0.1297  0.2421 -0.2314
 7181SOL    HW122984   4.037   0.608  10.371  1.1668 -0.0765 -1.0754
 7181SOL    HW222985   3.955   0.613  10.243  2.4086  0.0832 -1.8792
 7182SOL     OW22986   2.061   1.719   7.942 -0.2438 -0.3500  0.1390
 7182SOL    HW122987   1.973   1.753   7.958 -0.0912  0.3524 -0.4677
 7182SOL    HW222988   2.065   1.704   7.848  0.4672  0.1834  0.0695
 7183SOL     OW22989   1.996   1.803   9.618 -0.7246 -0.0472 -0.1347
 7183SOL    HW122990   2.043   1.811   9.535 -0.5223 -1.1401 -0.1289
 7183SOL    HW222991   1.915   1.757   9.596 -0.6239 -0.4342  0.2875
 7184SOL     OW22992   3.403   6.796   7.774  0.1657 -0.2770  0.3852
 7184SOL    HW122993   3.390   6.879   7.820  0.9120  0.7936 -1.2513
 7184SOL    HW222994   3.497   6.779   7.783  0.2696 -0.1877 -0.5355
 7185SOL     OW22995   2.382   1.973   9.173  0.0827  0.0464  0.4404
 7185SOL    HW122996   2.354   1.965   9.264 -1.4725  1.3824  0.1275
 7185SOL    HW222997   2.387   2.067   9.157 -1.0422 -0.1212 -1.1990
 7186SOL     OW22998   2.910   2.147   7.006  0.2484 -0.1047  0.1526
 7186SOL    HW122999   2.980   2.201   7.041  1.1799 -0.7958 -0.5948
 7186SOL    HW223000   2.833   2.203   7.009  0.9406  0.8535  0.4839
 7187SOL     OW23001   1.654   7.506   8.845 -0.2887  0.1679  0.2372
 7187SOL    HW123002   1.586   7.486   8.910 -1.7426  0.0708 -1.2423
 7187SOL    HW223003   1.713   7.431   8.848 -0.8630 -0.2733  0.7925
 7188SOL     OW23004   3.381   1.924   7.807  0.2321 -0.0090 -0.1614
 7188SOL    HW123005   3.474   1.930   7.825  0.2646  2.4723 -0.8220
 7188SOL    HW223006   3.366   1.831   7.787  2.0184 -0.9780  2.4536
 7189SOL     OW23007   4.578   0.386   7.346 -0.3658  0.3403 -0.3644
 7189SOL    HW123008   4.654   0.328   7.335  0.9627  1.0477  3.5032
 7189SOL    HW223009   4.615   0.474   7.344 -1.2374  0.7433  0.4816
 7190SOL     OW23010   4.368   0.632   7.192  0.0076  0.2540  0.4225
 7190SOL    HW123011   4.373   0.721   7.227  0.1407  0.7046 -0.6982
 7190SOL    HW223012   4.280   0.602   7.214 -0.7290  1.3865 -0.8100
 7191SOL     OW23013   2.551   2.182   6.129  0.4359 -0.4247 -0.5470
 7191SOL    HW123014   2.553   2.092   6.161  2.6640 -0.3791 -0.4371
 7191SOL    HW223015   2.619   2.227   6.179 -1.4536  1.6830  0.3112
 7192SOL     OW23016   2.594   3.634   6.963  0.4527  0.1669  0.1380
 7192SOL    HW123017   2.673   3.580   6.966 -0.3122 -0.9401  0.7081
 7192SOL    HW223018   2.613   3.706   7.024  0.8432 -0.3565  0.6478
 7193SOL     OW23019   2.625   7.879   5.026  0.4681  0.2457  0.3889
 7193SOL    HW123020   2.688   7.808   5.043  1.4027  0.5757 -1.5022
 7193SOL    HW223021   2.670   7.958   5.054  1.2391  0.5665 -1.6401
 7194SOL     OW23022   3.479   7.561   7.490  0.1688  0.4779  0.5219
 7194SOL    HW123023   3.397   7.609   7.501 -0.6734 -0.8613  0.4147
 7194SOL    HW223024   3.493   7.518   7.575 -1.1109 -2.0296 -0.4438
 7195SOL     OW23025   2.357   7.051   9.192 -0.4907 -0.3862 -0.0148
 7195SOL    HW123026   2.267   7.021   9.180 -0.6977  0.6002 -1.1303
 7195SOL    HW223027   2.390   7.063   9.103  1.2149 -2.0066  0.3134
 7196SOL     OW23028   7.854   7.742   6.499  0.7159 -0.3377 -0.5764
 7196SOL    HW123029   7.905   7.757   6.579  0.0484 -0.7077 -0.0782
 7196SOL    HW223030   7.765   7.767   6.522  0.4771 -0.6474 -1.1459
 7197SOL     OW23031   3.122   1.359   8.770  0.0226 -0.0780  0.0735
 7197SOL    HW123032   3.198   1.351   8.713  0.5846  1.8730  0.4930
 7197SOL    HW223033   3.048   1.371   8.711  0.0037 -1.7877 -0.3297
 7198SOL     OW23034   2.914   1.737   8.900 -0.1612  0.2490  0.2368
 7198SOL    HW123035   2.850   1.686   8.850  0.4412  0.3715 -0.6809
 7198SOL    HW223036   2.958   1.672   8.956  0.6320 -0.2683 -0.9533
 7199SOL     OW23037   2.378   3.395  11.160  0.3643  0.0144 -0.0353
 7199SOL    HW123038   2.328   3.468  11.123  0.9339 -0.2159 -1.3113
 7199SOL    HW223039   2.336   3.317  11.124  0.5562 -0.2445  0.3021
 7200SOL     OW23040   2.521   1.561  10.046  0.2465 -0.2806  0.3161
 7200SOL    HW123041   2.474   1.631  10.000  2.6542  1.5178  0.3849
 7200SOL    HW223042   2.601   1.603  10.078  1.5929 -2.9787  0.7835
 7201SOL     OW23043   3.029   0.730  10.336  0.1612 -0.1118  0.1409
 7201SOL    HW123044   2.980   0.750  10.416  1.3221 -0.7157  1.0275
 7201SOL    HW223045   3.066   0.643  10.351  1.0965  0.1200 -0.7063
 7202SOL     OW23046   2.494   1.127  10.293 -0.1385  0.0571 -0.0160
 7202SOL    HW123047   2.564   1.088  10.346  0.8281  0.4810 -0.9383
 7202SOL    HW223048   2.463   1.201  10.345  0.3518  0.0744  0.2581
 7203SOL     OW23049   2.292   7.406  11.337  0.0555 -0.4081 -0.4037
 7203SOL    HW123050   2.309   7.339  11.270  0.2723 -1.5677  0.7770
 7203SOL    HW223051   2.359   7.473  11.321  0.2422 -0.7695 -1.2089
 7204SOL     OW23052   2.437   0.418  10.496 -0.4512 -0.1780  0.5259
 7204SOL    HW123053   2.378   0.363  10.548  1.0441 -2.3155  0.0563
 7204SOL    HW223054   2.476   0.359  10.432  0.4828  1.6618 -0.7118
 7205SOL     OW23055   3.670   2.425  10.108 -0.4946  0.1471  0.0870
 7205SOL    HW123056   3.650   2.485  10.179  0.1252 -0.5635  0.8903
 7205SOL    HW223057   3.585   2.400  10.072 -0.8402  0.2029  0.8503
 7206SOL     OW23058   1.646   0.965  10.468  0.0134  0.3011 -0.1618
 7206SOL    HW123059   1.564   0.949  10.515  1.7483  1.4006  3.5866
 7206SOL    HW223060   1.702   0.891  10.492  1.3784  1.5483  0.6757
 7207SOL     OW23061   1.091   1.434   9.543 -0.1305 -0.3501  0.1134
 7207SOL    HW123062   1.133   1.445   9.629 -0.1422  0.5556  0.0146
 7207SOL    HW223063   1.160   1.455   9.480 -0.5187  0.4803 -0.0619
 7208SOL     OW23064   2.975   0.694  10.606  0.2046  0.4441 -0.0226
 7208SOL    HW123065   3.053   0.640  10.614  0.0443  0.2010 -0.0626
 7208SOL    HW223066   2.919   0.667  10.679  0.5363  1.2636  0.5500
 7209SOL     OW23067   1.123   0.444   9.712 -0.0169  0.2363 -0.0973
 7209SOL    HW123068   1.194   0.385   9.686  0.5878  0.0242  1.8775
 7209SOL    HW223069   1.043   0.394   9.695  0.3067  0.2427 -1.7707
 7210SOL     OW23070   4.249   3.561  12.066 -0.6638  0.1683 -0.7139
 7210SOL    HW123071   4.192   3.498  12.021 -1.7569  0.1826  0.5918
 7210SOL    HW223072   4.296   3.508  12.130 -0.5209  0.4547 -0.5822
 7211SOL     OW23073   2.562   7.853   8.782  0.3572 -0.1756 -0.0746
 7211SOL    HW123074   2.621   7.926   8.803  0.4683 -0.0205 -0.8838
 7211SOL    HW223075   2.620   7.784   8.752  0.1468 -0.1067 -0.6453
 7212SOL     OW23076   3.682   0.552   9.932  0.0881 -0.3470  0.2216
 7212SOL    HW123077   3.647   0.480   9.879 -1.1053  0.1622  0.2960
 7212SOL    HW223078   3.660   0.631   9.883  0.6592  0.0230  0.5513
 7213SOL     OW23079   2.084   3.457  10.112 -0.5819  0.1612  0.0088
 7213SOL    HW123080   2.119   3.371  10.137  1.7580 -0.5510 -4.5888
 7213SOL    HW223081   2.152   3.519  10.137  0.4823 -0.2077 -1.7487
 7214SOL     OW23082   1.695   1.977  10.224 -0.1313  0.3885 -0.2180
 7214SOL    HW123083   1.716   1.942  10.137  1.5742  0.1740  0.2466
 7214SOL    HW223084   1.763   1.941  10.281 -1.1837  0.5795  1.2067
 7215SOL     OW23085   3.680   0.731   9.046  0.2589  0.3558 -0.5310
 7215SOL    HW123086   3.721   0.712   8.962 -1.2491 -0.7574 -1.0517
 7215SOL    HW223087   3.709   0.660   9.104  0.4167  0.5110 -0.4176
 7216SOL     OW23088   7.924   1.309  12.119  0.1910 -0.5237 -0.4434
 7216SOL    HW123089   7.965   1.273  12.040  0.1685 -0.7410 -0.3553
 7216SOL    HW223090   7.986   1.376  12.149  1.2546 -1.9004  0.5681
 7217SOL     OW23091   3.894   2.719   8.462 -0.2157  0.0814  0.6791
 7217SOL    HW123092   3.854   2.694   8.378 -0.0800  0.3487  0.5325
 7217SOL    HW223093   3.979   2.755   8.438 -1.5335  3.5279  0.5434
 7218SOL     OW23094   1.114   2.668   9.990  0.2769  0.7251 -0.4171
 7218SOL    HW123095   1.134   2.581  10.022 -0.5503  0.6066 -0.1981
 7218SOL    HW223096   1.086   2.717  10.067 -0.5208  0.7941 -0.7326
 7219SOL     OW23097   2.592   0.090  10.362 -0.2120 -0.3421  0.6994
 7219SOL    HW123098   2.548   0.172  10.338  0.9917 -0.1537 -1.0392
 7219SOL    HW223099   2.528   0.022  10.341 -1.2789  0.1026  2.2909
 7220SOL     OW23100   0.219   2.531  11.035  0.2709  0.4310 -0.1520
 7220SOL    HW123101   0.149   2.589  11.065  0.6436 -0.0160  1.6612
 7220SOL    HW223102   0.282   2.590  10.993  0.3728  1.2939  1.1510
 7221SOL     OW23103   4.125   0.731   8.055 -0.2819 -0.3476  0.0089
 7221SOL    HW123104   4.192   0.700   7.994 -0.7038 -0.9874 -0.1332
 7221SOL    HW223105   4.172   0.744   8.138 -0.1784 -1.8623  0.2186
 7222SOL     OW23106   3.328   2.170   8.717  0.1243 -0.1885  0.0680
 7222SOL    HW123107   3.273   2.143   8.790 -0.5955 -0.6049 -0.6118
 7222SOL    HW223108   3.408   2.204   8.758  0.5514 -2.1801  0.9987
 7223SOL     OW23109   3.720   7.714   9.991  0.7980 -0.8717 -0.0799
 7223SOL    HW123110   3.697   7.628  10.027  1.8664 -0.6438  1.2638
 7223SOL    HW223111   3.784   7.749  10.053  0.5279  0.8254 -0.7071
 7224SOL     OW23112   3.639   2.458   8.391  0.5799 -0.0354 -0.5624
 7224SOL    HW123113   3.550   2.422   8.384  0.6999 -0.4504 -0.0306
 7224SOL    HW223114   3.681   2.434   8.309  0.7880 -1.5006 -0.0496
 7225SOL     OW23115   1.918   1.385  11.182  0.1771  0.6889 -0.3638
 7225SOL    HW123116   1.879   1.298  11.178 -0.8014  0.6587  4.5112
 7225SOL    HW223117   1.849   1.444  11.150 -0.1417 -0.0660 -1.1090
 7226SOL     OW23118   2.338   1.363  11.217 -0.5365 -0.0836  0.3772
 7226SOL    HW123119   2.386   1.359  11.300  1.1119  0.8777 -0.4766
 7226SOL    HW223120   2.309   1.273  11.202  0.7415 -0.6501  1.1199
 7227SOL     OW23121   4.562   2.618   9.085 -0.5492 -0.5953 -0.6229
 7227SOL    HW123122   4.580   2.552   9.017 -2.5138  0.2532 -2.0326
 7227SOL    HW223123   4.649   2.643   9.116  0.4053 -1.4205 -2.4406
 7228SOL     OW23124   3.149   0.604  11.074 -0.8123 -0.1197 -0.6644
 7228SOL    HW123125   3.198   0.677  11.037  0.2252 -0.2542  0.4044
 7228SOL    HW223126   3.194   0.583  11.156 -1.5229 -1.4900 -0.5958
 7229SOL     OW23127   2.366   0.488  10.926 -0.3185 -0.5839 -0.2021
 7229SOL    HW123128   2.294   0.521  10.980  1.0562 -0.9149  1.9572
 7229SOL    HW223129   2.345   0.396  10.910 -0.4684 -0.6398  0.2992
 7230SOL     OW23130   4.727   1.307   9.095  0.1832  0.9667  0.2613
 7230SOL    HW123131   4.810   1.353   9.094  1.9972 -2.0138 -1.6821
 7230SOL    HW223132   4.688   1.328   9.180  3.1622  2.0045  1.4753
 7231SOL     OW23133   4.991   2.141  10.213  0.3958  0.7140  0.3931
 7231SOL    HW123134   4.977   2.211  10.277  1.4750  0.9857  0.3629
 7231SOL    HW223135   4.954   2.063  10.254  0.9852  0.9057  1.3275
 7232SOL     OW23136   1.654   0.322  11.359  0.1715  0.3930  0.3338
 7232SOL    HW123137   1.570   0.275  11.362  0.7333 -0.6192  0.5635
 7232SOL    HW223138   1.629   0.413  11.340 -1.0487  0.3104  1.3601
 7233SOL     OW23139   3.462   0.889   9.596  0.1884 -0.1128 -0.0019
 7233SOL    HW123140   3.413   0.888   9.678 -1.2666 -0.1333 -0.8400
 7233SOL    HW223141   3.543   0.842   9.616 -1.2093 -2.3869  0.7985
 7234SOL     OW23142   4.691   2.161   9.289  0.5058  0.5692 -0.0599
 7234SOL    HW123143   4.626   2.186   9.354  0.9911  0.1280  0.6141
 7234SOL    HW223144   4.645   2.168   9.205  0.3922  2.9161  0.1286
 7235SOL     OW23145   2.299   7.248   7.216  0.2758 -0.0682  0.6214
 7235SOL    HW123146   2.298   7.297   7.298  0.3888  0.0049  0.5802
 7235SOL    HW223147   2.240   7.174   7.231  1.0162 -0.5824  1.0995
 7236SOL     OW23148   4.422   0.271  11.437 -0.1060 -0.0745 -0.4931
 7236SOL    HW123149   4.417   0.249  11.530 -0.5463  1.5367 -0.1192
 7236SOL    HW223150   4.388   0.360  11.430 -0.4387 -0.2854 -2.2592
 7237SOL     OW23151   4.273   3.064   9.123  0.2732 -0.2878 -0.4682
 7237SOL    HW123152   4.225   2.990   9.087 -0.5942 -1.1727  2.2541
 7237SOL    HW223153   4.225   3.141   9.093 -1.0431 -1.0230 -0.3255
 7238SOL     OW23154   2.413   0.965  10.089  0.4374  0.2170 -0.0167
 7238SOL    HW123155   2.423   1.029  10.159  1.5608 -0.4950  0.4982
 7238SOL    HW223156   2.472   0.995  10.020 -0.6802  0.9272 -0.6867
 7239SOL     OW23157   2.638   0.408   0.111 -0.2729  0.1613  0.1947
 7239SOL    HW123158   2.591   0.434   0.031 -1.2377  0.3763  0.8200
 7239SOL    HW223159   2.638   0.487   0.165 -1.4482 -0.5454  1.2635
 7240SOL     OW23160   1.365   6.536   1.608 -0.2904  0.2276 -0.2042
 7240SOL    HW123161   1.434   6.517   1.544 -0.1228 -0.1541  0.0869
 7240SOL    HW223162   1.413   6.568   1.685 -0.2845 -1.6197  0.6175
 7241SOL     OW23163   1.835   1.866  11.603  0.2356  0.3280 -0.4607
 7241SOL    HW123164   1.835   1.773  11.583  2.2692 -0.0811  1.0694
 7241SOL    HW223165   1.799   1.908  11.525 -0.5681 -1.7009 -1.2367
 7242SOL     OW23166   3.038   1.525   9.923 -0.1210  0.2043  0.2475
 7242SOL    HW123167   3.024   1.602   9.868 -0.3816  0.3134  0.4699
 7242SOL    HW223168   3.132   1.528   9.944  0.7964 -1.5744 -2.8444
 7243SOL     OW23169   0.968   2.556  10.533 -0.3440 -0.3135  0.6687
 7243SOL    HW123170   1.053   2.587  10.502 -0.4255 -0.5342  0.2146
 7243SOL    HW223171   0.924   2.635  10.565 -0.5180  0.0445 -0.3966
 7244SOL     OW23172   1.312   1.819   9.584 -0.1929 -0.1555 -0.1103
 7244SOL    HW123173   1.338   1.731   9.611  0.9558 -0.4152 -1.9484
 7244SOL    HW223174   1.237   1.805   9.526  0.3934  0.0150 -0.9174
 7245SOL     OW23175   2.891   1.973   0.412  0.2670 -0.4071  0.0079
 7245SOL    HW123176   2.936   1.932   0.338  0.4722  1.5716 -1.0355
 7245SOL    HW223177   2.952   1.963   0.485  1.0633 -0.4234 -0.6456
 7246SOL     OW23178   3.928   2.365   9.514 -0.7273  0.4289 -0.1559
 7246SOL    HW123179   4.012   2.339   9.551 -0.5646 -2.6374 -2.3197
 7246SOL    HW223180   3.869   2.367   9.590  0.8438  0.6028  1.1082
 7247SOL     OW23181   4.299   0.958   9.201 -0.6330 -0.1236  0.1352
 7247SOL    HW123182   4.356   0.941   9.126  1.0978 -0.9681  1.5310
 7247SOL    HW223183   4.288   0.872   9.241  0.6500  0.6082  2.2397
 7248SOL     OW23184   4.439   1.120   9.830  0.0539 -0.2775 -0.1528
 7248SOL    HW123185   4.485   1.162   9.903 -2.2044  0.0712  1.1587
 7248SOL    HW223186   4.433   1.189   9.764 -0.7161  0.4430  0.6527
 7249SOL     OW23187   3.225   2.877  11.629  0.6686  0.1307  0.1827
 7249SOL    HW123188   3.236   2.853  11.721  2.0148 -0.2447 -0.0616
 7249SOL    HW223189   3.245   2.797  11.580 -1.3371 -0.0662 -0.4288
 7250SOL     OW23190   0.683   2.815   9.739 -0.1790  0.1794 -0.6342
 7250SOL    HW123191   0.606   2.870   9.731  0.7709  1.4928 -1.1803
 7250SOL    HW223192   0.747   2.869   9.785  0.6592 -0.6042 -0.8431
 7251SOL     OW23193   2.093   2.130   8.913  0.2850 -0.4054  0.4149
 7251SOL    HW123194   2.112   2.201   8.973 -0.6476  0.0128  0.2249
 7251SOL    HW223195   2.095   2.051   8.967  1.4303 -0.2681  0.6052
 7252SOL     OW23196   3.972   0.458   8.885  0.0789  0.3119 -0.4568
 7252SOL    HW123197   3.916   0.529   8.852  0.9933  0.3304 -2.0814
 7252SOL    HW223198   3.981   0.477   8.978  1.1957  3.0278 -0.9969
 7253SOL     OW23199   5.600   7.825  10.368  0.5168 -0.1573 -0.3379
 7253SOL    HW123200   5.624   7.757  10.305 -0.2359 -0.6687 -0.0990
 7253SOL    HW223201   5.529   7.785  10.419 -1.0218  1.3579 -1.1995
 7254SOL     OW23202   5.215   2.728  11.748 -0.0644  0.0709 -0.1234
 7254SOL    HW123203   5.231   2.713  11.655  0.2685  1.5648 -0.3247
 7254SOL    HW223204   5.244   2.646  11.790  4.0626  0.8855 -0.8939
 7255SOL     OW23205   2.569   2.620   8.419 -0.1679 -0.0005  0.3506
 7255SOL    HW123206   2.654   2.575   8.416  0.2795  0.7764  0.9939
 7255SOL    HW223207   2.573   2.683   8.348  0.0471  0.4578  0.7619
 7256SOL     OW23208   2.688   0.107  11.028  0.4015 -0.8116  0.2981
 7256SOL    HW123209   2.679   0.012  11.024  0.3047 -0.7839 -0.2189
 7256SOL    HW223210   2.671   0.137  10.938 -1.1229 -0.1858  0.7547
 7257SOL     OW23211   4.825   7.386   9.643 -0.4704 -0.2083  0.4637
 7257SOL    HW123212   4.886   7.354   9.709  0.1586  0.9686  0.4838
 7257SOL    HW223213   4.769   7.311   9.623  0.4395 -1.0687  1.0691
 7258SOL     OW23214   2.821   3.511   8.186 -0.5473  0.0643 -0.3766
 7258SOL    HW123215   2.845   3.603   8.189 -1.1704  0.2173  0.4296
 7258SOL    HW223216   2.858   3.478   8.104  2.1099  0.3426  0.6236
 7259SOL     OW23217   2.413   1.818   9.543 -0.3504  0.4123 -0.4040
 7259SOL    HW123218   2.340   1.868   9.507 -1.6458 -0.3619  0.9880
 7259SOL    HW223219   2.447   1.768   9.469 -2.5884 -0.7689 -0.7228
 7260SOL     OW23220   2.891   1.190  10.041  0.0068  0.3216 -0.1159
 7260SOL    HW123221   2.803   1.174  10.075  0.3539  1.6460  1.5377
 7260SOL    HW223222   2.950   1.163  10.111  0.9282 -0.2887 -1.0948
 7261SOL     OW23223   3.994   2.420  10.289  0.4973  0.0467  0.1296
 7261SOL    HW123224   3.957   2.434  10.376 -0.8962 -0.8345 -0.2907
 7261SOL    HW223225   4.010   2.508  10.255  2.3509  0.4262  1.7573
 7262SOL     OW23226   2.982   0.383   9.794 -0.1888 -0.3373 -0.3933
 7262SOL    HW123227   2.903   0.424   9.759  0.9887 -0.7982 -4.0393
 7262SOL    HW223228   2.963   0.289   9.793 -0.1002 -0.3666  0.2230
 7263SOL     OW23229   3.914   1.437  10.117  0.2657  0.0419  0.4141
 7263SOL    HW123230   3.882   1.478  10.197 -1.1438  2.1604 -1.1040
 7263SOL    HW223231   3.939   1.511  10.061  1.5100 -1.3709 -0.9959
 7264SOL     OW23232   2.922   7.738  10.295 -0.3712  0.7472 -0.2355
 7264SOL    HW123233   2.915   7.787  10.377 -0.0139  2.1553 -1.0304
 7264SOL    HW223234   2.892   7.799  10.227  0.8758  0.1668 -1.3572
 7265SOL     OW23235   2.755   1.904  10.295  0.3461  0.1173 -0.0439
 7265SOL    HW123236   2.788   1.993  10.283 -0.2793  0.4104  0.3845
 7265SOL    HW223237   2.775   1.883  10.386  1.9886 -0.8169 -0.5765
 7266SOL     OW23238   3.821   6.944  10.817 -0.6136  0.5067 -0.0794
 7266SOL    HW123239   3.820   6.961  10.911  1.4394  0.3456  0.0132
 7266SOL    HW223240   3.902   6.985  10.786 -0.5209 -0.6759 -1.5236
 7267SOL     OW23241   3.330   3.152   9.336  0.5051  0.0494 -0.1264
 7267SOL    HW123242   3.315   3.190   9.250 -0.4174 -0.8769 -0.3950
 7267SOL    HW223243   3.400   3.089   9.323  0.1143 -0.3574 -0.2879
 7268SOL     OW23244   4.435   2.120  10.130 -0.3955  0.2208 -0.2076
 7268SOL    HW123245   4.423   2.204  10.174 -0.3679 -0.0395  0.3074
 7268SOL    HW223246   4.366   2.118  10.063 -1.3365  0.0389  0.7287
 7269SOL     OW23247   5.083   0.334  11.112 -0.0660 -0.0748 -0.1773
 7269SOL    HW123248   5.033   0.405  11.071 -0.1744  0.0789  0.2207
 7269SOL    HW223249   5.169   0.339  11.072 -0.3302 -0.2633 -0.7852
 7270SOL     OW23250   3.203   2.284   8.321  0.0379 -0.4638 -0.2077
 7270SOL    HW123251   3.150   2.284   8.241  1.6358  0.6641 -1.3403
 7270SOL    HW223252   3.293   2.273   8.289  0.8357  1.2497  1.3216
 7271SOL     OW23253   2.194   0.722   8.438  0.0113  0.1036  0.0062
 7271SOL    HW123254   2.126   0.783   8.410 -0.8333 -0.9396 -0.2266
 7271SOL    HW223255   2.217   0.673   8.360 -0.0335 -0.5734  0.4117
 7272SOL     OW23256   3.043   7.271   9.396  0.5535  0.3272 -0.0857
 7272SOL    HW123257   3.124   7.231   9.364  1.1809  3.4828 -3.1030
 7272SOL    HW223258   3.073   7.336   9.460  0.0184 -0.6657  1.2088
 7273SOL     OW23259   1.735   1.123  11.948  0.5456 -0.3181  0.2026
 7273SOL    HW123260   1.751   1.179  12.024  1.3357 -0.0466 -0.1509
 7273SOL    HW223261   1.640   1.116  11.943  0.4384  0.7815  0.4088
 7274SOL     OW23262   3.727   1.141   8.989  0.1244 -0.1492  0.2328
 7274SOL    HW123263   3.701   1.078   9.056 -0.3835 -0.0907  0.0966
 7274SOL    HW223264   3.738   1.224   9.036 -0.0930 -0.1387  0.2634
 7275SOL     OW23265   2.002   2.387  11.068 -0.4677 -0.1534 -0.2573
 7275SOL    HW123266   2.070   2.341  11.019 -0.1763  0.4784 -0.4531
 7275SOL    HW223267   1.974   2.458  11.011 -1.0623 -0.2087 -0.0419
 7276SOL     OW23268   4.411   1.824   9.420  0.4351 -0.4167  0.2007
 7276SOL    HW123269   4.414   1.804   9.513  2.2470 -0.1386  0.2322
 7276SOL    HW223270   4.396   1.740   9.378 -3.1852 -0.2304  0.7839
 7277SOL     OW23271   3.346   0.344   8.652  0.1658  0.6080  0.1115
 7277SOL    HW123272   3.253   0.322   8.659 -0.1220  0.9316 -2.0222
 7277SOL    HW223273   3.351   0.436   8.678  0.1502  0.2102  1.6117
 7278SOL     OW23274   2.872   0.422  10.332 -0.0943  0.0827  0.4071
 7278SOL    HW123275   2.826   0.474  10.266 -0.4359 -2.7905 -1.8701
 7278SOL    HW223276   2.964   0.445  10.321 -0.3317  0.9677  0.2153
 7279SOL     OW23277   3.090   1.837  11.288  0.0083  0.3434 -0.0090
 7279SOL    HW123278   3.069   1.752  11.248 -0.9452  0.6777 -0.2544
 7279SOL    HW223279   3.104   1.818  11.380 -1.9709  0.1404  0.3001
 7280SOL     OW23280   1.747   7.159   9.012 -0.3489  0.2559  0.3943
 7280SOL    HW123281   1.686   7.110   9.067  1.5694 -2.0659  0.6473
 7280SOL    HW223282   1.701   7.172   8.929 -0.9835 -2.0030  0.3348
 7281SOL     OW23283   1.696   1.504   9.348  0.0492  0.4031  0.0552
 7281SOL    HW123284   1.638   1.487   9.274  1.0819  1.1013 -0.9500
 7281SOL    HW223285   1.707   1.418   9.390  0.2870 -0.2398 -1.2498
 7282SOL     OW23286   2.940   0.851   9.898 -0.2877  0.4128  0.1706
 7282SOL    HW123287   3.009   0.897   9.849 -1.3152  1.9815  0.1285
 7282SOL    HW223288   2.902   0.791   9.834 -0.2417  0.9539 -0.3745
 7283SOL     OW23289   4.405   1.530   9.335  0.0465 -0.2467  0.3708
 7283SOL    HW123290   4.364   1.479   9.265  0.2624 -0.1173  0.1485
 7283SOL    HW223291   4.491   1.490   9.346  0.7589  0.9082 -0.7449
 7284SOL     OW23292   0.284   0.549  10.030  0.0814  0.5171 -0.2988
 7284SOL    HW123293   0.252   0.460  10.042  0.6108  0.2819 -0.6307
 7284SOL    HW223294   0.292   0.583  10.120 -0.7084  0.4505 -0.1942
 7285SOL     OW23295   2.557   2.621   9.478  0.1936  0.2755  0.0301
 7285SOL    HW123296   2.512   2.573   9.408 -0.1236  1.8560 -0.9021
 7285SOL    HW223297   2.489   2.643   9.541  0.3456 -0.4798  0.4770
 7286SOL     OW23298   2.373   0.579   9.126 -0.3870  0.1239 -1.0894
 7286SOL    HW123299   2.303   0.638   9.102  0.4812  0.9295 -1.7314
 7286SOL    HW223300   2.440   0.635   9.164  0.0505 -0.5760 -0.8000
 7287SOL     OW23301   2.393   1.703   9.868 -0.3950  0.3381  0.1421
 7287SOL    HW123302   2.341   1.686   9.789 -1.2160 -0.7519  0.8907
 7287SOL    HW223303   2.405   1.798   9.868  1.8073  0.2204 -2.6184
 7288SOL     OW23304   3.174   1.457  10.461  0.1092  0.0212  0.1054
 7288SOL    HW123305   3.204   1.491  10.377 -1.1017 -0.4623 -0.5510
 7288SOL    HW223306   3.197   1.364  10.459  1.5783  0.3300  1.0358
 7289SOL     OW23307   4.605   1.303   9.981 -0.0790  0.1628 -0.8857
 7289SOL    HW123308   4.550   1.373   9.944  0.9215  0.2846 -2.2350
 7289SOL    HW223309   4.637   1.339  10.064 -1.7277  0.2153 -0.2294
 7290SOL     OW23310   4.031   0.835  12.417  0.3661 -0.3904 -0.0814
 7290SOL    HW123311   4.075   0.750  12.416  0.1569 -0.5428  1.7465
 7290SOL    HW223312   4.102   0.898  12.423  0.5753 -0.3379 -2.2302
 7291SOL     OW23313   3.183   0.783  11.390 -0.0011  0.4292 -0.1316
 7291SOL    HW123314   3.253   0.718  11.387 -0.2974  0.0181  1.0969
 7291SOL    HW223315   3.226   0.862  11.425 -0.1361  0.1742  0.6321
 7292SOL     OW23316   1.641   1.922  11.799  0.1838 -0.3704 -0.1619
 7292SOL    HW123317   1.716   1.888  11.750  0.2898 -0.9463  0.3867
 7292SOL    HW223318   1.663   2.013  11.816 -0.1503  0.0338 -1.7447
 7293SOL     OW23319   2.694   0.329   9.875  0.2886  0.2832 -0.3128
 7293SOL    HW123320   2.667   0.381   9.799  0.6210 -0.6317 -1.0894
 7293SOL    HW223321   2.763   0.271   9.840  0.7111  0.1153  0.7810
 7294SOL     OW23322   2.579   1.583   0.129 -0.9218  0.2487 -0.6080
 7294SOL    HW123323   2.559   1.605   0.038 -0.2853  0.2323 -0.7560
 7294SOL    HW223324   2.673   1.600   0.138 -0.8268 -0.4558 -0.1656
 7295SOL     OW23325   2.376   2.491   9.821 -0.2848 -0.9421 -0.3344
 7295SOL    HW123326   2.301   2.480   9.880 -1.1383 -0.3813 -1.2866
 7295SOL    HW223327   2.343   2.546   9.750  1.1100 -0.4687 -0.6472
 7296SOL     OW23328   1.337   2.201  11.292 -0.1186  0.1565  0.4585
 7296SOL    HW123329   1.397   2.273  11.312  0.4084 -0.3884  0.8696
 7296SOL    HW223330   1.360   2.174  11.203 -0.4711  0.6387  0.2167
 7297SOL     OW23331   3.346   0.584  11.321 -0.2393 -0.2962  0.0902
 7297SOL    HW123332   3.348   0.488  11.317  0.4159 -0.6026  3.8885
 7297SOL    HW223333   3.420   0.611  11.266 -1.1395 -1.7969 -2.0189
 7298SOL     OW23334   2.419   2.913  11.859  0.1771 -0.1976 -0.4367
 7298SOL    HW123335   2.486   2.849  11.833  0.5954 -0.4210  1.0762
 7298SOL    HW223336   2.337   2.871  11.836  0.4735 -1.0484 -0.0026
 7299SOL     OW23337   1.559   0.598   9.146  0.1711  0.2800  0.4921
 7299SOL    HW123338   1.630   0.558   9.195  0.7298  1.1316  0.3927
 7299SOL    HW223339   1.568   0.565   9.057 -0.5549 -0.8885  0.8225
 7300SOL     OW23340   3.116   1.821  11.567  0.6089 -0.2961 -0.6173
 7300SOL    HW123341   3.082   1.900  11.609 -0.0710  0.1768 -2.0012
 7300SOL    HW223342   3.082   1.749  11.621 -0.2306  0.2920 -0.3457
 7301SOL     OW23343   3.054   2.325   9.328  0.0160  0.4916  0.4984
 7301SOL    HW123344   3.074   2.301   9.237  0.9958 -0.2486  0.8825
 7301SOL    HW223345   3.109   2.401   9.345 -0.4569  0.8652  0.3542
 7302SOL     OW23346   4.203   0.800  10.102  0.0058 -1.2433  0.3979
 7302SOL    HW123347   4.156   0.783  10.183  0.2046 -0.8165  0.6013
 7302SOL    HW223348   4.199   0.717  10.054 -0.1928 -1.4645  0.7986
 7303SOL     OW23349   4.922   0.602   8.274  0.0026 -0.3646  0.4585
 7303SOL    HW123350   4.914   0.692   8.242 -0.1099 -0.2040  0.9328
 7303SOL    HW223351   5.013   0.577   8.254 -0.0424 -0.2440  0.0886
 7304SOL     OW23352   2.605   1.536   0.414  0.6198 -0.5943 -0.0446
 7304SOL    HW123353   2.588   1.548   0.320  0.2753 -0.5045  0.0283
 7304SOL    HW223354   2.641   1.447   0.420  3.1489  0.3044 -0.5861
 7305SOL     OW23355   2.137   0.291  11.502  0.6120  0.2354  0.3996
 7305SOL    HW123356   2.169   0.349  11.572 -0.3330  1.6043 -0.2503
 7305SOL    HW223357   2.042   0.292  11.512  0.5556 -0.9253  0.1271
 7306SOL     OW23358   3.938   1.222  10.901 -0.5778  0.1615 -0.3074
 7306SOL    HW123359   4.008   1.266  10.950 -1.2770 -0.7995  1.6910
 7306SOL    HW223360   3.890   1.293  10.858  0.4852  0.9950 -0.1493
 7307SOL     OW23361   2.522   7.457  11.672 -0.1046  0.0209  0.3167
 7307SOL    HW123362   2.524   7.489  11.582  2.6857 -2.3732 -0.6460
 7307SOL    HW223363   2.598   7.497  11.714  0.2060 -0.9726  0.7453
 7308SOL     OW23364   1.550   1.306  11.576 -0.1116 -0.0573 -0.1687
 7308SOL    HW123365   1.552   1.331  11.668 -1.9990  1.5822 -0.4846
 7308SOL    HW223366   1.487   1.235  11.571  0.8535 -0.9396 -0.0677
 7309SOL     OW23367   3.252   0.058  11.032 -0.9405  0.0288  0.8546
 7309SOL    HW123368   3.301   0.136  11.054 -0.7970 -0.0817  0.9257
 7309SOL    HW223369   3.303  -0.015  11.068 -0.0766 -0.2544 -0.8370
 7310SOL     OW23370   2.652   1.747   8.565 -0.2777 -0.3450 -0.2941
 7310SOL    HW123371   2.613   1.831   8.540 -0.3207 -0.2000  0.2503
 7310SOL    HW223372   2.741   1.751   8.529 -0.2610 -0.0450 -0.2209
 7311SOL     OW23373   2.712   1.582   8.796 -0.7940 -0.0056  0.2661
 7311SOL    HW123374   2.702   1.633   8.716 -1.6477  0.9968  0.9783
 7311SOL    HW223375   2.624   1.549   8.814 -0.2420 -1.8993 -0.2500
 7312SOL     OW23376   2.240   2.227  12.007  0.3444 -0.3932  0.4042
 7312SOL    HW123377   2.284   2.146  11.982  0.2657  0.0706 -1.3229
 7312SOL    HW223378   2.148   2.212  11.984  0.0822 -0.2757  1.3107
 7313SOL     OW23379   2.139   2.093  11.751 -0.3523  0.8414  0.1114
 7313SOL    HW123380   2.054   2.109  11.793  0.1710  1.8801  0.7909
 7313SOL    HW223381   2.173   2.015  11.794 -0.9569  0.3953 -0.1872
 7314SOL     OW23382   1.973   2.300   9.315  0.2055 -0.3780 -0.3425
 7314SOL    HW123383   1.957   2.263   9.228 -1.4094 -0.0653 -0.2122
 7314SOL    HW223384   2.066   2.285   9.331  0.2636 -1.5548 -1.6025
 7315SOL     OW23385   4.329   1.294  10.611  0.6699  0.0519 -0.3980
 7315SOL    HW123386   4.320   1.200  10.596 -0.6410  0.0686  0.1040
 7315SOL    HW223387   4.372   1.300  10.697 -0.7167 -0.1318  0.3431
 7316SOL     OW23388   2.195   0.394  11.240  0.2878 -0.0072  0.0098
 7316SOL    HW123389   2.172   0.378  11.332  1.4259  1.3323  0.5692
 7316SOL    HW223390   2.278   0.348  11.228  1.4699  1.8743  0.4540
 7317SOL     OW23391   4.435   2.466  10.359  0.2063  0.2472  0.1961
 7317SOL    HW123392   4.374   2.483  10.287  1.5468  1.5338 -0.7059
 7317SOL    HW223393   4.403   2.520  10.431 -0.8075 -0.5874  0.3924
 7318SOL     OW23394   4.144   1.263  10.431 -0.0840 -0.1315 -0.4636
 7318SOL    HW123395   4.139   1.169  10.448 -0.1944 -0.0900 -0.2663
 7318SOL    HW223396   4.187   1.300  10.508 -1.1729  0.1407  0.0411
 7319SOL     OW23397   4.071   2.027  11.649  0.4924  0.0276  0.0463
 7319SOL    HW123398   4.055   2.106  11.598 -0.8046 -0.2523 -0.0151
 7319SOL    HW223399   4.166   2.026  11.664  0.4483  1.9605  0.6799
 7320SOL     OW23400   4.551   0.241   8.375 -0.2482  0.0986  0.3101
 7320SOL    HW123401   4.557   0.204   8.463  2.8067  0.1966  0.2431
 7320SOL    HW223402   4.513   0.328   8.388 -1.7049 -0.6324  1.2240
 7321SOL     OW23403   2.640   6.850  12.287 -0.1917 -0.6219  0.2688
 7321SOL    HW123404   2.606   6.820  12.202  0.9438  1.0008 -0.8176
 7321SOL    HW223405   2.562   6.865  12.340 -0.8998 -2.3094 -0.2314
 7322SOL     OW23406   2.939   0.210  11.804  0.3243  0.0114 -0.8114
 7322SOL    HW123407   2.927   0.292  11.853 -0.8781 -0.4616 -0.2885
 7322SOL    HW223408   2.851   0.176  11.792  0.7783 -1.0001 -1.4083
 7323SOL     OW23409   3.484   1.646   9.452 -0.4742 -0.6826  0.3082
 7323SOL    HW123410   3.484   1.551   9.440  0.7100 -0.8405  1.4160
 7323SOL    HW223411   3.568   1.676   9.417 -1.6547  0.2877 -1.9927
 7324SOL     OW23412   3.340   2.268  10.554 -0.6035  0.0829  0.5619
 7324SOL    HW123413   3.392   2.277  10.475 -1.4820  0.0967 -0.0253
 7324SOL    HW223414   3.305   2.178  10.550  0.8218 -0.5905  1.8658
 7325SOL     OW23415   2.373   0.903   9.542  0.2209 -0.0055 -0.6138
 7325SOL    HW123416   2.304   0.967   9.555  0.2708 -0.0399 -0.1785
 7325SOL    HW223417   2.435   0.919   9.613 -0.1543 -1.0455 -0.0345
 7326SOL     OW23418   0.649   2.134   9.868 -0.0986 -0.4817  0.4300
 7326SOL    HW123419   0.574   2.129   9.927  0.7770  1.0378  1.7367
 7326SOL    HW223420   0.651   2.226   9.839  0.8854 -0.6488 -0.0934
 7327SOL     OW23421   3.322   1.363  11.175  0.0694  0.3125 -0.5213
 7327SOL    HW123422   3.353   1.274  11.195  0.1917  0.5917  0.6282
 7327SOL    HW223423   3.227   1.357  11.182  0.1457  0.6620  1.4894
 7328SOL     OW23424   4.624   1.149  10.590  0.3025  0.3138  0.3235
 7328SOL    HW123425   4.590   1.076  10.539 -1.9824  1.7811 -0.4050
 7328SOL    HW223426   4.649   1.111  10.674  0.5168 -1.5031 -0.5320
 7329SOL     OW23427   3.353   2.513   8.983 -0.0176  0.3613  0.3400
 7329SOL    HW123428   3.264   2.515   8.947 -0.0583 -0.1837  0.4126
 7329SOL    HW223429   3.396   2.590   8.944 -0.5576  0.7077  0.4078
 7330SOL     OW23430   1.020   3.610  10.549 -0.0910  0.2674 -0.1865
 7330SOL    HW123431   1.079   3.559  10.493 -0.0749  0.7352 -0.6018
 7330SOL    HW223432   0.955   3.646  10.489 -0.2555  0.5196  0.1419
 7331SOL     OW23433   1.577   1.817   9.795 -0.4720 -0.2054 -0.1542
 7331SOL    HW123434   1.576   1.752   9.865  1.4602 -0.6346 -0.4645
 7331SOL    HW223435   1.597   1.766   9.716  0.7248  0.6845 -0.4602
 7332SOL     OW23436   1.436   0.789  10.330 -0.5722  0.0411 -1.0015
 7332SOL    HW123437   1.497   0.778  10.257  0.1100 -0.3411 -0.3914
 7332SOL    HW223438   1.352   0.807  10.289 -0.0169  0.7551 -1.8642
 7333SOL     OW23439   1.111   1.217   9.968  0.3921 -0.1424  0.2511
 7333SOL    HW123440   1.105   1.303   9.928  0.7692  0.2126  0.9467
 7333SOL    HW223441   1.069   1.158   9.905 -2.6337  0.9618  1.0661
 7334SOL     OW23442   2.004   0.828  11.255  0.5579 -0.4339  0.3998
 7334SOL    HW123443   2.020   0.861  11.166 -2.5713 -0.0699 -0.1393
 7334SOL    HW223444   1.956   0.899  11.297 -1.4979 -2.1387  1.0442
 7335SOL     OW23445   3.764   0.441  10.545 -0.2416  0.2022  0.1565
 7335SOL    HW123446   3.796   0.425  10.634 -0.4223  1.6929  0.5082
 7335SOL    HW223447   3.842   0.462  10.495 -0.2046 -0.1208  0.0743
 7336SOL     OW23448   2.739   7.745   9.307 -0.4514  0.1095 -0.1043
 7336SOL    HW123449   2.735   7.675   9.242  1.2109 -0.1276  0.0027
 7336SOL    HW223450   2.785   7.706   9.381 -1.4784  0.6688  0.8517
 7337SOL     OW23451   2.981   7.372  10.363 -0.1837  0.1703  0.3834
 7337SOL    HW123452   2.905   7.382  10.421 -0.2024 -0.1232  0.4098
 7337SOL    HW223453   2.980   7.280  10.337  0.6857 -0.0572  1.1121
 7338SOL     OW23454   1.804   3.010   9.842 -0.6035  0.0911 -0.1893
 7338SOL    HW123455   1.860   2.943   9.803  0.8130  0.7633  0.6307
 7338SOL    HW223456   1.864   3.076   9.875 -1.8548  0.6090  1.1743
 7339SOL     OW23457   2.196   0.575   0.443 -0.1264  0.4608  0.0328
 7339SOL    HW123458   2.134   0.644   0.421 -0.1347  1.4231  2.7484
 7339SOL    HW223459   2.148   0.516   0.501  0.9086  0.1290  0.5844
 7340SOL     OW23460   3.537   1.841  11.964  0.1857  0.2172  0.0803
 7340SOL    HW123461   3.464   1.890  11.925 -0.3400 -0.9420 -0.4403
 7340SOL    HW223462   3.497   1.759  11.993  1.0853  0.0109  0.7681
 7341SOL     OW23463   3.039   0.927   9.381 -0.2838  0.0243 -0.2929
 7341SOL    HW123464   3.133   0.912   9.371 -0.1586  0.4899  0.1297
 7341SOL    HW223465   3.015   0.985   9.309  0.2733  1.9865  1.0246
 7342SOL     OW23466   1.361   0.666  11.188 -0.3483  0.7994 -0.2758
 7342SOL    HW123467   1.424   0.721  11.142 -0.2131  1.5607  0.7764
 7342SOL    HW223468   1.311   0.623  11.119  2.0076 -0.6906 -1.1972
 7343SOL     OW23469   4.984   7.948   9.558 -0.2615 -0.1771  0.2907
 7343SOL    HW123470   4.890   7.946   9.542 -0.0211  0.2928 -1.3007
 7343SOL    HW223471   5.005   8.040   9.571  0.2321 -0.0646 -1.1295
 7344SOL     OW23472   3.362   0.777   9.855  0.5416  0.0856  1.0206
 7344SOL    HW123473   3.427   0.750   9.920  2.2173 -1.9342 -1.2851
 7344SOL    HW223474   3.285   0.724   9.874  0.6148  0.2871  1.9446
 7345SOL     OW23475   2.725   2.044   9.671  0.2770  0.8369 -0.1883
 7345SOL    HW123476   2.788   2.021   9.603  0.0863  1.9367 -0.7606
 7345SOL    HW223477   2.697   2.132   9.649  2.3216  2.4394  2.9255
 7346SOL     OW23478   4.899   1.865   9.633 -0.1747  0.2528 -0.0118
 7346SOL    HW123479   4.952   1.925   9.580 -0.5820  0.3241 -0.3447
 7346SOL    HW223480   4.809   1.885   9.608 -0.3042 -0.6364 -0.2617
 7347SOL     OW23481   2.753   1.704  11.534  0.3800 -0.4069  0.5383
 7347SOL    HW123482   2.840   1.695  11.574  0.9541  2.3408  0.0810
 7347SOL    HW223483   2.705   1.761  11.594 -0.2854  0.0658 -0.4322
 7348SOL     OW23484   3.960   2.129   9.836 -0.8020  0.1455 -0.5169
 7348SOL    HW123485   3.895   2.105   9.902  0.0280  1.2590  0.7618
 7348SOL    HW223486   3.927   2.211   9.798 -1.2147 -0.4276 -1.4185
 7349SOL     OW23487   3.943   1.430  10.598 -0.1261  0.4219 -0.0886
 7349SOL    HW123488   4.009   1.425  10.666  0.3601 -1.9766 -0.6622
 7349SOL    HW223489   3.861   1.444  10.645  0.2038 -1.1748  1.0442
 7350SOL     OW23490   4.197   2.019   7.928  0.4452 -0.4830 -0.2343
 7350SOL    HW123491   4.268   2.008   7.992  1.6041 -0.6373 -1.4922
 7350SOL    HW223492   4.169   2.110   7.938  0.7090 -0.4687  0.3985
 7351SOL     OW23493   7.691   1.367  11.415  0.0490 -0.1784  0.5572
 7351SOL    HW123494   7.742   1.300  11.461  0.4346 -0.8023 -0.7382
 7351SOL    HW223495   7.647   1.415  11.485  3.3981  1.2540  1.8572
 7352SOL     OW23496   5.642   7.880  10.970  0.1992 -0.1482  0.3140
 7352SOL    HW123497   5.678   7.905  11.055 -0.7209  2.5467  0.0264
 7352SOL    HW223498   5.547   7.892  10.980  0.0821  0.3083 -1.1053
 7353SOL     OW23499   3.069   0.048   0.485  0.0255 -0.3653  0.7060
 7353SOL    HW123500   2.987   0.048   0.435  0.9308  0.7470 -0.8707
 7353SOL    HW223501   3.074   0.135   0.522  0.6698 -0.2979  0.4711
 7354SOL     OW23502   2.058   2.783   9.391  0.3127  0.1652 -0.1580
 7354SOL    HW123503   2.033   2.839   9.317  0.4581  0.8456  0.3034
 7354SOL    HW223504   2.153   2.790   9.396  0.4350 -0.8756 -0.6783
 7355SOL     OW23505   3.565   3.178  11.002  0.3063  0.1302 -0.0091
 7355SOL    HW123506   3.514   3.177  11.083  1.6630 -0.7211  0.8784
 7355SOL    HW223507   3.607   3.092  10.999 -0.0344 -0.0106 -1.8502
 7356SOL     OW23508   2.176   5.916   9.795 -0.4735 -0.5093 -0.1204
 7356SOL    HW123509   2.257   5.865   9.800  0.1356  0.4131 -0.3667
 7356SOL    HW223510   2.126   5.874   9.725 -0.5389 -1.5343  0.5157
 7357SOL     OW23511   2.349   7.354  11.050  0.2097 -0.6605  0.3875
 7357SOL    HW123512   2.265   7.399  11.038  0.8171  0.1236 -1.2733
 7357SOL    HW223513   2.359   7.301  10.971  0.6627 -1.8435  1.2065
 7358SOL     OW23514   2.194   3.083   9.029 -0.5147 -0.1446  0.4929
 7358SOL    HW123515   2.122   3.127   9.073 -0.6148 -1.1298  1.3474
 7358SOL    HW223516   2.231   3.025   9.095 -0.3664 -1.3173 -0.5772
 7359SOL     OW23517   2.462   0.647  10.249 -0.3183 -0.1272 -0.2171
 7359SOL    HW123518   2.435   0.570  10.199 -0.0057 -0.5134  0.1975
 7359SOL    HW223519   2.525   0.692  10.193 -2.0324  0.9826 -1.3561
 7360SOL     OW23520   3.538   3.414   7.853 -0.3634 -0.3199  0.1928
 7360SOL    HW123521   3.590   3.388   7.929 -0.3588 -0.0598  0.2803
 7360SOL    HW223522   3.524   3.508   7.865 -1.5192 -0.5176  0.5866
 7361SOL     OW23523   4.460   2.180  10.497  0.1234  0.2889 -0.1231
 7361SOL    HW123524   4.444   2.257  10.443 -1.5581 -0.5689 -0.9120
 7361SOL    HW223525   4.522   2.127  10.446 -0.7124 -0.0677 -0.7797
 7362SOL     OW23526   1.042   1.653  10.344 -0.1663  0.0435  0.0220
 7362SOL    HW123527   0.965   1.658  10.288 -0.8196 -0.7254  0.8179
 7362SOL    HW223528   1.076   1.743  10.348 -1.2684  0.4665 -0.0034
 7363SOL     OW23529   4.314   2.881  11.718  0.1374  0.1047  0.1172
 7363SOL    HW123530   4.250   2.812  11.700  0.5254 -0.0028 -0.9595
 7363SOL    HW223531   4.261   2.959  11.733 -0.3125 -0.4194  1.4268
 7364SOL     OW23532   2.942   7.936  10.503  0.0771 -0.3357  0.0322
 7364SOL    HW123533   3.033   7.950  10.477 -0.0589 -0.9861 -0.8297
 7364SOL    HW223534   2.900   8.021  10.492  0.2135 -0.4054 -1.1436
 7365SOL     OW23535   2.756   0.892   0.282 -0.0953 -0.2037 -0.2007
 7365SOL    HW123536   2.748   0.987   0.289 -0.5153 -0.3118  1.1224
 7365SOL    HW223537   2.812   0.868   0.355  1.5010 -0.8209 -1.5762
 7366SOL     OW23538   3.530   2.662   9.384 -0.1989  0.1519  0.1285
 7366SOL    HW123539   3.591   2.645   9.456 -2.1617 -0.2060  1.8164
 7366SOL    HW223540   3.558   2.604   9.314  1.0179 -0.4651  1.0883
 7367SOL     OW23541   4.823   6.876   0.170  0.8683 -0.1948 -0.1192
 7367SOL    HW123542   4.809   6.955   0.118  1.8383  0.0192 -0.0771
 7367SOL    HW223543   4.909   6.889   0.210  1.2835 -1.4979 -0.5410
 7368SOL     OW23544   2.704   0.968   9.969  0.0227  0.2131 -0.4596
 7368SOL    HW123545   2.789   0.931   9.946 -0.4859 -0.0046 -2.1091
 7368SOL    HW223546   2.681   0.925  10.052  2.2088  1.4852  0.9206
 7369SOL     OW23547   1.619   2.246  10.249 -0.6842 -0.4401 -0.2929
 7369SOL    HW123548   1.677   2.270  10.322  0.6565  0.7533 -1.6715
 7369SOL    HW223549   1.638   2.154  10.233 -1.2489 -0.8143  1.0635
 7370SOL     OW23550   3.563   0.960  11.338  0.2348  0.3663 -0.3179
 7370SOL    HW123551   3.646   0.971  11.384  0.9711  3.3995 -2.1395
 7370SOL    HW223552   3.509   1.033  11.368 -1.7924 -1.4016  0.6472
 7371SOL     OW23553   2.009   7.950   8.238 -0.2117 -0.0151 -0.3656
 7371SOL    HW123554   1.974   8.016   8.298  0.9167  0.7321 -0.4931
 7371SOL    HW223555   1.934   7.922   8.186 -0.8491  0.6662  0.1691
 7372SOL     OW23556   3.849   1.200   9.908  0.1743  0.1095 -0.0225
 7372SOL    HW123557   3.777   1.139   9.899  1.3636 -1.2709 -0.5382
 7372SOL    HW223558   3.827   1.273   9.849  0.0835 -1.1711 -1.6328
 7373SOL     OW23559   2.862   0.005   9.310  0.0078 -0.0135 -0.2743
 7373SOL    HW123560   2.792   0.070   9.322  0.2257  0.2554 -0.4488
 7373SOL    HW223561   2.816  -0.079   9.304 -0.1682 -0.1447  1.9900
 7374SOL     OW23562   3.330   1.628  10.643 -0.1494 -0.0887 -0.0689
 7374SOL    HW123563   3.280   1.621  10.724 -0.9492  0.2696 -0.5281
 7374SOL    HW223564   3.307   1.550  10.593  4.2381 -3.2426  2.1023
 7375SOL     OW23565   3.053   0.224  11.116  0.0505  0.0185 -0.1791
 7375SOL    HW123566   3.112   0.288  11.157 -0.0492 -1.8851  3.2311
 7375SOL    HW223567   3.104   0.144  11.110 -0.6746 -0.3755 -1.9619
 7376SOL     OW23568   5.023   2.712  10.441 -0.1466 -0.0250  0.5065
 7376SOL    HW123569   4.935   2.749  10.435 -0.0778  0.0309 -0.2616
 7376SOL    HW223570   5.022   2.637  10.380  0.8900  1.1239 -0.9897
 7377SOL     OW23571   2.944   7.978   9.571  0.5911 -0.1672  0.7322
 7377SOL    HW123572   2.928   7.966   9.478  0.8663 -0.5730  0.7352
 7377SOL    HW223573   2.917   7.895   9.611 -1.5358  0.7176  1.2761
 7378SOL     OW23574   2.861   1.369  10.992  0.0674 -0.7151  0.0140
 7378SOL    HW123575   2.870   1.361  10.897 -0.2163  2.1813 -0.3593
 7378SOL    HW223576   2.771   1.340  11.010 -0.3596  0.0322 -0.8316
 7379SOL     OW23577   3.866   2.445   9.901  0.4571  0.1202  0.3959
 7379SOL    HW123578   3.806   2.445   9.826  1.2800  4.5295 -0.5171
 7379SOL    HW223579   3.811   2.468   9.975  0.5404  1.9527 -0.0569
 7380SOL     OW23580   4.497   0.870   9.716  0.1451  0.8891  0.2289
 7380SOL    HW123581   4.565   0.867   9.783  0.7681  0.8569 -0.3953
 7380SOL    HW223582   4.460   0.958   9.723  0.3371  0.9505  0.4869
 7381SOL     OW23583   4.759   7.905   7.977 -0.7027 -0.7560  0.3835
 7381SOL    HW123584   4.708   7.986   7.984  0.4925 -0.0244  1.0835
 7381SOL    HW223585   4.803   7.911   7.892 -1.0549 -0.9322  0.1911
 7382SOL     OW23586   2.114   0.387  10.581  0.0099 -0.7386  0.4156
 7382SOL    HW123587   2.044   0.332  10.546  0.5901 -0.5825 -1.0425
 7382SOL    HW223588   2.079   0.420  10.664 -1.7114 -0.5222 -0.3497
 7383SOL     OW23589   3.591   1.554  10.971  0.1896  0.1599 -0.8308
 7383SOL    HW123590   3.505   1.590  10.992  0.9185  0.8896  1.1437
 7383SOL    HW223591   3.645   1.576  11.047  1.3606 -2.9239 -0.6593
 7384SOL     OW23592   5.157   7.570   8.886  0.3454 -0.2796 -0.9217
 7384SOL    HW123593   5.164   7.653   8.934  0.0279 -0.2888 -0.8548
 7384SOL    HW223594   5.167   7.503   8.954 -1.8927 -0.3071 -0.5481
 7385SOL     OW23595   2.842   0.532   8.935  0.0422 -0.0677 -0.5104
 7385SOL    HW123596   2.765   0.588   8.946  0.7933  1.2290 -1.4652
 7385SOL    HW223597   2.820   0.477   8.860  0.2725  0.7577 -1.2017
 7386SOL     OW23598   4.211   1.592  10.167 -0.0291  0.2652  0.1335
 7386SOL    HW123599   4.158   1.647  10.109 -2.8401  0.8937  2.9728
 7386SOL    HW223600   4.166   1.508  10.167  1.5413 -0.6101 -0.6215
 7387SOL     OW23601   0.539   0.241   9.556 -0.2030  0.1391  0.5384
 7387SOL    HW123602   0.617   0.194   9.586 -0.0789  0.4899  0.7678
 7387SOL    HW223603   0.528   0.213   9.465 -0.9903 -1.4718  1.1022
 7388SOL     OW23604   1.609   1.525  11.354 -0.2862 -0.5118 -0.6333
 7388SOL    HW123605   1.537   1.557  11.408  0.0021  0.1844 -0.6525
 7388SOL    HW223606   1.662   1.472  11.413 -1.1186 -1.5119 -0.7566
 7389SOL     OW23607   5.054   1.158   9.348  0.0716 -0.0701  0.1829
 7389SOL    HW123608   5.056   1.183   9.255  0.7588  0.0364  0.2212
 7389SOL    HW223609   5.036   1.064   9.347  0.7333 -0.1997 -0.0876
 7390SOL     OW23610   3.556   2.417  10.789 -0.3236  0.7225 -0.4303
 7390SOL    HW123611   3.462   2.415  10.776 -0.3759 -1.0282 -0.0501
 7390SOL    HW223612   3.583   2.325  10.788  1.1075  1.0493  1.2753
 7391SOL     OW23613   1.771   1.520  10.444  0.2252 -0.4070  0.8475
 7391SOL    HW123614   1.807   1.609  10.437 -0.1470 -0.1811  1.7243
 7391SOL    HW223615   1.715   1.522  10.522 -1.4678 -0.8279 -0.2887
 7392SOL     OW23616   2.543   1.329  11.662  0.5603  0.1948 -0.3204
 7392SOL    HW123617   2.473   1.386  11.694  1.6786  0.2568  2.2366
 7392SOL    HW223618   2.556   1.265  11.731  0.8087 -1.9218 -2.2100
 7393SOL     OW23619   4.216   7.514   9.051 -0.0909  0.2996 -0.7006
 7393SOL    HW123620   4.240   7.422   9.059  1.6546  0.6821 -1.2118
 7393SOL    HW223621   4.150   7.527   9.119 -0.7550 -1.4342 -0.9619
 7394SOL     OW23622   2.482   0.534  11.298  0.1593  0.0920  0.5488
 7394SOL    HW123623   2.501   0.445  11.267 -0.3537 -0.2550  1.1980
 7394SOL    HW223624   2.500   0.530  11.392  0.4485  0.7688  0.5245
 7395SOL     OW23625   4.290   2.249   9.050 -0.7358 -0.1351 -0.1480
 7395SOL    HW123626   4.291   2.231   8.956 -0.9568  0.4092 -0.2632
 7395SOL    HW223627   4.227   2.186   9.086 -1.4665  0.3565 -0.5272
 7396SOL     OW23628   2.459   2.296  10.744  0.1278 -0.5804  0.3995
 7396SOL    HW123629   2.482   2.249  10.824 -0.0298 -0.7109  0.3681
 7396SOL    HW223630   2.438   2.227  10.681  2.7699 -0.6294 -0.5691
 7397SOL     OW23631   3.226   2.673   8.771 -0.3627  0.1209 -0.6603
 7397SOL    HW123632   3.211   2.657   8.678 -0.8097  1.2716 -0.8053
 7397SOL    HW223633   3.252   2.765   8.776 -0.0041 -0.0214  0.3184
 7398SOL     OW23634   6.183   7.938   0.307 -0.0398  0.5182 -0.2728
 7398SOL    HW123635   6.118   7.877   0.342 -0.2884  0.6438 -0.5097
 7398SOL    HW223636   6.172   8.017   0.360  0.5954  0.2036  0.3363
 7399SOL     OW23637   1.725   6.066   0.379  0.0800  0.0595 -0.1601
 7399SOL    HW123638   1.702   6.147   0.334 -0.5686  0.3785  0.7074
 7399SOL    HW223639   1.720   6.089   0.472 -2.8749 -1.6491  0.2087
 7400SOL     OW23640   2.265   2.903   9.522 -0.2027 -0.2701  0.2645
 7400SOL    HW123641   2.349   2.920   9.565 -0.4560  0.2365  0.5771
 7400SOL    HW223642   2.217   2.985   9.531 -0.3268 -0.2145 -0.8661
 7401SOL     OW23643   1.701   2.444  11.189  0.1143 -0.3654  0.2433
 7401SOL    HW123644   1.747   2.362  11.207  0.2613 -0.0890  1.1664
 7401SOL    HW223645   1.684   2.442  11.095 -0.2653 -1.6544  0.3308
 7402SOL     OW23646   2.746   0.303  11.284 -0.1776  0.3448 -0.4942
 7402SOL    HW123647   2.767   0.214  11.315  2.0462  1.0579  0.2763
 7402SOL    HW223648   2.796   0.360  11.342 -2.0793  2.1732 -0.5599
 7403SOL     OW23649   2.005   0.784  10.362 -0.3458  0.0264 -0.5616
 7403SOL    HW123650   2.070   0.852  10.349 -0.2268 -0.3494 -2.1337
 7403SOL    HW223651   1.925   0.818  10.321 -0.7394 -0.1301  0.0525
 7404SOL     OW23652   3.446   0.039  10.400  0.2506  0.1645 -0.0036
 7404SOL    HW123653   3.513   0.083  10.347  0.4318 -0.3754 -0.2259
 7404SOL    HW223654   3.495  -0.024  10.452 -0.1157 -0.3899 -0.3300
 7405SOL     OW23655   0.654   1.644   9.421  0.2717 -0.1067  0.1967
 7405SOL    HW123656   0.634   1.712   9.356  1.2683  1.5179  1.4899
 7405SOL    HW223657   0.749   1.636   9.417  0.3943  0.2923  1.6581
 7406SOL     OW23658   4.041   2.390   7.615  0.2456  0.0726  0.5015
 7406SOL    HW123659   4.015   2.411   7.705 -0.1086 -0.1548  0.4545
 7406SOL    HW223660   4.005   2.303   7.600 -1.8592  1.0823 -0.6932
 7407SOL     OW23661   0.533   2.242  11.394 -0.2909  0.4047 -0.1876
 7407SOL    HW123662   0.452   2.282  11.361 -0.6904 -1.7855 -2.0515
 7407SOL    HW223663   0.579   2.212  11.316  2.3841  1.5676  0.8228
 7408SOL     OW23664   3.871   0.395  12.388  0.1199  0.4204 -0.0047
 7408SOL    HW123665   3.958   0.412  12.353 -0.4671  2.2428 -0.7143
 7408SOL    HW223666   3.815   0.459  12.343 -1.3702  0.0724  1.2968
 7409SOL     OW23667   1.478   6.931  11.874 -0.4806 -0.5625  0.2301
 7409SOL    HW123668   1.531   7.007  11.848 -0.9367  0.5993  2.4306
 7409SOL    HW223669   1.424   6.912  11.797 -1.3245  2.2403  0.0016
 7410SOL     OW23670   2.087   6.889   0.576  0.4786  0.4101  0.1324
 7410SOL    HW123671   2.018   6.955   0.577 -2.3780 -2.3613  1.3052
 7410SOL    HW223672   2.121   6.890   0.666  0.4563  0.2940  0.1416
 7411SOL     OW23673   3.481   1.595  10.404  0.1683 -0.2593 -0.7684
 7411SOL    HW123674   3.403   1.606  10.349 -0.2294  0.1755 -0.1339
 7411SOL    HW223675   3.451   1.619  10.492  1.0163 -0.1315 -0.5114
 7412SOL     OW23676   4.410   1.367  12.140 -0.1430  0.0158 -0.4677
 7412SOL    HW123677   4.353   1.442  12.127  0.6876  0.9294  0.8914
 7412SOL    HW223678   4.468   1.367  12.064 -0.1084  0.8046 -0.4522
 7413SOL     OW23679   4.728   7.156  11.568 -0.2176  0.0173 -0.3934
 7413SOL    HW123680   4.795   7.223  11.583  0.3951 -0.7548  0.4075
 7413SOL    HW223681   4.731   7.100  11.646 -1.6384 -0.1772 -0.4542
 7414SOL     OW23682   2.305   1.266   0.159  0.0765  0.0132  0.1004
 7414SOL    HW123683   2.253   1.298   0.085  2.1705  0.1108 -1.3963
 7414SOL    HW223684   2.296   1.334   0.226 -0.5056  0.7115 -0.6753
 7415SOL     OW23685   2.343   2.429  12.147 -0.0141  0.7241 -0.2155
 7415SOL    HW123686   2.298   2.358  12.100  1.3317 -1.5076  1.6841
 7415SOL    HW223687   2.430   2.433  12.107  0.7386 -0.4034  1.2273
 7416SOL     OW23688   2.894   2.057  11.428 -0.0364  0.1934 -0.4440
 7416SOL    HW123689   2.889   2.016  11.514  1.6529  1.9638  0.5773
 7416SOL    HW223690   2.948   1.997  11.376  0.2678 -0.1252  0.2216
 7417SOL     OW23691   5.180   1.787  10.331 -0.3418  0.0368  0.2182
 7417SOL    HW123692   5.151   1.719  10.391  4.3617 -1.4124  1.3121
 7417SOL    HW223693   5.173   1.749  10.244 -0.3647 -0.7646  0.5692
 7418SOL     OW23694   2.221   1.257  11.774  0.1096  0.7127  0.0301
 7418SOL    HW123695   2.245   1.350  11.772 -1.2657  1.0805 -1.9389
 7418SOL    HW223696   2.126   1.258  11.784 -0.1884 -0.3781 -2.1661
 7419SOL     OW23697   2.352   1.722  12.032  0.4280 -0.3411 -0.4224
 7419SOL    HW123698   2.391   1.798  12.074 -0.0970 -0.3135  0.0270
 7419SOL    HW223699   2.425   1.660  12.022  1.0331  0.5273 -1.5592
 7420SOL     OW23700   2.637   1.379   0.714 -0.2674  0.3538  0.5656
 7420SOL    HW123701   2.707   1.383   0.649 -0.2084 -0.4106  0.5801
 7420SOL    HW223702   2.560   1.350   0.666 -0.6899  1.5834  0.4689
 7421SOL     OW23703   1.824   0.965  11.409 -0.0262 -0.2176 -0.4051
 7421SOL    HW123704   1.801   0.886  11.457 -0.8348  0.6409  0.6877
 7421SOL    HW223705   1.810   1.036  11.472 -2.8428  1.1723 -2.3808
 7422SOL     OW23706   2.337   0.504   0.161  0.4617  0.6341 -0.1031
 7422SOL    HW123707   2.301   0.422   0.126 -0.3658  0.5649  0.8917
 7422SOL    HW223708   2.377   0.546   0.085 -0.5693  0.0903 -0.9753
 7423SOL     OW23709   3.894   1.762  10.684  0.0029 -0.0111 -0.0401
 7423SOL    HW123710   3.963   1.715  10.636  0.4284  0.6919 -0.1371
 7423SOL    HW223711   3.902   1.853  10.654 -1.2731 -0.0009 -0.3923
 7424SOL     OW23712   3.420   1.244  11.440 -0.2092 -0.1039 -0.1006
 7424SOL    HW123713   3.511   1.256  11.467 -0.0761 -0.1853 -0.5060
 7424SOL    HW223714   3.371   1.307  11.492 -0.1436 -1.1602  1.3252
 7425SOL     OW23715   4.735   0.887  12.423  0.6121 -0.3628  0.1559
 7425SOL    HW123716   4.799   0.890  12.494 -1.9544 -0.8400  2.6458
 7425SOL    HW223717   4.768   0.817  12.365  1.7671 -1.3823  1.9403
 7426SOL     OW23718   1.596   0.524   0.260  0.2930  0.5942  0.1708
 7426SOL    HW123719   1.550   0.566   0.187  0.5829 -0.1578 -0.4621
 7426SOL    HW223720   1.562   0.568   0.338 -0.0067  1.4264 -0.4155
 7427SOL     OW23721   1.914   0.166  12.343 -0.0039  0.0755  0.7008
 7427SOL    HW123722   1.870   0.094  12.297  2.3015  0.2809 -2.0922
 7427SOL    HW223723   1.981   0.123  12.396 -0.0433  0.0343  0.7164
 7428SOL     OW23724   2.692   0.784  11.485 -0.4584 -0.2852 -0.0560
 7428SOL    HW123725   2.729   0.696  11.497  2.7842  0.9363 -0.0144
 7428SOL    HW223726   2.654   0.806  11.569  1.4055 -0.5878  0.9226
 7429SOL     OW23727   3.006   7.452   0.635 -0.1199  1.0766 -0.1394
 7429SOL    HW123728   2.923   7.471   0.593 -0.7113 -0.0139  0.4910
 7429SOL    HW223729   2.989   7.462   0.729 -0.1644 -1.2095  0.1655
 7430SOL     OW23730   1.137   6.710   0.738 -0.4697  0.3284  0.1673
 7430SOL    HW123731   1.088   6.686   0.660  0.5050 -2.1848  0.2425
 7430SOL    HW223732   1.163   6.801   0.723 -0.1030 -0.1412 -2.5619
 7431SOL     OW23733   2.740   0.441  10.621 -0.0925  0.6375  0.6868
 7431SOL    HW123734   2.654   0.456  10.580  0.0578 -0.6992 -0.1598
 7431SOL    HW223735   2.803   0.472  10.557  0.0863  0.6592  0.8722
 7432SOL     OW23736   4.013   0.580  11.576  0.0064 -0.4817  0.1917
 7432SOL    HW123737   3.944   0.530  11.619  0.3529 -1.6891 -0.6266
 7432SOL    HW223738   4.060   0.623  11.648 -1.5497  0.3616  0.7757
 7433SOL     OW23739   4.352   0.915   0.244  0.8007 -0.0073  0.5529
 7433SOL    HW123740   4.281   0.869   0.287 -1.6020  1.7139 -1.2858
 7433SOL    HW223741   4.363   0.871   0.160  1.1471  0.4078  0.3719
 7434SOL     OW23742   2.738   6.775  11.011  0.2055  0.7770  0.2245
 7434SOL    HW123743   2.790   6.846  10.974  1.3352 -0.0673  0.1333
 7434SOL    HW223744   2.801   6.720  11.056 -0.6698 -0.0970  0.4199
 7435SOL     OW23745   2.802   7.792   0.584 -0.2615 -0.1790  0.0990
 7435SOL    HW123746   2.761   7.800   0.670 -0.6614 -0.6492 -0.0456
 7435SOL    HW223747   2.896   7.801   0.602 -0.3039 -0.7484  0.6564
 7436SOL     OW23748   3.828   1.622  10.297  0.1874  0.5031  0.3109
 7436SOL    HW123749   3.862   1.677  10.368  2.2788  0.8124 -0.8592
 7436SOL    HW223750   3.753   1.670  10.264  0.2673  1.2331  1.1504
 7437SOL     OW23751   3.560   0.026   0.476  0.2978  0.2077  0.0897
 7437SOL    HW123752   3.516   0.092   0.423 -1.1170  0.5903  1.6564
 7437SOL    HW223753   3.541   0.050   0.566  0.8734 -1.5933  0.7479
 7438SOL     OW23754   2.573   7.761  11.671  0.0283  0.3345  0.7951
 7438SOL    HW123755   2.628   7.776  11.748 -0.0630  1.1090  0.7252
 7438SOL    HW223756   2.593   7.835  11.614  0.1899 -0.3034  0.0140
 7439SOL     OW23757   2.693   6.294  11.876  0.4644 -0.0234 -0.3665
 7439SOL    HW123758   2.768   6.276  11.819  1.0479 -1.8828  0.9200
 7439SOL    HW223759   2.684   6.216  11.930 -2.2739  0.2462 -0.2953
 7440SOL     OW23760   4.696   0.165  11.836  0.1884 -0.3740  0.6377
 7440SOL    HW123761   4.789   0.143  11.843  0.1950 -1.0462 -1.0444
 7440SOL    HW223762   4.668   0.126  11.753 -1.4989  0.1909  0.8920
 7441SOL     OW23763   1.833   0.614  11.176 -0.3769  0.4852 -0.2355
 7441SOL    HW123764   1.753   0.630  11.224  0.0046  1.1707  0.1938
 7441SOL    HW223765   1.890   0.688  11.198  0.1406  0.3431 -1.0235
 7442SOL     OW23766   2.271   7.465   0.149  0.1654  0.4402  0.2777
 7442SOL    HW123767   2.196   7.407   0.133  0.3138  0.7074 -1.6103
 7442SOL    HW223768   2.233   7.553   0.153  0.2534  0.4717  0.4008
 7443SOL     OW23769   2.960   2.653   0.509  0.6087  0.1975  0.1513
 7443SOL    HW123770   2.886   2.694   0.554  0.6746  0.2458  0.2161
 7443SOL    HW223771   2.961   2.693   0.422  0.9135  0.6246  0.3475
 7444SOL     OW23772   0.859   1.310  10.375  0.3078  0.0406 -0.1981
 7444SOL    HW123773   0.869   1.301  10.281 -0.2882 -0.2974 -0.2384
 7444SOL    HW223774   0.804   1.387  10.387  0.0103 -0.1749 -0.1532
 7445SOL     OW23775   4.482   0.606  11.212  0.2356 -0.2608 -0.0526
 7445SOL    HW123776   4.472   0.610  11.307 -0.2760  1.0981 -0.1475
 7445SOL    HW223777   4.498   0.697  11.186 -0.8347 -0.4284 -1.3851
 7446SOL     OW23778   2.692   0.774  11.156  0.6472  0.2541 -0.0875
 7446SOL    HW123779   2.656   0.766  11.245  1.5872 -0.5640  0.2407
 7446SOL    HW223780   2.751   0.700  11.148  0.2604  0.0744 -1.5682
 7447SOL     OW23781   3.893   1.589  11.036  0.0201  0.4863  0.3853
 7447SOL    HW123782   3.942   1.672  11.030  1.7337 -0.5359 -0.5789
 7447SOL    HW223783   3.960   1.523  11.055 -1.5452 -0.5080  2.9010
 7448SOL     OW23784   0.610   1.963  11.511  0.1420 -0.0306  0.1705
 7448SOL    HW123785   0.581   1.997  11.427 -0.1573 -2.6258 -0.8917
 7448SOL    HW223786   0.530   1.941  11.557  0.3270  0.1190  0.5644
 7449SOL     OW23787   3.313   1.486  11.520 -0.8552  0.0117 -0.0101
 7449SOL    HW123788   3.302   1.577  11.545 -0.1326  0.1163 -0.0529
 7449SOL    HW223789   3.238   1.467  11.464 -1.4769  0.3167  0.7080
 7450SOL     OW23790   2.834   1.000  11.426  0.3455  0.4960  0.4603
 7450SOL    HW123791   2.781   0.923  11.444  1.1513  0.1250  1.3054
 7450SOL    HW223792   2.904   0.969  11.369  1.4075  0.3031  1.8310
 7451SOL     OW23793   4.502   1.031  11.756  0.0542  0.0258 -0.0542
 7451SOL    HW123794   4.594   1.026  11.728 -0.4491 -1.9589 -1.6324
 7451SOL    HW223795   4.458   1.080  11.687 -0.3629 -0.6096 -0.2524
 7452SOL     OW23796   1.724   1.284  12.163 -0.4007  0.1630  0.3346
 7452SOL    HW123797   1.657   1.341  12.202  2.4434  2.2740  2.5061
 7452SOL    HW223798   1.748   1.224  12.233 -1.5284 -2.1592 -1.1556
 7453SOL     OW23799   0.947   2.707  12.390  0.9033  0.3133 -0.2961
 7453SOL    HW123800   1.013   2.755  12.339  0.4984 -1.1457 -2.3134
 7453SOL    HW223801   0.864   2.730  12.348  0.4070  0.0676  0.5388
 7454SOL     OW23802   0.613   0.416  11.496  0.0353  0.0148 -0.3344
 7454SOL    HW123803   0.650   0.468  11.567  1.2522 -1.9337  0.5197
 7454SOL    HW223804   0.572   0.341  11.539 -0.4993 -0.4620 -1.6096
 7455SOL     OW23805   1.560   0.773  11.937 -0.2930 -0.1847  0.6196
 7455SOL    HW123806   1.630   0.826  11.899  0.1900 -0.7516  0.6898
 7455SOL    HW223807   1.502   0.752  11.864  0.1063 -0.4654  0.3795
 7456SOL     OW23808   4.750   1.783  10.474 -1.2413 -0.2037  0.0298
 7456SOL    HW123809   4.661   1.813  10.493 -1.3083  0.7544 -1.6178
 7456SOL    HW223810   4.738   1.714  10.410 -0.8932 -1.7788  1.5836
 7457SOL     OW23811   1.706   1.409   1.018  0.6276 -0.1890  0.0439
 7457SOL    HW123812   1.695   1.458   1.099  1.4596  0.7476 -0.3895
 7457SOL    HW223813   1.733   1.475   0.953  1.4915 -1.1657 -0.6222
 7458SOL     OW23814   3.059   0.953  12.120 -0.0256 -0.2232 -0.0559
 7458SOL    HW123815   3.032   0.910  12.202 -1.2647  1.2004  0.3393
 7458SOL    HW223816   3.154   0.942  12.117  0.0381 -0.3938  1.5402
 7459SOL     OW23817   5.413   2.805  12.146 -0.0922  0.8586  0.0518
 7459SOL    HW123818   5.404   2.881  12.204 -1.1907 -0.4639  1.6998
 7459SOL    HW223819   5.323   2.784  12.120  0.0660 -0.4772  0.4828
 7460SOL     OW23820   0.313   7.774  11.828  0.1693 -0.7310 -0.7093
 7460SOL    HW123821   0.262   7.784  11.908  0.9303 -0.5104 -0.2402
 7460SOL    HW223822   0.280   7.693  11.788  0.2144 -1.1813  0.1541
 7461SOL     OW23823   5.281   0.883  11.610 -0.1696  0.2631  0.2502
 7461SOL    HW123824   5.193   0.878  11.648  0.6055  0.8105  2.2508
 7461SOL    HW223825   5.297   0.976  11.600  0.2428  0.1736  0.0681
 7462SOL     OW23826   4.271   1.041  11.900 -0.3320 -0.2342  0.6988
 7462SOL    HW123827   4.286   1.022  11.992  0.4184 -2.1056  0.2424
 7462SOL    HW223828   4.358   1.038  11.860 -0.6929  0.0706 -0.1483
 7463SOL     OW23829   1.188   1.204  11.906 -0.1455 -0.2933  0.1912
 7463SOL    HW123830   1.235   1.259  11.970 -1.6103  0.8849  0.3225
 7463SOL    HW223831   1.123   1.263  11.869  0.1273 -1.1987 -1.8164
 7464SOL     OW23832   2.730   1.189   0.237 -0.1877  0.0535  0.1926
 7464SOL    HW123833   2.678   1.230   0.168  0.4558  0.9694  0.2498
 7464SOL    HW223834   2.805   1.150   0.191  0.4134  0.9454  0.4012
 7465SOL     OW23835   3.491   1.574  11.267 -0.0086  0.1083  0.0720
 7465SOL    HW123836   3.486   1.577  11.362 -0.5993  0.8954  0.0281
 7465SOL    HW223837   3.463   1.486  11.243  0.8370 -0.3386  0.6530
 7466SOL     OW23838   1.192   1.894  12.190  0.1119 -0.2400  0.8883
 7466SOL    HW123839   1.107   1.851  12.199  0.3618 -0.5475  1.8298
 7466SOL    HW223840   1.171   1.987  12.178 -0.4442 -0.5870 -1.3907
 7467SOL     OW23841   3.117   7.290  11.827 -0.2250 -0.5748  0.0939
 7467SOL    HW123842   3.154   7.373  11.798 -0.7401 -1.1990 -2.6238
 7467SOL    HW223843   3.192   7.236  11.851  0.3151 -0.2938 -0.9481
 7468SOL     OW23844   1.273   1.549  11.103 -0.1365 -0.6177  0.2513
 7468SOL    HW123845   1.328   1.476  11.130  0.8071 -0.9108 -2.2601
 7468SOL    HW223846   1.318   1.626  11.138 -0.9151 -1.1066  2.5535
 7469SOL     OW23847   3.672   1.994  10.499  0.2256  0.0643 -0.5052
 7469SOL    HW123848   3.692   2.038  10.581 -1.8167  1.9994 -0.9562
 7469SOL    HW223849   3.601   1.934  10.520 -0.1715  0.4234 -0.8159
 7470SOL     OW23850   2.096   0.832  12.028  0.7293  0.4274 -0.4420
 7470SOL    HW123851   2.153   0.767  11.988  0.4032  0.2117 -0.5581
 7470SOL    HW223852   2.098   0.906  11.966  1.3596  0.6674 -0.1493
 7471SOL     OW23853   3.528   1.089   1.177 -0.1368 -0.2521 -0.2674
 7471SOL    HW123854   3.539   1.020   1.242  0.0508  0.5579  0.5774
 7471SOL    HW223855   3.528   1.170   1.227 -1.6410  0.3123 -1.1084
 7472SOL     OW23856   0.448   1.367   0.021 -0.2648  0.3056  0.0897
 7472SOL    HW123857   0.492   1.285   0.045  0.1427  0.3537 -0.4735
 7472SOL    HW223858   0.384   1.341  -0.045 -0.2978  0.4047  0.0827
 7473SOL     OW23859   4.460   1.145  10.208  0.1575  0.2763  0.3066
 7473SOL    HW123860   4.470   1.062  10.255  0.0459  0.2518  0.2886
 7473SOL    HW223861   4.542   1.156  10.160 -0.5084 -0.7452 -1.1518
 7474SOL     OW23862   5.304   1.134  11.285 -1.0872  0.1109  0.2499
 7474SOL    HW123863   5.262   1.210  11.243 -0.0782  0.1863 -0.6586
 7474SOL    HW223864   5.395   1.161  11.298 -0.6707 -1.0105 -0.2495
 7475SOL     OW23865   3.133   7.857  10.058 -0.1428  0.0463  1.0704
 7475SOL    HW123866   3.151   7.881  10.149 -1.0706 -1.5009  1.6984
 7475SOL    HW223867   3.164   7.932  10.007  2.7576 -0.0846  2.4304
 7476SOL     OW23868   2.002   0.784   0.138 -0.4410  0.3501  0.3438
 7476SOL    HW123869   2.067   0.825   0.082  0.2801 -1.0441  0.1428
 7476SOL    HW223870   1.929   0.763   0.080 -0.8648  1.4082  0.4683
 7477SOL     OW23871   4.071   2.147  11.356  0.8089  0.4205  0.7859
 7477SOL    HW123872   3.980   2.155  11.386  1.9288  1.9307  4.3306
 7477SOL    HW223873   4.091   2.054  11.365  0.0109  0.2850  1.3063
 7478SOL     OW23874   3.193   1.512  10.885  0.0705  0.1666 -0.0309
 7478SOL    HW123875   3.120   1.572  10.873 -0.6303 -0.6219  0.1327
 7478SOL    HW223876   3.153   1.425  10.882  1.1812 -0.3509 -1.2813
 7479SOL     OW23877   1.552   1.062   1.336  0.2490  0.1375  0.1342
 7479SOL    HW123878   1.518   1.135   1.388  0.9835 -0.5299  1.6287
 7479SOL    HW223879   1.628   1.098   1.291  0.1834  0.4867  0.2999
 7480SOL     OW23880   4.666   2.086   0.256  0.3558  0.8419  0.1906
 7480SOL    HW123881   4.735   2.029   0.291 -0.6427 -0.2029  0.5446
 7480SOL    HW223882   4.687   2.096   0.163  0.7625  0.2043  0.2094
 7481SOL     OW23883   0.139   0.065  11.835 -0.5494  0.2661 -0.1277
 7481SOL    HW123884   0.105  -0.009  11.785 -0.8194  0.6433 -0.5069
 7481SOL    HW223885   0.230   0.073  11.807 -0.2321 -0.5198  0.6247
 7482SOL     OW23886   5.137   0.736  12.423  0.6815  0.0324  0.3283
 7482SOL    HW123887   5.120   0.782  12.506  1.0684 -1.6185  1.3839
 7482SOL    HW223888   5.149   0.645  12.449  1.6413 -0.3986 -1.4849
 7483SOL     OW23889   4.620   0.459  11.653  0.2252  0.1202 -0.0488
 7483SOL    HW123890   4.703   0.413  11.661 -0.4238 -0.9847  0.6990
 7483SOL    HW223891   4.604   0.495  11.740  0.6071  1.6111 -0.5631
 7484SOL     OW23892   2.876   1.626   1.070  0.3262  0.1193  0.1356
 7484SOL    HW123893   2.952   1.657   1.120  2.2408 -2.2657 -1.0489
 7484SOL    HW223894   2.857   1.539   1.107  0.7663 -0.9938 -2.0565
 7485SOL     OW23895   2.784   6.572  12.496  0.2967 -0.0343 -0.2125
 7485SOL    HW123896   2.816   6.660  12.511 -2.1439  0.8116  0.4992
 7485SOL    HW223897   2.820   6.520  12.569 -0.1021  0.9066  0.6771
 7486SOL     OW23898   3.152   1.172   0.318 -0.3661  0.2112 -0.0182
 7486SOL    HW123899   3.143   1.245   0.257  1.8723 -0.5072 -1.3485
 7486SOL    HW223900   3.243   1.176   0.347 -0.6861 -1.0163  1.2511
 7487SOL     OW23901   3.760   8.000  11.793 -0.1445 -0.2897  0.3222
 7487SOL    HW123902   3.681   8.016  11.741  0.2287 -0.5919 -0.3607
 7487SOL    HW223903   3.793   8.087  11.814 -1.7062 -0.1232  2.2969
 7488SOL     OW23904   3.704   2.278  11.264  0.8444 -0.1566  0.0956
 7488SOL    HW123905   3.657   2.320  11.335 -1.9987 -1.7809 -0.6958
 7488SOL    HW223906   3.743   2.351  11.215 -0.6806  1.2927  0.9421
 7489SOL     OW23907   3.001   1.305  11.719  0.4807  0.0419 -0.1596
 7489SOL    HW123908   3.012   1.231  11.779 -0.9491 -0.4887 -0.5178
 7489SOL    HW223909   3.012   1.266  11.631  2.8557  0.8595 -0.3108
 7490SOL     OW23910   3.435   6.719  12.248  0.3699 -0.1519 -0.2628
 7490SOL    HW123911   3.468   6.790  12.303 -0.9426  1.0102 -0.9138
 7490SOL    HW223912   3.422   6.646  12.308  0.2446  0.6571  0.7177
 7491SOL     OW23913   1.885   7.762   0.257  0.1204  0.7308  0.1046
 7491SOL    HW123914   1.857   7.840   0.210 -0.9945  1.1417  1.4021
 7491SOL    HW223915   1.942   7.795   0.327  0.3879  0.2973  0.0943
 7492SOL     OW23916   1.839   7.144  10.700 -0.4696  0.0383 -0.4009
 7492SOL    HW123917   1.925   7.125  10.663 -1.1764 -2.2144 -1.0701
 7492SOL    HW223918   1.814   7.063  10.745 -2.4349  0.4536 -0.6641
 7493SOL     OW23919   2.522   7.454  10.647  0.3577 -0.5095  0.3751
 7493SOL    HW123920   2.500   7.367  10.615 -1.3955 -1.3229  3.3191
 7493SOL    HW223921   2.607   7.473  10.609  1.3878 -4.0522  0.4979
 7494SOL     OW23922   4.656   7.848  10.750  0.5960 -0.3301  0.7184
 7494SOL    HW123923   4.695   7.768  10.714 -0.6886 -0.3641 -0.6691
 7494SOL    HW223924   4.583   7.817  10.804 -0.8098 -0.0862 -0.9719
 7495SOL     OW23925   3.451   7.665   0.001  0.2628  0.2998 -0.3999
 7495SOL    HW123926   3.387   7.714   0.052 -1.1072 -2.4905  0.8060
 7495SOL    HW223927   3.429   7.684  -0.090 -0.0586  2.0113  0.0081
 7496SOL     OW23928   2.557   1.139  11.895  0.0660  0.1025  0.9180
 7496SOL    HW123929   2.620   1.140  11.968  1.5878 -0.1673 -0.3447
 7496SOL    HW223930   2.472   1.137  11.938  0.9040  0.2199  2.7019
 7497SOL     OW23931   2.260   3.576  11.445  0.8118 -0.3511 -0.5491
 7497SOL    HW123932   2.321   3.533  11.505  2.1507 -1.7438 -2.7998
 7497SOL    HW223933   2.315   3.623  11.383 -0.3984 -0.8938 -2.1019
 7498SOL     OW23934   2.612   7.936  12.258  0.2410 -0.1926  0.6006
 7498SOL    HW123935   2.660   7.917  12.177  0.7872 -1.7817  1.2435
 7498SOL    HW223936   2.542   7.996  12.232  1.3340  0.5575 -0.7502
 7499SOL     OW23937   1.040   0.902  12.405 -0.3330  0.3097  0.2720
 7499SOL    HW123938   0.958   0.950  12.410 -1.2207 -1.1602  0.4937
 7499SOL    HW223939   1.071   0.916  12.315 -0.6728  1.0818  0.2675
 7500SOL     OW23940   2.417   1.942  12.227 -0.4556 -0.1841  0.3293
 7500SOL    HW123941   2.426   2.030  12.265 -1.4909  0.6816 -1.3084
 7500SOL    HW223942   2.358   1.896  12.287  0.6048 -0.0131  1.5509
 7501SOL     OW23943   1.731   1.277  10.656 -0.1262 -0.2375  0.1880
 7501SOL    HW123944   1.784   1.326  10.719  0.8289 -0.9118 -0.0720
 7501SOL    HW223945   1.770   1.189  10.655 -2.0088 -1.1511  0.9059
 7502SOL     OW23946   3.943   2.290  11.021  0.4680 -0.2581 -0.1434
 7502SOL    HW123947   4.026   2.252  10.994  0.2168 -1.4708  0.7064
 7502SOL    HW223948   3.887   2.215  11.039 -0.0379  0.4947  1.6448
 7503SOL     OW23949   3.316   2.491   1.225  0.4960 -0.1494 -0.3589
 7503SOL    HW123950   3.244   2.483   1.288  0.5313  0.6484 -0.2052
 7503SOL    HW223951   3.370   2.562   1.260  0.6800  0.0981 -1.1316
 7504SOL     OW23952   3.353   6.966   0.621  0.5582 -0.0007 -0.1647
 7504SOL    HW123953   3.276   6.988   0.673  0.6286  0.5071 -0.2699
 7504SOL    HW223954   3.419   7.030   0.648  0.4160  0.6388 -1.2849
 7505SOL     OW23955   3.651   0.534   0.251 -0.2965  0.2379  0.2003
 7505SOL    HW123956   3.600   0.537   0.171  0.1254  0.1011 -0.0770
 7505SOL    HW223957   3.587   0.550   0.321 -0.8861 -0.9305 -0.0560
 7506SOL     OW23958   2.168   0.666  11.409 -0.0864 -0.5700 -0.1057
 7506SOL    HW123959   2.104   0.716  11.358 -0.3502  0.9908  1.6416
 7506SOL    HW223960   2.237   0.644  11.346 -1.0767  0.0100 -1.4426
 7507SOL     OW23961   2.959   6.660   0.353  0.2526  0.0057  0.1425
 7507SOL    HW123962   3.015   6.598   0.401 -0.2574  0.4904  1.4150
 7507SOL    HW223963   2.933   6.613   0.274 -0.9944 -1.8307  1.5715
 7508SOL     OW23964   2.495   0.408   0.449  0.5271 -0.0893  0.3037
 7508SOL    HW123965   2.460   0.336   0.396 -0.0970 -0.9881  1.8483
 7508SOL    HW223966   2.536   0.364   0.524  1.5848  1.1223  0.4660
 7509SOL     OW23967   3.842   1.863   0.315  0.0681  0.1848 -0.4713
 7509SOL    HW123968   3.809   1.778   0.342 -0.0402  0.7830  1.3778
 7509SOL    HW223969   3.822   1.867   0.221  0.4204 -1.9511 -0.6845
 7510SOL     OW23970   2.409   1.001   0.957  0.1664 -0.6642  0.0814
 7510SOL    HW123971   2.359   1.061   0.901  1.2452  0.8011  0.6173
 7510SOL    HW223972   2.360   0.919   0.954 -2.6210  0.8569  1.0785
 7511SOL     OW23973   3.537   2.027  11.208 -0.2256  0.2699  0.2576
 7511SOL    HW123974   3.546   2.006  11.115 -0.0045  4.0256 -0.7403
 7511SOL    HW223975   3.609   2.087  11.226 -0.1183 -0.5616  2.9796
 7512SOL     OW23976   3.969   0.478  11.089 -0.1411  0.9379 -0.3305
 7512SOL    HW123977   3.922   0.555  11.057  0.3482  1.0422 -0.8063
 7512SOL    HW223978   4.048   0.513  11.130  1.0925  0.6013 -2.3157
 7513SOL     OW23979   3.391   0.185   0.300  0.0256  0.3733 -0.1414
 7513SOL    HW123980   3.324   0.217   0.361 -1.5246 -2.1567 -0.4085
 7513SOL    HW223981   3.362   0.215   0.214  0.0230  0.4765 -0.1050
 7514SOL     OW23982   4.274   3.303   0.862  0.0201 -0.0956 -0.2444
 7514SOL    HW123983   4.267   3.322   0.769 -0.7763 -0.0232 -0.1754
 7514SOL    HW223984   4.197   3.250   0.882  0.1753 -0.1027  0.3765
 7515SOL     OW23985   0.776   1.400  12.123 -0.1475  0.1614  0.4270
 7515SOL    HW123986   0.758   1.369  12.211  0.5768 -2.9739 -0.3912
 7515SOL    HW223987   0.870   1.416  12.121 -0.1667  0.2619  0.2357
 7516SOL     OW23988   2.994   0.807  12.351  0.0297 -0.1007 -0.2365
 7516SOL    HW123989   3.072   0.811  12.407  0.5050 -0.7777 -0.8256
 7516SOL    HW223990   2.940   0.739  12.391 -0.2744  0.3804  0.1822
 7517SOL     OW23991   3.891   0.464  11.768 -0.1713  0.2390  0.2162
 7517SOL    HW123992   3.892   0.473  11.864  2.1903  0.6584  0.2128
 7517SOL    HW223993   3.869   0.372  11.753 -0.8809  0.2366  1.1285
 7518SOL     OW23994   1.786   7.942  12.220  0.1943 -0.1889 -0.0785
 7518SOL    HW123995   1.817   7.852  12.208  0.2855 -0.3190  1.0156
 7518SOL    HW223996   1.733   7.960  12.143  1.4138 -0.6470 -1.0524
 7519SOL     OW23997   2.550   3.662   0.586 -0.1269 -0.4533  0.1385
 7519SOL    HW123998   2.558   3.758   0.587  0.5837 -0.4837 -0.8664
 7519SOL    HW223999   2.498   3.641   0.664  1.2492  0.5961  1.3878
 7520SOL     OW24000   4.712   1.044  10.820  0.7767  0.3634 -0.1755
 7520SOL    HW124001   4.800   1.050  10.858  1.2760 -1.2805 -0.9696
 7520SOL    HW224002   4.664   0.988  10.880  0.1879  1.4145  0.3565
 7521SOL     OW24003   2.168   7.053  11.128 -0.2573  0.1297  0.1665
 7521SOL    HW124004   2.147   6.959  11.126  0.5753 -0.3674  4.4417
 7521SOL    HW224005   2.263   7.056  11.116  0.0982  0.0726  2.5971
 7522SOL     OW24006   5.112   0.969  11.381  0.0014  0.2964  0.0590
 7522SOL    HW124007   5.206   0.974  11.364 -0.3192  2.1472 -1.5733
 7522SOL    HW224008   5.072   0.987  11.296 -1.9298 -3.5912 -0.0648
 7523SOL     OW24009   2.135   2.392   0.368  0.0884 -0.4121 -0.2693
 7523SOL    HW124010   2.135   2.308   0.321  2.8985 -1.0450  0.6659
 7523SOL    HW224011   2.123   2.368   0.460  1.9192  0.0649  0.1261
 7524SOL     OW24012   2.325   0.841   0.273 -0.3286 -0.2998 -0.3683
 7524SOL    HW124013   2.236   0.860   0.246  0.1994 -0.5318 -2.4238
 7524SOL    HW224014   2.377   0.912   0.234  0.5325 -0.8336 -0.2092
 7525SOL     OW24015   2.725   1.733  10.101  0.0367  0.2245  0.4120
 7525SOL    HW124016   2.732   1.804  10.165  0.5265  0.0605  0.5449
 7525SOL    HW224017   2.751   1.773  10.018  0.6019  0.1309  0.5398
 7526SOL     OW24018   4.195   1.063   9.987 -0.0141 -0.4649 -0.8036
 7526SOL    HW124019   4.220   0.977  10.021 -0.6979 -0.2437  0.2990
 7526SOL    HW224020   4.270   1.089   9.933  0.8822 -1.0854  0.0799
 7527SOL     OW24021   5.337   1.292  12.248  0.9366  0.6181  0.5918
 7527SOL    HW124022   5.431   1.273  12.252  0.8516 -0.2570 -0.8036
 7527SOL    HW224023   5.298   1.236  12.315  1.2744 -0.0813  0.2137
 7528SOL     OW24024   2.581   7.559  12.236 -0.2542  0.1487  0.3072
 7528SOL    HW124025   2.672   7.589  12.248 -1.2423  3.0041  1.5174
 7528SOL    HW224026   2.573   7.545  12.141  1.1360  1.0588  0.0215
 7529SOL     OW24027   2.983   0.510  12.245 -0.2835 -0.0360 -0.0846
 7529SOL    HW124028   2.962   0.467  12.328 -0.9210  3.0331  1.4820
 7529SOL    HW224029   3.071   0.545  12.259  0.7795 -1.8474 -1.8243
 7530SOL     OW24030   1.395   1.313   9.732  0.0588  0.8977  0.2338
 7530SOL    HW124031   1.482   1.309   9.772  0.5590 -0.0829 -0.8850
 7530SOL    HW224032   1.337   1.278   9.799  0.4540  1.9411  1.1456
 7531SOL     OW24033   1.440   1.775  10.974  0.2670 -0.1054 -0.2032
 7531SOL    HW124034   1.496   1.846  10.946 -0.5010  0.7573  0.3960
 7531SOL    HW224035   1.458   1.704  10.912  1.3272  0.4587 -0.5649
 7532SOL     OW24036   1.315   0.473  11.583  0.2533  0.1452  0.6326
 7532SOL    HW124037   1.335   0.392  11.630 -0.7628  0.1206  1.0525
 7532SOL    HW224038   1.400   0.516  11.573  1.1947 -1.9597 -1.5472
 7533SOL     OW24039   1.784   1.937   9.942 -0.5705  0.0734 -0.3835
 7533SOL    HW124040   1.773   2.028   9.914 -0.2877 -0.1929 -1.4139
 7533SOL    HW224041   1.730   1.887   9.881  0.5486 -0.5830 -0.8762
 7534SOL     OW24042   2.116   2.158   0.247  0.5959  0.4333  0.5309
 7534SOL    HW124043   2.078   2.083   0.292  0.4042  0.6236  0.6910
 7534SOL    HW224044   2.088   2.149   0.156 -0.8072  1.1844  0.8689
 7535SOL     OW24045   2.237   0.678  12.329  0.3942 -0.0783  0.1082
 7535SOL    HW124046   2.155   0.637  12.356  0.7467 -1.4180 -0.7874
 7535SOL    HW224047   2.215   0.771  12.318 -1.5111 -0.6963 -1.9541
 7536SOL     OW24048   3.480   7.361  12.371 -0.1450  0.2976  0.3434
 7536SOL    HW124049   3.512   7.447  12.345  0.3127 -0.1601 -0.6511
 7536SOL    HW224050   3.415   7.379  12.439 -0.2048  1.4393 -0.0008
 7537SOL     OW24051   1.022   7.738   1.795  0.4361 -0.2973 -0.1996
 7537SOL    HW124052   1.000   7.692   1.876 -1.7245  2.0848  0.7014
 7537SOL    HW224053   0.939   7.744   1.747  1.7252 -2.0918 -2.9793
 7538SOL     OW24054   3.727   0.679  12.469  0.2992  0.6265 -0.3414
 7538SOL    HW124055   3.667   0.637  12.530 -0.5026  2.8099  0.4577
 7538SOL    HW224056   3.699   0.647  12.383  0.9493 -1.8851  0.2766
 7539SOL     OW24057   4.085   2.552   9.760  0.1478 -0.1141  0.3219
 7539SOL    HW124058   4.134   2.471   9.745 -0.0587 -0.0830 -0.5892
 7539SOL    HW224059   4.019   2.528   9.825 -0.8185 -1.0741 -0.9691
 7540SOL     OW24060   5.257   2.276  10.611  0.5711  0.4226  0.2553
 7540SOL    HW124061   5.256   2.186  10.644  1.2123  0.0350 -0.7108
 7540SOL    HW224062   5.274   2.266  10.517 -0.8746  1.4851 -0.1487
 7541SOL     OW24063   1.928   0.964   1.208  0.0014  0.1766  0.6856
 7541SOL    HW124064   1.881   1.045   1.228 -0.7636  0.6606 -2.4122
 7541SOL    HW224065   1.960   0.976   1.118  1.7148 -2.1549  0.8702
 7542SOL     OW24066   2.389   0.761  11.198 -0.0540  0.0642 -0.2906
 7542SOL    HW124067   2.416   0.684  11.249  1.5036  1.4310  1.0599
 7542SOL    HW224068   2.416   0.742  11.109  1.5470 -0.4054  0.2694
 7543SOL     OW24069   3.186   7.618  11.962  0.5147  0.3367  0.2708
 7543SOL    HW124070   3.101   7.597  12.001  1.1632 -2.1874  0.4301
 7543SOL    HW224071   3.178   7.589  11.871  1.1935  0.1124  0.2818
 7544SOL     OW24072   2.520   0.272  12.401 -0.1351 -0.5665 -0.2078
 7544SOL    HW124073   2.432   0.283  12.438  0.7633 -0.2407  1.9391
 7544SOL    HW224074   2.571   0.232  12.471  1.9286  1.0425 -0.7107
 7545SOL     OW24075   3.849   7.639  12.238 -0.6814  0.1568 -0.0896
 7545SOL    HW124076   3.905   7.706  12.201 -0.5915 -0.0099 -0.2578
 7545SOL    HW224077   3.834   7.667  12.329  0.9283 -0.5697  0.4387
 7546SOL     OW24078   1.797   7.907  11.949  0.2972  0.4321  0.0273
 7546SOL    HW124079   1.827   7.816  11.944 -1.1411 -0.0449 -0.5604
 7546SOL    HW224080   1.856   7.954  11.889  3.5567  0.7243  3.1326
 7547SOL     OW24081   3.817   2.467   0.076  0.1554  0.0955 -0.1128
 7547SOL    HW124082   3.857   2.539   0.124  0.5228 -1.5687  2.2545
 7547SOL    HW224083   3.726   2.466   0.105 -0.6678  1.3762 -2.4198
 7548SOL     OW24084   3.006   1.442  10.205  0.2772  0.0464 -0.2085
 7548SOL    HW124085   2.989   1.513  10.267  0.8613  0.1773 -0.1903
 7548SOL    HW224086   3.010   1.486  10.120  1.5383  0.1861 -0.0987
 7549SOL     OW24087   2.742   7.095   0.244  0.1307 -0.3170 -0.3048
 7549SOL    HW124088   2.716   7.049   0.324  1.3933  0.1219  0.3850
 7549SOL    HW224089   2.661   7.104   0.194 -0.4801 -1.5538  0.4300
 7550SOL     OW24090   2.871   0.057   0.299 -0.0590 -0.4949  0.0292
 7550SOL    HW124091   2.899   0.119   0.232  0.3627  0.8532  1.4055
 7550SOL    HW224092   2.776   0.069   0.305  0.2351  1.3947  1.5650
 7551SOL     OW24093   2.915   1.565  10.543 -0.7181 -0.5557  0.8115
 7551SOL    HW124094   3.001   1.533  10.516  0.1771  1.6757  0.7532
 7551SOL    HW224095   2.852   1.517  10.489  0.6555 -0.5477 -0.8711
 7552SOL     OW24096   2.490   7.119   0.156  0.4638  0.0957  0.4157
 7552SOL    HW124097   2.486   7.214   0.143  1.7689  0.0864 -0.1802
 7552SOL    HW224098   2.419   7.100   0.217 -0.3886  1.3323 -0.1544
 7553SOL     OW24099   4.476   0.612  11.480 -0.2227  0.2585  0.4819
 7553SOL    HW124100   4.395   0.580  11.520 -0.5145 -0.1963 -0.4248
 7553SOL    HW224101   4.545   0.563  11.524 -0.6923 -2.2095 -1.2848
 7554SOL     OW24102   5.981   2.056  10.962  0.7258  0.0390 -0.0893
 7554SOL    HW124103   5.960   2.137  11.009 -0.1521 -0.0251 -0.3540
 7554SOL    HW224104   5.896   2.021  10.936  1.1544 -0.3883 -0.9569
 7555SOL     OW24105   1.846   0.717  12.391  0.0582 -0.3667  1.0254
 7555SOL    HW124106   1.825   0.810  12.394  2.4036  0.2141  1.4505
 7555SOL    HW224107   1.811   0.687  12.306 -0.6407  0.8996  0.8509
 7556SOL     OW24108   3.630   1.380  10.030 -0.1538  0.1227 -0.2663
 7556SOL    HW124109   3.621   1.385  10.125 -2.0650  0.5171 -0.4345
 7556SOL    HW224110   3.722   1.356  10.016  0.2213  0.2813  1.6564
 7557SOL     OW24111   1.697   1.883   0.558 -0.6605  0.0981 -0.2764
 7557SOL    HW124112   1.765   1.860   0.621 -0.2407  0.2460 -0.6779
 7557SOL    HW224113   1.676   1.800   0.514 -1.8814 -0.2870  0.9399
 7558SOL     OW24114   1.177   7.902   0.853 -0.3288  0.1581  0.2535
 7558SOL    HW124115   1.244   7.865   0.796 -0.0616  0.6615  0.2338
 7558SOL    HW224116   1.095   7.880   0.811 -0.1051  1.5019 -0.9517
 7559SOL     OW24117   1.352   2.496   0.430  0.0866 -0.1647 -0.3432
 7559SOL    HW124118   1.367   2.586   0.457 -2.3961  0.3822 -0.5550
 7559SOL    HW224119   1.318   2.453   0.508 -2.2411  0.1042 -1.1287
 7560SOL     OW24120   1.547   2.511  12.296  0.1960 -0.4194  0.1988
 7560SOL    HW124121   1.517   2.599  12.272  0.3103 -0.2904  0.5202
 7560SOL    HW224122   1.547   2.511  12.392 -1.2568 -1.2660  0.2423
 7561SOL     OW24123   3.623   3.216   1.279  0.0640 -0.0291  0.5547
 7561SOL    HW124124   3.547   3.217   1.222 -1.2065 -0.3497  2.1505
 7561SOL    HW224125   3.640   3.308   1.300 -0.4462 -0.0059  0.8807
 7562SOL     OW24126   7.534   4.152   0.722 -0.4333 -0.0651  0.1365
 7562SOL    HW124127   7.600   4.215   0.750 -1.2689  0.7286  0.3290
 7562SOL    HW224128   7.565   4.068   0.758  0.3502  0.3290  0.4082
 7563SOL     OW24129   4.367   2.004   1.454 -0.5350 -0.0999 -0.6936
 7563SOL    HW124130   4.327   2.003   1.367  0.3107 -3.3657 -1.1691
 7563SOL    HW224131   4.456   1.972   1.440  0.3850  1.4323  1.1317
 7564SOL     OW24132   2.991   3.002  11.106 -0.2065  0.1277 -0.2973
 7564SOL    HW124133   3.024   2.960  11.027 -2.8531 -0.9388 -0.9446
 7564SOL    HW224134   2.934   3.072  11.073 -0.2476  0.5637  0.6880
 7565SOL     OW24135   3.176   2.037   1.944 -0.0098 -0.2664  0.4481
 7565SOL    HW124136   3.091   2.073   1.920 -0.4859 -1.1673  0.7176
 7565SOL    HW224137   3.215   2.102   2.003  0.0162  0.7047 -0.6246
 7566SOL     OW24138   1.421   2.925   0.023  0.6295 -0.1856 -0.1530
 7566SOL    HW124139   1.476   2.998  -0.004 -0.0496  1.0749  1.6771
 7566SOL    HW224140   1.472   2.880   0.090 -0.5312  1.0835  1.6667
 7567SOL     OW24141   0.850   3.179   1.062  0.1830  0.6158 -0.1161
 7567SOL    HW124142   0.861   3.271   1.040  2.7393  0.4840  0.3783
 7567SOL    HW224143   0.817   3.179   1.152 -0.6062  1.0217 -0.3944
 7568SOL     OW24144   1.995   2.469  12.295  0.1284  0.1508 -0.2243
 7568SOL    HW124145   2.014   2.561  12.275  3.2591 -0.7084 -1.8542
 7568SOL    HW224146   2.071   2.439  12.346 -0.8247 -1.5529  0.2628
 7569SOL     OW24147   3.140   2.163   1.208 -0.1755 -0.1884 -0.8559
 7569SOL    HW124148   3.104   2.231   1.265 -1.5078 -0.9062 -0.7992
 7569SOL    HW224149   3.219   2.133   1.253 -1.1866 -0.7285  0.6249
 7570SOL     OW24150   1.301   2.459   0.146  0.1201  0.8555 -0.3393
 7570SOL    HW124151   1.240   2.385   0.150 -0.7258  1.5376 -0.4439
 7570SOL    HW224152   1.340   2.463   0.233 -0.7271  1.0291  0.0429
 7571SOL     OW24153   3.800   0.123  10.506 -0.1227  0.1477  0.5015
 7571SOL    HW124154   3.774   0.092  10.419  0.5702  1.2271 -0.1182
 7571SOL    HW224155   3.801   0.218  10.497 -0.5334  0.2953  1.8486
 7572SOL     OW24156   2.585   3.278  11.734 -0.3066  0.1829 -0.4354
 7572SOL    HW124157   2.542   3.260  11.817 -2.1507 -0.4405 -1.4418
 7572SOL    HW224158   2.537   3.223  11.671 -0.5920  2.3983 -2.2692
 7573SOL     OW24159   3.198   2.268   2.145  0.5811  0.2332  0.2825
 7573SOL    HW124160   3.291   2.281   2.167  0.2595  2.9322  0.4339
 7573SOL    HW224161   3.152   2.287   2.227 -0.1507  0.2332 -0.1241
 7574SOL     OW24162   1.483   4.321  12.214  0.3824 -0.1921  0.2947
 7574SOL    HW124163   1.411   4.314  12.277  1.7725  0.7288  2.0521
 7574SOL    HW224164   1.494   4.232  12.181 -0.5454 -0.6449  1.1515
 7575SOL     OW24165   7.458   1.772   1.538  0.8843  0.6852  1.0758
 7575SOL    HW124166   7.516   1.797   1.466 -0.6180  0.6058 -0.2305
 7575SOL    HW224167   7.410   1.696   1.504 -0.0923  0.8534  2.0317
 7576SOL     OW24168   3.106   1.288  12.050 -0.2848  0.1012 -0.1916
 7576SOL    HW124169   3.114   1.267  12.143 -0.3310 -0.3335 -0.2834
 7576SOL    HW224170   3.184   1.249  12.010 -1.5699 -2.0513 -0.7349
 7577SOL     OW24171   2.540   3.944  10.718  0.2052  0.1836 -0.1769
 7577SOL    HW124172   2.557   3.921  10.627  0.2389 -1.2036  0.1649
 7577SOL    HW224173   2.628   3.954  10.757  0.2020 -0.3038 -0.0396
 7578SOL     OW24174   1.440   2.280  12.413  0.0809 -0.0838  0.2409
 7578SOL    HW124175   1.410   2.238  12.493  0.3213 -1.6564 -0.4689
 7578SOL    HW224176   1.364   2.279  12.355  0.4800 -0.8289 -0.2804
 7579SOL     OW24177   0.940   2.460  11.411  0.1908 -0.6688 -0.1499
 7579SOL    HW124178   0.861   2.485  11.363 -1.1795 -1.7134  1.4587
 7579SOL    HW224179   0.962   2.538  11.462  0.5064 -0.2169 -0.9529
 7580SOL     OW24180   3.955   2.897   1.074 -0.3295 -0.1829 -0.6403
 7580SOL    HW124181   3.893   2.897   1.001  0.2833 -0.9153 -1.1825
 7580SOL    HW224182   4.014   2.824   1.055  1.4634  1.2194 -0.8033
 7581SOL     OW24183   3.398   1.195   0.441  0.5925  0.1988  0.3904
 7581SOL    HW124184   3.440   1.110   0.427 -0.2884 -0.2075  0.1688
 7581SOL    HW224185   3.433   1.226   0.524  1.8024  0.1580 -0.0778
 7582SOL     OW24186   2.855   1.994   1.301 -1.0651 -0.2822 -0.0941
 7582SOL    HW124187   2.807   2.075   1.283 -0.1196  0.0303 -1.2770
 7582SOL    HW224188   2.793   1.924   1.277 -1.0729  0.1145 -1.2903
 7583SOL     OW24189   2.336   1.967   0.066 -0.1750  0.1821  0.1374
 7583SOL    HW124190   2.422   2.009   0.056 -1.0806  2.0569 -0.1945
 7583SOL    HW224191   2.345   1.913   0.145  1.5213 -0.2525 -0.3176
 7584SOL     OW24192   1.760   0.726   0.519 -0.3528  0.3326 -0.3314
 7584SOL    HW124193   1.674   0.684   0.520 -0.0161 -0.4386 -1.3868
 7584SOL    HW224194   1.742   0.818   0.536 -1.2951  0.0356  0.3416
 7585SOL     OW24195   1.553   2.056  12.212 -0.6406  0.1753 -0.4571
 7585SOL    HW124196   1.641   2.023  12.233 -0.4815  1.3763  0.8956
 7585SOL    HW224197   1.494   1.996  12.256 -0.4094  0.6463  0.5205
 7586SOL     OW24198   2.878   3.957   2.254 -0.2447  0.3537 -0.4481
 7586SOL    HW124199   2.957   3.930   2.301 -0.1881 -0.8821 -1.2233
 7586SOL    HW224200   2.821   3.993   2.322  0.9787  1.3003  0.1215
 7587SOL     OW24201   0.707   2.762   0.725  0.9360 -0.0656  0.5552
 7587SOL    HW124202   0.778   2.825   0.715 -0.9256  2.0209 -0.4147
 7587SOL    HW224203   0.694   2.726   0.637 -0.2154  0.7915  0.3503
 7588SOL     OW24204   1.433   3.073   1.665 -0.2966 -0.2263  0.3379
 7588SOL    HW124205   1.434   3.162   1.699  0.8056  0.2654 -0.8566
 7588SOL    HW224206   1.344   3.042   1.677 -0.1286  0.1353  2.9775
 7589SOL     OW24207   3.532   2.065   0.413  0.0668  0.7723  0.3065
 7589SOL    HW124208   3.506   1.995   0.474  1.8394 -1.2113 -1.1015
 7589SOL    HW224209   3.606   2.106   0.456  1.0600 -0.3622 -0.2633
 7590SOL     OW24210   2.118   4.022   3.085 -0.3804  0.3934  0.4949
 7590SOL    HW124211   2.037   4.061   3.049 -0.3393 -1.8763 -2.4416
 7590SOL    HW224212   2.097   3.929   3.096  1.2903  0.1025  1.5652
 7591SOL     OW24213   1.804   1.189   1.267 -0.3826  0.4076  0.1750
 7591SOL    HW124214   1.882   1.228   1.227 -0.2031  0.7513  0.8459
 7591SOL    HW224215   1.765   1.261   1.318 -0.5183 -0.0603  0.7419
 7592SOL     OW24216   3.043   1.305   0.551  0.1733 -0.4184  0.2496
 7592SOL    HW124217   3.087   1.227   0.516 -1.2336 -0.0932 -2.4857
 7592SOL    HW224218   3.076   1.377   0.497 -0.1530  0.5770  1.3414
 7593SOL     OW24219   3.462   3.947   1.224 -0.4434 -0.1000  0.0937
 7593SOL    HW124220   3.539   3.890   1.230 -0.1268  0.3568  0.4536
 7593SOL    HW224221   3.390   3.888   1.204 -0.4411 -0.8928  2.1964
 7594SOL     OW24222   2.804   1.699   0.245  0.2156  0.0928  0.1814
 7594SOL    HW124223   2.795   1.679   0.338 -0.2063 -0.2786  0.0613
 7594SOL    HW224224   2.897   1.685   0.227 -0.0144 -1.6523  0.1412
 7595SOL     OW24225   3.864   0.774  11.160 -0.3365  0.0497 -0.4442
 7595SOL    HW124226   3.927   0.760  11.231 -1.1443 -0.7079  0.1380
 7595SOL    HW224227   3.850   0.868  11.158  0.4264  0.1769 -0.2534
 7596SOL     OW24228   3.877   4.460  12.209  0.1594  0.4143  0.0964
 7596SOL    HW124229   3.855   4.531  12.270 -2.4578  1.6822 -2.0802
 7596SOL    HW224230   3.844   4.381  12.252  0.4149  0.9311  1.2873
 7597SOL     OW24231   3.767   2.362   2.666 -0.1847  0.4794 -0.0623
 7597SOL    HW124232   3.853   2.399   2.686  0.1056 -0.2307  0.0482
 7597SOL    HW224233   3.746   2.395   2.578 -0.6409  2.1382  0.6337
 7598SOL     OW24234   3.361   2.554   2.212  0.0949 -0.1834  0.1083
 7598SOL    HW124235   3.267   2.553   2.197  0.3261 -1.4679 -1.5160
 7598SOL    HW224236   3.383   2.647   2.220 -1.1787  0.1713 -0.2462
 7599SOL     OW24237   1.171   1.818   2.903  0.1557 -0.3052  0.0075
 7599SOL    HW124238   1.191   1.759   2.831 -0.2718  1.0460 -1.2764
 7599SOL    HW224239   1.191   1.768   2.982  0.7122 -1.8016 -1.0422
 7600SOL     OW24240   0.712   2.014  12.297 -0.9490 -0.2052  0.2941
 7600SOL    HW124241   0.755   1.932  12.273 -1.1304 -0.3162  0.3463
 7600SOL    HW224242   0.708   2.064  12.215 -0.9845 -0.3149  0.2290
 7601SOL     OW24243   4.656   2.417   2.520  0.4909  0.2118 -0.2150
 7601SOL    HW124244   4.646   2.505   2.557 -0.5804  0.5890 -1.3452
 7601SOL    HW224245   4.735   2.382   2.563 -0.2675  0.8855  1.8422
 7602SOL     OW24246   0.618   4.281   2.731 -0.0741  0.1122  0.0890
 7602SOL    HW124247   0.588   4.323   2.812 -0.7530  1.1642 -0.6743
 7602SOL    HW224248   0.607   4.349   2.664  0.8881 -0.5955 -0.8147
 7603SOL     OW24249   3.879   4.488   0.845  0.5259  0.4826 -0.3271
 7603SOL    HW124250   3.911   4.454   0.762 -0.4607 -0.7373 -0.2222
 7603SOL    HW224251   3.819   4.422   0.877 -0.3578  1.6853  0.5795
 7604SOL     OW24252   4.215   1.488   1.181 -0.0513 -0.5133 -0.2276
 7604SOL    HW124253   4.164   1.507   1.260  3.0611 -3.1391  2.6870
 7604SOL    HW224254   4.229   1.574   1.141 -1.5133  1.0034  2.2249
 7605SOL     OW24255   4.294   2.405  12.134 -0.4147  0.1603  0.0396
 7605SOL    HW124256   4.316   2.399  12.227  1.5519  1.3928 -0.2887
 7605SOL    HW224257   4.345   2.335  12.092 -0.9410 -0.0970 -0.1883
 7606SOL     OW24258   4.354   3.352  12.234 -0.3528 -0.2164 -0.3228
 7606SOL    HW124259   4.300   3.284  12.273 -2.5549  1.5754 -0.0186
 7606SOL    HW224260   4.404   3.307  12.166  0.5101 -2.6344  1.7570
 7607SOL     OW24261   0.602   3.484   0.809 -0.2402 -0.5178  0.1041
 7607SOL    HW124262   0.560   3.498   0.724  1.1103 -1.7341 -0.8038
 7607SOL    HW224263   0.685   3.441   0.788  1.4369  1.6747  1.8336
 7608SOL     OW24264   3.564   4.133   2.153  0.2125  0.4396  0.4554
 7608SOL    HW124265   3.568   4.196   2.080  0.1438  0.8857  0.8338
 7608SOL    HW224266   3.590   4.050   2.113  1.4111  0.9113  0.1836
 7609SOL     OW24267   3.372   2.115  12.014 -0.0563  0.2539 -0.2494
 7609SOL    HW124268   3.318   2.037  12.024  1.2301 -0.7197 -0.5951
 7609SOL    HW224269   3.399   2.137  12.103  0.3356 -0.2630 -0.2361
 7610SOL     OW24270   2.564   2.565  11.886 -0.2365  0.2232  0.2747
 7610SOL    HW124271   2.604   2.627  11.825  0.5556 -2.7846 -2.6064
 7610SOL    HW224272   2.527   2.497  11.829 -2.7011 -1.0415  3.1336
 7611SOL     OW24273   2.623   3.651   2.203 -0.0341 -0.1224 -0.3913
 7611SOL    HW124274   2.673   3.606   2.272  0.7826  1.3389  0.0272
 7611SOL    HW224275   2.535   3.617   2.211  0.4958 -1.4408  0.0726
 7612SOL     OW24276   1.476   4.261   2.458 -0.5407 -0.1121 -0.3573
 7612SOL    HW124277   1.422   4.305   2.523  0.6414  2.4396 -0.9648
 7612SOL    HW224278   1.556   4.314   2.454 -0.4542 -0.3022 -3.6502
 7613SOL     OW24279   3.585   4.653  12.017  0.4530 -0.3407 -0.0229
 7613SOL    HW124280   3.563   4.740  11.985  0.6252 -0.9083 -1.7531
 7613SOL    HW224281   3.506   4.623  12.062 -0.3611 -0.1236 -1.2697
 7614SOL     OW24282   1.862   1.408   2.489 -0.0551  0.0737 -0.8074
 7614SOL    HW124283   1.875   1.319   2.455  1.2808  0.0871 -0.3796
 7614SOL    HW224284   1.928   1.418   2.557 -0.1718  1.4158 -0.8633
 7615SOL     OW24285   1.917   0.146   0.750 -0.0729  0.0041  0.1532
 7615SOL    HW124286   1.901   0.237   0.774 -1.1886  0.5767 -2.3990
 7615SOL    HW224287   1.993   0.120   0.803  1.5546  3.0397 -0.4578
 7616SOL     OW24288   3.359   4.731   0.694 -0.1787 -0.2650 -0.1548
 7616SOL    HW124289   3.278   4.773   0.665  1.2884  0.8070 -3.1259
 7616SOL    HW224290   3.357   4.645   0.652  0.0692 -0.3816  0.0693
 7617SOL     OW24291   4.322   1.182   0.253  0.5681  0.0376  0.2080
 7617SOL    HW124292   4.321   1.094   0.291 -0.8241 -0.4294 -0.8048
 7617SOL    HW224293   4.379   1.174   0.177 -0.4946 -0.3180 -0.5645
 7618SOL     OW24294   2.153   3.697  12.471  0.2137 -0.0196 -0.2118
 7618SOL    HW124295   2.217   3.765  12.493 -0.8375  0.8509  0.2680
 7618SOL    HW224296   2.097   3.738  12.405 -0.1560 -0.5988 -0.2630
 7619SOL     OW24297   2.059   2.884  11.390  0.1629 -0.4161 -0.0344
 7619SOL    HW124298   2.106   2.802  11.377 -0.2797 -0.5736 -0.6580
 7619SOL    HW224299   2.104   2.948  11.335 -0.2467 -0.5329 -0.5156
 7620SOL     OW24300   1.960   1.739  12.282 -0.2973 -0.0736 -0.0624
 7620SOL    HW124301   1.998   1.674  12.223  1.3502  0.2836  0.5462
 7620SOL    HW224302   1.921   1.687  12.353  1.3358 -0.4366  0.6126
 7621SOL     OW24303   3.179   1.948   0.609 -0.2236  0.0946 -0.0019
 7621SOL    HW124304   3.200   2.041   0.597 -1.6707  0.3724 -0.6313
 7621SOL    HW224305   3.094   1.948   0.652  0.3995 -0.9657  1.2842
 7622SOL     OW24306   1.591   1.967   0.310  0.1451 -0.1767 -0.1804
 7622SOL    HW124307   1.496   1.978   0.297 -0.1147 -1.3036  0.5840
 7622SOL    HW224308   1.601   1.961   0.405  1.4288  3.3561  0.0556
 7623SOL     OW24309   1.614   1.555   1.900  0.2066  0.7937  0.3160
 7623SOL    HW124310   1.680   1.497   1.862 -0.8297 -1.3421  1.5923
 7623SOL    HW224311   1.664   1.626   1.940  1.7712 -0.7585  1.2451
 7624SOL     OW24312   0.432   4.419   0.573  0.1176  0.4433 -0.5887
 7624SOL    HW124313   0.475   4.375   0.647 -0.7705 -0.6464 -0.6982
 7624SOL    HW224314   0.493   4.487   0.548 -0.2820  2.0276  2.2646
 7625SOL     OW24315   3.390   3.378   2.640 -0.0971  0.0601 -0.3414
 7625SOL    HW124316   3.442   3.458   2.651 -0.7190  0.5173 -0.7138
 7625SOL    HW224317   3.441   3.311   2.686  1.7106  0.1097 -2.1028
 7626SOL     OW24318   1.447   4.591   1.366 -0.3166 -0.1546 -0.3095
 7626SOL    HW124319   1.369   4.634   1.401  0.3558 -0.8096  2.2078
 7626SOL    HW224320   1.414   4.511   1.326 -0.9137 -1.0043  1.7407
 7627SOL     OW24321   2.388   2.898   1.916  0.1205 -0.1327  0.4958
 7627SOL    HW124322   2.411   2.973   1.971 -0.9264  1.2782 -0.9055
 7627SOL    HW224323   2.297   2.913   1.892  0.5554 -0.6325 -1.6525
 7628SOL     OW24324   1.556   1.600   0.681  0.2070 -0.0944 -0.3836
 7628SOL    HW124325   1.588   1.650   0.756  0.5210 -2.3231  1.0542
 7628SOL    HW224326   1.470   1.568   0.708  0.6573 -1.5874 -0.6188
 7629SOL     OW24327   2.960   1.649  10.813  0.5882 -0.0388  0.1053
 7629SOL    HW124328   2.956   1.622  10.721  0.2994 -1.1760  0.4288
 7629SOL    HW224329   2.880   1.613  10.852  1.6047 -1.2554  1.1955
 7630SOL     OW24330   3.433   1.889   0.228  0.4597  0.2303 -0.0055
 7630SOL    HW124331   3.469   1.955   0.287  0.2604 -0.0228  0.4104
 7630SOL    HW224332   3.389   1.939   0.160  2.3576  0.5659 -1.0491
 7631SOL     OW24333   3.714   2.945   2.080 -0.4694 -0.2624 -0.2488
 7631SOL    HW124334   3.801   2.973   2.053 -1.0919  1.3005 -0.7579
 7631SOL    HW224335   3.658   2.963   2.003 -1.3878 -0.4244  0.3603
 7632SOL     OW24336   2.668   3.107   1.453  0.3240  0.0889 -0.0975
 7632SOL    HW124337   2.637   3.055   1.378  0.8582  0.1555 -0.3693
 7632SOL    HW224338   2.652   3.050   1.529 -0.7333  0.2387 -0.1866
 7633SOL     OW24339   3.178   4.280  12.302  0.9260 -0.8301 -1.1892
 7633SOL    HW124340   3.112   4.349  12.311  2.0020  0.1782 -0.6629
 7633SOL    HW224341   3.230   4.286  12.382  2.5691 -0.5676 -2.2219
 7634SOL     OW24342   1.194   2.438  12.400  0.1977  0.5127 -0.0219
 7634SOL    HW124343   1.247   2.441  12.481  0.3234  0.3509 -0.0978
 7634SOL    HW224344   1.134   2.512  12.409  0.8271  1.0617 -0.2002
 7635SOL     OW24345   3.268   4.114  11.790 -0.1248 -0.2472 -0.3780
 7635SOL    HW124346   3.236   4.144  11.875 -0.7925  0.5513 -0.8946
 7635SOL    HW224347   3.333   4.046  11.811 -0.2707 -0.0522  0.7587
 7636SOL     OW24348   3.681   1.479  12.247 -0.5744  0.2046  0.2842
 7636SOL    HW124349   3.686   1.571  12.271  1.9351  0.3451 -0.4937
 7636SOL    HW224350   3.726   1.433  12.317  0.4629 -0.1206 -0.5640
 7637SOL     OW24351   2.334   0.674   1.084  0.3320  0.1588 -0.2984
 7637SOL    HW124352   2.267   0.706   1.145 -0.0857 -2.3072  0.6379
 7637SOL    HW224353   2.291   0.672   0.999 -0.0093  0.7947 -0.1493
 7638SOL     OW24354   2.275   0.749   2.846 -0.2976 -0.4381 -0.3058
 7638SOL    HW124355   2.205   0.783   2.901  0.6274 -0.0880  0.6900
 7638SOL    HW224356   2.254   0.779   2.758 -1.6653 -0.7807 -0.1123
 7639SOL     OW24357   1.954   2.292   1.841  0.2205  0.3695 -0.3643
 7639SOL    HW124358   2.038   2.283   1.887  1.3172  1.2075 -2.1109
 7639SOL    HW224359   1.975   2.278   1.749 -1.8906 -1.0445 -0.6891
 7640SOL     OW24360   1.737   1.673  11.159 -0.3017  0.0925  0.1878
 7640SOL    HW124361   1.687   1.658  11.079 -0.4954  1.3440  0.0684
 7640SOL    HW224362   1.689   1.624  11.226 -0.4123 -0.5602 -0.3538
 7641SOL     OW24363   3.954   2.928   1.343  0.2546  0.7941  0.5378
 7641SOL    HW124364   3.885   2.869   1.374  1.3367  0.0455  1.6647
 7641SOL    HW224365   3.946   2.927   1.248 -2.2578  1.9817  0.6721
 7642SOL     OW24366   2.697   2.829   0.648 -0.3508  0.1212  0.5537
 7642SOL    HW124367   2.697   2.918   0.612  2.1111 -0.1993 -0.3965
 7642SOL    HW224368   2.616   2.824   0.699 -2.8118  1.4894 -2.7948
 7643SOL     OW24369   1.734   3.645   1.895  0.1551 -0.5089  0.2316
 7643SOL    HW124370   1.804   3.704   1.869  0.4896 -0.6577  0.7925
 7643SOL    HW224371   1.732   3.579   1.825  1.3656 -1.1761  0.8018
 7644SOL     OW24372   1.403   1.619  11.497 -0.0471 -0.6193  0.2187
 7644SOL    HW124373   1.323   1.570  11.479 -1.0828  1.2914 -0.7520
 7644SOL    HW224374   1.399   1.639  11.591 -0.0065 -1.6853  0.4515
 7645SOL     OW24375   3.091   3.471   0.083  0.1775  0.6270 -0.5386
 7645SOL    HW124376   3.079   3.552   0.133  0.7294  0.8082 -0.6861
 7645SOL    HW224377   3.154   3.494   0.014  0.8450 -0.0863 -0.1888
 7646SOL     OW24378   3.565   0.886   0.164  0.2220  0.0017  0.5109
 7646SOL    HW124379   3.510   0.812   0.139  1.9049 -1.4548  0.9827
 7646SOL    HW224380   3.583   0.873   0.257  1.1579  0.5891  0.4253
 7647SOL     OW24381   1.974   2.399   0.136  0.3719 -0.2545  0.2822
 7647SOL    HW124382   2.023   2.352   0.069  0.7837  0.7887 -0.1701
 7647SOL    HW224383   2.039   2.417   0.204  0.7114  1.3384 -0.4239
 7648SOL     OW24384   3.480   2.852   2.144 -0.3299 -0.0697  0.5594
 7648SOL    HW124385   3.428   2.930   2.124 -0.4678 -0.3935 -0.4223
 7648SOL    HW224386   3.561   2.864   2.094 -0.1001 -0.2857  0.8725
 7649SOL     OW24387   2.535   2.754   1.744 -0.3519  0.5387  0.0524
 7649SOL    HW124388   2.506   2.662   1.751  0.6557  0.2964  1.5569
 7649SOL    HW224389   2.482   2.800   1.809 -0.6265  0.9762 -0.4759
 7650SOL     OW24390   3.005   4.352   1.232 -0.6918 -0.7808 -0.0985
 7650SOL    HW124391   3.098   4.358   1.209 -0.2157 -0.4136  1.7282
 7650SOL    HW224392   2.995   4.263   1.265 -1.5472 -1.5757 -2.3505
 7651SOL     OW24393   1.676   3.489   1.705 -0.2013  0.7681 -0.1121
 7651SOL    HW124394   1.641   3.565   1.658  2.3883  1.5381 -0.9642
 7651SOL    HW224395   1.724   3.440   1.638 -3.3528 -2.8477 -0.0778
 7652SOL     OW24396   2.709   1.902   0.804  0.1675  0.0412 -0.3131
 7652SOL    HW124397   2.642   1.943   0.748  0.4727  2.8630  1.2225
 7652SOL    HW224398   2.698   1.944   0.889  1.5746 -2.0807  1.0043
 7653SOL     OW24399   3.618   2.136   0.939  0.0001 -0.4309  0.2921
 7653SOL    HW124400   3.598   2.182   1.021  1.8382 -0.6542  0.9220
 7653SOL    HW224401   3.582   2.048   0.952 -0.6325 -0.1593  0.4202
 7654SOL     OW24402   2.471   3.114   2.136  0.1812  0.5160  0.1203
 7654SOL    HW124403   2.474   3.128   2.231 -0.3674  0.1831  0.1960
 7654SOL    HW224404   2.556   3.076   2.114 -0.8644 -2.6720  1.0445
 7655SOL     OW24405   3.466   1.157  12.395 -0.2102  0.0280  0.5619
 7655SOL    HW124406   3.560   1.165  12.414  0.0527  0.2335 -0.7400
 7655SOL    HW224407   3.458   1.184  12.303 -1.2549 -1.8342  0.0523
 7656SOL     OW24408   3.932   2.785   2.477 -0.1190 -0.0825  0.2555
 7656SOL    HW124409   3.967   2.874   2.481  0.0390 -0.0488 -1.3226
 7656SOL    HW224410   3.983   2.742   2.408 -2.7919 -0.1545 -1.8577
 7657SOL     OW24411   2.358   1.820   2.055  0.0904  0.1637  0.5245
 7657SOL    HW124412   2.323   1.909   2.059  3.7252  1.9202 -1.4467
 7657SOL    HW224413   2.392   1.804   2.144  1.0517  1.6009  0.4636
 7658SOL     OW24414   1.424   1.413  11.874 -0.2424  0.3701  0.4443
 7658SOL    HW124415   1.410   1.465  11.953 -1.4135 -1.3635  1.4461
 7658SOL    HW224416   1.385   1.465  11.804 -1.1156  0.9879  1.3584
 7659SOL     OW24417   3.126   2.206   0.516  0.2137  0.2498  0.4974
 7659SOL    HW124418   3.170   2.276   0.565 -1.7256  1.3520  0.7745
 7659SOL    HW224419   3.036   2.208   0.548 -0.2168 -1.5197 -0.4740
 7660SOL     OW24420   0.503   2.090   0.275 -0.3022  0.0512  0.3029
 7660SOL    HW124421   0.590   2.099   0.313  0.1783 -0.1286 -0.7265
 7660SOL    HW224422   0.517   2.092   0.180 -1.1632 -2.0987  0.0675
 7661SOL     OW24423   4.378   4.081   0.513 -0.6205  0.0416  0.5578
 7661SOL    HW124424   4.358   4.038   0.596 -1.6708  1.2857  0.9866
 7661SOL    HW224425   4.364   4.174   0.530  0.9372  0.5295 -0.5128
 7662SOL     OW24426   3.091   3.422   2.180  0.2456  0.1942  0.1444
 7662SOL    HW124427   3.141   3.394   2.103 -0.3832 -0.9265  0.1172
 7662SOL    HW224428   3.080   3.516   2.169  0.9570  0.1960 -0.6612
 7663SOL     OW24429   2.624   4.048   0.522  0.2354  0.5318  0.1686
 7663SOL    HW124430   2.600   4.008   0.605  0.2855 -0.7011 -0.3878
 7663SOL    HW224431   2.689   3.988   0.484 -0.8848  0.2510 -1.4371
 7664SOL     OW24432   2.630   3.709   1.057  0.1235 -0.0183  0.3059
 7664SOL    HW124433   2.602   3.786   1.107  0.3558  0.4788 -0.3055
 7664SOL    HW224434   2.570   3.707   0.982 -0.2930 -0.8162  0.6469
 7665SOL     OW24435   3.962   0.959   1.705 -0.6090  0.4175 -0.2818
 7665SOL    HW124436   3.899   0.917   1.764 -0.2522  0.5871  0.2216
 7665SOL    HW224437   3.936   1.051   1.704  0.2825  0.6946  0.7824
 7666SOL     OW24438   3.943   3.283   0.736  1.3287  0.0965  0.2566
 7666SOL    HW124439   3.972   3.230   0.811  2.2155 -1.0105 -0.8344
 7666SOL    HW224440   3.911   3.219   0.672  0.2546  1.0514 -0.1922
 7667SOL     OW24441   1.375   2.872   2.548  0.1938  0.0112  0.3190
 7667SOL    HW124442   1.423   2.800   2.589  1.6637  0.5436 -0.3865
 7667SOL    HW224443   1.412   2.951   2.589  0.8084  0.4847 -1.1038
 7668SOL     OW24444   2.807   1.649   2.455  0.6188  0.4338 -0.0019
 7668SOL    HW124445   2.741   1.681   2.516  0.6266 -1.3961  1.0291
 7668SOL    HW224446   2.757   1.615   2.381  0.5669  1.7890 -0.6080
 7669SOL     OW24447   2.763   3.651   0.032 -0.1084  0.2313 -0.2046
 7669SOL    HW124448   2.732   3.599  -0.042 -1.5993  0.4209  0.2560
 7669SOL    HW224449   2.828   3.596   0.075  0.0421 -0.2807 -1.0750
 7670SOL     OW24450   3.688   3.327   2.337  0.5895 -0.0246 -0.8690
 7670SOL    HW124451   3.750   3.355   2.405  0.6624  1.5659 -1.5455
 7670SOL    HW224452   3.718   3.239   2.312  1.1374 -0.2429  0.4654
 7671SOL     OW24453   4.399   3.862   2.426  0.3330 -0.1556 -0.1848
 7671SOL    HW124454   4.434   3.841   2.512 -1.3006  2.4885  1.2517
 7671SOL    HW224455   4.350   3.943   2.439 -2.9512 -1.4854 -2.8736
 7672SOL     OW24456   1.260   1.573   0.630 -0.1280 -0.6187  0.1736
 7672SOL    HW124457   1.252   1.478   0.626  0.5197 -0.6575 -0.6615
 7672SOL    HW224458   1.287   1.598   0.541 -2.8925  0.6178 -0.4123
 7673SOL     OW24459   2.831   3.125   0.422  0.2331 -0.0775  0.5483
 7673SOL    HW124460   2.875   3.166   0.347  0.1726 -1.7376 -0.4357
 7673SOL    HW224461   2.902   3.098   0.480  0.5202 -1.8015 -0.5359
 7674SOL     OW24462   1.670   3.729   2.716 -0.1918 -0.3394 -0.1184
 7674SOL    HW124463   1.591   3.781   2.727 -0.6982 -1.2144  0.5175
 7674SOL    HW224464   1.742   3.788   2.740 -0.5908  0.6351 -1.2437
 7675SOL     OW24465   3.616   2.919   2.874  0.0321  0.0819 -0.2053
 7675SOL    HW124466   3.561   2.878   2.807 -2.2042  0.6876  1.1774
 7675SOL    HW224467   3.599   3.013   2.865  1.6264  0.3803 -0.3751
 7676SOL     OW24468   3.682   2.341   0.446 -0.1277  0.4730  0.0403
 7676SOL    HW124469   3.609   2.345   0.508 -0.1700 -1.5812  0.1928
 7676SOL    HW224470   3.757   2.311   0.498 -0.0306 -0.7346 -0.7629
 7677SOL     OW24471   4.121   1.169   0.857 -0.3432 -0.1884 -0.4364
 7677SOL    HW124472   4.094   1.077   0.856  0.1109 -0.3836  1.1107
 7677SOL    HW224473   4.079   1.205   0.936  1.0249  0.4004  0.0627
 7678SOL     OW24474   3.951   2.072   1.731 -0.1080 -0.0998  0.1887
 7678SOL    HW124475   4.009   2.148   1.736  0.9380 -0.6978 -1.6980
 7678SOL    HW224476   3.970   2.021   1.810  2.1881 -0.4078 -0.4813
 7679SOL     OW24477   2.787   2.493   1.675 -0.2243  0.6639 -0.0802
 7679SOL    HW124478   2.786   2.419   1.615 -2.4935 -0.8760  1.6489
 7679SOL    HW224479   2.733   2.559   1.632  0.5068  0.7038 -0.9529
 7680SOL     OW24480   4.074   3.118   0.909 -0.2501  0.1725  0.0918
 7680SOL    HW124481   4.085   3.031   0.870  0.8084  0.4473 -0.2617
 7680SOL    HW224482   4.092   3.105   1.002  0.8194  0.1712 -0.1060
 7681SOL     OW24483   7.732   4.049   2.115 -0.4728 -0.0963 -0.4815
 7681SOL    HW124484   7.778   3.965   2.109  0.5341  0.5367 -2.7641
 7681SOL    HW224485   7.639   4.026   2.119 -0.1576 -1.3191  1.0505
 7682SOL     OW24486   2.956   0.613  11.370  0.0392  0.0224 -0.0186
 7682SOL    HW124487   3.009   0.692  11.361  1.8045 -1.1637 -0.6541
 7682SOL    HW224488   3.001   0.562  11.437  0.5090 -1.5907 -1.4919
 7683SOL     OW24489   3.739   1.606  11.583  0.1256 -0.0193 -0.4286
 7683SOL    HW124490   3.808   1.592  11.648 -0.6984 -1.5642  0.1738
 7683SOL    HW224491   3.741   1.700  11.565  2.0308  0.0418 -0.0426
 7684SOL     OW24492   3.225   2.607   0.550 -0.4016 -0.2693  0.3193
 7684SOL    HW124493   3.131   2.609   0.535 -0.3593  0.8208  0.0623
 7684SOL    HW224494   3.237   2.548   0.624 -1.4033  0.3926  1.0401
 7685SOL     OW24495   1.972   1.843   0.109  0.2372  0.3079 -0.1184
 7685SOL    HW124496   1.884   1.833   0.072  0.5545 -1.3254 -0.5121
 7685SOL    HW224497   2.027   1.865   0.034  0.2537  0.7862  0.0346
 7686SOL     OW24498   0.941   2.093   0.567 -0.4717  0.1848 -0.1391
 7686SOL    HW124499   0.929   2.051   0.481  0.5393 -0.4658  0.0203
 7686SOL    HW224500   0.998   2.167   0.549 -1.3016  0.8188 -0.2237
 7687SOL     OW24501   1.827   1.301   1.736  0.2761  0.0781 -0.7707
 7687SOL    HW124502   1.912   1.323   1.773  1.3449  2.6273 -4.1777
 7687SOL    HW224503   1.782   1.253   1.805  2.6939  2.6089  2.9433
 7688SOL     OW24504   2.267   2.867   1.182 -0.3026  0.1481  0.1338
 7688SOL    HW124505   2.181   2.908   1.183  0.2225  1.3390  2.0032
 7688SOL    HW224506   2.265   2.809   1.106 -1.5263  2.7277 -2.0008
 7689SOL     OW24507   3.698   2.770  11.317  0.3956 -0.0824  0.0736
 7689SOL    HW124508   3.706   2.817  11.400  2.1808  1.0383 -0.6732
 7689SOL    HW224509   3.773   2.711  11.316 -0.1062 -0.7246 -0.3694
 7690SOL     OW24510   2.120   3.888   1.407  0.4389 -0.0597  0.4726
 7690SOL    HW124511   2.072   3.808   1.386  0.2392  0.2270 -0.2087
 7690SOL    HW224512   2.054   3.947   1.443  0.5340 -0.1175  0.7366
 7691SOL     OW24513   2.634   2.671   0.956 -0.6061  0.0939  0.3388
 7691SOL    HW124514   2.588   2.739   0.906 -1.6653  0.0175  1.1822
 7691SOL    HW224515   2.685   2.720   1.021  1.5448  0.2541 -1.3480
 7692SOL     OW24516   1.239   2.118  11.532 -0.4005  0.6998  0.3687
 7692SOL    HW124517   1.271   2.167  11.457  0.2320  0.2555  0.3419
 7692SOL    HW224518   1.312   2.061  11.557 -0.6423  0.7456  1.2347
 7693SOL     OW24519   1.640   3.618   1.022  0.2065  0.1082 -0.0827
 7693SOL    HW124520   1.562   3.567   1.001 -1.1013  2.1974 -0.6669
 7693SOL    HW224521   1.607   3.694   1.070  1.8588  1.1502 -0.5027
 7694SOL     OW24522   3.469   1.916   3.165  0.2842  0.2302  0.0477
 7694SOL    HW124523   3.471   2.004   3.126  0.6278 -0.0618 -0.6154
 7694SOL    HW224524   3.538   1.868   3.119 -0.2914 -0.5624 -0.0140
 7695SOL     OW24525   2.725   2.315   0.424  0.3119  0.6243  0.0388
 7695SOL    HW124526   2.772   2.386   0.380  0.5234 -0.4883 -1.6304
 7695SOL    HW224527   2.791   2.276   0.482  1.1469 -0.1110 -1.3340
 7696SOL     OW24528   2.462   2.505   1.100 -0.0309 -0.5892 -0.6072
 7696SOL    HW124529   2.376   2.546   1.094  1.4079  2.5783 -1.8909
 7696SOL    HW224530   2.521   2.567   1.056  3.1418 -1.8722  1.4968
 7697SOL     OW24531   1.637   3.456   2.210 -0.4320 -0.1968 -0.3508
 7697SOL    HW124532   1.633   3.399   2.134 -1.8546  0.4933 -0.8362
 7697SOL    HW224533   1.547   3.458   2.244  0.1237 -0.3329  1.2364
 7698SOL     OW24534   2.879   2.498   0.250 -0.6719 -0.3284  0.0952
 7698SOL    HW124535   2.895   2.491   0.156 -2.9394  0.6035 -0.4321
 7698SOL    HW224536   2.959   2.466   0.291  0.9283  0.5928 -2.1560
 7699SOL     OW24537   1.682   3.949   1.560 -0.5629 -0.0965 -0.0506
 7699SOL    HW124538   1.656   3.859   1.543 -1.2276  0.3762 -1.8523
 7699SOL    HW224539   1.600   3.993   1.584 -0.8597  0.6383 -2.2141
 7700SOL     OW24540   1.941   1.789  11.852  0.2279  1.0887  0.3794
 7700SOL    HW124541   1.918   1.697  11.841  0.9629  0.7361  1.6188
 7700SOL    HW224542   1.921   1.829  11.767 -0.7719 -0.0578  0.0437
 7701SOL     OW24543   2.675   1.774   1.206 -0.0180 -0.0522  0.2675
 7701SOL    HW124544   2.598   1.721   1.228 -0.7183  0.5435 -0.7103
 7701SOL    HW224545   2.731   1.715   1.156 -0.6585  0.0178 -0.5551
 7702SOL     OW24546   1.528   3.293   2.437 -0.1771 -0.4218  0.1700
 7702SOL    HW124547   1.525   3.358   2.507 -0.1020  1.4349 -1.5004
 7702SOL    HW224548   1.621   3.272   2.428 -0.2858 -1.6646  1.4329
 7703SOL     OW24549   2.932   0.139   1.094  0.4259 -0.4641 -0.0329
 7703SOL    HW124550   2.999   0.082   1.055  0.7703 -1.4613  1.8515
 7703SOL    HW224551   2.978   0.221   1.112  0.6073 -0.4532 -0.5474
 7704SOL     OW24552   3.813   1.230  12.088 -0.1209  0.1609  0.1643
 7704SOL    HW124553   3.751   1.286  12.042 -2.3356 -1.3948  1.0873
 7704SOL    HW224554   3.760   1.180  12.149  1.8050 -2.4689 -0.1249
 7705SOL     OW24555   2.181   2.585   2.089  0.1594  0.4280 -0.0564
 7705SOL    HW124556   2.162   2.668   2.133 -0.8521 -0.5680  1.5013
 7705SOL    HW224557   2.146   2.519   2.148  0.4397 -1.0918 -1.5284
 7706SOL     OW24558   1.334   3.723   1.435  0.9074  0.1054 -0.4071
 7706SOL    HW124559   1.355   3.663   1.363 -0.3866 -0.2882 -0.4822
 7706SOL    HW224560   1.261   3.680   1.481  2.3297 -0.1837  1.7774
 7707SOL     OW24561   2.613   2.218   2.704 -0.1573  1.0266  0.1606
 7707SOL    HW124562   2.644   2.305   2.682 -0.5032  1.1558  0.1766
 7707SOL    HW224563   2.666   2.159   2.651  0.5435  1.2002  0.6541
 7708SOL     OW24564   4.045   1.105  11.782  0.2594 -0.2250 -0.3649
 7708SOL    HW124565   4.117   1.119  11.843 -1.3166  0.0928  1.4874
 7708SOL    HW224566   4.049   1.181  11.723  0.7038  0.4239  0.4777
 7709SOL     OW24567   4.832   1.408   0.775  0.0138  0.0161  0.0387
 7709SOL    HW124568   4.774   1.348   0.822 -0.8635  1.2892  0.6253
 7709SOL    HW224569   4.808   1.495   0.806  0.8591  0.7429 -1.2247
 7710SOL     OW24570   3.865   3.454   2.506 -0.1545 -0.1577  0.3318
 7710SOL    HW124571   3.839   3.541   2.536  0.2200  0.5418 -1.2678
 7710SOL    HW224572   3.961   3.457   2.503 -0.0989  1.1791 -4.3809
 7711SOL     OW24573   1.057   4.414   1.150 -0.4313 -0.3170  0.4659
 7711SOL    HW124574   1.079   4.351   1.219  1.4538 -0.3796 -0.1512
 7711SOL    HW224575   1.022   4.361   1.079 -1.9033 -0.3036  1.1444
 7712SOL     OW24576   3.277   3.627  12.447 -0.2520  0.2639  0.0983
 7712SOL    HW124577   3.234   3.678  12.516  1.4098  1.9763 -0.0526
 7712SOL    HW224578   3.370   3.632  12.468  0.2388  0.3071 -1.9090
 7713SOL     OW24579   2.232   3.426   0.667 -0.2842 -0.1532  0.3535
 7713SOL    HW124580   2.279   3.427   0.583 -0.3361  1.6285  0.3115
 7713SOL    HW224581   2.194   3.513   0.674 -1.0893 -0.5922  1.8014
 7714SOL     OW24582   2.430   1.320   0.531  0.3535  0.3233  0.4669
 7714SOL    HW124583   2.363   1.363   0.478 -0.3066  0.5262  1.4262
 7714SOL    HW224584   2.447   1.238   0.486 -0.9541  0.0183  0.4739
 7715SOL     OW24585   4.200   2.910   2.084 -0.0131 -0.2761  0.9635
 7715SOL    HW124586   4.247   2.852   2.144 -0.1198 -1.7030 -0.2505
 7715SOL    HW224587   4.263   2.980   2.064  1.0912 -1.3461  0.5195
 7716SOL     OW24588   3.525   0.248  10.570 -0.0136  0.6792 -0.4516
 7716SOL    HW124589   3.508   0.163  10.528 -0.2568 -0.7427  2.2661
 7716SOL    HW224590   3.620   0.252  10.577 -0.0585 -0.5928  1.5606
 7717SOL     OW24591   2.510   1.702   2.261  0.2906 -0.3776  1.1022
 7717SOL    HW124592   2.549   1.789   2.257 -0.3891 -0.0919 -0.0474
 7717SOL    HW224593   2.575   1.644   2.221 -0.1463 -0.0156 -0.1847
 7718SOL     OW24594   4.097   4.513  11.994 -0.6206 -0.3547 -0.0646
 7718SOL    HW124595   4.061   4.487  12.079  5.4041 -1.2084  2.7463
 7718SOL    HW224596   4.109   4.430  11.947  0.9211 -0.5978  0.6809
 7719SOL     OW24597   6.660   3.174   1.941  0.0252 -0.2189  0.5570
 7719SOL    HW124598   6.726   3.145   1.878  0.0125 -0.4981  0.6722
 7719SOL    HW224599   6.601   3.229   1.890 -2.2146 -3.4323 -0.6188
 7720SOL     OW24600   3.796   2.571   0.334  0.1553  0.0031  0.4601
 7720SOL    HW124601   3.756   2.491   0.370  0.5384 -0.5265 -0.2569
 7720SOL    HW224602   3.798   2.632   0.407 -0.1674 -0.6380  1.0188
 7721SOL     OW24603   3.219   3.847   0.607 -0.4557 -0.1225 -0.1975
 7721SOL    HW124604   3.126   3.836   0.624 -0.8463  1.8928 -0.7478
 7721SOL    HW224605   3.258   3.762   0.626 -2.2107 -0.6284  1.3234
 7722SOL     OW24606   1.775   4.611   1.797 -0.2069  0.1887 -0.3044
 7722SOL    HW124607   1.788   4.705   1.785  0.9137 -0.1530 -2.1292
 7722SOL    HW224608   1.689   4.593   1.760  0.5227  0.1828 -2.1004
 7723SOL     OW24609   3.647   3.313   1.696 -0.0623 -0.4953  0.4140
 7723SOL    HW124610   3.674   3.233   1.740 -2.6958 -1.7691 -0.0952
 7723SOL    HW224611   3.552   3.307   1.690 -0.2698  2.1642 -0.6596
 7724SOL     OW24612   2.931   2.644   1.189  0.6599  0.3556  0.3450
 7724SOL    HW124613   2.975   2.605   1.114  0.3831  2.2119 -0.8459
 7724SOL    HW224614   2.999   2.654   1.256  1.6219  1.3762 -0.7530
 7725SOL     OW24615   2.449   4.028  12.341 -0.7436  0.2067 -0.1259
 7725SOL    HW124616   2.491   4.003  12.259  0.4701  1.2909  0.1336
 7725SOL    HW224617   2.455   3.951  12.397  0.2390  0.0954 -0.3675
 7726SOL     OW24618   2.388   0.642   1.392  0.0291 -0.1176 -0.1944
 7726SOL    HW124619   2.440   0.722   1.384  0.8568 -0.5335  0.7664
 7726SOL    HW224620   2.431   0.593   1.463 -1.6542 -0.4892  0.6191
 7727SOL     OW24621   2.982   4.673   0.445  0.0091  0.2032  0.1150
 7727SOL    HW124622   2.922   4.598   0.450 -1.0823  1.0534  0.1667
 7727SOL    HW224623   2.937   4.736   0.390 -0.1794  1.7798  1.9671
 7728SOL     OW24624   1.479   3.267  11.949 -0.1015 -0.1324  0.2384
 7728SOL    HW124625   1.387   3.258  11.973  0.2820 -0.2980  1.7602
 7728SOL    HW224626   1.477   3.298  11.859 -1.6374 -0.4517  0.1240
 7729SOL     OW24627   1.642   2.412  11.990 -0.1311 -0.2889 -0.2264
 7729SOL    HW124628   1.646   2.464  11.910 -0.8757  0.3894  0.1661
 7729SOL    HW224629   1.703   2.455  12.050 -0.3787 -0.1583 -0.0683
 7730SOL     OW24630   3.388   3.501   2.345  0.2367 -0.3660  0.0283
 7730SOL    HW124631   3.336   3.443   2.401 -1.0733  1.0406  0.3554
 7730SOL    HW224632   3.418   3.571   2.403  1.5876 -0.5564 -0.4033
 7731SOL     OW24633   1.045   3.326  12.148 -0.3274  0.5208  0.3922
 7731SOL    HW124634   1.026   3.418  12.129  2.9772  1.4330  0.9623
 7731SOL    HW224635   1.001   3.310  12.232 -0.0701  1.9034  0.8227
 7732SOL     OW24636   2.240   2.671   1.012 -0.1584  0.5591 -0.0701
 7732SOL    HW124637   2.147   2.649   1.011 -0.0500  0.0281  0.8927
 7732SOL    HW224638   2.271   2.649   0.923 -0.8648  0.3830 -0.2750
 7733SOL     OW24639   1.943   3.408   1.118 -0.0450  0.3736 -0.1408
 7733SOL    HW124640   1.981   3.339   1.172 -1.3336  0.4296  0.8948
 7733SOL    HW224641   1.866   3.368   1.078 -0.2617  0.9406 -0.3054
 7734SOL     OW24642   1.067   3.452   3.041  0.1912  0.0584 -0.1684
 7734SOL    HW124643   1.137   3.411   3.092 -0.3857  0.7393  1.2109
 7734SOL    HW224644   1.082   3.421   2.951  2.4066  0.3735  0.0272
 7735SOL     OW24645   1.346   3.510  12.500 -1.0635  0.3742  0.1269
 7735SOL    HW124646   1.311   3.430  12.461  1.7389  0.2541 -2.6146
 7735SOL    HW224647   1.306   3.580  12.450  1.0097  0.3024 -1.7992
 7736SOL     OW24648   3.272   3.159   1.011  0.1806  0.0155 -0.1236
 7736SOL    HW124649   3.342   3.214   1.046 -0.3177  0.3421  0.3765
 7736SOL    HW224650   3.226   3.126   1.088  0.4326 -1.0623 -0.4175
 7737SOL     OW24651   0.802   3.065   2.342 -0.1432 -0.8189 -0.4136
 7737SOL    HW124652   0.878   3.102   2.297 -0.0156  0.3132  0.6591
 7737SOL    HW224653   0.830   3.059   2.434 -1.5961  0.3035  0.1304
 7738SOL     OW24654   3.440   2.295   2.259  0.1143  0.4115 -0.1431
 7738SOL    HW124655   3.512   2.308   2.320 -1.2080 -0.7304  1.7723
 7738SOL    HW224656   3.421   2.382   2.225  1.3779  0.9636  0.4951
 7739SOL     OW24657   3.718   3.040   0.278 -0.1994  0.1576  0.1070
 7739SOL    HW124658   3.776   3.034   0.353  0.5734 -0.9060 -0.5375
 7739SOL    HW224659   3.671   2.956   0.277  0.4780 -0.2298 -1.1055
 7740SOL     OW24660   2.533   2.327   0.230 -0.3041 -0.0432  0.4658
 7740SOL    HW124661   2.466   2.282   0.281  0.7908 -1.6229  0.6112
 7740SOL    HW224662   2.611   2.325   0.286  1.0108 -2.0568 -1.2631
 7741SOL     OW24663   3.106   2.922   2.735 -0.2238 -0.1640  0.0154
 7741SOL    HW124664   3.200   2.935   2.718  0.2314 -1.7529  1.0352
 7741SOL    HW224665   3.065   3.003   2.705  1.3725  0.2495 -1.2100
 7742SOL     OW24666   1.995   4.824   2.925 -0.0510 -0.2228  0.3897
 7742SOL    HW124667   1.961   4.903   2.968  1.4846  1.1515 -0.7801
 7742SOL    HW224668   2.078   4.807   2.970  1.2407  0.8341 -1.4391
 7743SOL     OW24669   3.562   3.583   1.517  0.2494 -0.4058 -0.5131
 7743SOL    HW124670   3.498   3.593   1.587 -0.1534  0.3281 -0.9798
 7743SOL    HW224671   3.647   3.589   1.562  0.0093 -1.1477  0.0688
 7744SOL     OW24672   1.598   4.876  12.328 -0.1352 -1.0271 -0.0308
 7744SOL    HW124673   1.575   4.784  12.340 -0.9829 -0.7112  0.9187
 7744SOL    HW224674   1.519   4.924  12.354 -0.2742 -0.0691 -2.0533
 7745SOL     OW24675   1.325   2.421  11.828  0.4663  0.2065 -0.5972
 7745SOL    HW124676   1.329   2.459  11.916  0.0795  0.6406 -0.7561
 7745SOL    HW224677   1.398   2.462  11.781  1.9455 -1.5626  0.0785
 7746SOL     OW24678   3.993   2.298   0.373  0.1029  0.1196  0.0251
 7746SOL    HW124679   4.070   2.338   0.412  0.4972 -0.1101 -0.4957
 7746SOL    HW224680   3.936   2.371   0.349  0.7609  0.3778 -0.8041
 7747SOL     OW24681   3.685   3.000   1.404  0.9741 -0.2747 -0.5250
 7747SOL    HW124682   3.662   3.092   1.391  1.9689 -0.0153 -0.5554
 7747SOL    HW224683   3.642   2.954   1.332 -0.3964  0.0090  0.0823
 7748SOL     OW24684   2.362   3.593   2.167 -1.0884 -0.4685  0.1883
 7748SOL    HW124685   2.331   3.679   2.138 -1.1630  0.1296  1.9253
 7748SOL    HW224686   2.324   3.531   2.105 -1.3507  0.7167 -0.8668
 7749SOL     OW24687   2.051   1.499   0.615  0.1255  0.1406 -0.2762
 7749SOL    HW124688   2.025   1.522   0.705  1.2554  1.1744 -0.1806
 7749SOL    HW224689   2.108   1.572   0.588  2.5136 -1.7174 -0.6158
 7750SOL     OW24690   2.232   2.529   2.706 -0.1711 -0.3790  0.3541
 7750SOL    HW124691   2.214   2.525   2.612  0.0213 -0.4943  0.3195
 7750SOL    HW224692   2.243   2.622   2.725 -0.8813 -0.2968  0.3966
 7751SOL     OW24693   3.035   0.731   0.760 -0.1096 -0.4548  0.4406
 7751SOL    HW124694   3.032   0.697   0.671 -1.1559 -0.7696  0.5894
 7751SOL    HW224695   3.124   0.767   0.769 -0.4536  0.8726 -1.1908
 7752SOL     OW24696   2.201   0.968   0.008  0.4943  0.1701 -0.3142
 7752SOL    HW124697   2.169   1.054   0.035  1.3909  0.7553 -1.0610
 7752SOL    HW224698   2.275   0.987  -0.050  1.2652 -1.1184  0.2065
 7753SOL     OW24699   3.701   4.980   3.275 -0.1222 -0.0765 -0.2999
 7753SOL    HW124700   3.615   4.973   3.233  0.2423  1.0535 -1.2481
 7753SOL    HW224701   3.685   4.953   3.366 -1.6231  0.7609 -0.2889
 7754SOL     OW24702   2.862   1.664   1.722  0.2386  0.0669 -0.3440
 7754SOL    HW124703   2.863   1.731   1.653  0.1039  0.0761 -0.3370
 7754SOL    HW224704   2.866   1.714   1.804  0.2406  0.0621 -0.3411
 7755SOL     OW24705   2.350   2.202   0.400  0.0220  0.1093 -0.7689
 7755SOL    HW124706   2.270   2.182   0.351 -0.1899 -0.7492 -0.1050
 7755SOL    HW224707   2.320   2.249   0.477  0.0586 -0.9218 -0.1099
 7756SOL     OW24708   3.448   1.634   2.259 -0.2210  0.1557 -0.2638
 7756SOL    HW124709   3.530   1.682   2.269  0.2671 -0.3246 -1.7505
 7756SOL    HW224710   3.413   1.663   2.175 -1.2181 -0.1876  0.0142
 7757SOL     OW24711   3.555   0.632   1.584  0.0292  0.3228 -0.4609
 7757SOL    HW124712   3.484   0.657   1.643  0.8246  2.6424 -0.3851
 7757SOL    HW224713   3.520   0.651   1.496  0.0006 -0.0201 -0.5233
 7758SOL     OW24714   3.109   2.231   0.036 -0.1263 -0.6688 -0.2566
 7758SOL    HW124715   3.087   2.320   0.008 -0.1893 -1.4829 -3.0738
 7758SOL    HW224716   3.032   2.202   0.086  0.2950  1.1295  1.5322
 7759SOL     OW24717   2.386   3.692   0.804  0.8510 -0.0392  0.0929
 7759SOL    HW124718   2.397   3.632   0.877  1.2378 -0.2004 -0.0901
 7759SOL    HW224719   2.292   3.698   0.790  0.7718  0.0529  0.6498
 7760SOL     OW24720   3.121   2.372   0.293  0.5963 -0.4274 -0.0479
 7760SOL    HW124721   3.129   2.326   0.376  1.9584  0.1401  0.1529
 7760SOL    HW224722   3.152   2.308   0.228 -0.9045 -1.0381 -0.2087
 7761SOL     OW24723   1.767   2.300  12.309  0.6696  0.0176 -0.2606
 7761SOL    HW124724   1.853   2.342  12.302  1.0563 -0.9675 -1.6541
 7761SOL    HW224725   1.750   2.298  12.403  2.5016 -0.3972  0.1072
 7762SOL     OW24726   4.411   3.160   1.301  0.4196 -0.3242  0.1528
 7762SOL    HW124727   4.405   3.234   1.241 -0.5361 -1.9617 -1.9147
 7762SOL    HW224728   4.321   3.148   1.332  0.1191 -1.8291 -1.1733
 7763SOL     OW24729   1.937   3.202   0.256  0.0063 -0.1047 -0.1214
 7763SOL    HW124730   2.011   3.185   0.314 -0.8300 -1.9914  0.4691
 7763SOL    HW224731   1.977   3.221   0.171  1.2102  1.6730  0.7708
 7764SOL     OW24732   2.626   2.758  11.719  0.0740 -0.2839 -0.2539
 7764SOL    HW124733   2.630   2.720  11.631  2.4720  0.3605 -0.4796
 7764SOL    HW224734   2.685   2.832  11.716 -0.0382 -0.0492  1.8406
 7765SOL     OW24735   2.305   2.981   1.559  0.4523 -0.3260 -0.0753
 7765SOL    HW124736   2.314   3.054   1.498  0.0912 -1.6938 -1.8576
 7765SOL    HW224737   2.277   3.021   1.641 -0.4009  1.4783 -1.1848
 7766SOL     OW24738   1.855   1.322   2.195 -0.0821  0.1573 -0.2631
 7766SOL    HW124739   1.808   1.378   2.257  1.1381 -0.0965  0.9523
 7766SOL    HW224740   1.866   1.377   2.117  0.7404  1.5087  0.7478
 7767SOL     OW24741   1.153   2.179   0.305 -0.4370  0.2245 -0.0755
 7767SOL    HW124742   1.083   2.194   0.241  1.3400  0.5161 -2.0569
 7767SOL    HW224743   1.143   2.250   0.369 -1.5912  0.5798 -0.6282
 7768SOL     OW24744   0.944   4.226   2.471  0.0452  0.0056  0.0228
 7768SOL    HW124745   1.023   4.210   2.523 -1.4760 -1.7481  1.9579
 7768SOL    HW224746   0.917   4.314   2.495  1.2766  0.5574 -0.5204
 7769SOL     OW24747   2.364   4.024   2.666  0.3046 -0.4744  0.1657
 7769SOL    HW124748   2.358   4.011   2.572  0.5907 -0.5801  0.1595
 7769SOL    HW224749   2.435   3.966   2.694 -1.2357 -2.1188  0.7936
 7770SOL     OW24750   3.876   1.603   2.003 -0.2615  0.1183 -0.2460
 7770SOL    HW124751   3.913   1.646   2.081 -0.7140  1.4183 -0.7268
 7770SOL    HW224752   3.952   1.569   1.957  0.3735  2.2824 -0.9431
 7771SOL     OW24753   1.734   3.575   1.347  0.2482  0.0852  0.2135
 7771SOL    HW124754   1.703   3.564   1.258 -1.3259  0.3779  0.7000
 7771SOL    HW224755   1.780   3.493   1.367 -2.6449 -1.6228  0.3881
 7772SOL     OW24756   3.089   2.657   2.211 -0.4360 -0.5955  0.3596
 7772SOL    HW124757   3.084   2.724   2.280  0.1897 -0.6344  0.4526
 7772SOL    HW224758   3.078   2.706   2.129  0.5071 -0.2896  0.3989
 7773SOL     OW24759   1.866   1.469   3.967  0.7104  0.1734 -0.0207
 7773SOL    HW124760   1.930   1.525   3.923  1.2331  1.4556  2.2477
 7773SOL    HW224761   1.786   1.522   3.968  0.3555 -0.3419 -0.4559
 7774SOL     OW24762   1.720   2.867   0.970 -0.1896  0.0251  0.4310
 7774SOL    HW124763   1.800   2.875   0.918 -1.1343 -0.0957 -1.0968
 7774SOL    HW224764   1.650   2.859   0.906 -1.3759 -0.5843  1.7383
 7775SOL     OW24765   3.006   3.621   3.158 -0.0105  0.2204  0.6379
 7775SOL    HW124766   3.020   3.620   3.252 -0.0434  0.9767  0.6575
 7775SOL    HW224767   3.088   3.654   3.121 -0.3483  0.9051  0.4823
 7776SOL     OW24768   2.312   3.869   3.406 -0.1854 -0.4112 -0.2200
 7776SOL    HW124769   2.239   3.917   3.446  1.2696  1.3066  0.4977
 7776SOL    HW224770   2.358   3.829   3.480  0.6796  0.1116 -0.4649
 7777SOL     OW24771   2.399   3.635   3.571 -0.5789 -0.0931  0.7029
 7777SOL    HW124772   2.392   3.545   3.540  0.4740  0.7620 -2.4075
 7777SOL    HW224773   2.493   3.648   3.586 -0.7743  0.3806  1.5790
 7778SOL     OW24774   2.058   1.870   2.336 -0.1355 -0.3119  0.3081
 7778SOL    HW124775   2.098   1.875   2.423  0.5347  1.1665 -0.0454
 7778SOL    HW224776   2.025   1.780   2.329  0.2904 -0.6147  1.8623
 7779SOL     OW24777   2.872   2.276   0.661  0.0151  0.6793  0.3964
 7779SOL    HW124778   2.804   2.327   0.705  0.0365 -0.2291  1.5123
 7779SOL    HW224779   2.882   2.198   0.715  0.5008 -0.1652 -0.8840
 7780SOL     OW24780   1.871   4.483   3.004  0.0658 -0.1044 -0.4711
 7780SOL    HW124781   1.922   4.548   2.956  1.1200  0.1848  0.9800
 7780SOL    HW224782   1.930   4.452   3.072 -1.6106  0.0415  1.1147
 7781SOL     OW24783   3.298   3.226   2.880 -0.0054 -0.0857 -0.0799
 7781SOL    HW124784   3.332   3.262   2.962  2.4558 -1.2819 -0.4791
 7781SOL    HW224785   3.321   3.133   2.883 -2.1440 -0.7181 -1.0569
 7782SOL     OW24786   2.453   2.840   0.778 -0.2795  0.1038 -0.3246
 7782SOL    HW124787   2.382   2.901   0.798  0.4392  0.9108 -0.1290
 7782SOL    HW224788   2.411   2.755   0.768 -1.0161  0.0976  2.1502
 7783SOL     OW24789   1.335   3.220   2.784 -0.3520  0.1641 -0.2018
 7783SOL    HW124790   1.414   3.173   2.756 -0.3808 -0.1031  0.1526
 7783SOL    HW224791   1.288   3.156   2.838 -0.0875  0.8031  0.8026
 7784SOL     OW24792   2.694   4.414   3.654  0.0754  0.0545  0.7670
 7784SOL    HW124793   2.784   4.419   3.621  0.0079 -1.3019  0.3110
 7784SOL    HW224794   2.697   4.344   3.720 -0.6483 -0.0050  0.7441
 7785SOL     OW24795   1.151   2.870   0.754  0.0078  0.3450  0.2783
 7785SOL    HW124796   1.079   2.926   0.724 -0.4219  0.2316  1.0811
 7785SOL    HW224797   1.120   2.832   0.836  1.6012  1.5726  1.5248
 7786SOL     OW24798   3.360   0.960   2.789 -0.0130  0.0196 -0.0947
 7786SOL    HW124799   3.313   0.932   2.868  1.0389 -0.8329  0.2525
 7786SOL    HW224800   3.291   0.987   2.729 -1.0719 -2.3278 -0.0511
 7787SOL     OW24801   2.621   2.674   1.489 -0.5814  0.3929  0.0212
 7787SOL    HW124802   2.601   2.716   1.573 -0.4913  0.9028 -0.2093
 7787SOL    HW224803   2.548   2.698   1.432 -0.6060  0.1089 -0.0650
 7788SOL     OW24804   2.942   4.756   3.209  0.5090  0.2190 -0.4876
 7788SOL    HW124805   3.022   4.762   3.262  1.0095  0.4534 -1.2485
 7788SOL    HW224806   2.881   4.706   3.263  0.8683  0.7818  0.4710
 7789SOL     OW24807   0.763   4.121   2.193  0.7898  0.5799 -0.0784
 7789SOL    HW124808   0.686   4.112   2.137 -0.0567 -1.5191  1.3164
 7789SOL    HW224809   0.761   4.212   2.222 -0.8198  0.7133 -0.5410
 7790SOL     OW24810   2.859   3.072   2.515 -0.2973  0.2398 -0.0556
 7790SOL    HW124811   2.808   2.996   2.545 -2.2834  1.7470  0.5897
 7790SOL    HW224812   2.900   3.106   2.594  3.5891 -2.1055 -0.8167
 7791SOL     OW24813   3.660   3.617   2.305  0.5351  0.4099  0.0656
 7791SOL    HW124814   3.720   3.676   2.259  1.8364 -1.6401 -1.0157
 7791SOL    HW224815   3.713   3.576   2.373  0.8875 -2.3371 -1.6679
 7792SOL     OW24816   2.486   0.670   3.026 -0.6682  0.0328 -0.2787
 7792SOL    HW124817   2.418   0.712   2.974 -2.0018 -1.2272  0.3908
 7792SOL    HW224818   2.568   0.700   2.987 -1.6081  0.0280 -2.3666
 7793SOL     OW24819   0.884   2.468   1.242 -0.3085  0.3450  0.3114
 7793SOL    HW124820   0.856   2.420   1.320  1.0189 -3.0803 -1.1028
 7793SOL    HW224821   0.826   2.437   1.173 -0.9198  2.6733 -0.2834
 7794SOL     OW24822   2.951   2.120   1.779 -0.3691 -0.2054  0.3925
 7794SOL    HW124823   2.906   2.203   1.762 -0.7665 -0.4164  0.3964
 7794SOL    HW224824   2.977   2.088   1.693 -1.2719 -0.6562  0.2659
 7795SOL     OW24825   3.220   1.561   1.733 -0.0484  0.3484  0.0724
 7795SOL    HW124826   3.189   1.605   1.654  1.6065  0.9744 -0.2503
 7795SOL    HW224827   3.298   1.513   1.706 -0.7562 -1.3299  0.8385
 7796SOL     OW24828   2.742   5.180   2.352  0.1643  0.2454 -0.4547
 7796SOL    HW124829   2.757   5.093   2.390  0.6777  0.0493 -1.0988
 7796SOL    HW224830   2.689   5.226   2.418  0.4006 -0.3484  0.1606
 7797SOL     OW24831   2.167   2.243   2.018  0.0802 -0.4244 -0.5010
 7797SOL    HW124832   2.189   2.171   2.078 -1.1116 -0.9080 -0.6094
 7797SOL    HW224833   2.251   2.269   1.980  0.6623 -1.1034  0.2721
 7798SOL     OW24834   2.575   0.871   3.187 -0.0052  0.5045  0.1230
 7798SOL    HW124835   2.548   0.871   3.279 -1.6761  1.2750 -0.3259
 7798SOL    HW224836   2.516   0.808   3.144  0.7097  0.2034 -0.4500
 7799SOL     OW24837   3.299   2.446   3.339 -0.4584  0.6157  0.3818
 7799SOL    HW124838   3.304   2.535   3.375  0.1250  0.7084  0.0833
 7799SOL    HW224839   3.274   2.392   3.414 -0.3195  0.9605  0.6813
 7800SOL     OW24840   2.156   4.332   1.687 -0.3633  0.2422  0.1174
 7800SOL    HW124841   2.116   4.404   1.639  0.6670  0.4636 -0.4386
 7800SOL    HW224842   2.249   4.337   1.665 -0.3971 -1.8457 -0.7087
 7801SOL     OW24843   1.794   3.488   0.089 -0.0988  0.7069 -0.5509
 7801SOL    HW124844   1.886   3.479   0.065 -0.0921  0.6462 -0.5037
 7801SOL    HW224845   1.757   3.401   0.072  0.6241 -0.3881  2.7660
 7802SOL     OW24846   2.898   1.311   3.455 -0.1741 -0.5991 -0.3286
 7802SOL    HW124847   2.851   1.307   3.538 -0.8671 -1.8851 -0.7577
 7802SOL    HW224848   2.829   1.313   3.388  0.3631 -0.8456 -0.9067
 7803SOL     OW24849   4.154   3.686   2.411  0.2472 -0.1251  0.3747
 7803SOL    HW124850   4.107   3.714   2.489  0.0701 -0.3264  0.3434
 7803SOL    HW224851   4.223   3.751   2.399  0.5391 -0.3222  0.9388
 7804SOL     OW24852   1.741   2.824   4.730  0.6850  0.3629 -0.0450
 7804SOL    HW124853   1.834   2.834   4.709  0.5103  1.2022 -0.4737
 7804SOL    HW224854   1.731   2.865   4.816  0.1563  3.2974 -1.3694
 7805SOL     OW24855   3.553   1.024   4.452 -0.3110  0.5662  0.0504
 7805SOL    HW124856   3.530   1.024   4.545  0.4337 -1.0247  0.2710
 7805SOL    HW224857   3.470   1.035   4.406 -0.6739  1.4303  0.8916
 7806SOL     OW24858   1.930   1.057   2.183  0.1834  0.2551 -0.2948
 7806SOL    HW124859   1.889   1.139   2.156 -0.4314  0.6391  1.6499
 7806SOL    HW224860   1.894   1.040   2.270  1.1057 -1.5368 -0.2223
 7807SOL     OW24861   4.547   1.193   4.092 -0.1696 -0.0409 -0.1742
 7807SOL    HW124862   4.482   1.232   4.151 -0.1785 -0.1971 -0.0794
 7807SOL    HW224863   4.628   1.240   4.113 -0.0844 -0.3622  0.2434
 7808SOL     OW24864   2.533   2.773   3.815 -0.0799  0.2996 -0.0795
 7808SOL    HW124865   2.589   2.701   3.787 -0.2553 -0.4951  1.4560
 7808SOL    HW224866   2.583   2.817   3.884 -0.9266  0.1381  0.6684
 7809SOL     OW24867   1.307   2.607   2.548 -0.0943 -0.8462 -0.1817
 7809SOL    HW124868   1.288   2.695   2.517  0.1021 -0.5290  0.5942
 7809SOL    HW224869   1.344   2.619   2.635 -0.1517 -1.6991 -0.0304
 7810SOL     OW24870   2.509   2.914   3.154  0.4136 -0.4416 -0.0419
 7810SOL    HW124871   2.462   2.847   3.203 -0.5040  0.5831  0.5147
 7810SOL    HW224872   2.590   2.872   3.127  0.4701 -1.3430  1.4751
 7811SOL     OW24873   3.101   2.784   2.442 -0.1231 -0.6793  0.0456
 7811SOL    HW124874   3.151   2.742   2.512  0.0853 -0.4838  0.0167
 7811SOL    HW224875   3.013   2.793   2.478 -0.1163 -0.9464  0.1314
 7812SOL     OW24876   4.575   2.691   2.201  0.2599 -0.0536 -0.0218
 7812SOL    HW124877   4.650   2.635   2.219  1.0727  0.1778 -2.2997
 7812SOL    HW224878   4.602   2.778   2.232  1.0515  0.0654 -0.9783
 7813SOL     OW24879   3.714   1.364   2.297  0.2826 -0.1051 -0.4311
 7813SOL    HW124880   3.808   1.355   2.280  0.8191  1.2792  1.4924
 7813SOL    HW224881   3.681   1.414   2.223  1.2743  0.3181 -0.6012
 7814SOL     OW24882   3.068   1.732   2.108 -0.0158  0.5304  0.1967
 7814SOL    HW124883   3.138   1.686   2.062 -1.3170  0.0128 -1.3345
 7814SOL    HW224884   3.085   1.715   2.200  1.4572 -0.1839 -0.1769
 7815SOL     OW24885   3.737   4.712   1.962 -0.3299  0.3966  0.1580
 7815SOL    HW124886   3.673   4.699   1.892 -0.6702 -1.5329  0.7455
 7815SOL    HW224887   3.688   4.693   2.042  0.9340 -1.0568  0.6317
 7816SOL     OW24888   2.514   1.844   3.065  0.0659  0.4780 -0.2151
 7816SOL    HW124889   2.425   1.810   3.060 -0.1064  0.8358  0.3005
 7816SOL    HW224890   2.545   1.845   2.975 -0.7475  1.1305 -0.4982
 7817SOL     OW24891   4.858   0.576   2.565 -0.0291  0.1231  0.0264
 7817SOL    HW124892   4.803   0.621   2.629 -0.2533  0.2123 -0.2270
 7817SOL    HW224893   4.889   0.646   2.507 -1.1286 -0.1539 -0.9304
 7818SOL     OW24894   3.227   3.010   4.777 -0.4908  0.4453  0.1136
 7818SOL    HW124895   3.281   3.086   4.757 -1.0374  0.9128  0.4055
 7818SOL    HW224896   3.280   2.935   4.749 -0.0297  0.9384 -0.3539
 7819SOL     OW24897   2.807   2.439   1.960 -0.0453 -0.0195 -0.1955
 7819SOL    HW124898   2.802   2.468   1.869 -1.5292  0.2598 -0.0436
 7819SOL    HW224899   2.775   2.513   2.011  0.8740 -0.1340  0.5787
 7820SOL     OW24900   2.136   3.266   1.535  0.3497 -0.3174  0.0940
 7820SOL    HW124901   2.098   3.189   1.577  2.1849 -1.2931  0.0913
 7820SOL    HW224902   2.181   3.313   1.606  1.3142 -0.6001 -0.3088
 7821SOL     OW24903   2.531   2.759   3.405 -0.4801 -0.0687 -0.5922
 7821SOL    HW124904   2.565   2.674   3.433 -1.2392 -0.2127 -0.0692
 7821SOL    HW224905   2.567   2.822   3.467  0.4220  0.0597 -1.2308
 7822SOL     OW24906   2.438   6.447   3.197 -0.6606  0.1760  0.2357
 7822SOL    HW124907   2.392   6.417   3.119  0.5311  0.4592 -0.6070
 7822SOL    HW224908   2.407   6.390   3.267  1.8253 -3.4873 -1.3248
 7823SOL     OW24909   2.154   1.330   2.275  0.5683 -0.6680  0.4722
 7823SOL    HW124910   2.059   1.317   2.274  0.6237 -1.2891 -1.3480
 7823SOL    HW224911   2.179   1.324   2.183  2.2185  0.8116  0.7880
 7824SOL     OW24912   2.812   3.070   3.504  0.0511  0.1019  0.0348
 7824SOL    HW124913   2.795   3.160   3.530 -0.9770  0.3689 -1.4367
 7824SOL    HW224914   2.755   3.017   3.560 -1.2445  0.5728 -0.8080
 7825SOL     OW24915   1.636   5.015   2.834  0.0989  0.4198 -0.3699
 7825SOL    HW124916   1.696   5.088   2.849 -0.0599  0.2501  1.1838
 7825SOL    HW224917   1.645   4.997   2.740  1.5075  1.2265 -0.4266
 7826SOL     OW24918   1.826   0.418   2.810 -0.6290  0.7084 -0.0748
 7826SOL    HW124919   1.844   0.348   2.872 -2.6567  0.0851 -0.1192
 7826SOL    HW224920   1.894   0.409   2.743 -1.7700 -2.3808 -0.9917
 7827SOL     OW24921   2.747   3.577   2.449 -0.1500 -0.1865  0.2811
 7827SOL    HW124922   2.666   3.570   2.498 -0.3905 -0.3484 -0.1348
 7827SOL    HW224923   2.813   3.533   2.504  0.3395  2.5390  2.0744
 7828SOL     OW24924   4.017   1.502   1.341 -0.3145  0.5480  0.3820
 7828SOL    HW124925   4.039   1.536   1.428 -0.0159 -1.5877  1.2100
 7828SOL    HW224926   3.922   1.509   1.336 -0.5544 -1.0987  1.7399
 7829SOL     OW24927   2.691   2.955   1.656  0.3415  0.3526  0.1232
 7829SOL    HW124928   2.733   2.985   1.737 -0.0532  0.4401  0.2954
 7829SOL    HW224929   2.655   2.869   1.679  0.1607  0.4125  0.0616
 7830SOL     OW24930   4.303   2.351   5.399  0.4266 -0.2929  0.0677
 7830SOL    HW124931   4.269   2.404   5.326 -0.7682  0.4500  1.1182
 7830SOL    HW224932   4.271   2.262   5.380  0.1386 -0.1124 -0.3227
 7831SOL     OW24933   3.683   1.507   1.788 -0.1699  0.4588  0.5121
 7831SOL    HW124934   3.715   1.506   1.878  0.8843 -1.6997  0.1730
 7831SOL    HW224935   3.749   1.459   1.738 -1.2954  0.6058 -1.2005
 7832SOL     OW24936   3.146   4.722   3.425  0.6133  0.3914  0.0681
 7832SOL    HW124937   3.221   4.662   3.425  2.2767  2.2900  2.3625
 7832SOL    HW224938   3.088   4.687   3.493  0.2083 -0.1178 -0.5244
 7833SOL     OW24939   2.748   2.797   3.132  0.0857 -0.6098 -0.0066
 7833SOL    HW124940   2.775   2.708   3.156  0.4531 -0.5191 -0.0870
 7833SOL    HW224941   2.812   2.825   3.066 -0.1501 -0.3623 -0.1340
 7834SOL     OW24942   2.991   2.664   3.520  0.1563  0.2702  0.0149
 7834SOL    HW124943   2.959   2.718   3.448  2.0397  1.3100 -0.0810
 7834SOL    HW224944   2.963   2.711   3.599 -1.3146 -0.5235  0.0160
 7835SOL     OW24945   4.930   1.910   3.167  0.8921  0.3026 -0.4736
 7835SOL    HW124946   4.969   1.823   3.163 -0.6331 -0.3681 -1.2809
 7835SOL    HW224947   4.967   1.956   3.091  1.5714  0.3260 -0.1397
 7836SOL     OW24948   2.524   1.573   0.858  0.4639 -0.6772 -0.2862
 7836SOL    HW124949   2.570   1.511   0.803  0.9380 -0.3508 -0.2603
 7836SOL    HW224950   2.493   1.641   0.798 -0.8660 -1.3996 -0.4556
 7837SOL     OW24951   5.219   2.349   1.484  0.2911 -0.3015  0.1654
 7837SOL    HW124952   5.242   2.312   1.569  1.6506  0.7473  0.2973
 7837SOL    HW224953   5.256   2.288   1.420 -1.4328 -1.5231  0.2620
 7838SOL     OW24954   1.670   0.419   1.769 -0.0191 -0.3124  0.6282
 7838SOL    HW124955   1.700   0.500   1.728  0.1675 -0.2301  0.9296
 7838SOL    HW224956   1.675   0.435   1.863 -1.8165  0.0241  0.7155
 7839SOL     OW24957   2.246   1.652   1.863 -0.0336 -0.0005  0.2024
 7839SOL    HW124958   2.281   1.567   1.889  0.7965  0.1867 -0.2735
 7839SOL    HW224959   2.303   1.716   1.906  0.9714  0.3088 -1.4845
 7840SOL     OW24960   2.825   1.291   3.113 -0.2665  0.8477  0.3670
 7840SOL    HW124961   2.882   1.341   3.171  0.0295 -0.3883  1.1842
 7840SOL    HW224962   2.742   1.338   3.112  0.6807  2.5897 -0.7123
 7841SOL     OW24963   3.111   2.252   3.218  0.2095 -0.7367 -0.0436
 7841SOL    HW124964   3.103   2.347   3.224  1.8146 -0.5097 -0.8974
 7841SOL    HW224965   3.181   2.231   3.280  0.9537 -1.1439 -0.9947
 7842SOL     OW24966   2.137   2.297   0.626 -0.4987 -0.3745  0.2879
 7842SOL    HW124967   2.045   2.276   0.639 -0.3283 -1.2939  0.0255
 7842SOL    HW224968   2.184   2.233   0.679 -0.0411  1.5076  2.3200
 7843SOL     OW24969   2.681   5.820   2.560 -0.0317 -0.2897  0.0741
 7843SOL    HW124970   2.653   5.740   2.605 -1.3903 -0.6902 -1.3803
 7843SOL    HW224971   2.599   5.866   2.542  0.7623  1.7771  1.4235
 7844SOL     OW24972   1.595   3.159   1.477 -0.6870 -0.0008 -0.0697
 7844SOL    HW124973   1.537   3.107   1.534  0.0961  0.6250  1.3580
 7844SOL    HW224974   1.669   3.102   1.459 -1.8650 -0.9461 -2.2259
 7845SOL     OW24975   0.982   2.949   1.742  0.1776 -0.0583 -0.3026
 7845SOL    HW124976   1.043   2.929   1.671  0.3916  0.1736 -0.1859
 7845SOL    HW224977   1.028   3.014   1.796  0.1637 -0.4959  0.2508
 7846SOL     OW24978   2.022   3.747   3.070  0.1399 -0.5944 -0.2753
 7846SOL    HW124979   2.073   3.677   3.110 -0.7543 -0.7782  0.6034
 7846SOL    HW224980   1.949   3.703   3.027  1.4383 -0.4565 -2.7954
 7847SOL     OW24981   0.922   0.807   2.635  0.4237  0.0273  0.0459
 7847SOL    HW124982   0.978   0.841   2.566 -0.1367 -0.1826 -0.5173
 7847SOL    HW224983   0.977   0.809   2.714  1.1374  0.0467 -0.4472
 7848SOL     OW24984   3.463   1.828   2.855 -0.0450  0.5279 -0.5172
 7848SOL    HW124985   3.446   1.870   2.770 -0.6073 -0.6815 -1.0350
 7848SOL    HW224986   3.394   1.862   2.912  0.4077  1.4438 -0.4881
 7849SOL     OW24987   4.644   2.117   3.451  0.5821 -0.4987 -0.1329
 7849SOL    HW124988   4.575   2.055   3.474  2.2172 -1.4580  2.7289
 7849SOL    HW224989   4.722   2.062   3.441  1.6626  0.9027  0.4195
 7850SOL     OW24990   2.853   2.559   3.149  0.4773  0.8343 -0.1200
 7850SOL    HW124991   2.798   2.503   3.094  0.2227  2.0485 -1.1475
 7850SOL    HW224992   2.942   2.539   3.121  0.5724 -0.6939  1.1272
 7851SOL     OW24993   4.109   1.928   2.433  0.4265  0.1225  0.0355
 7851SOL    HW124994   4.158   1.869   2.490 -2.1017 -1.4001  0.7855
 7851SOL    HW224995   4.123   2.015   2.470 -2.6012 -0.9292  4.4233
 7852SOL     OW24996   0.524   4.559   1.683 -0.3114 -0.0443  0.0605
 7852SOL    HW124997   0.514   4.594   1.594  2.3588 -0.4160 -0.4751
 7852SOL    HW224998   0.601   4.604   1.718 -0.9920 -0.3198  1.9801
 7853SOL     OW24999   1.420   0.854   1.251  0.3323  0.8085  1.0523
 7853SOL    HW125000   1.486   0.913   1.288  0.2229  0.0804  2.4820
 7853SOL    HW225001   1.461   0.767   1.255  0.4421  0.7252 -0.9002
 7854SOL     OW25002   1.653   1.827   1.672 -0.1592  0.0347 -0.3389
 7854SOL    HW125003   1.705   1.890   1.622  0.1717  0.6412  0.7329
 7854SOL    HW225004   1.707   1.748   1.675  2.7454  1.7983  4.0865
 7855SOL     OW25005   1.948   2.626   0.978  0.2133 -0.0135 -0.2057
 7855SOL    HW125006   1.892   2.674   1.039  0.5068 -0.6859  0.6220
 7855SOL    HW225007   1.893   2.610   0.902  0.1102  1.6081 -0.5062
 7856SOL     OW25008   2.642   3.312   4.057  0.3350  0.0660 -0.6114
 7856SOL    HW125009   2.578   3.293   4.125 -0.4188 -1.4151 -1.6701
 7856SOL    HW225010   2.631   3.240   3.993  0.3491  1.8635 -2.7644
 7857SOL     OW25011   2.796   1.825   3.270 -0.1869 -0.6380  0.3105
 7857SOL    HW125012   2.855   1.899   3.257 -2.2607  1.1892  0.7449
 7857SOL    HW225013   2.747   1.818   3.188 -1.9061  0.3321  1.1892
 7858SOL     OW25014   3.920   1.956   1.987 -0.2993  0.2905  0.6533
 7858SOL    HW125015   3.986   1.978   2.052 -0.8148  0.6263  1.0617
 7858SOL    HW225016   3.851   2.021   1.998 -0.6210  0.0555  0.1036
 7859SOL     OW25017   3.577   2.077   3.377  0.2517  0.2219  0.7286
 7859SOL    HW125018   3.536   2.158   3.346 -1.7887 -1.0383 -0.0569
 7859SOL    HW225019   3.538   2.008   3.323  1.9636 -1.3028  1.3399
 7860SOL     OW25020   2.812   2.252   3.864  0.0756 -0.3661 -0.2694
 7860SOL    HW125021   2.800   2.169   3.817 -0.8349 -0.9828  0.9815
 7860SOL    HW225022   2.905   2.254   3.886 -0.1994 -2.0657  1.3767
 7861SOL     OW25023   0.831   4.842   2.809  0.3900  0.5817 -0.1491
 7861SOL    HW125024   0.787   4.925   2.792 -0.5689 -0.2593 -2.1505
 7861SOL    HW225025   0.841   4.802   2.723  2.2660 -0.6965  0.6016
 7862SOL     OW25026   3.363   0.681   2.649 -0.0334  0.4724  0.3290
 7862SOL    HW125027   3.417   0.649   2.577 -0.2394 -2.2830  1.2578
 7862SOL    HW225028   3.392   0.771   2.663  1.9100  0.1938 -1.3860
 7863SOL     OW25029   3.027   3.194   2.674 -0.0792  0.0611  0.1140
 7863SOL    HW125030   3.037   3.240   2.591  2.6102 -1.0779 -0.3208
 7863SOL    HW225031   3.104   3.220   2.725 -0.1926 -1.4256  1.1118
 7864SOL     OW25032   1.460   2.691   3.257 -0.3116  0.1128  0.1673
 7864SOL    HW125033   1.552   2.715   3.248 -0.3882  0.9204  1.2907
 7864SOL    HW225034   1.462   2.597   3.277  0.2801  0.1672  0.3782
 7865SOL     OW25035   2.284   1.140   1.541 -0.0912 -0.1617  0.5127
 7865SOL    HW125036   2.276   1.048   1.567  1.1523 -0.5617 -0.4178
 7865SOL    HW225037   2.341   1.138   1.464  0.2420  1.4300  0.6901
 7866SOL     OW25038   2.312   4.532   2.849  0.3863 -0.0431  0.1036
 7866SOL    HW125039   2.367   4.463   2.812 -0.0575 -0.3495  0.0175
 7866SOL    HW225040   2.263   4.490   2.919  0.1088  0.1810  0.0486
 7867SOL     OW25041   3.146   3.262   3.346 -0.2143 -0.4151  0.3300
 7867SOL    HW125042   3.064   3.234   3.305  0.2190  0.6098 -1.3100
 7867SOL    HW225043   3.142   3.224   3.434 -2.3066 -0.6336  0.2027
 7868SOL     OW25044   3.036   1.123   1.292  0.5523 -0.0815  0.1240
 7868SOL    HW125045   2.987   1.068   1.353 -1.1787  0.2866 -0.8578
 7868SOL    HW225046   2.997   1.105   1.206  1.1449  1.3317 -0.4793
 7869SOL     OW25047   1.884   2.136   2.882  0.2213  0.0433  0.0186
 7869SOL    HW125048   1.979   2.126   2.882  0.0700 -1.8413 -0.0365
 7869SOL    HW225049   1.855   2.088   2.805 -0.6179  3.3939 -1.9184
 7870SOL     OW25050   1.797   3.624   2.392  0.0686 -0.3606 -0.1846
 7870SOL    HW125051   1.768   3.670   2.471  0.1817 -0.8149  0.1264
 7870SOL    HW225052   1.805   3.532   2.420  0.1317 -0.5177 -0.7182
 7871SOL     OW25053   4.315   1.471   3.914  0.6072 -0.4031  0.0083
 7871SOL    HW125054   4.230   1.468   3.869  0.2667  2.2516  0.2995
 7871SOL    HW225055   4.375   1.423   3.856 -0.8083 -1.2444 -0.8213
 7872SOL     OW25056   3.256   7.547   4.126 -0.2627  0.2969 -0.4066
 7872SOL    HW125057   3.230   7.457   4.144  1.8081 -0.1800  0.4777
 7872SOL    HW225058   3.199   7.575   4.054 -0.5406 -1.9066 -1.0953
 7873SOL     OW25059   1.771   2.957   1.413 -0.4179  0.9234  0.2498
 7873SOL    HW125060   1.778   2.899   1.489 -0.1788  0.0980 -0.3896
 7873SOL    HW225061   1.709   2.913   1.355 -0.9037  1.7451  0.1357
 7874SOL     OW25062   2.949   1.829   4.970  0.2939  0.5634  0.3128
 7874SOL    HW125063   2.878   1.867   4.919 -2.1387 -0.4491  2.6926
 7874SOL    HW225064   2.987   1.903   5.018 -0.4350  0.8504  0.4559
 7875SOL     OW25065   1.700   0.980   3.014  0.1653  0.1296 -0.4491
 7875SOL    HW125066   1.683   0.903   3.069  0.1813 -0.3401 -1.0914
 7875SOL    HW225067   1.643   0.969   2.938  2.5258 -0.9860 -2.1824
 7876SOL     OW25068   0.813   2.492   2.487 -0.1702  0.1430  0.2130
 7876SOL    HW125069   0.804   2.538   2.570 -0.8300  2.0458 -0.8283
 7876SOL    HW225070   0.765   2.410   2.498 -2.1953  1.3599  1.0195
 7877SOL     OW25071   0.691   3.226   1.506 -0.1065  0.1827 -0.1280
 7877SOL    HW125072   0.745   3.169   1.451  3.2013  0.3093  2.6184
 7877SOL    HW225073   0.748   3.301   1.526 -1.7214  0.9582  1.9954
 7878SOL     OW25074   3.915   1.052   3.396 -0.1750 -0.1853  0.3535
 7878SOL    HW125075   3.827   1.030   3.365 -0.4738  0.5363  0.6846
 7878SOL    HW225076   3.954   0.967   3.418  0.0288 -0.7389 -1.8715
 7879SOL     OW25077   2.693   2.927   2.097 -0.0559 -0.0289 -0.5630
 7879SOL    HW125078   2.741   2.901   2.018  0.1360 -0.5688 -0.2725
 7879SOL    HW225079   2.634   2.855   2.115 -1.2914  0.8105 -1.1472
 7880SOL     OW25080   2.577   7.348   2.738 -0.0803  0.1368  0.0330
 7880SOL    HW125081   2.619   7.265   2.763 -1.1405 -0.9280 -1.5663
 7880SOL    HW225082   2.544   7.383   2.821  0.2556 -1.1234  0.7310
 7881SOL     OW25083   1.970   2.855   0.837  0.4387  0.1305 -0.0975
 7881SOL    HW125084   2.053   2.901   0.840 -0.1014  1.0812  1.4577
 7881SOL    HW225085   1.992   2.764   0.855  1.0967  0.4763  0.9518
 7882SOL     OW25086   3.116   2.409   2.370  0.4382 -0.4375  0.1681
 7882SOL    HW125087   3.036   2.378   2.412 -0.3376 -2.0292 -2.2030
 7882SOL    HW225088   3.098   2.500   2.348 -1.0467 -0.9409 -0.8859
 7883SOL     OW25089   3.494   2.911   4.463 -0.3430 -0.1094  0.4055
 7883SOL    HW125090   3.507   3.001   4.432  0.3603 -0.0420  0.8691
 7883SOL    HW225091   3.551   2.858   4.407 -0.0727 -0.1499  0.7160
 7884SOL     OW25092   0.182   4.257   3.360  0.3842  0.8939  0.0014
 7884SOL    HW125093   0.195   4.201   3.282 -0.7483 -0.8597  0.9997
 7884SOL    HW225094   0.242   4.221   3.425  1.3537  2.3788 -0.0333
 7885SOL     OW25095   2.697   0.590   1.435  0.0707  0.3382 -0.3909
 7885SOL    HW125096   2.621   0.552   1.480 -0.6319  1.5888 -0.4743
 7885SOL    HW225097   2.706   0.540   1.355 -0.5134  0.0222 -0.2594
 7886SOL     OW25098   1.805   3.342   1.509  0.1427 -0.3351  0.2090
 7886SOL    HW125099   1.736   3.275   1.515  0.9456 -1.0865  1.9832
 7886SOL    HW225100   1.871   3.303   1.451  0.0597 -0.5547  0.2614
 7887SOL     OW25101   4.351   3.795   2.709 -0.1906  0.0168 -0.0496
 7887SOL    HW125102   4.370   3.702   2.695  0.1796  0.0269  0.3620
 7887SOL    HW225103   4.381   3.812   2.799 -2.3451 -0.0144  0.7480
 7888SOL     OW25104   1.558   2.521   1.382 -0.0560  0.1533  0.3173
 7888SOL    HW125105   1.633   2.471   1.352  0.2640  0.3442  0.7933
 7888SOL    HW225106   1.575   2.610   1.351  0.0387  0.2502  0.6500
 7889SOL     OW25107   1.032   1.488   0.395 -0.0572 -0.4863 -0.1296
 7889SOL    HW125108   0.965   1.519   0.457  0.3925 -0.5083  0.3746
 7889SOL    HW225109   1.078   1.567   0.369  0.2117 -0.5650  0.1085
 7890SOL     OW25110   1.975   1.835   3.155  0.1214  0.4350  0.6768
 7890SOL    HW125111   1.987   1.910   3.213  0.3786  2.6144 -1.9844
 7890SOL    HW225112   1.883   1.838   3.130  0.5089  1.0680 -0.8372
 7891SOL     OW25113   2.480   3.024   2.644 -0.1317  0.2209 -0.0972
 7891SOL    HW125114   2.568   2.987   2.654 -1.0393 -1.7852  1.1878
 7891SOL    HW225115   2.452   3.044   2.734 -2.7754 -3.9463  0.3123
 7892SOL     OW25116   2.130   2.004   2.865 -0.2277  0.7265  0.5123
 7892SOL    HW125117   2.210   2.055   2.874  0.9558 -0.7558 -1.0459
 7892SOL    HW225118   2.159   1.913   2.869 -1.8234  0.1540 -0.1023
 7893SOL     OW25119   1.485   3.522   0.757 -0.0262 -0.3114  0.0127
 7893SOL    HW125120   1.476   3.524   0.662 -1.0529 -0.0478  0.1033
 7893SOL    HW225121   1.538   3.445   0.775 -0.2831 -0.6726 -0.7479
 7894SOL     OW25122   3.328   3.831   1.532  0.4946  0.2354  0.2930
 7894SOL    HW125123   3.319   3.778   1.612  0.7689 -0.5538 -0.1821
 7894SOL    HW225124   3.281   3.781   1.465  0.4360  0.7883 -0.0798
 7895SOL     OW25125   1.940   2.509   2.681 -0.2274  0.2875  0.2480
 7895SOL    HW125126   2.031   2.501   2.709 -0.2546  1.6304  0.8105
 7895SOL    HW225127   1.934   2.598   2.644 -1.5046  0.5385  0.9950
 7896SOL     OW25128   2.270   1.751   3.018 -0.3060 -0.0665 -0.3118
 7896SOL    HW125129   2.300   1.669   3.057 -1.5224 -0.2706  0.2461
 7896SOL    HW225130   2.195   1.777   3.072 -0.7990  0.6832 -1.3250
 7897SOL     OW25131   3.207   1.922   3.275  0.3027 -0.5190 -0.2439
 7897SOL    HW125132   3.205   1.927   3.180 -0.0948  2.7748 -0.1597
 7897SOL    HW225133   3.292   1.959   3.300 -1.1966  2.6577  0.6861
 7898SOL     OW25134   1.431   1.619   3.807 -0.0523  0.6953 -0.1018
 7898SOL    HW125135   1.427   1.708   3.771  1.0887  0.8460  0.0971
 7898SOL    HW225136   1.516   1.616   3.852 -0.2516 -0.3759  0.2172
 7899SOL     OW25137   2.491   1.613   2.518 -0.1735  0.0101 -0.0184
 7899SOL    HW125138   2.494   1.650   2.430  0.3716  0.0149 -0.0008
 7899SOL    HW225139   2.540   1.675   2.572  0.8653 -0.7823 -0.0142
 7900SOL     OW25140   4.829   1.647   4.447  0.1171 -0.4706  0.0594
 7900SOL    HW125141   4.894   1.690   4.502 -1.0304 -0.6946  1.6898
 7900SOL    HW225142   4.746   1.686   4.474 -0.4258  0.2611 -2.3841
 7901SOL     OW25143   2.213   1.302   3.168  0.1427  0.0305  0.2495
 7901SOL    HW125144   2.154   1.286   3.094  0.3749  0.7546 -0.0958
 7901SOL    HW225145   2.283   1.237   3.157 -0.5943 -0.8719  0.6937
 7902SOL     OW25146   2.694   1.582   3.498  0.2732  0.1010 -0.1560
 7902SOL    HW125147   2.641   1.638   3.441 -0.7380  0.2207  0.8557
 7902SOL    HW225148   2.677   1.616   3.586 -0.5193 -1.8904  0.5125
 7903SOL     OW25149   3.304   4.563   3.158  0.3199  0.4009 -0.1649
 7903SOL    HW125150   3.213   4.539   3.144  0.2119  0.7180 -0.0131
 7903SOL    HW225151   3.320   4.547   3.251  0.7492 -0.7346 -0.4055
 7904SOL     OW25152   2.054   1.470  12.163  0.1214 -0.5961  0.3170
 7904SOL    HW125153   2.141   1.445  12.131  0.6098  2.9752 -1.7018
 7904SOL    HW225154   1.998   1.468  12.086 -1.1090 -0.8419  1.1848
 7905SOL     OW25155   2.379   3.042   4.167  0.1067  0.5039 -0.1653
 7905SOL    HW125156   2.318   3.023   4.238  2.9059 -2.6526  1.6972
 7905SOL    HW225157   2.427   3.120   4.196  0.4875 -0.1257  0.9319
 7906SOL     OW25158   2.025   1.603   2.963  0.1564  0.2555 -0.0225
 7906SOL    HW125159   1.989   1.627   3.049  0.4778  2.0168 -0.3412
 7906SOL    HW225160   2.098   1.663   2.951 -1.3479  1.7689 -2.5566
 7907SOL     OW25161   5.412   1.850   1.604 -0.0836  0.2943  0.3356
 7907SOL    HW125162   5.467   1.788   1.556 -0.2631 -0.7760  1.4744
 7907SOL    HW225163   5.473   1.920   1.631  0.2073  0.4026 -0.5597
 7908SOL     OW25164   2.467   2.556   2.340  0.4323 -1.1439  0.1780
 7908SOL    HW125165   2.450   2.481   2.396 -2.0300 -1.7279 -1.2050
 7908SOL    HW225166   2.396   2.618   2.358  1.3907  0.0734 -0.0184
 7909SOL     OW25167   3.516   3.985   2.761 -0.6023  0.9041  0.2560
 7909SOL    HW125168   3.469   4.047   2.818 -1.2260 -0.4589  1.2844
 7909SOL    HW225169   3.586   3.950   2.816 -0.8786 -0.0401  0.0332
 7910SOL     OW25170   2.452   4.086   3.271  0.8646  1.5146 -0.1291
 7910SOL    HW125171   2.476   4.142   3.344 -0.2822  2.2858 -0.3106
 7910SOL    HW225172   2.370   4.044   3.299  0.5228  1.6628 -0.8716
 7911SOL     OW25173   4.338   2.098   1.736 -0.0450 -0.6637 -0.9993
 7911SOL    HW125174   4.386   2.051   1.668  3.7785  0.2340  0.8187
 7911SOL    HW225175   4.344   2.042   1.813  1.5122  1.0629  0.2496
 7912SOL     OW25176   3.153   3.768   2.712 -0.1687  0.2891  0.1230
 7912SOL    HW125177   3.131   3.682   2.677 -0.8159  0.1898  0.7591
 7912SOL    HW225178   3.209   3.750   2.788  1.4410  0.5102 -0.9712
 7913SOL     OW25179   2.429   3.355   3.461  0.7610  0.0556  0.1764
 7913SOL    HW125180   2.446   3.276   3.410 -2.6650 -0.7379  0.0637
 7913SOL    HW225181   2.419   3.324   3.551 -1.6506  0.0833 -0.0148
 7914SOL     OW25182   4.721   2.375   3.510 -0.0908  0.3967  0.0498
 7914SOL    HW125183   4.652   2.407   3.568 -0.2887  1.1718 -0.6082
 7914SOL    HW225184   4.695   2.285   3.488  0.2563 -0.1062  1.5648
 7915SOL     OW25185   1.027   4.213   2.201  0.0894  0.0996 -0.2813
 7915SOL    HW125186   1.030   4.192   2.295 -0.8105  1.7123  0.1403
 7915SOL    HW225187   0.941   4.181   2.173 -0.2584  0.9533 -0.2035
 7916SOL     OW25188   2.661   2.196   1.894  0.4492 -0.5823  0.1022
 7916SOL    HW125189   2.687   2.133   1.960 -0.0354 -0.5750  0.3047
 7916SOL    HW225190   2.719   2.271   1.908 -0.1699 -0.2623  1.0384
 7917SOL     OW25191   3.291   1.962   3.848  0.0762 -0.3161  0.4159
 7917SOL    HW125192   3.270   1.879   3.890 -0.8776 -0.1112  0.3619
 7917SOL    HW225193   3.246   1.959   3.764 -0.7272  0.6232  0.7929
 7918SOL     OW25194   2.941   1.264   1.588 -0.3247 -0.3531  0.7213
 7918SOL    HW125195   2.949   1.319   1.666  1.6658  0.2067  0.1956
 7918SOL    HW225196   3.018   1.207   1.592 -0.2248 -0.3617 -0.7694
 7919SOL     OW25197   2.222   2.388   0.913 -0.2434  0.2642 -0.0511
 7919SOL    HW125198   2.255   2.455   0.853 -0.3030 -0.0438 -0.4308
 7919SOL    HW225199   2.294   2.326   0.923 -1.1689 -1.2892 -2.1539
 7920SOL     OW25200   2.634   4.349   2.314  0.0424  0.3363 -0.0445
 7920SOL    HW125201   2.543   4.353   2.343  0.2238 -0.2053  0.6156
 7920SOL    HW225202   2.684   4.331   2.393  0.6736  0.1108 -0.4832
 7921SOL     OW25203   2.144   3.184   2.333 -0.2011  0.2702  0.2265
 7921SOL    HW125204   2.170   3.275   2.340  0.4252  0.0202  1.3949
 7921SOL    HW225205   2.068   3.185   2.275  0.2311  1.4394 -0.3494
 7922SOL     OW25206   2.264   4.782   2.390  0.8112  0.0503 -0.1304
 7922SOL    HW125207   2.255   4.693   2.354  1.5329 -0.2998  0.5247
 7922SOL    HW225208   2.336   4.775   2.453 -2.0853 -0.0450  3.5059
 7923SOL     OW25209   0.785   3.946   2.881 -0.4062  0.3438 -0.2090
 7923SOL    HW125210   0.731   3.949   2.802 -2.1381  0.6813  0.9507
 7923SOL    HW225211   0.770   3.859   2.917 -0.5154  0.6016  0.3648
 7924SOL     OW25212   3.270   4.288   1.758  0.4004  0.2054  0.1963
 7924SOL    HW125213   3.272   4.253   1.847 -0.5196  1.6703  0.8248
 7924SOL    HW225214   3.315   4.222   1.705  0.3305 -1.0236  1.6197
 7925SOL     OW25215   2.248   3.356   1.307 -0.7691  0.2298 -0.0971
 7925SOL    HW125216   2.278   3.445   1.292 -1.5392  0.3899 -0.7679
 7925SOL    HW225217   2.211   3.358   1.395 -0.0832  0.3660  0.1971
 7926SOL     OW25218   4.802   1.051   2.126 -0.1561 -0.0924 -0.0748
 7926SOL    HW125219   4.728   1.090   2.079 -0.3786  0.2139  0.5268
 7926SOL    HW225220   4.787   1.074   2.217 -0.7165 -2.2490  0.4356
 7927SOL     OW25221   2.404   2.794   2.503 -0.1979 -0.0984 -0.1970
 7927SOL    HW125222   2.451   2.872   2.531 -0.4940  0.2237 -0.5885
 7927SOL    HW225223   2.438   2.724   2.559  2.5665 -0.4252 -2.1050
 7928SOL     OW25224   4.324   0.734   1.914 -0.0747  0.4805  0.0705
 7928SOL    HW125225   4.383   0.728   1.989  0.4709  2.1164 -0.1862
 7928SOL    HW225226   4.266   0.659   1.923 -0.0645  0.6674  2.1717
 7929SOL     OW25227   1.620   3.691   3.402 -0.8113  0.4417  0.3597
 7929SOL    HW125228   1.691   3.715   3.343 -0.4857 -1.2854 -0.0152
 7929SOL    HW225229   1.624   3.755   3.473  0.8211  0.6428  0.1119
 7930SOL     OW25230   2.624   3.358   3.086 -0.3950  0.4740  0.0742
 7930SOL    HW125231   2.552   3.394   3.035 -1.2174  0.0958  0.9229
 7930SOL    HW225232   2.611   3.394   3.174  1.4158  1.7148 -0.1214
 7931SOL     OW25233   1.477   2.855   3.037 -0.4737  0.0924  0.0449
 7931SOL    HW125234   1.474   2.798   3.114  0.7236  0.5645  0.4623
 7931SOL    HW225235   1.457   2.942   3.071 -2.6397 -0.0776 -0.6452
 7932SOL     OW25236   1.706   2.621   1.915  0.7464  0.3006 -0.2137
 7932SOL    HW125237   1.734   2.618   1.824  1.4302  1.3778 -0.0532
 7932SOL    HW225238   1.643   2.549   1.923  0.0463  0.6960 -1.7408
 7933SOL     OW25239   2.019   1.228   4.018 -0.0010  0.4412  0.7244
 7933SOL    HW125240   1.978   1.314   4.009  1.2185  0.9872  0.1742
 7933SOL    HW225241   2.007   1.186   3.933  1.4378  1.0156  0.2105
 7934SOL     OW25242   1.685   4.733   2.537  0.0377  0.0958 -0.3787
 7934SOL    HW125243   1.759   4.786   2.566 -0.6523  0.5725  0.5969
 7934SOL    HW225244   1.651   4.779   2.460  0.8030 -0.1875 -0.8996
 7935SOL     OW25245   3.725   1.720   2.917  0.1498 -0.4865 -0.3858
 7935SOL    HW125246   3.634   1.731   2.887 -0.1455 -0.8162  0.3553
 7935SOL    HW225247   3.737   1.789   2.982  0.6286 -0.0665 -0.9238
 7936SOL     OW25248   3.746   1.891   3.139 -0.0544 -0.1329 -0.0269
 7936SOL    HW125249   3.767   1.979   3.108 -0.3407 -0.1639 -0.3154
 7936SOL    HW225250   3.821   1.867   3.195  1.3679 -0.7674 -2.0857
 7937SOL     OW25251   3.838   2.671   2.706 -0.4668  0.2814  0.1121
 7937SOL    HW125252   3.873   2.583   2.717 -1.0345 -0.2387 -1.9042
 7937SOL    HW225253   3.874   2.701   2.622 -1.7321  1.2555 -0.1036
 7938SOL     OW25254   3.640   2.611   4.520  0.4738 -0.1390 -0.3736
 7938SOL    HW125255   3.652   2.671   4.446 -0.9719  1.7598  0.8134
 7938SOL    HW225256   3.724   2.612   4.566  0.3461  1.4424 -0.1054
 7939SOL     OW25257   2.397   3.109   3.696 -0.5902 -0.5762 -0.2437
 7939SOL    HW125258   2.434   3.090   3.782 -1.2771 -0.1010  0.1620
 7939SOL    HW225259   2.305   3.127   3.712 -0.1254  2.8344 -0.5408
 7940SOL     OW25260   3.287   1.815   2.437  0.0650 -0.1726 -0.0580
 7940SOL    HW125261   3.289   1.910   2.438 -0.6232 -0.1180 -1.4277
 7940SOL    HW225262   3.193   1.793   2.433  0.1745 -0.9384  1.0296
 7941SOL     OW25263   1.837   1.019   2.424 -0.5794  0.4616 -0.2561
 7941SOL    HW125264   1.920   0.977   2.448 -1.3073 -2.2899 -2.1040
 7941SOL    HW225265   1.790   1.027   2.507  0.7729  0.3628  0.5614
 7942SOL     OW25266   3.275   4.806   3.044 -0.2914  0.0760 -0.3604
 7942SOL    HW125267   3.278   4.733   3.106 -2.3383 -1.1839 -1.6200
 7942SOL    HW225268   3.334   4.872   3.081 -1.8041 -0.3464  3.2063
 7943SOL     OW25269   5.704   2.760   3.411  0.1422 -0.8327  0.1165
 7943SOL    HW125270   5.632   2.740   3.350 -1.3094  2.0259  0.7298
 7943SOL    HW225271   5.781   2.719   3.371 -0.9760 -0.1889 -2.9825
 7944SOL     OW25272   3.370   2.293   4.906  0.3677  0.3894 -0.3356
 7944SOL    HW125273   3.287   2.264   4.945 -0.0440 -1.7623 -2.6150
 7944SOL    HW225274   3.436   2.239   4.948  0.4245  0.8738  0.2114
 7945SOL     OW25275   1.639   2.609   2.679  0.2569  0.1183 -0.5877
 7945SOL    HW125276   1.628   2.515   2.662 -0.7293  0.3078 -1.0923
 7945SOL    HW225277   1.698   2.638   2.609 -0.1886  0.0392 -1.0075
 7946SOL     OW25278   2.621   3.810   3.346  0.3212  0.0538  0.0539
 7946SOL    HW125279   2.544   3.852   3.385 -0.6225 -2.2798  0.8723
 7946SOL    HW225280   2.694   3.840   3.399 -0.5426 -0.5930  1.6700
 7947SOL     OW25281   2.351   2.760   1.411 -0.8668 -0.0056  0.1690
 7947SOL    HW125282   2.338   2.798   1.324  0.7983  0.7744  0.2283
 7947SOL    HW225283   2.346   2.834   1.471  2.8194  0.3284  0.2483
 7948SOL     OW25284   2.411   4.284   1.583 -0.1131 -0.1933  0.8076
 7948SOL    HW125285   2.429   4.191   1.595  1.3962 -0.1322 -0.6355
 7948SOL    HW225286   2.493   4.327   1.606  0.2930  0.4866 -1.6240
 7949SOL     OW25287   3.303   2.972   5.409  0.0810  0.0239  0.4073
 7949SOL    HW125288   3.348   2.914   5.349 -1.3095 -2.3810  1.5446
 7949SOL    HW225289   3.263   3.039   5.353  0.1333 -1.2217 -1.1643
 7950SOL     OW25290   2.192   2.391   2.933  0.1124  0.1166 -0.1609
 7950SOL    HW125291   2.144   2.455   2.985 -0.4769  0.7899 -1.4808
 7950SOL    HW225292   2.228   2.442   2.860  2.0938 -0.5420  0.2999
 7951SOL     OW25293   2.523   3.971   3.576 -0.2581 -0.1213 -0.0804
 7951SOL    HW125294   2.605   3.948   3.621 -0.6695  0.7260  1.1365
 7951SOL    HW225295   2.529   4.066   3.563 -0.6615 -0.1886 -0.7879
 7952SOL     OW25296   2.294   2.264   4.812 -0.8658 -0.0864 -0.2364
 7952SOL    HW125297   2.365   2.286   4.751 -0.6260 -0.1067  0.0307
 7952SOL    HW225298   2.217   2.253   4.756 -0.3196 -1.6817 -0.7268
 7953SOL     OW25299   2.861   3.070   4.025 -0.1113 -0.2929  0.0018
 7953SOL    HW125300   2.889   2.984   4.057  0.5301 -0.6351 -1.4061
 7953SOL    HW225301   2.927   3.131   4.057  0.5794 -0.6449 -0.7305
 7954SOL     OW25302   1.149   2.747   2.041 -0.4419 -0.0897 -0.5602
 7954SOL    HW125303   1.128   2.745   2.134  1.3187 -1.2956 -0.1359
 7954SOL    HW225304   1.222   2.807   2.034  0.3609 -1.0715 -0.9185
 7955SOL     OW25305   1.226   4.541   2.184 -0.5008 -0.0049 -0.3846
 7955SOL    HW125306   1.135   4.569   2.199 -0.1293  1.2824 -0.3487
 7955SOL    HW225307   1.218   4.466   2.126 -1.5850  0.4477 -0.8688
 7956SOL     OW25308   2.594   2.954   3.606 -0.0797  0.4109 -0.5005
 7956SOL    HW125309   2.585   2.916   3.694  2.6886  1.6358  0.4234
 7956SOL    HW225310   2.536   3.030   3.608 -0.0633  0.4160  0.2608
 7957SOL     OW25311   2.159   3.064   2.585 -0.0939  0.4508  0.1419
 7957SOL    HW125312   2.144   3.114   2.504 -0.8406  0.4866  0.2908
 7957SOL    HW225313   2.254   3.059   2.593 -0.0088  1.2521 -0.2477
 7958SOL     OW25314   3.283   1.864   1.504  0.3604  0.5948 -0.2404
 7958SOL    HW125315   3.209   1.804   1.496  0.3644  0.7503 -1.6611
 7958SOL    HW225316   3.249   1.938   1.554  0.3666 -0.5602  1.5744
 7959SOL     OW25317   2.650   3.846   3.921 -0.0189 -0.4440  0.1746
 7959SOL    HW125318   2.691   3.857   3.836 -0.9623  0.1939 -0.2073
 7959SOL    HW225319   2.680   3.760   3.951  1.4999 -0.0574 -0.1251
 7960SOL     OW25320   2.448   2.633   3.135 -0.1748 -0.0688  0.1272
 7960SOL    HW125321   2.519   2.619   3.198  0.7018 -0.7936 -0.9599
 7960SOL    HW225322   2.445   2.551   3.085  0.6794  1.2165 -2.1914
 7961SOL     OW25323   1.162   2.839   2.955  0.1443  0.0478  0.2339
 7961SOL    HW125324   1.206   2.812   2.874  0.5812  1.0955  0.1108
 7961SOL    HW225325   1.096   2.771   2.970  1.4973 -1.3166  0.1808
 7962SOL     OW25326   5.364   2.616   1.648 -0.4220 -0.2539 -0.3769
 7962SOL    HW125327   5.320   2.698   1.669  1.2790  1.6643 -3.5596
 7962SOL    HW225328   5.295   2.559   1.615 -1.2866  0.7734 -0.3763
 7963SOL     OW25329   0.752   4.496   2.013  0.1669  0.2765  0.3941
 7963SOL    HW125330   0.814   4.556   2.054  0.3005 -0.1593  0.8381
 7963SOL    HW225331   0.805   4.422   1.983  0.1530  0.8243 -1.0579
 7964SOL     OW25332   4.081   4.163   2.428  0.1857  0.1073  0.0988
 7964SOL    HW125333   4.160   4.151   2.480 -0.2779  1.1898  1.0991
 7964SOL    HW225334   4.035   4.079   2.434  0.9513 -0.3246  0.0176
 7965SOL     OW25335   1.118   2.098   2.668  0.1593  0.4886 -0.0100
 7965SOL    HW125336   1.076   2.013   2.652 -0.4170  1.0372 -1.6521
 7965SOL    HW225337   1.104   2.115   2.761  2.0338 -2.1087  0.8605
 7966SOL     OW25338   0.899   0.550   6.007  0.3292  0.4357 -0.1119
 7966SOL    HW125339   0.874   0.601   6.084 -0.1218  0.0234  0.0158
 7966SOL    HW225340   0.905   0.615   5.936 -1.9646  0.4422 -0.3476
 7967SOL     OW25341   3.935   2.153   4.815 -0.1187 -0.2434  0.3823
 7967SOL    HW125342   4.007   2.211   4.843 -1.8811  0.9194  2.8677
 7967SOL    HW225343   3.873   2.212   4.773 -0.0127 -1.1133 -1.0266
 7968SOL     OW25344   3.115   2.055   4.288 -0.0825  0.3574  0.1021
 7968SOL    HW125345   3.036   2.092   4.249  0.0340  1.6938  1.0899
 7968SOL    HW225346   3.159   2.129   4.330  1.4158 -0.4661  0.0574
 7969SOL     OW25347   3.371   3.659   4.810 -0.2903  0.6332 -0.2476
 7969SOL    HW125348   3.434   3.705   4.864  0.0106  2.2229 -1.8434
 7969SOL    HW225349   3.287   3.701   4.829 -0.6371 -0.4387  0.7243
 7970SOL     OW25350   3.834   3.734   5.240 -0.5506  0.6750  0.6002
 7970SOL    HW125351   3.808   3.804   5.180  0.8378 -0.9812 -2.1360
 7970SOL    HW225352   3.789   3.657   5.207  1.0195 -0.4779  1.0301
 7971SOL     OW25353   3.417   2.596   3.791  0.0987  0.1268  0.3338
 7971SOL    HW125354   3.461   2.672   3.829 -1.8438  1.3729  0.2344
 7971SOL    HW225355   3.328   2.626   3.775 -0.4012 -1.8332 -0.8323
 7972SOL     OW25356   2.513   2.719   4.226  0.3184  0.4724  0.5695
 7972SOL    HW125357   2.454   2.788   4.198  0.3824  0.0102 -0.7733
 7972SOL    HW225358   2.592   2.765   4.256  0.2315  1.0004  0.0082
 7973SOL     OW25359   2.021   3.352   4.651  0.7358  0.3419  0.0300
 7973SOL    HW125360   2.016   3.258   4.633 -1.1517  0.3799  0.1825
 7973SOL    HW225361   2.009   3.359   4.745  0.5465  0.7522 -0.0230
 7974SOL     OW25362   3.859   2.819   4.877  0.1842  0.4716 -0.2869
 7974SOL    HW125363   3.942   2.860   4.904 -0.3636  0.2906  1.7972
 7974SOL    HW225364   3.792   2.864   4.928 -0.9912  0.3223 -1.6338
 7975SOL     OW25365   2.562   2.464   7.079 -0.0701 -0.1113  0.6221
 7975SOL    HW125366   2.543   2.556   7.098 -0.7474 -0.1242  0.0592
 7975SOL    HW225367   2.504   2.443   7.005  2.6919  0.0535 -1.7517
 7976SOL     OW25368   3.027   3.870   5.675 -0.0796  0.1138  0.0904
 7976SOL    HW125369   2.934   3.855   5.691  0.3887 -0.6349  2.4849
 7976SOL    HW225370   3.030   3.951   5.625 -2.0644 -0.6928 -1.4808
 7977SOL     OW25371   3.172   2.470   4.751 -0.2552 -0.2683  0.4586
 7977SOL    HW125372   3.174   2.428   4.837  0.9110 -0.6358  0.2676
 7977SOL    HW225373   3.261   2.460   4.717 -0.6900 -0.1256 -0.7921
 7978SOL     OW25374   3.546   1.992   4.364  0.0681 -0.2310  0.4599
 7978SOL    HW125375   3.562   2.069   4.418 -1.5522 -0.3693  1.2198
 7978SOL    HW225376   3.530   1.922   4.428 -1.0618 -0.5897 -0.1927
 7979SOL     OW25377   1.875   2.082   5.135 -0.3223 -0.5320 -0.3258
 7979SOL    HW125378   1.935   2.015   5.101  0.8988  0.1403  0.4302
 7979SOL    HW225379   1.845   2.128   5.057 -1.0037 -1.7922 -0.8365
 7980SOL     OW25380   2.438   2.842   4.819  0.2422  0.2374 -0.7150
 7980SOL    HW125381   2.486   2.921   4.795  0.9709 -0.3930 -1.3929
 7980SOL    HW225382   2.505   2.783   4.853  0.0439 -0.8240 -2.0764
 7981SOL     OW25383   2.574   4.060   5.187 -0.3995  0.5359  0.0111
 7981SOL    HW125384   2.563   4.062   5.092 -0.5608  0.7345  0.0308
 7981SOL    HW225385   2.592   4.151   5.211 -0.2089  0.4615  0.1540
 7982SOL     OW25386   3.458   2.433   4.412  0.5778  0.1842 -0.0888
 7982SOL    HW125387   3.499   2.492   4.475 -2.7027  2.3838  0.1807
 7982SOL    HW225388   3.421   2.490   4.346 -2.5994 -1.4964  0.0622
 7983SOL     OW25389   1.757   2.927   5.755  0.2632 -0.0173  0.1256
 7983SOL    HW125390   1.721   2.985   5.688  0.8839 -0.0697 -0.2625
 7983SOL    HW225391   1.681   2.899   5.806 -0.0655  1.0025  0.2241
 7984SOL     OW25392   2.837   1.563   3.830  0.1731 -0.8844  0.6902
 7984SOL    HW125393   2.917   1.555   3.882 -0.9931 -4.0061  2.2525
 7984SOL    HW225394   2.864   1.542   3.741  1.1356 -1.6442  1.1518
 7985SOL     OW25395   2.493   0.303   6.451 -0.2449  0.2623 -0.2785
 7985SOL    HW125396   2.487   0.208   6.462  0.4814  0.2010 -0.3791
 7985SOL    HW225397   2.464   0.339   6.535  1.5207 -0.1054  0.5378
 7986SOL     OW25398   1.568   0.646   2.325 -0.0314 -0.0842 -0.2158
 7986SOL    HW125399   1.491   0.702   2.337 -0.9471 -1.2395 -0.5522
 7986SOL    HW225400   1.601   0.669   2.238  1.2846  1.8857  0.7219
 7987SOL     OW25401   3.844   3.837   4.477 -0.1365  0.3574  0.0947
 7987SOL    HW125402   3.906   3.877   4.538  0.9519  0.0961 -0.8089
 7987SOL    HW225403   3.779   3.794   4.533  1.1654 -0.3911  1.0838
 7988SOL     OW25404   2.718   4.615   4.828  0.3181 -0.1672  0.3136
 7988SOL    HW125405   2.727   4.644   4.737 -1.8480  0.3562  0.2043
 7988SOL    HW225406   2.716   4.519   4.822 -1.0002 -0.1215 -0.3715
 7989SOL     OW25407   1.966   1.172   3.465 -0.3046 -0.4164  0.1907
 7989SOL    HW125408   2.011   1.111   3.408  2.4624  2.0335 -0.5064
 7989SOL    HW225409   1.886   1.194   3.419 -0.4250 -2.0202 -0.4215
 7990SOL     OW25410   1.818   0.767   4.895  0.1739  0.0986 -0.2063
 7990SOL    HW125411   1.908   0.750   4.924 -0.2267 -0.0012  1.0477
 7990SOL    HW225412   1.763   0.721   4.958 -0.7745  0.5037 -0.7122
 7991SOL     OW25413   2.595   1.685   3.748 -0.0868 -0.2707  0.2480
 7991SOL    HW125414   2.582   1.765   3.798 -0.7736 -0.5005  0.4428
 7991SOL    HW225415   2.674   1.645   3.785 -0.0517  0.0416  0.5028
 7992SOL     OW25416   0.183   2.023   5.044 -0.5036  0.1344 -0.3435
 7992SOL    HW125417   0.123   1.950   5.030  0.6516 -1.0070  0.4220
 7992SOL    HW225418   0.129   2.093   5.080 -1.6036 -0.3865 -0.9421
 7993SOL     OW25419   3.453   1.706   3.559 -0.1510 -0.7994 -0.4192
 7993SOL    HW125420   3.519   1.706   3.490  1.6275 -2.2014  1.1708
 7993SOL    HW225421   3.473   1.784   3.611  0.6966 -1.5615  0.4238
 7994SOL     OW25422   2.097   3.077   3.825 -0.3039  0.1098  0.3013
 7994SOL    HW125423   2.090   3.163   3.866  0.4301  0.9728 -1.2938
 7994SOL    HW225424   2.026   3.026   3.865 -1.5058  1.8007  0.4395
 7995SOL     OW25425   3.387   4.203   3.971 -0.0766 -0.0111  0.1142
 7995SOL    HW125426   3.404   4.210   4.065  0.9283 -0.6810  0.0022
 7995SOL    HW225427   3.473   4.216   3.930 -0.1120 -1.7425 -0.5994
 7996SOL     OW25428   3.718   0.564   4.635 -0.4043  0.3517  0.2762
 7996SOL    HW125429   3.703   0.656   4.657 -0.4055  0.0233  1.7352
 7996SOL    HW225430   3.644   0.540   4.579  0.1560  1.5097 -1.0179
 7997SOL     OW25431   3.413   3.402   4.800  0.2673  0.1373  0.2450
 7997SOL    HW125432   3.422   3.387   4.894  0.4266 -1.9530 -0.0580
 7997SOL    HW225433   3.425   3.496   4.790 -1.2609  0.6749  2.4828
 7998SOL     OW25434   3.282   3.748   4.237  0.2497  0.6400  0.4947
 7998SOL    HW125435   3.293   3.717   4.327  0.4223 -1.2720 -0.1442
 7998SOL    HW225436   3.241   3.834   4.246  1.6374  1.1408  2.4269
 7999SOL     OW25437   1.628   1.218   4.714  0.2003  0.2474 -0.7353
 7999SOL    HW125438   1.613   1.209   4.620 -0.4428  0.4778 -0.6563
 7999SOL    HW225439   1.641   1.128   4.744  2.3603  0.2855 -1.3426
 8000SOL     OW25440   4.195   1.281   4.833  0.5083 -0.3504 -0.0676
 8000SOL    HW125441   4.250   1.248   4.904  0.9593  0.8523  0.1707
 8000SOL    HW225442   4.172   1.370   4.860 -2.3364 -1.0759  0.2907
 8001SOL     OW25443   3.964   4.351   4.021  0.5427 -0.3332  0.2352
 8001SOL    HW125444   3.980   4.438   4.057 -0.5768  0.9308 -2.0574
 8001SOL    HW225445   4.039   4.335   3.964  1.1430 -1.2575  1.2659
 8002SOL     OW25446   2.279   0.986   4.825  0.6669  0.1687  0.0118
 8002SOL    HW125447   2.291   1.037   4.745 -0.4070 -0.5509 -0.6323
 8002SOL    HW225448   2.193   1.012   4.857 -0.2321 -1.7083 -0.7255
 8003SOL     OW25449   2.569   0.978   5.495 -0.8618 -0.9598 -0.6792
 8003SOL    HW125450   2.575   0.890   5.532  0.6701 -1.2413 -1.5239
 8003SOL    HW225451   2.595   0.968   5.403  0.6828  0.5476 -0.4737
 8004SOL     OW25452   2.602   2.209   5.865  0.1441 -0.3757 -0.2031
 8004SOL    HW125453   2.679   2.153   5.881 -0.2081 -0.3284  2.0559
 8004SOL    HW225454   2.551   2.202   5.946 -0.9953  1.5304 -0.6964
 8005SOL     OW25455   2.481   1.735   3.376  0.3630  0.3673 -0.0862
 8005SOL    HW125456   2.488   1.763   3.285  0.3560 -0.6694 -0.4258
 8005SOL    HW225457   2.532   1.799   3.425  1.8538 -0.0348 -1.0312
 8006SOL     OW25458   1.459   3.212   4.526  0.4277 -0.4376 -0.1419
 8006SOL    HW125459   1.516   3.139   4.549 -0.0553 -1.0569 -0.8920
 8006SOL    HW225460   1.489   3.241   4.440  0.6248  0.2662  0.1527
 8007SOL     OW25461   2.004   2.463   4.150  0.6935 -0.1393  0.4020
 8007SOL    HW125462   2.003   2.515   4.070 -0.5836 -0.8974 -0.0950
 8007SOL    HW225463   1.945   2.390   4.133  1.8801 -1.3843  1.3373
 8008SOL     OW25464   0.954   4.728   5.570 -0.1182  0.1876  0.3864
 8008SOL    HW125465   0.875   4.778   5.589  0.8659  1.8443  0.2772
 8008SOL    HW225466   1.000   4.722   5.654  0.5852  0.9778  0.0778
 8009SOL     OW25467   2.935   2.889   3.342 -0.3833  0.8621 -0.1662
 8009SOL    HW125468   2.863   2.884   3.278  0.5466 -2.0983 -1.1439
 8009SOL    HW225469   2.898   2.940   3.414 -3.1001  0.4364 -1.1048
 8010SOL     OW25470   4.830   2.252   5.916  0.2169 -0.2882  0.0933
 8010SOL    HW125471   4.886   2.311   5.866  0.7406 -0.4025  0.5217
 8010SOL    HW225472   4.752   2.303   5.936 -0.2601 -0.4291 -1.3243
 8011SOL     OW25473   3.461   2.481   4.732 -0.0963 -0.2300  0.2931
 8011SOL    HW125474   3.548   2.519   4.743 -0.3130 -0.0619  1.5393
 8011SOL    HW225475   3.454   2.418   4.804 -1.0297 -0.1913  0.2412
 8012SOL     OW25476   3.205   1.298   5.797 -0.0062  0.5760 -0.6640
 8012SOL    HW125477   3.145   1.224   5.805 -0.6543  1.3009  4.2260
 8012SOL    HW225478   3.292   1.261   5.811 -0.3114  0.5420  1.5374
 8013SOL     OW25479   2.949   4.327   3.610 -0.4038  0.7370  0.3773
 8013SOL    HW125480   3.021   4.370   3.657 -0.8929  1.3610  0.5603
 8013SOL    HW225481   2.951   4.236   3.641 -0.9869  1.2328  1.9401
 8014SOL     OW25482   1.960   5.563   6.778 -0.2040 -0.3584  0.1110
 8014SOL    HW125483   1.878   5.583   6.823  1.0794  0.5727  2.1899
 8014SOL    HW225484   2.007   5.646   6.775  1.5432 -1.2656  0.9227
 8015SOL     OW25485   3.591   2.798   3.928 -0.0781  0.0677  0.4041
 8015SOL    HW125486   3.666   2.743   3.951  1.4993  2.3539  1.1091
 8015SOL    HW225487   3.598   2.874   3.986 -1.5915  1.4992 -1.1486
 8016SOL     OW25488   7.165   2.101   3.735  0.2688 -0.5195  0.0859
 8016SOL    HW125489   7.157   2.175   3.675 -4.8521  1.2090  2.3334
 8016SOL    HW225490   7.118   2.030   3.692  2.3108 -1.5127 -0.6237
 8017SOL     OW25491   3.916   3.422   5.157 -1.1989 -0.1102 -0.1942
 8017SOL    HW125492   3.922   3.372   5.239 -1.6759 -1.0422 -0.7049
 8017SOL    HW225493   3.999   3.403   5.112 -0.9588  0.3613  0.0403
 8018SOL     OW25494   1.282   2.350   6.475  0.5199 -0.0410 -0.5731
 8018SOL    HW125495   1.376   2.343   6.455  0.5398  0.8920 -0.8558
 8018SOL    HW225496   1.271   2.438   6.510 -0.3793  0.1512 -1.2958
 8019SOL     OW25497   1.769   2.705   3.616 -0.0338  0.2403 -0.0564
 8019SOL    HW125498   1.810   2.771   3.560  0.2255  0.4415  0.3691
 8019SOL    HW225499   1.769   2.626   3.562 -0.9164  0.7292 -0.7985
 8020SOL     OW25500   2.078   0.718   3.844 -0.2666 -0.0319 -0.0752
 8020SOL    HW125501   2.063   0.809   3.867 -0.7142 -0.0564 -0.2699
 8020SOL    HW225502   2.103   0.676   3.926  0.3166  0.3434 -0.0549
 8021SOL     OW25503   1.130   2.209   4.410 -0.4270  0.3042  0.7310
 8021SOL    HW125504   1.153   2.289   4.363 -1.0466 -0.0737 -0.2360
 8021SOL    HW225505   1.098   2.149   4.342  0.3516 -0.8983  1.3861
 8022SOL     OW25506   2.597   1.106   4.301 -0.2612 -0.3693 -0.5003
 8022SOL    HW125507   2.528   1.077   4.242 -0.4787  1.5512 -1.2369
 8022SOL    HW225508   2.560   1.181   4.348  0.1506 -1.3912  1.6203
 8023SOL     OW25509   1.403   2.118   5.216  0.3019  0.2972  0.5102
 8023SOL    HW125510   1.370   2.206   5.238 -2.1689 -0.7128  1.2247
 8023SOL    HW225511   1.426   2.123   5.124 -2.1398  1.1330 -0.1332
 8024SOL     OW25512   1.880   3.209   5.491  0.0048 -0.1047 -0.7937
 8024SOL    HW125513   1.965   3.219   5.534 -0.3563 -0.1810 -0.0433
 8024SOL    HW225514   1.876   3.117   5.468 -0.3440 -0.3621  0.2179
 8025SOL     OW25515   4.178   2.532   3.067 -0.2832 -0.4147  1.1064
 8025SOL    HW125516   4.199   2.617   3.107 -0.6279 -0.8650  2.2900
 8025SOL    HW225517   4.227   2.532   2.985 -1.1300  1.3792  0.5477
 8026SOL     OW25518   4.945   2.510   5.029 -0.2628  0.5789 -0.3487
 8026SOL    HW125519   4.870   2.532   4.973 -0.8540 -0.6759 -0.0766
 8026SOL    HW225520   4.906   2.475   5.109  0.6089 -0.1919 -0.2501
 8027SOL     OW25521   2.573   1.159   2.889 -0.0437 -0.1435  0.0272
 8027SOL    HW125522   2.648   1.121   2.933 -2.1540 -2.0629  2.2607
 8027SOL    HW225523   2.577   1.124   2.800  2.5790  1.2652 -0.5152
 8028SOL     OW25524   1.435   1.857   5.573 -0.3766 -0.2657  0.0377
 8028SOL    HW125525   1.470   1.784   5.625  0.2888  0.5003  0.6963
 8028SOL    HW225526   1.503   1.875   5.509 -0.0486  0.4822  0.5842
 8029SOL     OW25527   2.314   2.989   5.754 -0.1644  0.6178  0.4337
 8029SOL    HW125528   2.304   3.013   5.847  0.2332  2.2064  0.0928
 8029SOL    HW225529   2.292   2.896   5.751 -0.1342  0.5233  2.1366
 8030SOL     OW25530   4.781   2.492   7.195 -0.2355 -0.0396 -0.1520
 8030SOL    HW125531   4.694   2.480   7.233  0.2727 -0.8977  0.8110
 8030SOL    HW225532   4.768   2.488   7.101 -1.3490  0.6827 -0.0426
 8031SOL     OW25533   1.212   2.863   5.745 -0.0112  0.1716 -0.1413
 8031SOL    HW125534   1.274   2.936   5.741  0.3605  0.0294  1.7425
 8031SOL    HW225535   1.128   2.901   5.721 -0.1610  1.7307  2.4367
 8032SOL     OW25536   1.734   1.499   5.501 -0.2520  0.6187  0.1272
 8032SOL    HW125537   1.787   1.440   5.446  0.3051  2.5272 -1.5185
 8032SOL    HW225538   1.646   1.491   5.465 -0.1423  0.8903 -0.2123
 8033SOL     OW25539   3.167   2.143   4.023 -0.5036  0.3945  0.7152
 8033SOL    HW125540   3.220   2.093   3.961  1.2967  1.0506  1.6611
 8033SOL    HW225541   3.145   2.081   4.092  1.5487  0.7899  1.7837
 8034SOL     OW25542   4.925   1.617   3.828 -0.1352 -0.0664  0.4813
 8034SOL    HW125543   4.861   1.687   3.824 -2.5678 -2.0387  1.8871
 8034SOL    HW225544   4.935   1.598   3.922 -1.3387 -3.0054  0.1368
 8035SOL     OW25545   2.325   7.517   4.318  0.7078  0.0764 -0.3332
 8035SOL    HW125546   2.313   7.505   4.224 -0.7510  1.8954 -0.4363
 8035SOL    HW225547   2.386   7.591   4.326  0.5271  0.1833  0.1361
 8036SOL     OW25548   1.648   1.609   3.994  0.1916  0.4856  0.2183
 8036SOL    HW125549   1.571   1.644   4.039  0.3908  0.6982  0.3958
 8036SOL    HW225550   1.683   1.683   3.944 -1.2802 -0.2628 -2.0595
 8037SOL     OW25551   2.731   3.306   5.037  0.9751  0.7469  0.7151
 8037SOL    HW125552   2.819   3.289   5.073  2.1314  0.4298 -2.0020
 8037SOL    HW225553   2.746   3.366   4.964 -0.9335 -0.0335 -0.3981
 8038SOL     OW25554   2.988   4.191   3.959  0.1643  0.0218 -0.0702
 8038SOL    HW125555   2.966   4.123   4.023  4.7871 -1.1866  0.5605
 8038SOL    HW225556   2.987   4.145   3.875  1.0200 -0.2605  0.0667
 8039SOL     OW25557   1.150   1.766   4.393 -0.1423 -0.0402 -0.0069
 8039SOL    HW125558   1.089   1.749   4.465 -0.1346  0.8789  0.2319
 8039SOL    HW225559   1.211   1.831   4.428  0.3470 -0.1766 -0.5857
 8040SOL     OW25560   2.266   5.773   4.295 -0.4480 -0.2418 -0.5266
 8040SOL    HW125561   2.282   5.695   4.243 -1.1029 -1.6715  1.3014
 8040SOL    HW225562   2.337   5.833   4.273  0.7418 -1.8216 -1.0950
 8041SOL     OW25563   3.316   3.156   2.493  0.7935 -1.2309 -0.2604
 8041SOL    HW125564   3.230   3.173   2.456  0.0888 -3.9140 -0.0315
 8041SOL    HW225565   3.336   3.234   2.545 -1.5269 -0.5892 -0.2412
 8042SOL     OW25566   1.966   0.870   4.377 -0.4613 -0.6017  0.6399
 8042SOL    HW125567   1.915   0.937   4.424 -1.3192 -1.0667  0.4014
 8042SOL    HW225568   2.053   0.873   4.416 -0.8782 -0.2893  1.5628
 8043SOL     OW25569   2.341   2.240   5.512  0.0807 -0.4559 -0.7443
 8043SOL    HW125570   2.435   2.223   5.510  0.3443  0.9588 -1.1536
 8043SOL    HW225571   2.309   2.185   5.584  1.2238 -0.8813 -0.5351
 8044SOL     OW25572   1.856   3.020   2.669  0.0428  0.2944  0.3818
 8044SOL    HW125573   1.862   3.055   2.757 -0.8416 -1.2010  1.0807
 8044SOL    HW225574   1.883   2.928   2.677  1.6213  0.5470 -1.2423
 8045SOL     OW25575   2.463   1.081   5.000  0.1814 -0.1246 -0.2555
 8045SOL    HW125576   2.480   1.161   4.950 -0.4189 -0.4667 -1.0307
 8045SOL    HW225577   2.399   1.033   4.947 -2.1763  0.4984  1.8050
 8046SOL     OW25578   3.600   4.030   4.519 -0.1563 -0.4432  0.5338
 8046SOL    HW125579   3.631   4.103   4.465 -0.8474 -0.8322 -0.4146
 8046SOL    HW225580   3.669   4.018   4.585  0.3813  0.4819  0.1621
 8047SOL     OW25581   2.384   2.763   4.561 -0.6203  0.1634 -0.4638
 8047SOL    HW125582   2.469   2.773   4.519 -0.8964  1.4935 -0.7715
 8047SOL    HW225583   2.402   2.772   4.654 -0.7469  3.9008 -0.6416
 8048SOL     OW25584   3.805   2.638   5.162  0.3780  0.1675 -0.6130
 8048SOL    HW125585   3.827   2.703   5.095  0.1990  0.1039 -0.7356
 8048SOL    HW225586   3.828   2.679   5.245  0.1603  0.4297 -0.6833
 8049SOL     OW25587   1.165   2.342   4.651  0.2276 -0.0682  0.1123
 8049SOL    HW125588   1.237   2.397   4.621  0.4453 -0.4000  0.0287
 8049SOL    HW225589   1.136   2.295   4.573  0.6491 -0.7614  0.3643
 8050SOL     OW25590   3.339   3.001   5.031 -0.0586  0.1121 -0.5065
 8050SOL    HW125591   3.285   3.009   4.952 -2.0910  1.4756  0.9331
 8050SOL    HW225592   3.354   3.091   5.059  1.3603 -0.3290  0.2332
 8051SOL     OW25593   3.286   2.575   2.857  0.3277  0.3984  0.3489
 8051SOL    HW125594   3.342   2.653   2.857 -0.6348  1.2456  3.4707
 8051SOL    HW225595   3.200   2.607   2.829 -0.2396  0.7258  2.2712
 8052SOL     OW25596   1.948   1.105   3.776  0.3784  0.0724 -0.0923
 8052SOL    HW125597   1.965   1.087   3.684 -0.3208  0.9009 -0.3934
 8052SOL    HW225598   1.914   1.022   3.811  0.0803 -0.0709 -0.7187
 8053SOL     OW25599   2.114   2.625   3.906  0.2569 -0.5632 -0.5950
 8053SOL    HW125600   2.118   2.558   3.837  1.4966  0.3340 -1.4370
 8053SOL    HW225601   2.195   2.676   3.894 -0.4337  0.7891  0.3196
 8054SOL     OW25602   2.687   2.523   3.792 -0.4381 -0.4239 -0.8591
 8054SOL    HW125603   2.664   2.440   3.835 -0.3653  0.4190  0.8907
 8054SOL    HW225604   2.783   2.524   3.791 -0.3842  0.4351  0.8704
 8055SOL     OW25605   2.335   2.407   4.484 -0.1933  0.1096  0.4502
 8055SOL    HW125606   2.306   2.426   4.395  2.0521 -0.3349 -0.4618
 8055SOL    HW225607   2.313   2.485   4.535 -1.6058  0.3196 -0.4400
 8056SOL     OW25608   3.375   1.672   4.437 -0.0162 -0.3959 -0.4012
 8056SOL    HW125609   3.312   1.715   4.381 -0.5601  0.7367  1.0150
 8056SOL    HW225610   3.448   1.650   4.379 -1.3889 -1.1507 -1.9400
 8057SOL     OW25611   2.979   5.048   5.698 -0.0798  0.1119 -0.2963
 8057SOL    HW125612   2.889   5.071   5.673  0.2538  1.9225  0.0608
 8057SOL    HW225613   2.970   5.011   5.786 -0.4703  0.2367 -0.2811
 8058SOL     OW25614   1.740   3.404   4.582 -0.1514  0.0501  0.4992
 8058SOL    HW125615   1.717   3.459   4.507 -0.0386 -0.3011  0.2067
 8058SOL    HW225616   1.827   3.370   4.562  0.3956  0.9089  1.3428
 8059SOL     OW25617   1.528   2.038   6.317 -0.0422  0.1739  0.2372
 8059SOL    HW125618   1.506   1.963   6.372  0.1426  0.2977  0.4819
 8059SOL    HW225619   1.463   2.104   6.339  0.3381  0.4080  0.6907
 8060SOL     OW25620   2.346   3.536   4.868  0.0337 -0.4798 -0.0558
 8060SOL    HW125621   2.391   3.451   4.868  0.7920 -0.1171  1.4112
 8060SOL    HW225622   2.400   3.592   4.813  0.6391 -0.4222  0.5828
 8061SOL     OW25623   1.554   4.431   5.637 -0.1992 -0.2000  0.4774
 8061SOL    HW125624   1.554   4.409   5.730  1.0454 -1.3540  0.2447
 8061SOL    HW225625   1.645   4.452   5.617 -0.2840 -0.8083 -0.6483
 8062SOL     OW25626   1.727   0.757   3.523  0.4128 -0.5861  0.4087
 8062SOL    HW125627   1.698   0.680   3.474 -2.3887  0.1367  0.8092
 8062SOL    HW225628   1.740   0.825   3.456  2.2336 -1.1327  0.1346
 8063SOL     OW25629   3.057   0.885   3.247 -0.3941  0.0254 -0.3066
 8063SOL    HW125630   2.983   0.829   3.226 -0.9550  1.0633 -1.2142
 8063SOL    HW225631   3.021   0.974   3.251  0.7636  0.5448 -0.6803
 8064SOL     OW25632   3.489   2.361   3.644 -0.0654 -0.1618 -0.0324
 8064SOL    HW125633   3.492   2.436   3.704 -0.6015  0.4004 -0.6910
 8064SOL    HW225634   3.579   2.331   3.637 -0.0134 -0.3461  1.1899
 8065SOL     OW25635   3.138   3.601   5.665 -0.6243  0.0345  0.3812
 8065SOL    HW125636   3.093   3.684   5.681 -1.2582 -0.4744  1.3091
 8065SOL    HW225637   3.231   3.623   5.670 -0.7762  0.7871  0.0703
 8066SOL     OW25638   3.799   2.335   3.434 -0.0741 -0.1311 -0.0646
 8066SOL    HW125639   3.775   2.299   3.519  0.9742  0.4629  0.5050
 8066SOL    HW225640   3.778   2.429   3.441  0.7971  0.0782 -0.1557
 8067SOL     OW25641   2.094   1.264   4.867 -0.3387  0.1108  0.2825
 8067SOL    HW125642   2.058   1.282   4.780 -0.6490  0.8217  0.5546
 8067SOL    HW225643   2.187   1.284   4.858 -0.6935  2.1239  0.6233
 8068SOL     OW25644   3.188   7.581   4.570  0.0231 -0.0022  0.1561
 8068SOL    HW125645   3.133   7.641   4.518  2.2617  1.2475 -0.9288
 8068SOL    HW225646   3.147   7.580   4.656 -0.1443  3.1802  0.2482
 8069SOL     OW25647   2.264   2.798   3.681 -0.1431  0.3714 -0.0383
 8069SOL    HW125648   2.354   2.793   3.713  1.3716 -1.4799 -3.9460
 8069SOL    HW225649   2.250   2.891   3.664  2.0698  0.4970 -1.6508
 8070SOL     OW25650   3.074   1.321   6.133 -0.4404 -0.1703 -0.1968
 8070SOL    HW125651   3.155   1.270   6.141 -0.4368 -0.0578  0.5821
 8070SOL    HW225652   3.099   1.398   6.082  0.3571  0.6843  1.3923
 8071SOL     OW25653   1.352   2.766   6.258 -0.0606  0.2706 -0.0065
 8071SOL    HW125654   1.425   2.819   6.290  0.1362  0.7028 -1.1309
 8071SOL    HW225655   1.365   2.761   6.164 -0.9407 -0.4872 -0.1052
 8072SOL     OW25656   3.322   2.590   4.254 -0.1166  0.3115 -0.3973
 8072SOL    HW125657   3.230   2.576   4.234 -0.0455 -0.1295 -0.4140
 8072SOL    HW225658   3.329   2.685   4.266 -0.2901  0.5273 -1.7885
 8073SOL     OW25659   2.729   0.788   4.489 -0.4655 -0.2912 -0.1440
 8073SOL    HW125660   2.641   0.750   4.493 -0.2774 -0.6782  0.3290
 8073SOL    HW225661   2.749   0.792   4.395 -0.8445 -0.5330 -0.2369
 8074SOL     OW25662   2.137   2.572   2.443  0.1004 -0.7694 -0.1754
 8074SOL    HW125663   2.103   2.646   2.392  2.3998 -0.6847 -1.7198
 8074SOL    HW225664   2.112   2.495   2.392  0.0083 -0.8716  0.0262
 8075SOL     OW25665   2.603   1.337   3.390 -0.1699  0.1776  0.3850
 8075SOL    HW125666   2.537   1.289   3.440 -1.4003  2.1916  0.8086
 8075SOL    HW225667   2.609   1.422   3.434  0.9021  0.9385 -1.1433
 8076SOL     OW25668   1.007   4.240   6.506 -0.1648  0.1630 -0.0362
 8076SOL    HW125669   1.093   4.197   6.504 -1.5361 -2.8391 -2.2161
 8076SOL    HW225670   1.022   4.327   6.469  2.1060  0.2038  0.8292
 8077SOL     OW25671   1.282   3.132   6.410 -0.1770 -0.2762  0.5823
 8077SOL    HW125672   1.238   3.213   6.383  1.9915  0.6778 -0.3029
 8077SOL    HW225673   1.210   3.071   6.427 -1.8407  1.2657 -0.4796
 8078SOL     OW25674   3.605   2.807   5.543  0.5623  0.3915 -0.8879
 8078SOL    HW125675   3.523   2.838   5.583  0.5419  0.3231 -0.8771
 8078SOL    HW225676   3.581   2.790   5.452  0.3151 -0.5898 -0.6537
 8079SOL     OW25677   1.204   1.084   4.676  0.0155  1.0792 -0.0793
 8079SOL    HW125678   1.285   1.041   4.646 -0.3700  0.5993 -0.4567
 8079SOL    HW225679   1.234   1.159   4.727  0.7842 -0.8586  2.5198
 8080SOL     OW25680   1.879   1.052   5.319  0.2465 -0.2624  0.2688
 8080SOL    HW125681   1.834   1.049   5.234 -0.5847 -0.6351  0.7105
 8080SOL    HW225682   1.964   1.010   5.303  0.7977  1.1685 -0.7695
 8081SOL     OW25683   1.677   2.516   4.229  0.1009 -0.1242  0.0463
 8081SOL    HW125684   1.706   2.444   4.284 -1.1565 -0.1311  0.7477
 8081SOL    HW225685   1.668   2.590   4.288  0.8993  0.4843 -0.5755
 8082SOL     OW25686   2.230   2.947   4.403  0.4033 -0.0803 -0.2282
 8082SOL    HW125687   2.229   3.012   4.474 -1.7304 -1.1452  0.8047
 8082SOL    HW225688   2.283   2.875   4.437 -0.0965 -0.3239  0.0433
 8083SOL     OW25689   4.793   3.199   5.605 -0.0432 -0.0766 -0.7050
 8083SOL    HW125690   4.761   3.275   5.653  0.0201 -0.8546  0.6055
 8083SOL    HW225691   4.732   3.191   5.531 -1.2730  0.0502  0.2576
 8084SOL     OW25692   1.557   2.409   6.690  0.2092 -0.4042 -0.2612
 8084SOL    HW125693   1.520   2.384   6.605  0.6495 -0.4923 -0.4338
 8084SOL    HW225694   1.650   2.385   6.682  0.4164  0.3285 -0.0450
 8085SOL     OW25695   2.489   1.119   3.845 -0.0144 -0.4935 -0.0468
 8085SOL    HW125696   2.424   1.067   3.798  0.2417  0.0475 -1.0070
 8085SOL    HW225697   2.438   1.169   3.908 -0.5197 -0.1762 -0.6986
 8086SOL     OW25698   1.673   2.721   4.431 -0.1402 -0.1262  0.2351
 8086SOL    HW125699   1.696   2.753   4.518 -0.5107 -0.7057  0.5434
 8086SOL    HW225700   1.579   2.734   4.424 -0.1717 -0.4446  0.0636
 8087SOL     OW25701   2.213   3.851   4.235  0.4284 -0.1887  0.5416
 8087SOL    HW125702   2.276   3.919   4.210  0.7243 -0.7049 -0.1420
 8087SOL    HW225703   2.166   3.831   4.154  0.2276 -0.6812  0.7743
 8088SOL     OW25704   2.902   3.177   3.268  0.0233 -0.1855 -0.2953
 8088SOL    HW125705   2.853   3.252   3.300 -0.6617 -0.3072 -1.0188
 8088SOL    HW225706   2.875   3.104   3.324  1.8336  0.3768  1.4034
 8089SOL     OW25707   3.236   2.346   3.713 -0.2550 -0.3259 -0.0647
 8089SOL    HW125708   3.230   2.364   3.807  0.9892  1.8310 -0.3430
 8089SOL    HW225709   3.329   2.346   3.694 -0.5050 -0.1364 -1.3890
 8090SOL     OW25710   2.398   2.569   5.137  0.0108 -0.3442  0.3092
 8090SOL    HW125711   2.348   2.531   5.209  1.2819 -2.4768  0.1339
 8090SOL    HW225712   2.360   2.532   5.058  0.9090 -0.8375  0.0956
 8091SOL     OW25713   3.144   2.437   3.971  0.7376  0.7847  0.2369
 8091SOL    HW125714   3.165   2.349   4.002 -0.6121  0.0710 -0.7740
 8091SOL    HW225715   3.108   2.482   4.048 -0.0226 -0.0706  0.3979
 8092SOL     OW25716   2.036   1.909   3.943 -0.0295  0.2152  0.2401
 8092SOL    HW125717   2.056   1.913   3.849  1.6074  3.0652  0.6103
 8092SOL    HW225718   2.086   1.833   3.974  1.1581  0.5118 -0.8459
 8093SOL     OW25719   1.955   5.081   2.555 -0.1312 -0.4052 -0.1157
 8093SOL    HW125720   2.000   5.065   2.472  0.1419 -0.1854 -0.0091
 8093SOL    HW225721   1.968   5.000   2.604  0.4369 -0.2214  0.0457
 8094SOL     OW25722   2.014   0.952   3.211  0.5683 -0.2647 -0.2907
 8094SOL    HW125723   2.002   0.860   3.186 -1.5627  0.3796 -1.9005
 8094SOL    HW225724   1.945   0.999   3.165  1.1518  2.0855  1.0637
 8095SOL     OW25725   2.913   2.316   5.670  0.1132  0.2924 -0.1712
 8095SOL    HW125726   2.856   2.388   5.645 -0.9968 -0.5379 -0.0822
 8095SOL    HW225727   2.931   2.270   5.588 -0.9488 -0.5766  0.0608
 8096SOL     OW25728   1.790   0.880   3.869 -0.5772 -0.5421 -0.2484
 8096SOL    HW125729   1.703   0.846   3.849 -1.0695 -2.2448  3.8244
 8096SOL    HW225730   1.800   0.868   3.963  2.7813  2.7709  0.0915
 8097SOL     OW25731   3.555   2.314   6.570  0.2824  0.4696  0.5916
 8097SOL    HW125732   3.602   2.353   6.644  0.1495  0.1715  0.8309
 8097SOL    HW225733   3.500   2.385   6.537 -1.2915  0.0269  2.1186
 8098SOL     OW25734   3.825   3.113   6.320 -0.2269 -0.0898 -0.0790
 8098SOL    HW125735   3.845   3.019   6.321 -0.9455 -0.4361 -3.5300
 8098SOL    HW225736   3.910   3.156   6.322  0.1092 -0.7582  1.6162
 8099SOL     OW25737   2.025   2.034   3.323 -0.0216 -0.3793 -0.3192
 8099SOL    HW125738   2.010   2.090   3.247  0.1611  0.6680  0.3938
 8099SOL    HW225739   2.110   2.062   3.358 -1.2600  1.0313  1.7971
 8100SOL     OW25740   3.527   2.507   5.231  0.0203 -0.0099  0.3572
 8100SOL    HW125741   3.547   2.430   5.283 -1.0901  0.6924  1.8894
 8100SOL    HW225742   3.613   2.547   5.215  0.4434 -0.6180  1.0379
 8101SOL     OW25743   1.603   3.966   6.286  0.2938  0.1341  0.1677
 8101SOL    HW125744   1.599   3.970   6.191  1.0247  0.3566  0.1395
 8101SOL    HW225745   1.650   4.045   6.311  0.2834 -0.0256  0.7019
 8102SOL     OW25746   3.188   0.686   3.359 -0.1191  0.1773  0.1369
 8102SOL    HW125747   3.266   0.662   3.308  1.2455 -0.4327  2.3952
 8102SOL    HW225748   3.166   0.774   3.327  1.9963  0.7124 -0.0565
 8103SOL     OW25749   2.902   3.936   4.100 -1.4574 -0.1292  0.6698
 8103SOL    HW125750   2.927   3.908   4.012 -3.0429  1.5936 -0.4117
 8103SOL    HW225751   2.980   3.922   4.153  0.3145  0.8737 -1.5135
 8104SOL     OW25752   3.523   2.168   3.035  0.1590 -0.1559 -1.0483
 8104SOL    HW125753   3.562   2.208   2.957 -2.0205  0.9263 -1.6730
 8104SOL    HW225754   3.513   2.240   3.097  2.0387 -1.0408  0.3928
 8105SOL     OW25755   3.101   4.134   5.658 -0.2393 -0.0332  0.2277
 8105SOL    HW125756   3.144   4.136   5.572 -0.3653  2.0477  0.1562
 8105SOL    HW225757   3.174   4.133   5.720 -0.0375  1.5621  0.0807
 8106SOL     OW25758   2.707   1.525   4.097 -0.0111 -0.2361  0.1562
 8106SOL    HW125759   2.740   1.528   4.007 -0.2346 -0.7304  0.0576
 8106SOL    HW225760   2.612   1.527   4.087 -0.0358  1.2785  0.4401
 8107SOL     OW25761   2.259   2.042   2.165  0.0555  0.1509 -0.0799
 8107SOL    HW125762   2.327   2.010   2.224  0.5072 -0.8960 -1.1318
 8107SOL    HW225763   2.177   2.012   2.206  0.2454  0.8966  0.8745
 8108SOL     OW25764   3.728   2.970   5.062 -0.3149  0.3455 -0.1278
 8108SOL    HW125765   3.803   2.963   5.121 -0.2088 -1.0900 -0.3790
 8108SOL    HW225766   3.705   3.062   5.063  0.7150  0.6206  0.8761
 8109SOL     OW25767   2.839   3.496   4.840  0.3150  0.3797  0.4906
 8109SOL    HW125768   2.930   3.466   4.833  0.5260  1.2596 -1.1765
 8109SOL    HW225769   2.845   3.590   4.854 -0.3492  0.3043  1.3554
 8110SOL     OW25770   0.751   2.168   4.890  0.6348  0.5345  0.0458
 8110SOL    HW125771   0.817   2.108   4.925  1.0574  0.0507 -1.5195
 8110SOL    HW225772   0.688   2.111   4.845 -1.1314  0.9444  1.8561
 8111SOL     OW25773   1.925   2.073   4.628  0.3961 -0.2928  0.8362
 8111SOL    HW125774   1.983   2.148   4.623  0.6853 -0.5842 -1.5080
 8111SOL    HW225775   1.945   2.032   4.712  1.4487  1.2651  1.3842
 8112SOL     OW25776   2.412   1.253   3.541  0.1209  0.0336 -0.0052
 8112SOL    HW125777   2.334   1.290   3.500  0.5449  0.4807 -0.4142
 8112SOL    HW225778   2.378   1.194   3.609 -0.5909 -0.7247 -0.9938
 8113SOL     OW25779   3.149   2.736   5.492 -0.2402  0.0139  0.4056
 8113SOL    HW125780   3.200   2.692   5.425  0.4434  0.1386  0.8324
 8113SOL    HW225781   3.168   2.829   5.480 -0.3654  0.0611  0.5631
 8114SOL     OW25782   0.804   4.342   5.566 -0.1781 -0.0390 -0.1378
 8114SOL    HW125783   0.890   4.321   5.530 -0.9018  0.8139 -2.5389
 8114SOL    HW225784   0.814   4.429   5.604  0.4270 -0.6735  1.2159
 8115SOL     OW25785   3.237   2.766   5.065  0.1844  0.0094  0.2303
 8115SOL    HW125786   3.270   2.854   5.081  0.1000  0.1068 -0.1236
 8115SOL    HW225787   3.142   2.775   5.061  0.1713 -0.1078  0.2542
 8116SOL     OW25788   1.627   3.115   6.639  0.0185 -0.0698 -0.5040
 8116SOL    HW125789   1.595   3.050   6.577 -0.1626 -0.8009  0.3278
 8116SOL    HW225790   1.548   3.146   6.683  0.2683 -0.6261  0.3636
 8117SOL     OW25791   4.634   1.531   3.992 -0.5498 -0.1880 -0.3716
 8117SOL    HW125792   4.713   1.491   4.026  1.0142  1.7253 -1.5456
 8117SOL    HW225793   4.565   1.504   4.052  0.5144 -3.7480 -0.5466
 8118SOL     OW25794   3.838   3.282   4.569 -0.2553 -0.3322 -0.4596
 8118SOL    HW125795   3.920   3.268   4.522 -0.0896 -0.7931 -0.0378
 8118SOL    HW225796   3.851   3.238   4.653 -0.9141 -0.3599 -0.3703
 8119SOL     OW25797   2.905   2.993   4.931  0.8294  0.0421  0.1190
 8119SOL    HW125798   2.945   3.080   4.934 -0.6843  0.8285 -0.8076
 8119SOL    HW225799   2.938   2.955   4.849  1.6204 -0.3322  0.6062
 8120SOL     OW25800   2.445   0.780   4.081  0.1748  0.0982  0.1390
 8120SOL    HW125801   2.429   0.872   4.101  0.7609  0.2014  0.1470
 8120SOL    HW225802   2.534   0.764   4.111  0.2970 -0.3102 -0.4182
 8121SOL     OW25803   2.183   2.911   4.901  0.0627 -0.3022  0.3361
 8121SOL    HW125804   2.213   2.887   4.989  0.1165  0.7793  0.6320
 8121SOL    HW225805   2.256   2.888   4.843  0.8625  0.8658  0.8454
 8122SOL     OW25806   3.070   3.853   3.888 -1.0381  0.5117 -0.0058
 8122SOL    HW125807   3.049   3.882   3.800  1.5591  1.3403 -0.4415
 8122SOL    HW225808   3.104   3.764   3.876 -0.8298  0.5653  0.1770
 8123SOL     OW25809   1.733   2.528   6.412  0.3795  0.3512  0.1666
 8123SOL    HW125810   1.781   2.560   6.488 -0.3674 -0.6662  1.0951
 8123SOL    HW225811   1.801   2.484   6.359  0.7516  0.2712  0.6980
 8124SOL     OW25812   4.372   2.468   2.233 -0.2505 -0.0710  0.7316
 8124SOL    HW125813   4.439   2.512   2.181 -0.5401 -0.3974  0.0630
 8124SOL    HW225814   4.420   2.403   2.284 -0.1645 -1.1917 -0.6946
 8125SOL     OW25815   4.742   2.042   4.505 -0.2889 -0.1808 -0.3823
 8125SOL    HW125816   4.740   2.008   4.595 -2.2552  0.4005 -0.1655
 8125SOL    HW225817   4.784   1.973   4.455 -2.4104 -2.1652  0.3910
 8126SOL     OW25818   2.450   3.152   2.415 -0.1743  0.0958  0.0864
 8126SOL    HW125819   2.464   3.112   2.501 -0.3278 -1.5974 -0.6242
 8126SOL    HW225820   2.373   3.208   2.427  0.7709  1.1530  1.4194
 8127SOL     OW25821   2.850   3.407   5.808  0.4803 -0.5975 -0.0252
 8127SOL    HW125822   2.828   3.441   5.721 -0.5642  1.2680  0.8896
 8127SOL    HW225823   2.821   3.316   5.807  1.3723 -0.9107 -1.9152
 8128SOL     OW25824   3.148   2.541   3.121 -0.1921 -0.2036 -0.2079
 8128SOL    HW125825   3.209   2.543   3.048  0.0335 -1.8204 -0.0816
 8128SOL    HW225826   3.203   2.528   3.198 -0.5679 -0.0259  0.0952
 8129SOL     OW25827   2.471   3.527   5.853  0.4532 -0.2007 -0.1198
 8129SOL    HW125828   2.419   3.607   5.845  0.6472 -0.0393  0.1931
 8129SOL    HW225829   2.542   3.551   5.913  1.1845 -0.2574 -0.9309
 8130SOL     OW25830   2.784   1.929   5.321  0.5827  0.1871 -0.0868
 8130SOL    HW125831   2.874   1.944   5.348  0.2202 -0.3557  1.5502
 8130SOL    HW225832   2.762   2.005   5.267  1.4612  1.2194  0.9649
 8131SOL     OW25833   3.009   7.335   4.760 -0.5175  0.3056 -0.1451
 8131SOL    HW125834   3.082   7.273   4.757 -0.9518 -0.2049 -0.3325
 8131SOL    HW225835   2.989   7.354   4.669 -0.4152  0.6946 -0.0894
 8132SOL     OW25836   4.671   2.512   6.937 -0.2729  0.4343  0.5690
 8132SOL    HW125837   4.617   2.436   6.958 -0.9939  0.5772 -0.6958
 8132SOL    HW225838   4.620   2.561   6.873  0.8653  1.1725  0.1948
 8133SOL     OW25839   3.993   0.926   4.080 -0.0019  0.3615  0.0300
 8133SOL    HW125840   3.912   0.879   4.058 -0.3176  0.4857  0.8624
 8133SOL    HW225841   4.003   0.911   4.174  0.7767  0.6111 -0.0125
 8134SOL     OW25842   3.344   3.327   4.182  0.4879 -0.1094 -0.4923
 8134SOL    HW125843   3.438   3.308   4.188  0.8913  0.9472 -2.4855
 8134SOL    HW225844   3.323   3.311   4.090 -0.5692  2.5944 -0.7952
 8135SOL     OW25845   3.807   0.638   3.281 -0.2874 -0.9734  0.3752
 8135SOL    HW125846   3.761   0.591   3.211  1.3141 -1.6320 -0.2590
 8135SOL    HW225847   3.887   0.589   3.295  0.2789  0.2025  1.4125
 8136SOL     OW25848   3.509   3.875   4.960 -0.1119  0.0990  0.0913
 8136SOL    HW125849   3.538   3.955   5.003  0.9278  0.9707 -2.1222
 8136SOL    HW225850   3.571   3.808   4.990  1.0506  0.8505 -0.5763
 8137SOL     OW25851   1.897   2.099   4.336  0.0668 -0.3506  0.3208
 8137SOL    HW125852   1.908   2.072   4.427  0.1316 -1.3786  0.0189
 8137SOL    HW225853   1.892   2.017   4.287  0.2347  0.1920 -0.6273
 8138SOL     OW25854   2.769   2.671   6.635 -0.3606 -0.3792 -0.0554
 8138SOL    HW125855   2.827   2.705   6.568 -0.4705  0.0378  0.0575
 8138SOL    HW225856   2.814   2.594   6.669  0.3000  0.1443  0.2817
 8139SOL     OW25857   1.904   2.708   5.832 -0.6618  0.2496 -0.3699
 8139SOL    HW125858   1.880   2.680   5.920 -0.7877 -1.0947 -0.8073
 8139SOL    HW225859   1.843   2.779   5.811 -0.5259  0.6847  0.6716
 8140SOL     OW25860   3.639   3.697   4.619  0.2128 -0.4735 -0.3685
 8140SOL    HW125861   3.651   3.645   4.698  0.1677  0.0955  0.0108
 8140SOL    HW225862   3.563   3.752   4.637  0.0438 -0.5195 -0.9039
 8141SOL     OW25863   3.519   1.290   2.999 -0.1628  0.5493 -0.1399
 8141SOL    HW125864   3.509   1.209   3.048 -0.3921  0.6951  0.0519
 8141SOL    HW225865   3.482   1.271   2.913  2.7358 -0.6321 -1.2743
 8142SOL     OW25866   0.983   1.010   5.670 -0.6399 -0.2740 -0.1901
 8142SOL    HW125867   1.062   1.062   5.681 -1.1353  0.1635  1.6139
 8142SOL    HW225868   0.913   1.075   5.661 -1.0325 -0.6439  0.1543
 8143SOL     OW25869   1.719   1.738   3.756 -0.0008  0.3715 -0.0304
 8143SOL    HW125870   1.711   1.828   3.726 -0.9993  0.4784  0.5400
 8143SOL    HW225871   1.783   1.699   3.696  0.6611  1.5238 -0.1048
 8144SOL     OW25872   3.322   3.352   3.130  0.1959  0.0760  0.1690
 8144SOL    HW125873   3.406   3.329   3.170  0.1697  1.3376  0.9935
 8144SOL    HW225874   3.256   3.321   3.192  0.0294 -0.9226 -0.4828
 8145SOL     OW25875   3.226   4.107   3.674  0.5882  0.2506 -0.0613
 8145SOL    HW125876   3.225   4.148   3.761  1.5123 -0.5528  0.3576
 8145SOL    HW225877   3.136   4.077   3.660  0.9254 -2.0735  1.8804
 8146SOL     OW25878   3.144   3.859   4.554 -0.3539  0.8551  0.7120
 8146SOL    HW125879   3.114   3.848   4.644  0.3419 -0.6733  0.7835
 8146SOL    HW225880   3.238   3.874   4.562  0.0919 -1.3775  0.1754
 8147SOL     OW25881   2.100   3.550   3.439  0.2132  0.1153  0.4302
 8147SOL    HW125882   2.132   3.498   3.513 -0.6086 -1.2183 -0.1162
 8147SOL    HW225883   2.005   3.553   3.452  0.1160  0.3136 -0.2967
 8148SOL     OW25884   3.183   1.692   3.449  0.1577 -0.1114  0.4112
 8148SOL    HW125885   3.172   1.774   3.401 -1.0539  0.2458  1.2255
 8148SOL    HW225886   3.271   1.697   3.486  0.8796 -0.1329 -1.2334
 8149SOL     OW25887   3.809   3.974   5.106 -0.6160  0.5799  0.2808
 8149SOL    HW125888   3.739   4.040   5.105  1.0920  2.4948  0.1416
 8149SOL    HW225889   3.889   4.024   5.121  0.6666 -1.6376  1.3723
 8150SOL     OW25890   2.880   0.804   5.392 -0.3446 -0.5036  0.0592
 8150SOL    HW125891   2.908   0.794   5.301 -0.1398 -0.2040  0.0858
 8150SOL    HW225892   2.889   0.897   5.410 -0.4899 -0.5433  0.3537
 8151SOL     OW25893   1.218   1.339   2.914  0.3901  0.6258 -0.5264
 8151SOL    HW125894   1.142   1.362   2.968  0.7124  1.4529 -0.4278
 8151SOL    HW225895   1.284   1.311   2.977 -0.5632 -2.4419 -0.6956
 8152SOL     OW25896   1.975   2.423   4.908 -0.4023 -0.2988  0.1897
 8152SOL    HW125897   2.065   2.446   4.934 -0.4929 -0.8073  0.9836
 8152SOL    HW225898   1.921   2.490   4.950 -0.3603  0.3431 -0.7555
 8153SOL     OW25899   1.975   1.192   5.657  0.1273 -0.3673 -0.1181
 8153SOL    HW125900   1.978   1.146   5.574  1.3748 -1.4502  0.5113
 8153SOL    HW225901   1.881   1.199   5.677 -0.3501  1.6488 -2.5046
 8154SOL     OW25902   1.237   1.239   3.353 -0.2830  0.2489  0.1314
 8154SOL    HW125903   1.163   1.288   3.317 -0.2712 -0.8293 -1.4591
 8154SOL    HW225904   1.235   1.155   3.307  0.7810 -0.5549  1.4696
 8155SOL     OW25905   2.693   3.798   5.216  0.1998 -0.4244 -0.2890
 8155SOL    HW125906   2.618   3.761   5.170  1.3563 -0.1597 -2.5071
 8155SOL    HW225907   2.680   3.892   5.210  0.4897 -0.3854 -0.3015
 8156SOL     OW25908   3.285   0.575   3.897  0.2276 -0.1549 -0.2245
 8156SOL    HW125909   3.381   0.572   3.907  0.2919 -0.1100 -0.8280
 8156SOL    HW225910   3.257   0.639   3.963  0.6664  0.2332 -0.4025
 8157SOL     OW25911   2.281   4.365   4.127  0.1995  0.8240  0.1962
 8157SOL    HW125912   2.271   4.376   4.032 -0.9295  0.1140  0.2114
 8157SOL    HW225913   2.239   4.442   4.165 -2.3425 -0.4231  0.1594
 8158SOL     OW25914   2.814   2.392   3.400  0.1123  0.2335 -0.4015
 8158SOL    HW125915   2.832   2.456   3.332 -0.1184 -0.3323 -1.0081
 8158SOL    HW225916   2.898   2.376   3.442  0.4847 -0.2237 -1.2854
 8159SOL     OW25917   3.018   2.561   4.197  1.0679 -0.5612 -0.0272
 8159SOL    HW125918   2.924   2.549   4.186  1.0809 -2.9389  1.7616
 8159SOL    HW225919   3.026   2.647   4.239 -0.3629 -0.6142  0.4168
 8160SOL     OW25920   3.049   3.238   4.916  0.2293  0.3803 -0.1160
 8160SOL    HW125921   3.120   3.238   4.980 -0.1339 -0.2061  0.3042
 8160SOL    HW225922   3.081   3.291   4.843  1.7538 -1.1767 -0.6547
 8161SOL     OW25923   2.500   3.955   6.831 -0.4020  0.4164  0.3146
 8161SOL    HW125924   2.452   4.014   6.889 -1.2986 -0.8554  0.9402
 8161SOL    HW225925   2.578   3.931   6.880 -0.7099  0.0488  0.6341
 8162SOL     OW25926   2.763   0.769   4.211  0.1575  0.5971 -0.3753
 8162SOL    HW125927   2.810   0.685   4.214 -0.1692  0.3642 -1.4157
 8162SOL    HW225928   2.829   0.833   4.186  0.3567  0.6227  0.1914
 8163SOL     OW25929   2.342   5.668   3.460  0.0018  0.5816 -0.2807
 8163SOL    HW125930   2.300   5.582   3.460 -0.8179  0.9450  1.2148
 8163SOL    HW225931   2.419   5.657   3.404 -0.3128 -0.9961 -0.4544
 8164SOL     OW25932   3.566   2.229   5.346  0.1978 -0.1487  0.4620
 8164SOL    HW125933   3.660   2.224   5.361  0.0675 -0.2611  1.3197
 8164SOL    HW225934   3.543   2.143   5.311  0.5052  0.1017 -0.3936
 8165SOL     OW25935   2.395   1.975   2.633  0.4026  0.2412  0.3650
 8165SOL    HW125936   2.467   1.918   2.661  0.5270  0.3613  0.2878
 8165SOL    HW225937   2.399   2.050   2.692 -1.0779 -0.7899  1.8986
 8166SOL     OW25938   3.111   3.212   4.524 -0.0705 -0.3175 -0.0826
 8166SOL    HW125939   3.198   3.192   4.559  0.3038  2.1608  0.5545
 8166SOL    HW225940   3.117   3.302   4.492 -2.2025 -0.3430 -0.7287
 8167SOL     OW25941   0.999   1.174   4.996  0.6700 -0.5023  0.0094
 8167SOL    HW125942   0.988   1.188   4.902 -1.1167  0.3797  0.3012
 8167SOL    HW225943   1.088   1.204   5.014 -0.0461  2.5151 -0.9020
 8168SOL     OW25944   1.104   1.993   5.185 -0.1810 -0.1146  0.1221
 8168SOL    HW125945   1.120   2.077   5.228 -0.5889  0.0248  0.0091
 8168SOL    HW225946   1.180   1.940   5.207  1.3330  1.0885 -1.8602
 8169SOL     OW25947   1.449   2.228   8.538 -0.1146 -0.3459 -0.4080
 8169SOL    HW125948   1.390   2.296   8.571  0.1084 -0.8301  1.0560
 8169SOL    HW225949   1.492   2.269   8.463  0.2582  1.2679  0.6287
 8170SOL     OW25950   2.877   2.482   7.332  0.1508 -0.0434  0.2018
 8170SOL    HW125951   2.880   2.577   7.346  1.2297 -0.3778  2.7777
 8170SOL    HW225952   2.785   2.459   7.347  0.3191  0.3415  2.1198
 8171SOL     OW25953   2.691   2.741   5.677  0.9529  0.6038  0.5741
 8171SOL    HW125954   2.656   2.799   5.745  0.5932  0.2128  0.7228
 8171SOL    HW225955   2.786   2.758   5.679  0.8214  1.4287  0.3834
 8172SOL     OW25956   2.458   1.617   4.660  0.0047  0.2309  0.1471
 8172SOL    HW125957   2.438   1.543   4.718  0.4173 -0.3123 -0.4005
 8172SOL    HW225958   2.538   1.655   4.696  1.8422 -1.7745 -1.6058
 8173SOL     OW25959   2.957   3.443   5.549 -0.4216  0.0017  0.2199
 8173SOL    HW125960   3.027   3.501   5.579 -0.3988 -0.1978  0.5573
 8173SOL    HW225961   2.911   3.494   5.482  0.5238 -0.1575 -0.5703
 8174SOL     OW25962   3.047   3.880   7.530  0.4512  0.2135 -0.4967
 8174SOL    HW125963   3.115   3.812   7.531  0.7648  0.4682 -1.9818
 8174SOL    HW225964   3.096   3.962   7.537  0.1798  0.3378 -0.0574
 8175SOL     OW25965   2.244   4.634   6.401 -0.2755 -0.5116 -0.0940
 8175SOL    HW125966   2.263   4.633   6.495 -2.9901  1.2828  0.6092
 8175SOL    HW225967   2.278   4.719   6.372 -0.6911 -0.4536 -0.4092
 8176SOL     OW25968   2.537   2.082   6.927  0.0234 -0.2445  0.2768
 8176SOL    HW125969   2.598   2.016   6.895  1.2819  0.6461  0.7861
 8176SOL    HW225970   2.578   2.166   6.906 -3.7621  0.8425 -5.2268
 8177SOL     OW25971   1.494   4.063   6.668 -0.0214  0.1923  0.0311
 8177SOL    HW125972   1.520   3.972   6.650 -0.6216 -0.0249  0.2417
 8177SOL    HW225973   1.430   4.083   6.600  2.2285  1.4559 -1.8223
 8178SOL     OW25974   1.121   2.542   8.583 -0.3335 -0.6638 -0.4458
 8178SOL    HW125975   1.148   2.587   8.503  1.2138 -1.4645 -0.4069
 8178SOL    HW225976   1.028   2.561   8.590 -0.2772  0.3346 -1.8384
 8179SOL     OW25977   2.848   2.749   5.967 -0.2135 -0.1028 -0.0580
 8179SOL    HW125978   2.753   2.755   5.955 -0.1757  0.7396 -0.0204
 8179SOL    HW225979   2.877   2.840   5.974  0.4221 -0.3832  1.3328
 8180SOL     OW25980   2.865   2.001   4.122  0.1255 -0.2418  0.1506
 8180SOL    HW125981   2.859   2.065   4.050  0.8174 -0.3015  0.0314
 8180SOL    HW225982   2.782   2.010   4.169 -0.4023 -0.3041 -0.7373
 8181SOL     OW25983   2.968   0.944   7.315  0.9723  0.2787  0.1459
 8181SOL    HW125984   2.877   0.942   7.284  1.3562  1.6609 -1.1686
 8181SOL    HW225985   3.000   0.855   7.300  0.5130  0.3702 -1.6314
 8182SOL     OW25986   2.871   3.382   4.320 -0.1126  0.2081  0.4220
 8182SOL    HW125987   2.783   3.419   4.312 -1.2279 -2.5489 -1.6712
 8182SOL    HW225988   2.923   3.452   4.358 -2.6785  2.8021 -0.4726
 8183SOL     OW25989   1.779   4.248   5.048 -0.0232  0.7504  0.0392
 8183SOL    HW125990   1.766   4.165   5.094 -0.5240  1.0489  0.4430
 8183SOL    HW225991   1.866   4.240   5.008 -0.2891 -0.1775 -0.3739
 8184SOL     OW25992   1.632   0.846   5.847 -0.0494  0.2540 -0.0003
 8184SOL    HW125993   1.722   0.865   5.821  0.5438 -1.3063  0.7629
 8184SOL    HW225994   1.580   0.858   5.767  0.5814  2.4966 -0.1371
 8185SOL     OW25995   2.840   3.037   5.584 -0.1621 -0.1541  0.4750
 8185SOL    HW125996   2.921   3.089   5.580 -0.9268  1.1488  1.1132
 8185SOL    HW225997   2.862   2.963   5.640  0.2814  0.8334  1.6593
 8186SOL     OW25998   1.243   2.057   5.554 -0.2963  0.1771 -0.5355
 8186SOL    HW125999   1.221   2.069   5.646 -0.2855 -0.8825 -0.3754
 8186SOL    HW226000   1.321   2.001   5.555  0.1072  0.7089 -1.1755
 8187SOL     OW26001   0.266   2.894   6.405  0.3849 -0.0868 -0.2316
 8187SOL    HW126002   0.361   2.884   6.412  0.6483  2.0936  0.2009
 8187SOL    HW226003   0.254   2.983   6.373 -1.4883 -1.6059 -4.3531
 8188SOL     OW26004   2.903   4.406   5.744  0.0553  0.2023 -0.4610
 8188SOL    HW126005   2.910   4.319   5.783 -0.6895  0.6311  0.6697
 8188SOL    HW226006   2.817   4.406   5.701 -0.4366  0.7412  0.4986
 8189SOL     OW26007   2.627   2.781   5.045 -0.0539 -0.0748 -0.7614
 8189SOL    HW126008   2.630   2.763   5.139  0.7063 -0.7994 -0.9124
 8189SOL    HW226009   2.595   2.871   5.039  0.1783  0.0837  0.2083
 8190SOL     OW26010   1.136   2.675   8.308 -0.0600 -0.4338  0.1557
 8190SOL    HW126011   1.118   2.653   8.217 -0.3756 -1.2643  0.3985
 8190SOL    HW226012   1.221   2.718   8.307 -0.4728  0.3866 -0.6277
 8191SOL     OW26013   1.848   2.126   6.426 -0.1282 -0.1820  0.3439
 8191SOL    HW126014   1.775   2.183   6.403  1.9567  2.6654  0.2401
 8191SOL    HW226015   1.846   2.057   6.360 -2.4185  0.0602  0.0886
 8192SOL     OW26016   3.864   3.373   7.228 -0.0113 -0.2661  0.2069
 8192SOL    HW126017   3.799   3.311   7.194  0.4852 -0.5384 -0.2596
 8192SOL    HW226018   3.833   3.459   7.199 -0.0145 -0.4245 -0.2603
 8193SOL     OW26019   2.939   2.506   5.446  0.0067 -0.2210  0.3559
 8193SOL    HW126020   2.976   2.594   5.450 -0.5194  0.1494 -1.6724
 8193SOL    HW226021   2.994   2.460   5.382  0.6802 -1.6195  1.8634
 8194SOL     OW26022   3.390   2.005   7.557  0.1022 -0.3756 -0.1393
 8194SOL    HW126023   3.377   2.099   7.565  1.1212 -0.1422 -1.0624
 8194SOL    HW226024   3.386   1.972   7.647  0.3608  0.6245  0.2418
 8195SOL     OW26025   4.506   2.386   7.293 -0.6831 -0.3562  0.6899
 8195SOL    HW126026   4.484   2.441   7.368 -1.0686 -1.0339  1.0871
 8195SOL    HW226027   4.439   2.405   7.228 -0.3838  0.1889  0.5432
 8196SOL     OW26028   3.479   3.676   7.859  0.0105 -0.4137 -0.7134
 8196SOL    HW126029   3.385   3.667   7.847  0.2167 -2.5759 -1.0986
 8196SOL    HW226030   3.499   3.766   7.831 -2.1595  0.7856  1.2254
 8197SOL     OW26031   4.029   1.870   7.764 -0.5752  0.2842 -0.1546
 8197SOL    HW126032   4.065   1.881   7.676  0.1596 -2.6656 -0.3127
 8197SOL    HW226033   4.093   1.911   7.822  0.4877 -0.3871 -0.8158
 8198SOL     OW26034   3.598   3.040   5.959 -0.2302 -0.0602  0.2294
 8198SOL    HW126035   3.623   3.059   5.869 -1.5696  0.1151 -0.1260
 8198SOL    HW226036   3.536   3.108   5.982  0.9582  0.5784  1.7126
 8199SOL     OW26037   2.718   1.348   6.062  0.0109 -0.3087 -0.2330
 8199SOL    HW126038   2.802   1.361   6.107 -0.3457 -0.4231  0.4925
 8199SOL    HW226039   2.690   1.261   6.089 -0.8419  0.1512  0.3927
 8200SOL     OW26040   3.184   1.483   6.464  0.1280 -0.3311  0.1708
 8200SOL    HW126041   3.140   1.462   6.547 -4.2482  0.1323 -1.7643
 8200SOL    HW226042   3.201   1.577   6.468  0.7427 -0.4616  0.8288
 8201SOL     OW26043   2.852   0.034   7.588  0.7523  0.2050 -0.1781
 8201SOL    HW126044   2.821   0.117   7.624  0.8530  0.8015 -1.4132
 8201SOL    HW226045   2.925   0.009   7.644  0.4419  0.7138  0.4692
 8202SOL     OW26046   0.913   1.926   6.677 -0.5919 -0.0479 -0.7506
 8202SOL    HW126047   0.930   2.013   6.715  0.0199 -0.8084  0.8172
 8202SOL    HW226048   0.951   1.865   6.740  0.6729 -1.4200 -2.7315
 8203SOL     OW26049   3.750   2.544   6.440 -0.0597 -0.4580  0.3318
 8203SOL    HW126050   3.769   2.574   6.351 -1.3013  0.4367  0.3413
 8203SOL    HW226051   3.834   2.547   6.485  0.2312  1.1831 -0.2277
 8204SOL     OW26052   3.559   3.215   6.330 -0.2148  0.0376  0.1827
 8204SOL    HW126053   3.580   3.309   6.335  0.6725 -0.1856  0.9336
 8204SOL    HW226054   3.645   3.172   6.329 -0.4465 -0.9490  4.0346
 8205SOL     OW26055   2.879   4.137   6.869  0.6732  0.7369 -0.3172
 8205SOL    HW126056   2.861   4.132   6.775  0.2420 -1.0878 -0.1865
 8205SOL    HW226057   2.954   4.079   6.882 -0.3092 -0.3898  0.6528
 8206SOL     OW26058   1.522   5.064   5.339 -0.1560  0.0341 -0.3498
 8206SOL    HW126059   1.539   5.138   5.397 -0.4790 -0.4377  0.3667
 8206SOL    HW226060   1.484   4.998   5.396 -2.2427  0.2135 -1.4481
 8207SOL     OW26061   1.948   3.112   6.113  0.8434  0.1516  0.0113
 8207SOL    HW126062   2.027   3.163   6.133 -0.2290  2.7185 -1.7947
 8207SOL    HW226063   1.964   3.077   6.025 -0.0878  0.8799 -0.4625
 8208SOL     OW26064   2.327   5.035   6.352 -0.7784  1.0505  0.1157
 8208SOL    HW126065   2.384   5.018   6.426  0.3510  1.6679 -0.5765
 8208SOL    HW226066   2.337   4.959   6.295 -1.8282  0.4669  0.6891
 8209SOL     OW26067   2.194   3.473   3.703  0.5305 -0.5546 -0.1707
 8209SOL    HW126068   2.265   3.536   3.698  0.2118 -0.2558 -1.0890
 8209SOL    HW226069   2.178   3.462   3.797  0.4658  0.8829  0.0086
 8210SOL     OW26070   1.999   2.044   8.051  0.3529 -0.3802  0.2110
 8210SOL    HW126071   2.069   2.045   8.117 -2.1919  1.3314  3.1175
 8210SOL    HW226072   1.984   1.951   8.034  1.6612 -0.8438  1.3586
 8211SOL     OW26073   2.391   3.446   6.982  0.0913  0.8461  0.0516
 8211SOL    HW126074   2.461   3.501   6.948  1.0524 -0.1751  0.3515
 8211SOL    HW226075   2.362   3.491   7.062  1.0711  0.7645  0.4620
 8212SOL     OW26076   1.332   4.595   6.527 -0.3855 -0.1731  0.0079
 8212SOL    HW126077   1.240   4.612   6.548 -0.1014  0.5947  0.6710
 8212SOL    HW226078   1.356   4.521   6.582 -1.2832 -2.0791 -2.0000
 8213SOL     OW26079   2.468   2.316   3.646  0.0940 -0.4691 -0.8878
 8213SOL    HW126080   2.428   2.403   3.652  0.5225 -0.2556 -1.0671
 8213SOL    HW226081   2.515   2.317   3.563  1.6920 -0.1824 -0.0391
 8214SOL     OW26082   3.970   4.151   7.241  0.5207 -0.5330  0.5811
 8214SOL    HW126083   3.988   4.108   7.158 -1.1685 -0.7748  0.3050
 8214SOL    HW226084   4.056   4.168   7.278  1.3151 -0.5764 -1.1284
 8215SOL     OW26085   1.604   3.344   5.842 -0.2965 -0.0503  0.2539
 8215SOL    HW126086   1.528   3.286   5.838 -1.5944  1.3851  2.5251
 8215SOL    HW226087   1.649   3.320   5.923 -0.0239  1.1264  0.4729
 8216SOL     OW26088   3.214   1.531   5.993  0.2484  0.0207 -0.2719
 8216SOL    HW126089   3.258   1.518   5.909  1.3458  0.2398  0.2528
 8216SOL    HW226090   3.164   1.612   5.980  2.3563  1.4741  0.0037
 8217SOL     OW26091   3.384   2.865   7.360  0.1438 -0.8389  0.3746
 8217SOL    HW126092   3.307   2.918   7.381  0.4139 -0.1811 -0.2550
 8217SOL    HW226093   3.457   2.927   7.361  0.7518 -1.5435  1.4423
 8218SOL     OW26094   2.342   2.939   6.360 -0.7353 -0.4206 -0.1087
 8218SOL    HW126095   2.306   2.995   6.429  0.1891  2.8040 -1.9916
 8218SOL    HW226096   2.330   2.990   6.280  0.8039 -2.7103 -1.9442
 8219SOL     OW26097   7.922   1.669   8.257  0.3437  0.3649  0.1987
 8219SOL    HW126098   7.871   1.731   8.309  1.2984  1.8487 -0.5593
 8219SOL    HW226099   8.010   1.672   8.296  0.1132 -1.5640  1.0014
 8220SOL     OW26100   1.766   3.675   4.753  0.5320  0.5767 -0.0151
 8220SOL    HW126101   1.671   3.685   4.764  0.8684  3.7873  0.8909
 8220SOL    HW226102   1.785   3.586   4.785 -1.8900  0.5989  1.7357
 8221SOL     OW26103   1.811   1.747   6.752  0.3297 -0.0558  0.1608
 8221SOL    HW126104   1.862   1.744   6.833  0.7551 -2.4648 -0.1261
 8221SOL    HW226105   1.786   1.656   6.736 -2.5661  0.7861 -0.6760
 8222SOL     OW26106   3.527   4.875   6.599 -0.1631 -0.2467 -0.4949
 8222SOL    HW126107   3.499   4.794   6.642  0.1763  0.9090  2.1181
 8222SOL    HW226108   3.602   4.850   6.546  0.2791 -1.5590  0.7017
 8223SOL     OW26109   1.598   4.179   5.451  0.2152  0.0707 -0.2950
 8223SOL    HW126110   1.516   4.144   5.416 -0.3625  0.9147  0.1891
 8223SOL    HW226111   1.606   4.137   5.537 -0.0493  0.4844 -0.0664
 8224SOL     OW26112   1.128   2.626   6.218  0.2385 -0.2162  0.4246
 8224SOL    HW126113   1.216   2.661   6.234 -0.3715  0.4711  2.5883
 8224SOL    HW226114   1.141   2.554   6.156  2.1544  0.6356 -0.2341
 8225SOL     OW26115   4.817   1.831   6.776  0.3123  0.3439 -0.2029
 8225SOL    HW126116   4.851   1.911   6.815  0.2105 -0.2507  1.1630
 8225SOL    HW226117   4.876   1.812   6.703  1.2114  0.8561  0.3804
 8226SOL     OW26118   2.439   1.570   5.959  0.0511 -0.1171 -0.2023
 8226SOL    HW126119   2.443   1.531   5.872 -0.9980 -2.1499  0.6129
 8226SOL    HW226120   2.430   1.664   5.942 -0.4904 -0.4937 -2.2886
 8227SOL     OW26121   1.131   2.610   7.314 -0.5425 -0.3138  0.2031
 8227SOL    HW126122   1.147   2.579   7.403 -0.4582  0.2915  0.4027
 8227SOL    HW226123   1.118   2.705   7.323  1.3698  0.0654 -0.6545
 8228SOL     OW26124   2.249   4.707   6.841 -0.3407 -0.4540  0.0847
 8228SOL    HW126125   2.324   4.719   6.782 -1.0070  1.4114 -0.4401
 8228SOL    HW226126   2.288   4.677   6.923  0.9320 -0.0925 -0.3656
 8229SOL     OW26127   2.958   3.167   6.875 -0.3103  0.0942  0.2752
 8229SOL    HW126128   2.917   3.226   6.937  1.0975  0.3548  0.9937
 8229SOL    HW226129   3.049   3.195   6.871  0.0812 -1.1747 -0.3958
 8230SOL     OW26130   1.843   2.701   6.127  0.4497  0.0475  0.1433
 8230SOL    HW126131   1.827   2.616   6.169  0.8521 -0.2429 -0.2799
 8230SOL    HW226132   1.862   2.760   6.199 -0.7719  0.0054  0.5239
 8231SOL     OW26133   1.688   2.367   6.071  0.1288  0.2784 -0.1398
 8231SOL    HW126134   1.629   2.381   5.996  0.5780  1.1348 -0.3453
 8231SOL    HW226135   1.772   2.402   6.041  0.3985  0.3022  0.6405
 8232SOL     OW26136   1.426   1.918   6.025 -0.5588 -0.1201  0.3858
 8232SOL    HW126137   1.446   1.888   6.114  0.2542 -0.6342  0.0324
 8232SOL    HW226138   1.456   2.009   6.023  0.6193 -0.5078  0.2394
 8233SOL     OW26139   3.742   2.828   6.346  0.1184 -0.4997 -0.3043
 8233SOL    HW126140   3.726   2.804   6.255 -0.6810 -1.5261  0.0933
 8233SOL    HW226141   3.659   2.865   6.376  0.4342  0.0082 -0.0375
 8234SOL     OW26142   3.668   1.650   5.955 -0.1157  0.2906  0.4834
 8234SOL    HW126143   3.676   1.658   5.860 -1.4189  1.1237  0.4291
 8234SOL    HW226144   3.574   1.644   5.972 -0.0298  1.9738  1.8380
 8235SOL     OW26145   4.834   2.636   6.600 -0.0110  0.0410  0.2147
 8235SOL    HW126146   4.902   2.640   6.534 -0.9114 -1.3923 -0.8640
 8235SOL    HW226147   4.790   2.721   6.595 -0.3402 -0.1889 -1.3755
 8236SOL     OW26148   2.722   3.628   5.910  0.2310 -0.3335 -0.9424
 8236SOL    HW126149   2.758   3.544   5.880 -1.4011 -2.0766  1.5421
 8236SOL    HW226150   2.751   3.635   6.001 -0.7428  1.1717 -0.7025
 8237SOL     OW26151   2.920   3.329   6.509  0.3249  0.0503  0.5967
 8237SOL    HW126152   2.918   3.369   6.596  2.2001 -0.8625  1.1192
 8237SOL    HW226153   2.886   3.240   6.524  0.3906 -0.0178  0.3335
 8238SOL     OW26154   3.392   1.499   4.634 -0.0974 -0.6914 -0.1430
 8238SOL    HW126155   3.391   1.563   4.563 -2.1815  0.8430  1.1555
 8238SOL    HW226156   3.465   1.526   4.690 -1.9271  1.7531  1.2780
 8239SOL     OW26157   2.447   3.941   7.283 -0.4068  0.0669  0.0223
 8239SOL    HW126158   2.433   3.996   7.360 -3.0152 -0.7603  0.2413
 8239SOL    HW226159   2.438   3.851   7.317 -2.1714 -0.3004 -1.2664
 8240SOL     OW26160   2.522   4.513   7.179  0.1577  0.0485 -0.2164
 8240SOL    HW126161   2.559   4.433   7.217 -0.8013 -1.0057 -1.4034
 8240SOL    HW226162   2.578   4.583   7.212  1.5445 -1.1920  0.2091
 8241SOL     OW26163   3.097   2.623   6.188  0.2503 -0.0062  0.2864
 8241SOL    HW126164   3.148   2.679   6.247 -0.4821 -0.3482  1.2657
 8241SOL    HW226165   3.092   2.539   6.233  1.1799 -0.8330 -1.0886
 8242SOL     OW26166   2.173   1.375   5.697  0.4378  0.2517 -0.2217
 8242SOL    HW126167   2.123   1.293   5.694  0.2784  0.3763 -0.9303
 8242SOL    HW226168   2.167   1.411   5.609  0.2980  1.1579  0.1438
 8243SOL     OW26169   4.792   2.958   5.063 -0.0602  0.3965 -0.7823
 8243SOL    HW126170   4.712   2.962   5.011 -1.0886  1.1430  0.8063
 8243SOL    HW226171   4.809   3.049   5.088  1.5340  0.3131 -1.4128
 8244SOL     OW26172   2.876   3.039   6.621 -0.2529  0.3191 -0.0397
 8244SOL    HW126173   2.930   3.060   6.697  0.9607  0.8727 -1.0235
 8244SOL    HW226174   2.788   3.069   6.645 -0.2900 -1.1096  1.8011
 8245SOL     OW26175   3.331   1.896   6.158  0.0197 -0.2107 -0.1108
 8245SOL    HW126176   3.405   1.957   6.155 -1.9108  2.3827  0.9675
 8245SOL    HW226177   3.299   1.892   6.068  1.0342 -0.8443 -0.4594
 8246SOL     OW26178   3.147   3.614   5.998 -0.4530 -0.5030 -0.1418
 8246SOL    HW126179   3.224   3.647   6.044 -1.3758  1.1741  0.2690
 8246SOL    HW226180   3.145   3.663   5.916 -0.3667 -1.4945 -0.7519
 8247SOL     OW26181   3.401   2.550   6.487  0.5325  0.0565 -0.1824
 8247SOL    HW126182   3.351   2.631   6.474  0.9115  0.4663  0.8381
 8247SOL    HW226183   3.381   2.497   6.410 -0.9007  0.5054 -0.1379
 8248SOL     OW26184   1.399   3.177   7.211 -0.0220 -0.4128 -0.1660
 8248SOL    HW126185   1.412   3.082   7.212  1.2205 -0.3029  2.6874
 8248SOL    HW226186   1.467   3.212   7.269 -0.0209  2.3272 -1.6248
 8249SOL     OW26187   1.383   4.169   6.093 -0.0245  0.2918 -0.0884
 8249SOL    HW126188   1.358   4.167   6.185  0.5841  0.8467  0.0920
 8249SOL    HW226189   1.467   4.214   6.091  0.6657 -0.9495 -0.7643
 8250SOL     OW26190   4.098   3.760   7.238 -0.5797  0.7406  0.2169
 8250SOL    HW126191   4.120   3.670   7.263 -1.3963  0.3389 -0.4589
 8250SOL    HW226192   4.175   3.791   7.191 -0.6701  0.0462 -0.4038
 8251SOL     OW26193   3.688   3.905   6.638  0.5591  0.2881 -0.4551
 8251SOL    HW126194   3.753   3.854   6.687  0.2404  0.4239  0.1213
 8251SOL    HW226195   3.700   3.878   6.547  1.9377  0.8610 -0.4729
 8252SOL     OW26196   5.096   2.641   6.480 -0.3260  0.0306 -0.1457
 8252SOL    HW126197   5.148   2.699   6.425 -1.2379  3.0036  1.9207
 8252SOL    HW226198   5.161   2.600   6.538  0.3012 -1.0203 -1.5175
 8253SOL     OW26199   3.855   0.282   8.289  0.5110 -0.2550  0.2350
 8253SOL    HW126200   3.886   0.357   8.239  1.3706 -0.1355  0.9189
 8253SOL    HW226201   3.847   0.211   8.225 -0.5857  0.4727 -0.4683
 8254SOL     OW26202   1.527   3.915   7.766  0.8373 -0.1191  0.0562
 8254SOL    HW126203   1.610   3.926   7.718  1.3122 -0.7052  0.7119
 8254SOL    HW226204   1.554   3.903   7.857 -0.1439  3.4336  0.9619
 8255SOL     OW26205   2.049   4.154   5.508  0.4671  0.6198  0.0432
 8255SOL    HW126206   2.128   4.125   5.462 -0.0537 -0.9426  0.0595
 8255SOL    HW226207   1.987   4.082   5.496 -0.1373  0.7409  2.0856
 8256SOL     OW26208   1.714   1.708   9.127 -0.7868  0.0030  0.4485
 8256SOL    HW126209   1.730   1.718   9.033 -0.8624  1.7840  0.5964
 8256SOL    HW226210   1.621   1.687   9.133 -1.2518  1.8323  0.1913
 8257SOL     OW26211   3.360   2.329   6.923 -0.1018 -0.3237  0.0812
 8257SOL    HW126212   3.430   2.391   6.942  0.5067 -0.3522 -1.8259
 8257SOL    HW226213   3.381   2.252   6.976  0.4183  0.2525  0.7214
 8258SOL     OW26214   3.256   4.279   7.093 -0.3070  0.1878 -0.2131
 8258SOL    HW126215   3.311   4.357   7.085 -1.1977  0.9431  0.7264
 8258SOL    HW226216   3.294   4.216   7.032  1.4151  0.7738  0.2014
 8259SOL     OW26217   2.591   4.341   6.018 -0.1789 -0.0634  0.4444
 8259SOL    HW126218   2.684   4.359   6.027 -0.2041 -0.2364  1.0872
 8259SOL    HW226219   2.549   4.393   6.087 -0.6165  0.4808 -0.2191
 8260SOL     OW26220   1.760   1.773   6.489 -0.0562 -0.4176  0.1798
 8260SOL    HW126221   1.827   1.829   6.452  1.2054 -0.8212  1.7575
 8260SOL    HW226222   1.783   1.764   6.582 -1.8303 -1.2240  0.6020
 8261SOL     OW26223   2.904   4.151   5.386 -0.0393  0.1261  0.1279
 8261SOL    HW126224   2.970   4.123   5.449  0.2634  0.0505 -0.2180
 8261SOL    HW226225   2.881   4.071   5.339 -1.5678 -0.1789  1.3184
 8262SOL     OW26226   2.183   2.693   6.361 -0.2549  0.3161 -0.2908
 8262SOL    HW126227   2.244   2.767   6.369 -0.8483  0.7398  0.4707
 8262SOL    HW226228   2.222   2.625   6.415 -0.0922  0.3360 -0.3822
 8263SOL     OW26229   2.859   2.211   6.122 -0.8831  0.2128 -0.1256
 8263SOL    HW126230   2.932   2.153   6.145 -0.9629  0.7298  1.5860
 8263SOL    HW226231   2.883   2.248   6.038  0.0957 -0.8013 -0.3222
 8264SOL     OW26232   2.755   2.735   7.344 -0.1781 -0.2308  0.2311
 8264SOL    HW126233   2.694   2.707   7.275  0.6642 -0.8518 -0.2811
 8264SOL    HW226234   2.759   2.830   7.335  0.0028 -0.3127 -0.6464
 8265SOL     OW26235   4.402   2.774   8.109 -0.2234  0.2477  0.0808
 8265SOL    HW126236   4.314   2.814   8.110 -0.3429 -0.0255  0.9622
 8265SOL    HW226237   4.457   2.839   8.065 -1.3560 -0.6708 -2.9301
 8266SOL     OW26238   3.244   1.861   8.651 -0.2799 -0.2982  0.1412
 8266SOL    HW126239   3.273   1.870   8.560  0.5487  0.1859  0.4365
 8266SOL    HW226240   3.287   1.933   8.696 -0.6307 -0.5793  0.9334
 8267SOL     OW26241   1.686   3.800   5.582 -0.3014 -0.2427 -0.3187
 8267SOL    HW126242   1.649   3.739   5.518 -0.3101  0.3275 -0.8698
 8267SOL    HW226243   1.702   3.747   5.660  0.2865 -1.0954 -1.0015
 8268SOL     OW26244   2.633   3.086   6.962  0.5240 -0.3857 -0.5133
 8268SOL    HW126245   2.665   2.998   6.939 -1.1701 -1.5326  1.2394
 8268SOL    HW226246   2.639   3.135   6.880 -0.1177 -2.6447 -2.0047
 8269SOL     OW26247   3.789   2.546   7.298  0.0153 -0.0793  0.3996
 8269SOL    HW126248   3.846   2.471   7.314  0.7121  0.3517 -0.0390
 8269SOL    HW226249   3.827   2.617   7.349 -1.5399 -0.3867  2.1164
 8270SOL     OW26250   2.920   3.688   6.128  0.1994 -0.1734 -0.1545
 8270SOL    HW126251   2.908   3.627   6.201 -0.7351  0.5074  0.2976
 8270SOL    HW226252   3.001   3.661   6.086  0.5094 -0.8759  0.8592
 8271SOL     OW26253   1.000   2.119   3.734 -0.1838  0.1012  0.8109
 8271SOL    HW126254   1.027   2.078   3.817 -1.9692 -0.5326  1.1280
 8271SOL    HW226255   1.055   2.077   3.668  0.0592 -0.6598  1.4769
 8272SOL     OW26256   2.096   1.737   5.309  0.1725  0.0147 -0.7248
 8272SOL    HW126257   2.024   1.755   5.370 -1.0229 -1.8510 -1.4984
 8272SOL    HW226258   2.059   1.755   5.223 -0.2585 -3.2350 -1.3347
 8273SOL     OW26259   3.526   2.796   8.263 -0.2605 -0.5170  0.0950
 8273SOL    HW126260   3.582   2.750   8.201  0.2541  0.0243  0.1482
 8273SOL    HW226261   3.473   2.855   8.208  1.2871  1.1121  0.2524
 8274SOL     OW26262   0.815   0.268   6.426 -0.4981 -0.1302 -0.2522
 8274SOL    HW126263   0.810   0.209   6.502  0.2238 -0.1036 -0.1802
 8274SOL    HW226264   0.854   0.349   6.461  1.8019 -0.8168 -1.0333
 8275SOL     OW26265   3.745   2.241   3.689  0.2091 -0.4066 -0.3665
 8275SOL    HW126266   3.788   2.291   3.758 -0.3318 -0.5824  0.1012
 8275SOL    HW226267   3.702   2.169   3.734  0.1584 -0.7373 -0.9258
 8276SOL     OW26268   4.763   2.900   6.547  0.2940 -0.0573 -0.4082
 8276SOL    HW126269   4.735   2.975   6.599  2.2026  0.3539  0.1131
 8276SOL    HW226270   4.806   2.940   6.471 -1.5644 -0.6549 -1.8558
 8277SOL     OW26271   3.075   3.701   6.917  0.4843 -0.0450  0.2553
 8277SOL    HW126272   3.162   3.661   6.921  0.6571  0.3621  0.7262
 8277SOL    HW226273   3.085   3.772   6.853  0.3206 -0.4108 -0.1800
 8278SOL     OW26274   1.939   2.259   8.447 -0.2517 -0.7089 -0.3216
 8278SOL    HW126275   1.953   2.165   8.439 -1.1823 -0.9669  0.8096
 8278SOL    HW226276   1.998   2.298   8.382  1.0174 -2.0051  0.0062
 8279SOL     OW26277   2.821   1.964   4.751  0.5243  0.5728 -0.2100
 8279SOL    HW126278   2.859   2.048   4.725  0.1693  0.9071  0.3161
 8279SOL    HW226279   2.730   1.969   4.721  0.6105  0.2062 -0.5369
 8280SOL     OW26280   4.112   2.490   5.243 -0.0659  0.1133 -0.4502
 8280SOL    HW126281   4.059   2.543   5.302 -0.9210 -0.8440 -0.3297
 8280SOL    HW226282   4.131   2.548   5.169 -3.9190 -0.3555 -2.0105
 8281SOL     OW26283   2.731   4.554   4.424  0.0954  0.0486 -0.2834
 8281SOL    HW126284   2.759   4.497   4.496 -1.5908 -0.3714  0.0649
 8281SOL    HW226285   2.769   4.514   4.346  2.4963  0.8599  0.3677
 8282SOL     OW26286   2.756   3.845   5.753 -0.3028 -0.3870  0.3529
 8282SOL    HW126287   2.726   3.781   5.818 -2.3231 -1.0450 -1.1221
 8282SOL    HW226288   2.738   3.930   5.794  2.1036 -0.6717  2.1960
 8283SOL     OW26289   0.232   1.475   5.716 -0.0442  0.3199  0.4967
 8283SOL    HW126290   0.221   1.432   5.800  2.5196 -0.3253  0.6066
 8283SOL    HW226291   0.228   1.404   5.652  1.0583  0.3296  0.3924
 8284SOL     OW26292   3.023   3.297   7.130  0.2031  0.6678 -0.1424
 8284SOL    HW126293   3.017   3.206   7.158  0.2819  0.6911 -0.0474
 8284SOL    HW226294   3.096   3.299   7.069  0.5854  0.7768  0.3095
 8285SOL     OW26295   0.936   3.747   6.936  0.0473 -0.1477 -0.3852
 8285SOL    HW126296   0.953   3.686   6.864  1.0341  0.4735 -0.7042
 8285SOL    HW226297   0.986   3.825   6.913 -1.6686  1.0309 -0.3036
 8286SOL     OW26298   1.985   4.154   8.382  0.2712 -0.0225 -0.3925
 8286SOL    HW126299   1.895   4.153   8.415  1.0526  0.6998  1.9417
 8286SOL    HW226300   2.011   4.246   8.384  0.9266 -0.1645 -1.5018
 8287SOL     OW26301   2.337   2.384   6.134  0.1308  0.0533  0.2207
 8287SOL    HW126302   2.392   2.308   6.115 -0.4468 -0.4947  0.6891
 8287SOL    HW226303   2.261   2.348   6.179  0.0712  0.9573  0.8880
 8288SOL     OW26304   1.591   1.948   5.356 -0.0809  0.2840 -0.3954
 8288SOL    HW126305   1.653   2.020   5.367  0.0156  0.1028  0.2979
 8288SOL    HW226306   1.509   1.990   5.330  0.1685  0.5777 -0.7074
 8289SOL     OW26307   0.879   3.571   9.145  0.1970  0.2603 -0.0322
 8289SOL    HW126308   0.828   3.497   9.177  0.1613  0.4570  0.3855
 8289SOL    HW226309   0.925   3.603   9.223  0.8021  0.2036 -0.3626
 8290SOL     OW26310   1.484   2.357   5.527 -0.8478 -0.1259  0.1630
 8290SOL    HW126311   1.495   2.274   5.572 -1.2320 -0.4317 -0.2887
 8290SOL    HW226312   1.393   2.382   5.545 -0.8808 -0.0479 -0.1036
 8291SOL     OW26313   3.490   3.290   7.123  0.0211 -0.1729  0.1750
 8291SOL    HW126314   3.511   3.342   7.045 -0.8780 -2.0530 -1.4074
 8291SOL    HW226315   3.568   3.236   7.137  0.1491  0.1028  0.5508
 8292SOL     OW26316   1.910   3.956   6.346 -0.2464 -0.6036 -0.1562
 8292SOL    HW126317   1.829   3.911   6.325 -0.0252 -1.4737  0.7588
 8292SOL    HW226318   1.967   3.888   6.381  1.1513 -0.1381 -1.4577
 8293SOL     OW26319   4.371   1.900   5.583 -0.4288  0.3571  0.4522
 8293SOL    HW126320   4.457   1.940   5.571 -0.7032  0.3150 -2.1163
 8293SOL    HW226321   4.355   1.906   5.678  2.0629  0.9849  0.9013
 8294SOL     OW26322   2.423   1.404   7.564 -0.4951  0.3576  0.4295
 8294SOL    HW126323   2.477   1.342   7.612 -1.5066  2.3710  4.6801
 8294SOL    HW226324   2.477   1.482   7.556 -0.7591  0.4350 -0.7825
 8295SOL     OW26325   1.127   1.160   7.390  0.3916  0.2658 -0.0413
 8295SOL    HW126326   1.155   1.151   7.299 -1.0859 -1.3299 -0.3907
 8295SOL    HW226327   1.103   1.252   7.399  0.6447  0.4641 -1.2314
 8296SOL     OW26328   0.596   3.911   7.299  0.4649  0.3035 -0.4296
 8296SOL    HW126329   0.532   3.958   7.352  0.5663  1.7209 -1.5116
 8296SOL    HW226330   0.680   3.952   7.319  0.5369  0.7097 -1.5001
 8297SOL     OW26331   1.523   2.365   6.373 -0.0645 -0.7261 -0.2260
 8297SOL    HW126332   1.519   2.330   6.285  0.0142 -0.7819 -0.2084
 8297SOL    HW226333   1.592   2.432   6.369  0.4011 -1.1896 -0.0514
 8298SOL     OW26334   2.426   3.686   7.397  0.3218  0.3818  0.2254
 8298SOL    HW126335   2.493   3.732   7.446 -0.2611  0.8344  0.6140
 8298SOL    HW226336   2.371   3.644   7.464 -0.2454  0.6768 -0.0483
 8299SOL     OW26337   2.214   3.421   6.741 -0.5849  0.5049 -0.3888
 8299SOL    HW126338   2.141   3.386   6.791  0.3290  0.5730  1.0385
 8299SOL    HW226339   2.285   3.430   6.804  1.0707 -0.7289 -1.9564
 8300SOL     OW26340   3.575   2.816   6.117  0.3320  0.2273  0.4232
 8300SOL    HW126341   3.589   2.883   6.051  3.0839  0.9456  1.5914
 8300SOL    HW226342   3.503   2.849   6.170  2.1987  2.8204  1.5316
 8301SOL     OW26343   2.775   3.595   5.378  0.1765  0.3815 -0.9895
 8301SOL    HW126344   2.728   3.607   5.461  2.9143  1.6331  0.5210
 8301SOL    HW226345   2.762   3.678   5.332  0.0063  0.3080 -1.0744
 8302SOL     OW26346   0.997   4.447   6.731  0.5370 -0.1715  0.0358
 8302SOL    HW126347   1.014   4.486   6.645 -0.0905  0.2975  0.1153
 8302SOL    HW226348   1.030   4.358   6.724  0.5205 -0.1309 -0.6852
 8303SOL     OW26349   3.786   2.521   6.162  0.5888 -0.2310  0.1841
 8303SOL    HW126350   3.731   2.541   6.086  0.7766  0.7252  0.2807
 8303SOL    HW226351   3.858   2.584   6.157  0.5500 -0.0843  1.1963
 8304SOL     OW26352   2.901   2.827   6.422  0.2789 -0.1728 -0.5744
 8304SOL    HW126353   2.990   2.829   6.387  1.4207 -1.1800  2.0732
 8304SOL    HW226354   2.894   2.906   6.475 -0.2014 -0.4151 -0.2698
 8305SOL     OW26355   2.488   4.087   7.541  0.3499 -0.0566  0.0976
 8305SOL    HW126356   2.471   4.179   7.561  1.2792 -0.0007  0.6782
 8305SOL    HW226357   2.566   4.089   7.486  1.2858 -0.5751  1.3713
 8306SOL     OW26358   3.295   3.119   5.840  0.3580 -0.0629  0.4631
 8306SOL    HW126359   3.283   3.214   5.840 -1.6105 -0.2577  1.7011
 8306SOL    HW226360   3.274   3.092   5.929 -2.7403 -1.9938 -0.6894
 8307SOL     OW26361   2.743   3.925   6.508 -0.3640  0.1411 -0.0076
 8307SOL    HW126362   2.749   3.869   6.585 -1.0106 -1.9517 -1.3791
 8307SOL    HW226363   2.825   3.911   6.461 -0.6733  0.0640 -0.5340
 8308SOL     OW26364   1.294   1.763   5.195 -0.5546 -0.5689  0.3005
 8308SOL    HW126365   1.386   1.783   5.176 -0.1429 -2.0012  0.6498
 8308SOL    HW226366   1.254   1.748   5.110 -0.1147 -1.3369  0.2275
 8309SOL     OW26367   3.257   1.477   7.982 -0.5324 -0.0275 -0.2606
 8309SOL    HW126368   3.195   1.549   7.993 -0.4694 -0.1365  0.9440
 8309SOL    HW226369   3.201   1.399   7.976 -0.5456 -0.2621  1.9448
 8310SOL     OW26370   0.776   0.975   5.934 -0.1254  0.0583  0.2046
 8310SOL    HW126371   0.741   0.943   5.851 -0.7740 -0.9732  0.8481
 8310SOL    HW226372   0.764   1.070   5.930 -2.4835 -0.1729  0.1069
 8311SOL     OW26373   2.223   4.463   5.940 -0.1599 -0.3679  0.0908
 8311SOL    HW126374   2.247   4.418   5.859 -3.2371  0.1688 -1.2557
 8311SOL    HW226375   2.188   4.395   5.997 -0.5047 -0.3536 -0.1040
 8312SOL     OW26376   3.085   1.992   6.750  0.8560 -0.3648  0.6405
 8312SOL    HW126377   3.130   1.909   6.736  0.0850 -0.7386  0.3675
 8312SOL    HW226378   3.109   2.018   6.839  0.8766 -1.0044  0.8202
 8313SOL     OW26379   2.934   1.083   6.185 -1.0006  0.0306  0.0437
 8313SOL    HW126380   2.849   1.109   6.150 -0.0970  0.5123 -1.9196
 8313SOL    HW226381   2.993   1.155   6.162  0.0332 -0.4504  1.0525
 8314SOL     OW26382   2.088   4.491   6.851 -0.1656  0.3535  0.3624
 8314SOL    HW126383   2.134   4.575   6.848 -0.2288  0.3486 -1.5573
 8314SOL    HW226384   2.055   4.478   6.762 -1.7386 -0.8434  1.0720
 8315SOL     OW26385   3.471   2.828   6.496  0.2125  0.0577  0.3071
 8315SOL    HW126386   3.409   2.867   6.558  1.0365 -0.2269  1.3509
 8315SOL    HW226387   3.443   2.860   6.411 -0.5171  1.0561  0.8956
 8316SOL     OW26388   2.157   3.826   6.701  0.1681  0.2435  0.2922
 8316SOL    HW126389   2.210   3.903   6.720 -0.0653  0.5933 -0.4509
 8316SOL    HW226390   2.143   3.785   6.786  1.0010  0.5523  0.5904
 8317SOL     OW26391   3.444   2.354   3.937 -0.4438 -0.3427 -0.2906
 8317SOL    HW126392   3.476   2.344   4.027 -1.4632 -0.3808  0.0738
 8317SOL    HW226393   3.418   2.445   3.930 -1.2699 -0.5689 -0.2389
 8318SOL     OW26394   6.378   2.106   5.674 -0.1017  0.2637 -0.1846
 8318SOL    HW126395   6.447   2.171   5.666 -1.4568  1.5325 -2.4775
 8318SOL    HW226396   6.418   2.024   5.647  0.8224  0.7168 -0.2159
 8319SOL     OW26397   2.684   4.831   5.074 -0.2496 -0.1583 -0.4239
 8319SOL    HW126398   2.701   4.738   5.057 -0.6814 -0.1161 -1.1079
 8319SOL    HW226399   2.734   4.877   5.007 -1.3309  0.0390 -1.1261
 8320SOL     OW26400   2.510   3.033   7.530 -0.0516 -0.3772 -0.7955
 8320SOL    HW126401   2.596   3.044   7.571 -0.5885 -0.0435  0.2685
 8320SOL    HW226402   2.502   3.108   7.470 -0.6516  1.0939  1.0241
 8321SOL     OW26403   3.673   1.014   5.903  0.4751  0.4930  0.1618
 8321SOL    HW126404   3.744   0.951   5.912 -0.1543 -0.1973  0.3351
 8321SOL    HW226405   3.594   0.966   5.928  0.2177  1.9305  2.4455
 8322SOL     OW26406   2.207   3.410   6.140 -0.1203 -0.0229 -0.2808
 8322SOL    HW126407   2.251   3.334   6.104  0.4691  0.6417 -0.9782
 8322SOL    HW226408   2.134   3.426   6.081  0.2270  0.4326 -0.5889
 8323SOL     OW26409   4.136   2.065   6.657  0.5137  0.0290 -0.3714
 8323SOL    HW126410   4.068   2.100   6.600  0.8166  1.3446  0.0295
 8323SOL    HW226411   4.210   2.125   6.646  1.3497 -0.9492 -0.2389
 8324SOL     OW26412   0.708   1.432   4.657 -0.3994 -0.2189 -0.1669
 8324SOL    HW126413   0.635   1.416   4.717  0.7765 -2.7985  0.7267
 8324SOL    HW226414   0.783   1.447   4.714 -0.2309  3.0316 -1.0721
 8325SOL     OW26415   3.499   3.286   6.037 -0.2069 -0.1772  0.2707
 8325SOL    HW126416   3.485   3.310   6.129 -1.2479  1.2114 -0.2086
 8325SOL    HW226417   3.581   3.328   6.013 -1.3632  1.9654 -0.1894
 8326SOL     OW26418   2.634   3.794   7.511  0.4145  0.1724 -0.0304
 8326SOL    HW126419   2.705   3.730   7.504  0.3349 -0.0962  1.4212
 8326SOL    HW226420   2.678   3.879   7.506  0.7059  0.0112 -0.2557
 8327SOL     OW26421   1.952   1.761   7.289  0.6773  0.1271 -0.0389
 8327SOL    HW126422   1.982   1.688   7.343  1.0518  2.1415  2.7416
 8327SOL    HW226423   1.860   1.774   7.315 -0.1957 -0.8459 -2.3821
 8328SOL     OW26424   3.679   4.183   6.607  0.5281  0.1166  0.1172
 8328SOL    HW126425   3.652   4.241   6.678 -0.3349 -0.7155  0.4952
 8328SOL    HW226426   3.714   4.105   6.651 -0.9354 -0.8378 -0.2993
 8329SOL     OW26427   3.108   4.111   7.325  0.1854 -0.6378  0.1293
 8329SOL    HW126428   3.175   4.171   7.291 -0.9223  0.6431  0.0876
 8329SOL    HW226429   3.121   4.113   7.420  0.3319 -0.5401  0.1083
 8330SOL     OW26430   2.937   2.519   5.118  0.2061  0.1003 -0.2398
 8330SOL    HW126431   2.932   2.614   5.111  0.6359  0.0828 -0.8051
 8330SOL    HW226432   2.847   2.492   5.139 -0.1229  0.5566 -1.0277
 8331SOL     OW26433   3.617   1.793   6.553 -0.1081  0.2683  0.5734
 8331SOL    HW126434   3.522   1.802   6.557  0.0807  3.3319  0.4107
 8331SOL    HW226435   3.646   1.800   6.644  0.0922  3.1701  0.3897
 8332SOL     OW26436   2.106   3.255   5.210 -0.2833 -0.3384 -0.0120
 8332SOL    HW126437   2.021   3.216   5.189 -0.4877  0.2057 -0.2208
 8332SOL    HW226438   2.122   3.318   5.139  0.3022 -0.4493  0.0163
 8333SOL     OW26439   4.917   0.562   6.613  0.1803 -0.3317  0.1446
 8333SOL    HW126440   4.930   0.541   6.520  0.4125 -0.0664  0.1145
 8333SOL    HW226441   4.845   0.506   6.640  0.0833 -0.3837 -0.2080
 8334SOL     OW26442   2.500   1.758   4.980  0.7380 -0.5503  0.1826
 8334SOL    HW126443   2.542   1.843   4.964  1.9459 -1.0036  0.8156
 8334SOL    HW226444   2.406   1.777   4.979  1.0028  0.9302  1.0233
 8335SOL     OW26445   3.092   3.121   5.608 -0.2100  0.0291 -0.5555
 8335SOL    HW126446   3.142   3.139   5.528  0.5462 -1.8880 -0.5704
 8335SOL    HW226447   3.152   3.141   5.679 -0.5516  0.8017 -0.4733
 8336SOL     OW26448   3.188   2.735   6.434 -0.4140  0.1131 -0.5528
 8336SOL    HW126449   3.129   2.675   6.481 -0.9848  0.5738 -0.6734
 8336SOL    HW226450   3.203   2.807   6.495 -2.0012  1.2447 -1.4117
 8337SOL     OW26451   3.558   2.787   7.101  0.0757 -0.3579 -0.0045
 8337SOL    HW126452   3.520   2.797   7.188  0.0531  0.2692 -0.0837
 8337SOL    HW226453   3.637   2.841   7.103 -0.5011  0.5266 -0.7135
 8338SOL     OW26454   3.322   0.678   5.628 -0.3414  0.6478  0.2033
 8338SOL    HW126455   3.277   0.598   5.601 -1.6745  1.0972  1.0019
 8338SOL    HW226456   3.289   0.695   5.716  2.8122 -0.0284  1.6553
 8339SOL     OW26457   1.971   3.345   6.882 -0.5963 -0.8327 -0.2905
 8339SOL    HW126458   1.896   3.286   6.881 -0.4935 -1.0223 -2.3905
 8339SOL    HW226459   1.938   3.427   6.918 -2.1867 -0.5196 -2.2703
 8340SOL     OW26460   0.290   1.942   6.848  0.8859 -0.0887 -0.3928
 8340SOL    HW126461   0.264   1.930   6.756 -0.4002  2.2053 -0.4122
 8340SOL    HW226462   0.278   1.855   6.888  0.9160 -0.9944 -2.2477
 8341SOL     OW26463   2.771   4.165   6.617  0.0174  0.0489 -0.2344
 8341SOL    HW126464   2.850   4.202   6.577  0.5266  0.1365  0.7956
 8341SOL    HW226465   2.757   4.082   6.571  1.5604 -0.6559  0.4806
 8342SOL     OW26466   3.893   0.924   7.008 -0.0250 -1.0400  0.2900
 8342SOL    HW126467   3.955   0.981   7.052 -0.2931 -0.7618  0.3084
 8342SOL    HW226468   3.810   0.970   7.013 -0.1363 -1.1876 -0.1605
 8343SOL     OW26469   1.278   1.183   4.993  0.4050  0.1356 -0.1136
 8343SOL    HW126470   1.301   1.123   5.064  0.7194  0.6890  0.2580
 8343SOL    HW226471   1.328   1.262   5.011 -0.2006  0.6092 -0.4520
 8344SOL     OW26472   2.331   3.555   7.669 -0.1661 -0.0108  1.1472
 8344SOL    HW126473   2.382   3.611   7.729 -0.6195  0.8226  0.7768
 8344SOL    HW226474   2.377   3.471   7.670  0.7089  0.4541  1.4921
 8345SOL     OW26475   3.151   3.143   6.601 -0.4122 -0.1601 -0.2514
 8345SOL    HW126476   3.124   3.160   6.511 -2.3098  1.7216  0.5809
 8345SOL    HW226477   3.180   3.228   6.634 -1.3703 -0.4245  1.3786
 8346SOL     OW26478   3.177   2.840   7.769 -0.1801  0.1236  0.0973
 8346SOL    HW126479   3.141   2.765   7.720  2.0281 -0.7461 -0.3459
 8346SOL    HW226480   3.165   2.914   7.710 -0.0752 -0.3838 -0.5789
 8347SOL     OW26481   3.574   2.254   5.642 -0.4243 -0.3896 -0.5130
 8347SOL    HW126482   3.550   2.266   5.550 -0.9725 -1.1944 -0.4823
 8347SOL    HW226483   3.494   2.275   5.690 -0.9509 -2.4939 -0.3766
 8348SOL     OW26484   2.571   2.095   6.471  0.3171  0.2912 -0.0305
 8348SOL    HW126485   2.639   2.032   6.447  0.7458  0.3440  0.9849
 8348SOL    HW226486   2.615   2.180   6.467  0.2812  0.3381  0.4800
 8349SOL     OW26487   3.957   4.067   6.529 -0.2274 -0.0975 -0.1323
 8349SOL    HW126488   3.887   4.101   6.474  0.3769 -1.9985 -2.2334
 8349SOL    HW226489   3.945   3.972   6.528  1.9188 -0.4197  0.0540
 8350SOL     OW26490   3.089   2.621   5.918  0.1373 -0.0943  0.6048
 8350SOL    HW126491   3.104   2.618   6.012 -0.4233  1.3120  0.7615
 8350SOL    HW226492   3.002   2.659   5.909  0.3858  0.2480 -0.4916
 8351SOL     OW26493   1.015   1.657   5.688  0.0647  0.1595  0.1003
 8351SOL    HW126494   1.100   1.686   5.656  1.2405 -2.5186  0.5154
 8351SOL    HW226495   0.953   1.687   5.621  1.4452  1.2678 -0.7428
 8352SOL     OW26496   3.072   1.897   7.689 -0.5446  0.4234  0.0490
 8352SOL    HW126497   3.091   1.818   7.638 -1.5500 -0.4166  0.9396
 8352SOL    HW226498   3.158   1.926   7.720 -0.2697 -1.0043  0.7023
 8353SOL     OW26499   0.950   3.378   4.804 -0.6787  0.1601  0.1091
 8353SOL    HW126500   0.973   3.457   4.854 -0.3292 -0.3667  0.7934
 8353SOL    HW226501   1.002   3.384   4.724 -0.7778  0.7082  0.0818
 8354SOL     OW26502   2.746   2.216   5.158  0.2157  0.2379  0.3275
 8354SOL    HW126503   2.725   2.307   5.138 -1.0935  0.0272  0.6187
 8354SOL    HW226504   2.663   2.169   5.144  1.3857 -1.3258 -2.2011
 8355SOL     OW26505   2.933   1.344   6.416 -0.4016 -0.0874  0.4906
 8355SOL    HW126506   2.953   1.395   6.338 -0.1391  1.2137  1.3818
 8355SOL    HW226507   3.018   1.318   6.451 -0.1395  3.5207  3.0163
 8356SOL     OW26508   3.510   2.153   8.446 -0.0155  0.4866 -0.2821
 8356SOL    HW126509   3.580   2.169   8.509 -0.9401  0.8915  0.6773
 8356SOL    HW226510   3.430   2.153   8.499 -0.5651 -2.2406 -0.9868
 8357SOL     OW26511   3.728   2.454   7.790 -0.0392  0.3256 -0.1539
 8357SOL    HW126512   3.738   2.386   7.723  2.9317  0.6373 -0.1542
 8357SOL    HW226513   3.699   2.531   7.742  0.8595  0.2143 -0.8994
 8358SOL     OW26514   2.244   3.693  10.148  0.6266  0.9017  0.1977
 8358SOL    HW126515   2.327   3.735  10.125  0.5274  1.4774  0.8418
 8358SOL    HW226516   2.220   3.733  10.232  0.0740  0.1946  0.3828
 8359SOL     OW26517   3.438   1.856   8.378  0.6483 -0.0308 -0.0435
 8359SOL    HW126518   3.534   1.856   8.380  0.7144  2.2902 -0.4398
 8359SOL    HW226519   3.415   1.927   8.318 -1.3218 -0.4063  0.2024
 8360SOL     OW26520   1.548   5.462   6.642  0.3984 -0.5247  0.0511
 8360SOL    HW126521   1.544   5.382   6.589  1.9491  1.0091 -2.6025
 8360SOL    HW226522   1.637   5.494   6.630 -0.8058  2.8802 -1.0662
 8361SOL     OW26523   2.313   3.092   8.011  0.2053 -0.3229  0.1546
 8361SOL    HW126524   2.407   3.107   8.000  0.0749  0.8657  0.6086
 8361SOL    HW226525   2.273   3.176   7.993 -0.9860 -1.2823 -2.1823
 8362SOL     OW26526   3.413   1.812   9.689 -0.3169 -0.4699 -0.0477
 8362SOL    HW126527   3.429   1.740   9.627  1.5339  0.4958 -0.7675
 8362SOL    HW226528   3.500   1.836   9.720 -0.7347  2.3787 -0.8727
 8363SOL     OW26529   3.056   2.094   7.993 -0.3949 -0.5735  0.3466
 8363SOL    HW126530   3.009   2.054   7.920 -0.2738 -2.3288  1.1654
 8363SOL    HW226531   3.083   2.180   7.961 -2.7301 -0.1606 -0.7089
 8364SOL     OW26532   0.731   4.121  10.017  0.8985  0.5270  0.1556
 8364SOL    HW126533   0.729   4.027   9.997  1.0637  0.7562 -1.0192
 8364SOL    HW226534   0.651   4.137  10.066 -0.2925  0.1607 -1.5528
 8365SOL     OW26535   3.028   3.227   7.924  0.6041  0.1851 -0.2232
 8365SOL    HW126536   2.947   3.274   7.941  1.1233  0.0296  3.3254
 8365SOL    HW226537   3.096   3.295   7.924  1.1596 -0.2003  3.3500
 8366SOL     OW26538   2.585   2.729   9.777  0.0310 -0.4748 -0.6610
 8366SOL    HW126539   2.656   2.736   9.841 -1.2345 -2.0607  1.0501
 8366SOL    HW226540   2.549   2.641   9.792 -2.2478  0.2552 -1.4766
 8367SOL     OW26541   3.054   3.442   8.817 -0.4086 -0.8042  0.1351
 8367SOL    HW126542   3.149   3.441   8.829 -0.2240 -0.2798 -1.1626
 8367SOL    HW226543   3.027   3.529   8.847 -0.3614 -0.6441 -0.2814
 8368SOL     OW26544   2.321   2.953   7.213 -0.0861 -0.0439 -0.0378
 8368SOL    HW126545   2.360   3.024   7.163 -0.3467  0.0659 -0.0861
 8368SOL    HW226546   2.276   2.996   7.285 -2.0965  0.0294 -1.2629
 8369SOL     OW26547   1.039   4.122   8.816  0.1183  0.1528 -0.0312
 8369SOL    HW126548   1.129   4.145   8.795  0.2339 -1.4351 -1.5356
 8369SOL    HW226549   0.992   4.128   8.732 -0.6776 -1.0900  0.2885
 8370SOL     OW26550   2.742   2.798  11.003 -0.6479 -0.8050  0.4822
 8370SOL    HW126551   2.795   2.770  11.077 -0.1588  0.1609  0.5169
 8370SOL    HW226552   2.802   2.795  10.928 -1.0204 -1.3512  0.1884
 8371SOL     OW26553   3.810   3.733   6.918  0.4207 -0.1015 -0.6825
 8371SOL    HW126554   3.904   3.714   6.921  0.4062 -0.4413 -1.7753
 8371SOL    HW226555   3.778   3.681   6.845 -0.5734  0.2400 -0.5031
 8372SOL     OW26556   2.176   3.105   8.752 -0.2642  0.1220 -0.0630
 8372SOL    HW126557   2.262   3.082   8.718  0.5052 -0.1601  1.8983
 8372SOL    HW226558   2.193   3.173   8.818 -1.4259 -0.5039  0.9420
 8373SOL     OW26559   3.217   2.854   9.683 -0.1123 -0.1510 -0.6635
 8373SOL    HW126560   3.249   2.902   9.760  2.1301  0.7966 -2.0889
 8373SOL    HW226561   3.194   2.923   9.620  0.2478 -0.9062 -1.6491
 8374SOL     OW26562   2.875   2.280   8.132 -0.4979 -0.4946 -0.2846
 8374SOL    HW126563   2.937   2.214   8.100 -0.5609  0.0630 -1.6053
 8374SOL    HW226564   2.892   2.357   8.079 -2.0139 -0.1814 -0.3720
 8375SOL     OW26565   3.287   3.095   7.087  0.2065 -0.7320 -0.1657
 8375SOL    HW126566   3.248   3.129   7.007 -0.1025  0.5927  0.5312
 8375SOL    HW226567   3.366   3.147   7.100  0.2725 -0.9544  0.3760
 8376SOL     OW26568   1.363   4.812   9.064  0.4023  0.4360 -0.4597
 8376SOL    HW126569   1.446   4.782   9.026  0.3392 -0.8893  0.3812
 8376SOL    HW226570   1.388   4.873   9.133  0.7445 -0.6830  0.4291
 8377SOL     OW26571   4.267   2.758   7.755  0.5487 -0.1962  0.7942
 8377SOL    HW126572   4.180   2.755   7.714  0.9174 -2.0347  0.0518
 8377SOL    HW226573   4.281   2.851   7.774 -1.7925  0.1049  1.4344
 8378SOL     OW26574   1.470   3.414   7.632 -0.0117  0.0086  0.0970
 8378SOL    HW126575   1.511   3.497   7.607 -1.2842  0.9543  1.0014
 8378SOL    HW226576   1.487   3.405   7.725  0.6649 -1.0967 -0.1144
 8379SOL     OW26577   3.131   1.463   7.392  0.0678 -0.1297  0.3226
 8379SOL    HW126578   3.211   1.440   7.439  0.8771  1.2904 -0.2873
 8379SOL    HW226579   3.162   1.485   7.304 -1.2709 -1.6581 -0.5879
 8380SOL     OW26580   4.087   3.540   8.144 -0.1527 -0.2936 -0.1350
 8380SOL    HW126581   4.092   3.555   8.049 -0.4687 -0.0918 -0.1234
 8380SOL    HW226582   4.001   3.500   8.157  0.3087 -1.2761 -0.0537
 8381SOL     OW26583   2.167   1.477   8.017  0.0362 -0.1734 -0.6579
 8381SOL    HW126584   2.091   1.424   8.041 -0.5963 -0.7832 -3.6196
 8381SOL    HW226585   2.131   1.563   7.997  0.4654  0.1573 -0.0711
 8382SOL     OW26586   2.319   3.765   8.328 -0.5752 -0.6075 -0.3049
 8382SOL    HW126587   2.389   3.700   8.320 -0.4280 -0.3181 -1.7985
 8382SOL    HW226588   2.316   3.787   8.421  1.2748 -0.6825 -0.1898
 8383SOL     OW26589   2.317   3.985   7.722 -0.0358 -0.3076 -0.5568
 8383SOL    HW126590   2.396   4.025   7.687  1.9688 -0.7302  2.9398
 8383SOL    HW226591   2.250   4.052   7.715  1.3522  1.0687 -1.1836
 8384SOL     OW26592   3.934   1.472   8.428 -0.0078  0.0577  0.3959
 8384SOL    HW126593   3.854   1.449   8.475  0.0208 -2.2780 -0.5745
 8384SOL    HW226594   3.960   1.392   8.383  1.3665  1.4962 -1.5633
 8385SOL     OW26595   2.514   3.498   9.298 -0.0815  0.3790 -0.9757
 8385SOL    HW126596   2.581   3.540   9.353 -1.6576  0.1526  1.2354
 8385SOL    HW226597   2.481   3.569   9.243 -0.2105  1.2669  0.1868
 8386SOL     OW26598   3.384   2.935   8.096  0.3862 -0.1302 -0.0476
 8386SOL    HW126599   3.363   2.896   8.011 -1.4968  1.0200 -0.1659
 8386SOL    HW226600   3.371   3.029   8.083 -0.1794  0.0458  1.5532
 8387SOL     OW26601   2.947   2.846  10.576 -0.2991  1.0870 -0.3015
 8387SOL    HW126602   2.854   2.836  10.594  0.1150 -1.6010  0.7697
 8387SOL    HW226603   2.973   2.765  10.532  1.7238  1.3466  0.2924
 8388SOL     OW26604   1.384   0.796   9.221 -0.1208 -0.0216 -0.0388
 8388SOL    HW126605   1.411   0.874   9.173 -1.3414 -0.6685 -1.9240
 8388SOL    HW226606   1.432   0.725   9.180 -0.0390 -0.4236  0.7452
 8389SOL     OW26607   2.211   4.106   6.845 -0.7590  0.2402 -0.2659
 8389SOL    HW126608   2.245   4.069   6.926  0.9785 -1.6521 -1.7429
 8389SOL    HW226609   2.256   4.190   6.837 -0.3521  0.0884  0.3541
 8390SOL     OW26610   2.654   0.913   8.655  0.6233  0.2010 -0.1341
 8390SOL    HW126611   2.700   0.844   8.607  0.2235 -0.3964  0.3170
 8390SOL    HW226612   2.563   0.903   8.627 -0.0092 -1.4705  2.1613
 8391SOL     OW26613   4.312   3.034   7.764 -0.5727  0.5578  0.8642
 8391SOL    HW126614   4.235   3.090   7.774 -0.2840  1.0815  0.2376
 8391SOL    HW226615   4.361   3.073   7.691  0.0032 -0.0904  0.8915
 8392SOL     OW26616   3.399   2.498   9.985 -0.4516  0.2810  0.1743
 8392SOL    HW126617   3.340   2.478   9.912 -0.1104  1.4185 -0.4225
 8392SOL    HW226618   3.418   2.591   9.977  1.0202  0.0546  0.6626
 8393SOL     OW26619   3.540   2.887   7.698  0.2311 -0.0935 -0.2276
 8393SOL    HW126620   3.511   2.970   7.736 -1.5485 -0.4560 -0.6885
 8393SOL    HW226621   3.541   2.903   7.604  1.0613 -0.2486 -0.2488
 8394SOL     OW26622   2.026   1.259   9.433 -0.1968  0.2464 -0.1805
 8394SOL    HW126623   2.056   1.169   9.440  2.3844  1.0643  0.5485
 8394SOL    HW226624   2.048   1.298   9.518  0.1766  1.9309 -1.0097
 8395SOL     OW26625   3.340   2.273   7.586  0.2041 -0.3427 -0.0497
 8395SOL    HW126626   3.250   2.297   7.608 -0.2210 -1.1286 -0.8459
 8395SOL    HW226627   3.385   2.357   7.575 -0.7640  0.0880 -0.9148
 8396SOL     OW26628   2.823   2.592   7.053  0.6435 -0.0070  0.2587
 8396SOL    HW126629   2.797   2.521   7.112 -0.2430  0.5775  0.5905
 8396SOL    HW226630   2.912   2.613   7.080  0.5267 -0.2699  0.8787
 8397SOL     OW26631   2.780   4.023   7.455  0.2821  0.5399  0.7136
 8397SOL    HW126632   2.874   4.005   7.465  0.5806  2.2603  1.3679
 8397SOL    HW226633   2.776   4.102   7.403 -0.7578  1.1163  1.6205
 8398SOL     OW26634   1.430   3.970   8.053  0.1549 -0.6797 -0.0769
 8398SOL    HW126635   1.464   4.060   8.057  0.9887 -1.0139  0.4745
 8398SOL    HW226636   1.351   3.978   7.999  1.6882 -0.0566 -2.3862
 8399SOL     OW26637   3.422   2.659   6.748  0.3910 -0.2728 -0.1781
 8399SOL    HW126638   3.462   2.623   6.828  1.8610  1.3815 -0.0966
 8399SOL    HW226639   3.381   2.740   6.777 -1.4025 -0.9771 -0.6579
 8400SOL     OW26640   5.828   2.027   6.410 -0.1570 -0.1423 -0.3795
 8400SOL    HW126641   5.908   2.053   6.363  0.4083 -2.9805 -1.2077
 8400SOL    HW226642   5.831   1.932   6.410 -2.9091 -0.3138  0.7924
 8401SOL     OW26643   3.942   2.339   6.761 -0.0204 -0.3507 -0.4640
 8401SOL    HW126644   3.959   2.300   6.675 -0.2294 -0.1752 -0.5858
 8401SOL    HW226645   3.989   2.423   6.759 -0.2974 -0.1960 -0.5313
 8402SOL     OW26646   3.208   3.644   7.496  0.1523  0.3611 -0.5102
 8402SOL    HW126647   3.265   3.609   7.564 -0.7108  1.3746  0.7986
 8402SOL    HW226648   3.265   3.659   7.421  1.3400  0.1535  0.3316
 8403SOL     OW26649   3.017   3.441   7.365  0.1198  0.1695  0.1852
 8403SOL    HW126650   3.102   3.480   7.386  0.8777 -0.7746 -0.9704
 8403SOL    HW226651   3.032   3.392   7.284 -1.3670 -0.5701  0.3099
 8404SOL     OW26652   3.154   3.913   7.143 -0.0192  0.1331 -0.5140
 8404SOL    HW126653   3.163   3.962   7.062  1.5856  1.3178  0.3206
 8404SOL    HW226654   3.148   3.980   7.212  1.0000 -0.7955  0.5342
 8405SOL     OW26655   5.022   2.391   8.138  0.3226 -0.7855 -0.8862
 8405SOL    HW126656   5.075   2.467   8.115  2.5963 -1.3120  2.0174
 8405SOL    HW226657   5.079   2.316   8.122 -1.3240 -1.8504 -2.1868
 8406SOL     OW26658   2.736   2.895   8.005  0.0211  0.1525 -0.8395
 8406SOL    HW126659   2.681   2.974   7.999  0.3459  0.3293 -1.4999
 8406SOL    HW226660   2.823   2.924   7.978 -0.0224 -0.6125 -1.8354
 8407SOL     OW26661   1.874   4.214   7.232 -0.3431 -0.4032 -0.0552
 8407SOL    HW126662   1.937   4.152   7.268 -0.7358  0.1286  1.6727
 8407SOL    HW226663   1.911   4.240   7.148  0.1425 -2.4656 -0.5190
 8408SOL     OW26664   4.337   1.097   6.876 -0.1288 -0.3156  0.8518
 8408SOL    HW126665   4.397   1.062   6.811 -1.1481  0.5715 -0.6262
 8408SOL    HW226666   4.333   1.191   6.856 -0.8283 -0.1103  1.9002
 8409SOL     OW26667   2.366   1.914  10.341 -0.0471 -0.1787 -0.3969
 8409SOL    HW126668   2.430   1.851  10.373 -0.7645 -0.8378 -0.2449
 8409SOL    HW226669   2.319   1.869  10.272 -0.4582  0.2518 -0.4042
 8410SOL     OW26670   2.222   2.055   8.222 -0.2791 -0.6126  0.2743
 8410SOL    HW126671   2.282   1.981   8.221  0.5735  0.0658 -0.8160
 8410SOL    HW226672   2.261   2.118   8.162 -1.2101  0.5506  0.8628
 8411SOL     OW26673   3.995   3.013   7.803 -0.5015  0.6212 -0.0705
 8411SOL    HW126674   4.024   3.076   7.737  0.3486  1.7812  1.3440
 8411SOL    HW226675   3.967   3.067   7.877  0.2392 -0.6394  1.1773
 8412SOL     OW26676   1.676   3.944   7.086  0.0083 -0.6279 -0.2933
 8412SOL    HW126677   1.768   3.968   7.071 -0.4893  0.4925 -1.7591
 8412SOL    HW226678   1.626   4.012   7.040 -1.6768  0.9470  3.4769
 8413SOL     OW26679   4.478   0.968   7.878  0.2814 -0.4826  0.3426
 8413SOL    HW126680   4.463   1.054   7.916  2.0040  0.2044 -0.4252
 8413SOL    HW226681   4.452   0.977   7.786 -2.9136 -1.8481  0.9768
 8414SOL     OW26682   2.096   3.403   7.694  0.3842 -0.4390  0.6411
 8414SOL    HW126683   2.067   3.356   7.615  0.7997 -1.6673  1.1924
 8414SOL    HW226684   2.161   3.465   7.663 -1.3580  0.9727 -0.3429
 8415SOL     OW26685   3.049   3.395   8.519 -0.2318  0.4947  0.2771
 8415SOL    HW126686   3.002   3.471   8.553 -0.5996  0.0532  0.7800
 8415SOL    HW226687   3.105   3.367   8.592 -0.7478 -0.2352  0.3974
 8416SOL     OW26688   3.306   1.678   7.709  0.5002  0.4214  0.0690
 8416SOL    HW126689   3.301   1.614   7.638  0.5460  1.6128 -1.0424
 8416SOL    HW226690   3.230   1.657   7.764  0.3103 -0.3586 -0.4645
 8417SOL     OW26691   5.129   2.636   8.752  0.2037 -0.0867  0.4765
 8417SOL    HW126692   5.117   2.599   8.840  0.6438 -0.7876  0.2501
 8417SOL    HW226693   5.041   2.634   8.713  0.1348 -0.4592  0.6434
 8418SOL     OW26694   2.957   1.011   7.023 -0.1845 -0.4411 -0.3124
 8418SOL    HW126695   2.981   1.008   7.116 -1.8507 -0.0357  0.1612
 8418SOL    HW226696   2.998   1.092   6.992  0.6097 -0.7133 -0.0089
 8419SOL     OW26697   2.289   2.468   7.323  0.1586  0.3310 -0.0792
 8419SOL    HW126698   2.207   2.440   7.363  0.7694 -1.0024  0.3011
 8419SOL    HW226699   2.304   2.405   7.252  1.0557  0.2870  0.1309
 8420SOL     OW26700   3.621   2.776   8.532 -0.1963 -0.0053  0.1228
 8420SOL    HW126701   3.707   2.769   8.490 -0.7171  0.6128 -1.1095
 8420SOL    HW226702   3.560   2.788   8.459 -1.3177 -0.3052  0.9818
 8421SOL     OW26703   0.923   3.943   8.164 -0.1958  0.1093  0.3783
 8421SOL    HW126704   0.962   3.875   8.219 -1.1014 -0.8463 -0.1313
 8421SOL    HW226705   0.841   3.965   8.208  0.8172  2.0728  1.4158
 8422SOL     OW26706   1.800   4.534   5.593 -0.1885 -0.1806  0.1434
 8422SOL    HW126707   1.798   4.623   5.559  3.6180 -0.2902 -0.8968
 8422SOL    HW226708   1.833   4.543   5.683 -1.5623 -0.4847  0.7052
 8423SOL     OW26709   3.020   1.892   7.125  0.2821 -0.3835  0.6880
 8423SOL    HW126710   3.002   1.985   7.108  0.5495 -0.3987  0.3072
 8423SOL    HW226711   3.080   1.893   7.199  0.2300 -0.2521  0.7288
 8424SOL     OW26712   1.095   2.503   8.048  0.3134 -0.6562  0.3020
 8424SOL    HW126713   1.179   2.527   8.008  1.5161 -2.1464  1.7682
 8424SOL    HW226714   1.038   2.482   7.974  0.4179  2.5915 -0.8638
 8425SOL     OW26715   3.798   3.943   7.086  0.7237  0.0773  0.5147
 8425SOL    HW126716   3.886   3.961   7.053  0.2360  0.8719 -0.4185
 8425SOL    HW226717   3.775   3.857   7.049  0.1636  0.9741 -1.3718
 8426SOL     OW26718   2.884   1.788   8.119  0.1213 -0.3621 -0.4538
 8426SOL    HW126719   2.849   1.809   8.032  2.4222  0.5726 -1.2238
 8426SOL    HW226720   2.899   1.874   8.160  3.9695 -0.4591 -1.2640
 8427SOL     OW26721   2.881   2.173   6.703  0.6477 -0.1131  0.7348
 8427SOL    HW126722   2.934   2.094   6.694  0.7115  0.0509 -0.4556
 8427SOL    HW226723   2.849   2.170   6.793  1.8269 -0.7464  1.1538
 8428SOL     OW26724   1.588   2.291   8.309  0.1517  0.0997 -0.2488
 8428SOL    HW126725   1.636   2.344   8.246  1.2385  2.0321  2.0512
 8428SOL    HW226726   1.653   2.231   8.345 -0.3194 -0.5707 -0.4863
 8429SOL     OW26727   2.015   4.277   6.998  0.9296 -0.0167 -0.2359
 8429SOL    HW126728   2.047   4.355   6.953  2.1286 -0.3699 -0.0411
 8429SOL    HW226729   2.006   4.211   6.929 -0.2294  0.3113 -0.4253
 8430SOL     OW26730   3.105   2.770   8.136 -0.2880 -0.0759 -0.2822
 8430SOL    HW126731   3.039   2.804   8.076  0.6930  1.4442 -0.5481
 8430SOL    HW226732   3.155   2.847   8.164  0.8433 -1.0688  0.5663
 8431SOL     OW26733   7.751   1.675   9.823 -0.1392  0.3991 -0.2236
 8431SOL    HW126734   7.828   1.660   9.768  0.4827  2.1633  0.1245
 8431SOL    HW226735   7.730   1.589   9.859 -0.5168 -0.8344 -3.1145
 8432SOL     OW26736   2.757   3.485   9.405  0.7484 -0.4836 -0.2188
 8432SOL    HW126737   2.841   3.493   9.360  0.9949  0.4756  0.3837
 8432SOL    HW226738   2.763   3.401   9.451  2.0220  0.2552  1.0523
 8433SOL     OW26739   1.148   2.900   7.349  0.5599  0.4280  0.0041
 8433SOL    HW126740   1.224   2.939   7.391 -0.5566  1.1183  1.4443
 8433SOL    HW226741   1.081   2.967   7.354 -0.2430 -0.2819 -0.9794
 8434SOL     OW26742   1.657   2.807   7.698 -0.1006  0.3972  0.1917
 8434SOL    HW126743   1.677   2.870   7.767  1.7691 -1.2596  1.2882
 8434SOL    HW226744   1.743   2.785   7.660 -1.0562  1.2058 -2.6937
 8435SOL     OW26745   4.012   2.635   8.028  0.3182  0.2304 -0.5518
 8435SOL    HW126746   4.059   2.718   8.018  1.0848 -0.2918 -1.3639
 8435SOL    HW226747   3.947   2.653   8.097  0.8829  1.3141 -0.2769
 8436SOL     OW26748   2.646   2.116   7.550 -0.1665 -0.3017  0.7766
 8436SOL    HW126749   2.605   2.201   7.564 -1.7474 -0.6331 -1.3249
 8436SOL    HW226750   2.653   2.108   7.455  2.6313 -1.3414  0.9928
 8437SOL     OW26751   3.778   2.990   9.473  0.2400  0.3648 -0.0421
 8437SOL    HW126752   3.872   2.985   9.462  0.2237  2.0051 -1.3246
 8437SOL    HW226753   3.763   3.076   9.513 -0.6684 -0.2131  0.9164
 8438SOL     OW26754   3.221   3.392   7.894 -0.0097 -0.0023 -0.6982
 8438SOL    HW126755   3.310   3.363   7.914 -0.1053  0.7521  1.0298
 8438SOL    HW226756   3.229   3.485   7.877 -0.6224  0.4229  1.0544
 8439SOL     OW26757   0.430   4.351   6.966  0.0463  0.1336 -0.7689
 8439SOL    HW126758   0.448   4.441   6.938 -0.6850  0.5452  0.0477
 8439SOL    HW226759   0.335   4.344   6.965  0.1181 -1.2540 -2.6604
 8440SOL     OW26760   2.214   3.075   6.566 -0.3268  0.2805  0.2570
 8440SOL    HW126761   2.174   3.128   6.496 -0.4938 -0.5012 -0.2513
 8440SOL    HW226762   2.142   3.060   6.628 -0.3319  0.4612  0.2974
 8441SOL     OW26763   2.808   3.769   8.075  0.1863 -0.0614 -0.3068
 8441SOL    HW126764   2.776   3.857   8.054  0.2834 -0.0267 -0.3079
 8441SOL    HW226765   2.849   3.738   7.994 -0.2600 -0.2910 -0.4510
 8442SOL     OW26766   3.370   2.660   7.826 -0.1581 -0.4714  0.0306
 8442SOL    HW126767   3.295   2.717   7.808 -0.6464 -0.3840  2.0877
 8442SOL    HW226768   3.439   2.693   7.768 -0.8259  1.3791  0.2114
 8443SOL     OW26769   2.587   4.194   7.954 -0.1745 -0.1350 -0.5549
 8443SOL    HW126770   2.656   4.183   7.888 -1.4109  1.1816 -2.1672
 8443SOL    HW226771   2.507   4.205   7.902 -1.3334  0.0836  1.2173
 8444SOL     OW26772   3.992   0.967   7.956 -0.0006 -0.0850 -0.4427
 8444SOL    HW126773   4.043   0.903   8.005  1.3398  2.2419  1.4086
 8444SOL    HW226774   4.052   0.999   7.889  0.6739  1.8494  1.0203
 8445SOL     OW26775   2.765   4.102   7.777  0.4440 -0.0657 -0.5782
 8445SOL    HW126776   2.851   4.145   7.775 -0.0923  1.1509  0.5820
 8445SOL    HW226777   2.783   4.011   7.758  1.9640  0.2284 -0.6603
 8446SOL     OW26778   3.702   3.674   7.461 -0.1842 -0.0995  0.2853
 8446SOL    HW126779   3.629   3.736   7.453 -0.2036 -0.0200  1.0454
 8446SOL    HW226780   3.754   3.688   7.382  0.8472  2.2195  1.3188
 8447SOL     OW26781   2.579   1.727   9.304  0.6017  0.0667  0.3532
 8447SOL    HW126782   2.632   1.693   9.232  2.1824  0.2934  1.3543
 8447SOL    HW226783   2.591   1.822   9.299 -0.5493  0.2050 -0.0154
 8448SOL     OW26784   1.577   3.296   8.338  0.2283  0.0459  0.5441
 8448SOL    HW126785   1.552   3.339   8.420  0.0936  0.1740  0.4359
 8448SOL    HW226786   1.641   3.230   8.365 -1.1849 -1.2185  1.0350
 8449SOL     OW26787   2.277   3.376   8.909 -0.0671 -0.2590  0.2280
 8449SOL    HW126788   2.342   3.355   8.841 -0.9692 -0.4733 -0.5938
 8449SOL    HW226789   2.224   3.446   8.870 -0.3638 -0.1252  0.8672
 8450SOL     OW26790   3.750   2.093   6.715  0.0894 -0.3115  0.0776
 8450SOL    HW126791   3.826   2.151   6.711  1.5476 -2.1257 -0.1880
 8450SOL    HW226792   3.701   2.112   6.635  0.4562  0.6197  0.0614
 8451SOL     OW26793   0.544   2.897   9.045  0.4099  1.0648 -0.4847
 8451SOL    HW126794   0.583   2.917   8.959  3.1442 -1.6878 -0.0935
 8451SOL    HW226795   0.611   2.923   9.108  0.4429 -1.0915  0.4467
 8452SOL     OW26796   1.931   2.021   8.746  0.0969 -0.0037  0.1991
 8452SOL    HW126797   1.998   2.060   8.802  0.5378  0.7103 -0.8082
 8452SOL    HW226798   1.849   2.062   8.775  0.2309 -0.0868  0.7076
 8453SOL     OW26799   2.324   4.302   7.846  0.6199 -0.4648 -0.1988
 8453SOL    HW126800   2.267   4.289   7.922 -1.0135  0.7817 -1.1380
 8453SOL    HW226801   2.267   4.288   7.771  1.4009  1.3115 -1.1802
 8454SOL     OW26802   3.008   2.957   7.945  0.4187 -0.0279 -0.4255
 8454SOL    HW126803   3.013   3.051   7.929 -0.3542  0.1015  0.0607
 8454SOL    HW226804   3.071   2.919   7.884  0.2117  0.7411 -1.1253
 8455SOL     OW26805   3.333   3.526   8.952  0.4775 -0.3184 -0.4565
 8455SOL    HW126806   3.384   3.598   8.989 -1.6711  0.5137  1.0316
 8455SOL    HW226807   3.325   3.548   8.859 -1.0633  2.0303  0.1455
 8456SOL     OW26808   3.542   2.514   6.969  0.4592 -0.1415  0.0247
 8456SOL    HW126809   3.542   2.600   7.010  2.5559 -0.0233 -0.0750
 8456SOL    HW226810   3.619   2.471   7.006 -1.1947 -2.4507  0.9878
 8457SOL     OW26811   2.699   4.326   7.298 -0.0531 -0.5921 -0.1150
 8457SOL    HW126812   2.747   4.248   7.269 -0.7308 -1.1794  0.3023
 8457SOL    HW226813   2.767   4.387   7.325  0.5170 -2.7094  3.9762
 8458SOL     OW26814   3.456   2.414   9.249 -0.5043  0.0846 -0.2417
 8458SOL    HW126815   3.511   2.347   9.290 -1.8323 -1.7321 -1.2903
 8458SOL    HW226816   3.497   2.430   9.164 -0.1628  0.6951  0.0252
 8459SOL     OW26817   4.471   2.179   7.860  0.1175 -0.1654 -0.2588
 8459SOL    HW126818   4.516   2.263   7.846 -0.1966 -0.0901 -0.8458
 8459SOL    HW226819   4.385   2.191   7.819 -0.1307 -0.5941  0.1249
 8460SOL     OW26820   3.441   3.134  10.131  0.1641 -0.2382 -0.1351
 8460SOL    HW126821   3.412   3.157  10.219 -1.0468  0.4137 -0.6871
 8460SOL    HW226822   3.439   3.217  10.083 -0.8778 -0.8711 -1.2341
 8461SOL     OW26823   2.620   3.096   9.409  1.2651 -0.0787 -0.0007
 8461SOL    HW126824   2.555   3.115   9.342  0.0660 -0.2169  1.0810
 8461SOL    HW226825   2.704   3.110   9.366  0.5721 -1.4542 -1.9012
 8462SOL     OW26826   2.105   1.280   9.179 -0.2878  0.1276 -0.0094
 8462SOL    HW126827   2.076   1.279   9.270 -1.0851  0.7692 -0.2432
 8462SOL    HW226828   2.190   1.235   9.180  0.3997  1.3783  1.2857
 8463SOL     OW26829   1.153   1.841   8.298  0.1745 -0.5475  0.3960
 8463SOL    HW126830   1.162   1.929   8.335  1.0748 -0.9466  1.1916
 8463SOL    HW226831   1.135   1.855   8.205 -1.1275  0.4797  0.7852
 8464SOL     OW26832   3.726   2.498   6.732  0.1518  0.2264 -0.1933
 8464SOL    HW126833   3.806   2.448   6.717 -0.4732 -1.4424  1.5732
 8464SOL    HW226834   3.753   2.570   6.788  0.6906  0.6469 -0.9765
 8465SOL     OW26835   3.359   0.977  10.605  0.1514  0.1943 -0.0158
 8465SOL    HW126836   3.355   0.976  10.509 -0.9551  0.7119  0.0060
 8465SOL    HW226837   3.447   0.946  10.626  0.5773  0.5475 -1.2123
 8466SOL     OW26838   2.092   3.962   8.234  0.0252 -0.4939  0.3688
 8466SOL    HW126839   2.069   4.038   8.287  0.4331  0.8286 -1.2563
 8466SOL    HW226840   2.186   3.951   8.248 -0.3254 -1.8255  1.9434
 8467SOL     OW26841   1.819   4.208   6.638 -0.7307 -0.3168  0.0799
 8467SOL    HW126842   1.876   4.163   6.699 -0.6315 -0.1045  0.1444
 8467SOL    HW226843   1.762   4.263   6.692 -0.7944 -0.3001 -0.0019
 8468SOL     OW26844   2.976   3.051   8.221  0.2179  0.5350  0.5043
 8468SOL    HW126845   3.056   3.028   8.268 -0.5054 -0.7118  1.1712
 8468SOL    HW226846   2.984   3.007   8.136 -0.1715 -0.3849  0.9337
 8469SOL     OW26847   2.039   2.819   8.141  0.2103 -0.1457 -0.6811
 8469SOL    HW126848   2.082   2.844   8.223 -4.6771  0.2765  2.1822
 8469SOL    HW226849   2.068   2.728   8.126  0.3263 -0.7210  2.3627
 8470SOL     OW26850   5.593   0.255   6.835 -0.3334 -0.4702  0.6970
 8470SOL    HW126851   5.498   0.257   6.846 -0.7445 -1.2294 -2.0460
 8470SOL    HW226852   5.618   0.167   6.862 -1.0033 -1.5289 -1.7747
 8471SOL     OW26853   2.847   4.252   8.258  0.2047 -0.3145 -0.0186
 8471SOL    HW126854   2.825   4.301   8.178 -0.5836 -0.0811  0.3247
 8471SOL    HW226855   2.942   4.254   8.262  0.2164  2.8238  0.9471
 8472SOL     OW26856   2.108   1.916   9.091  0.5853  0.2924 -0.5382
 8472SOL    HW126857   2.076   1.920   9.181  0.0782 -0.9298 -0.6458
 8472SOL    HW226858   2.200   1.892   9.099  0.2671 -0.9401 -0.3539
 8473SOL     OW26859   2.263   3.699   9.125  0.0785  0.2881 -0.0798
 8473SOL    HW126860   2.192   3.635   9.112  0.2839  0.1841 -0.7245
 8473SOL    HW226861   2.221   3.772   9.169 -0.4786  0.3009 -0.6140
 8474SOL     OW26862   2.802   2.642   6.231  0.0702  0.1474 -0.4146
 8474SOL    HW126863   2.880   2.656   6.177  1.4801 -2.5907  0.7336
 8474SOL    HW226864   2.809   2.707   6.301  0.4151  0.9849 -1.2026
 8475SOL     OW26865   4.286   2.507   7.898  0.0718  0.2636 -0.0745
 8475SOL    HW126866   4.364   2.478   7.851  0.3618 -0.1244  0.6276
 8475SOL    HW226867   4.277   2.600   7.876 -0.9342 -0.3259 -2.4508
 8476SOL     OW26868   2.988   3.553   7.659  0.1788  0.3093  0.5273
 8476SOL    HW126869   2.969   3.611   7.732 -0.5446 -0.5043  1.0129
 8476SOL    HW226870   3.052   3.600   7.606  1.2255  0.6394  2.0241
 8477SOL     OW26871   2.500   2.525   8.148 -0.0248  0.0478 -0.2780
 8477SOL    HW126872   2.539   2.601   8.192  0.1979  0.5915 -1.3749
 8477SOL    HW226873   2.533   2.531   8.058 -2.3304  0.2897 -1.1523
 8478SOL     OW26874   4.123   3.184   8.050  0.1253 -0.1077 -0.4071
 8478SOL    HW126875   4.049   3.237   8.020  0.0230 -0.1802 -0.2843
 8478SOL    HW226876   4.115   3.184   8.145 -1.6704 -2.8554 -0.4494
 8479SOL     OW26877   3.773   0.210   9.812 -0.7985  0.8199  0.3811
 8479SOL    HW126878   3.853   0.181   9.855 -0.4561  1.2598  0.0539
 8479SOL    HW226879   3.723   0.130   9.798  0.9187  0.0702 -2.1562
 8480SOL     OW26880   3.259   2.669   8.461  0.2050 -0.2308 -0.9122
 8480SOL    HW126881   3.180   2.626   8.427  1.0032 -1.7070 -1.0191
 8480SOL    HW226882   3.331   2.621   8.421  1.1738  1.0887 -0.8170
 8481SOL     OW26883   0.013   2.442   8.183 -0.1593  0.0298 -0.1087
 8481SOL    HW126884  -0.081   2.444   8.169 -0.4106  2.1971  1.4429
 8481SOL    HW226885   0.043   2.368   8.131 -2.3583  0.8400 -2.8065
 8482SOL     OW26886   1.997   3.489   9.252  0.1950 -0.5262 -0.0466
 8482SOL    HW126887   1.959   3.456   9.170 -0.5993 -1.1375  0.5541
 8482SOL    HW226888   2.091   3.478   9.240  0.3646  2.0044 -2.0009
 8483SOL     OW26889   1.960   3.947   7.143  0.3823  0.3658  0.3472
 8483SOL    HW126890   2.048   3.980   7.127  1.5635 -1.8056  1.8092
 8483SOL    HW226891   1.962   3.856   7.111 -1.3121  0.2558  0.4504
 8484SOL     OW26892   2.903   2.038   8.296 -0.5389 -0.3103 -0.4680
 8484SOL    HW126893   2.854   2.025   8.377 -1.5259  1.4041 -0.7304
 8484SOL    HW226894   2.881   2.127   8.269  1.0085 -0.2896 -1.7991
 8485SOL     OW26895   7.836   1.566   7.564  0.2929 -0.2672  0.1706
 8485SOL    HW126896   7.784   1.645   7.580  2.3845  1.1474  0.3233
 8485SOL    HW226897   7.833   1.517   7.647 -2.4013 -1.2942 -0.4283
 8486SOL     OW26898   3.356   2.867   6.932 -0.2889  0.3572 -0.3296
 8486SOL    HW126899   3.324   2.924   7.001 -0.6212 -0.5888  0.3289
 8486SOL    HW226900   3.444   2.842   6.961  0.3657  1.5253 -1.2457
 8487SOL     OW26901   1.800   2.696   6.844 -0.3779 -0.3703 -0.4240
 8487SOL    HW126902   1.848   2.727   6.921  0.3447 -1.1488 -0.5494
 8487SOL    HW226903   1.740   2.630   6.878  0.0598 -0.8338 -0.5546
 8488SOL     OW26904   2.042   2.333  10.201 -0.3746 -0.2239 -0.1203
 8488SOL    HW126905   2.074   2.256  10.248  0.2178  1.0036  1.6300
 8488SOL    HW226906   2.035   2.400  10.269  1.4741  1.9545 -1.9262
 8489SOL     OW26907   1.949   5.756   8.696  0.1083 -0.5581 -0.0783
 8489SOL    HW126908   2.003   5.820   8.743  1.3672 -2.2763  0.9227
 8489SOL    HW226909   1.972   5.769   8.604 -0.5352  1.1793 -0.0357
 8490SOL     OW26910   1.126   3.804   8.371  0.2088  0.1717  0.0092
 8490SOL    HW126911   1.209   3.768   8.341  1.8760  2.7015  1.3076
 8490SOL    HW226912   1.149   3.879   8.426 -2.8828 -0.1180  1.9830
 8491SOL     OW26913   2.530   3.063   9.987  0.0969 -0.2925  0.2527
 8491SOL    HW126914   2.517   3.099  10.075  0.4266 -0.5302  0.4006
 8491SOL    HW226915   2.545   2.970  10.001 -0.5042 -0.4544 -0.1093
 8492SOL     OW26916   3.950   2.900   6.601 -0.0540  0.2467  0.7246
 8492SOL    HW126917   3.918   2.886   6.512  1.3581  0.5333  0.1372
 8492SOL    HW226918   4.029   2.952   6.589  0.1774  0.2467  2.1537
 8493SOL     OW26919   0.675   4.022   8.299  0.1105  0.1230 -0.2065
 8493SOL    HW126920   0.619   3.973   8.239  0.8194 -0.9819  0.0099
 8493SOL    HW226921   0.714   3.956   8.356  1.9610  0.7792 -0.6182
 8494SOL     OW26922   2.142   3.915   9.250  0.5142  0.7405 -0.5662
 8494SOL    HW126923   2.062   3.953   9.213  0.6983  1.5033 -0.2172
 8494SOL    HW226924   2.209   3.982   9.235  0.4498  1.3802  1.7159
 8495SOL     OW26925   3.111   2.344   7.002 -0.1318  0.4063 -0.2781
 8495SOL    HW126926   3.198   2.337   6.962 -0.3122 -1.1783 -0.4251
 8495SOL    HW226927   3.089   2.437   6.993  1.0479  0.6222 -1.2738
 8496SOL     OW26928   3.307   3.526   8.669  0.5983  0.1270  0.3266
 8496SOL    HW126929   3.401   3.541   8.661  0.4036  1.5105  0.4682
 8496SOL    HW226930   3.284   3.479   8.588  1.3735 -0.0598  0.2049
 8497SOL     OW26931   2.958   3.326   9.790  0.6847  0.8399 -0.0132
 8497SOL    HW126932   3.026   3.259   9.795 -0.1423 -0.0208  0.1431
 8497SOL    HW226933   2.965   3.374   9.873  1.5106  1.1813 -0.2765
 8498SOL     OW26934   2.697   2.991  10.314 -0.1347  0.1764  0.4146
 8498SOL    HW126935   2.787   3.019  10.301 -0.3629  0.4777 -0.6105
 8498SOL    HW226936   2.689   2.910  10.263 -0.4328  0.1523  0.4933
 8499SOL     OW26937   4.163   1.222   9.520 -0.2196  0.4028  0.8051
 8499SOL    HW126938   4.235   1.221   9.457 -1.5895 -0.5432 -0.8361
 8499SOL    HW226939   4.204   1.246   9.602  1.9276  0.1715 -0.1169
 8500SOL     OW26940   3.511   3.484   7.558 -0.3118 -0.1677 -0.1063
 8500SOL    HW126941   3.543   3.471   7.647 -1.2037 -1.0166  0.1083
 8500SOL    HW226942   3.583   3.529   7.513  0.9522 -1.4758  0.5162
 8501SOL     OW26943   1.455   3.707   7.521  0.2786  0.0734  0.2685
 8501SOL    HW126944   1.371   3.750   7.508 -0.3260 -0.3956  2.2958
 8501SOL    HW226945   1.494   3.752   7.595  1.5701 -0.1110 -0.2622
 8502SOL     OW26946   3.271   2.621   7.285  0.2873  0.1030 -0.9021
 8502SOL    HW126947   3.196   2.635   7.226 -0.8988  0.4022  0.5938
 8502SOL    HW226948   3.316   2.706   7.287 -1.5234  1.1076  1.0126
 8503SOL     OW26949   3.922   2.272   8.941  0.5849  0.0636 -0.4930
 8503SOL    HW126950   3.917   2.362   8.909 -0.0414 -0.7550 -2.9401
 8503SOL    HW226951   3.835   2.255   8.979  1.2536  0.9640  1.6035
 8504SOL     OW26952   1.775   1.954   6.202 -0.0743 -0.0722  0.4742
 8504SOL    HW126953   1.694   1.955   6.253  0.5064  3.9044  1.6273
 8504SOL    HW226954   1.763   2.022   6.135  2.0050  0.0452  0.1455
 8505SOL     OW26955   2.294   2.714   6.752  0.1582  0.0699 -0.1837
 8505SOL    HW126956   2.360   2.728   6.685 -0.8859 -0.8002 -1.4393
 8505SOL    HW226957   2.226   2.779   6.733 -0.7572 -1.0371 -0.8319
 8506SOL     OW26958   4.080   3.475   7.326  0.2293  0.0342 -0.1840
 8506SOL    HW126959   4.003   3.437   7.283  1.0856 -1.2725 -0.6171
 8506SOL    HW226960   4.138   3.400   7.341  0.9540  0.8261  1.1308
 8507SOL     OW26961   2.713   2.312   6.930  0.6265 -0.1676 -0.3420
 8507SOL    HW126962   2.674   2.379   6.987  1.5181  0.6018 -0.6041
 8507SOL    HW226963   2.727   2.358   6.847  1.2702 -0.6781 -0.5213
 8508SOL     OW26964   2.945   2.593   7.768 -0.2556  0.1383  0.2892
 8508SOL    HW126965   2.872   2.554   7.719  0.7642  0.3800 -1.4986
 8508SOL    HW226966   2.991   2.647   7.704  2.3288 -1.0925  0.9634
 8509SOL     OW26967   3.443   3.712   6.961  0.4288 -0.6125 -0.6110
 8509SOL    HW126968   3.424   3.773   6.890 -0.5691 -1.5009 -1.1394
 8509SOL    HW226969   3.398   3.631   6.936  1.6223 -1.5423  0.1194
 8510SOL     OW26970   0.962   2.898   8.188  0.1103 -0.8958 -0.1005
 8510SOL    HW126971   0.919   2.913   8.104  1.1045 -0.9434 -0.6332
 8510SOL    HW226972   1.055   2.912   8.170  0.1850  1.0406  1.4197
 8511SOL     OW26973   3.173   2.844   9.359 -0.3586 -0.5451  0.3830
 8511SOL    HW126974   3.172   2.894   9.278  1.7587 -0.6229  0.2439
 8511SOL    HW226975   3.174   2.911   9.428  0.3230 -0.4253  0.2614
 8512SOL     OW26976   5.059   2.813   6.011  0.2244 -0.5575 -0.0864
 8512SOL    HW126977   5.029   2.884   5.954  1.0237  1.8274  2.2414
 8512SOL    HW226978   4.983   2.755   6.018 -0.3037 -0.2727 -2.4510
 8513SOL     OW26979   2.008   2.002   8.405 -0.1065  0.1410  0.1626
 8513SOL    HW126980   2.073   2.029   8.340  0.3160  1.3052  1.0284
 8513SOL    HW226981   2.033   1.914   8.430  1.7206  0.9090  1.1659
 8514SOL     OW26982   1.820   6.126   8.988 -0.3197 -0.0846  0.5394
 8514SOL    HW126983   1.758   6.188   8.951  1.2071  1.2497  0.0848
 8514SOL    HW226984   1.899   6.178   9.006  1.2671 -1.9948 -0.4398
 8515SOL     OW26985   5.879   2.547   6.787 -0.4485 -0.6927 -0.1773
 8515SOL    HW126986   5.956   2.529   6.841 -0.9648 -1.4145  0.3338
 8515SOL    HW226987   5.835   2.620   6.832  0.2895  0.1926 -0.8521
 8516SOL     OW26988   2.874   3.476   6.301 -0.2171 -0.1423 -0.1122
 8516SOL    HW126989   2.896   3.422   6.376 -0.9313 -0.2214  0.0466
 8516SOL    HW226990   2.787   3.511   6.320  0.7757  2.2222  0.4325
 8517SOL     OW26991   0.493   4.097  10.936  0.0345  0.0246 -0.2661
 8517SOL    HW126992   0.547   4.028  10.896 -0.3294 -0.1454 -0.4711
 8517SOL    HW226993   0.434   4.050  10.995  1.7719  0.4158  1.9017
 8518SOL     OW26994   2.310   2.533   8.950 -0.7465  0.7085 -0.3320
 8518SOL    HW126995   2.293   2.537   8.856  0.2611  0.3760 -0.5481
 8518SOL    HW226996   2.397   2.493   8.957 -1.2596 -0.2889  0.7895
 8519SOL     OW26997   0.631   1.634   8.461 -0.2890 -0.3660  0.1637
 8519SOL    HW126998   0.719   1.625   8.424 -0.4702  0.1666 -0.4024
 8519SOL    HW226999   0.589   1.701   8.408 -1.0526 -0.6377  0.4155
 8520SOL     OW27000   2.848   2.106   7.761  0.0501 -0.5955 -0.5652
 8520SOL    HW127001   2.779   2.112   7.695  1.6506 -0.2078 -2.2720
 8520SOL    HW227002   2.918   2.162   7.729  0.6669  0.1283  1.8074
 8521SOL     OW27003   1.351   1.296   7.766 -0.0593 -0.7331 -0.2017
 8521SOL    HW127004   1.436   1.327   7.795 -0.2193 -0.3541 -0.1209
 8521SOL    HW227005   1.315   1.249   7.841 -0.4816  0.2641  0.2443
 8522SOL     OW27006   4.159   2.299   8.022  0.0544 -0.1756 -0.3718
 8522SOL    HW127007   4.224   2.366   8.001 -1.2196 -0.0431 -4.7567
 8522SOL    HW227008   4.077   2.332   7.986 -1.9107 -1.6899  2.3084
 8523SOL     OW27009   3.025   2.273   7.275  0.2640  0.2865 -0.1445
 8523SOL    HW127010   2.974   2.350   7.297 -0.7133  0.0159 -1.3990
 8523SOL    HW227011   3.096   2.305   7.219  0.6231  0.4396  0.3839
 8524SOL     OW27012   3.535   1.347   9.630 -0.4124 -0.0303  0.4482
 8524SOL    HW127013   3.626   1.360   9.657  0.0116 -0.8578 -0.5277
 8524SOL    HW227014   3.536   1.356   9.535 -1.3524 -0.0883  0.4187
 8525SOL     OW27015   3.007   3.470  10.008  0.2942 -0.1938  0.0294
 8525SOL    HW127016   3.072   3.455  10.077  0.7823  1.9280  0.0721
 8525SOL    HW227017   3.020   3.560   9.981 -1.2891 -0.3470 -1.4175
 8526SOL     OW27018   2.253   3.551  10.702 -0.2737 -0.3520 -0.0179
 8526SOL    HW127019   2.196   3.562  10.626  0.1935 -0.8289 -0.4441
 8526SOL    HW227020   2.267   3.640  10.734 -1.1292 -0.2175  0.0015
 8527SOL     OW27021   2.909   3.660   8.538  0.1639 -0.2129  0.2832
 8527SOL    HW127022   2.832   3.687   8.488  0.3747  0.3730  0.2711
 8527SOL    HW227023   2.977   3.723   8.513  0.1867  0.3026  1.5704
 8528SOL     OW27024   3.836   1.606   6.806  0.5115  0.1405 -0.3163
 8528SOL    HW127025   3.779   1.681   6.788 -1.2233 -1.1550 -0.5741
 8528SOL    HW227026   3.883   1.591   6.724 -1.3617 -0.8103 -1.2965
 8529SOL     OW27027   1.924   1.843   7.708 -0.0160  0.1061  0.3805
 8529SOL    HW127028   1.952   1.935   7.703 -0.1480  0.0665 -1.8013
 8529SOL    HW227029   1.983   1.796   7.650 -1.6348 -0.7393 -0.6624
 8530SOL     OW27030   3.567   1.239   8.762 -0.8453 -0.1042  0.3283
 8530SOL    HW127031   3.545   1.153   8.725  0.3673 -0.8111  1.1808
 8530SOL    HW227032   3.599   1.219   8.851  0.6347  1.0948  0.0961
 8531SOL     OW27033   2.701   2.834   9.128  1.2698  0.6822  0.0610
 8531SOL    HW127034   2.709   2.926   9.154  1.8502  0.6530 -0.0084
 8531SOL    HW227035   2.789   2.798   9.139  1.6520  0.7656 -2.3201
 8532SOL     OW27036   3.633   4.750   6.862 -0.6139  0.2120  0.0524
 8532SOL    HW127037   3.695   4.702   6.807 -0.1317 -0.4260  1.1261
 8532SOL    HW227038   3.688   4.810   6.912 -1.1168  1.2270 -0.5891
 8533SOL     OW27039   2.605   4.302   9.142  0.0948 -0.0411 -0.2358
 8533SOL    HW127040   2.679   4.280   9.086  0.1041  1.4535 -0.8713
 8533SOL    HW227041   2.545   4.349   9.084 -0.6660  0.0600  0.6180
 8534SOL     OW27042   1.254   0.880   6.469 -0.3697 -0.5816 -0.1970
 8534SOL    HW127043   1.309   0.835   6.405 -0.3882  0.4146 -0.9306
 8534SOL    HW227044   1.316   0.934   6.519 -0.2891 -1.6711  0.9510
 8535SOL     OW27045   2.074   3.639   7.351  0.2595 -0.5848 -0.2895
 8535SOL    HW127046   2.080   3.685   7.434  0.0626 -1.1979  0.0739
 8535SOL    HW227047   1.984   3.654   7.321  0.5030  0.1198 -0.6856
 8536SOL     OW27048   1.195   2.578   9.233 -0.9764 -0.6666 -0.2873
 8536SOL    HW127049   1.201   2.537   9.319 -0.4322 -1.8692 -0.8702
 8536SOL    HW227050   1.281   2.616   9.219 -1.4425  0.6156  0.1986
 8537SOL     OW27051   1.774   4.887   7.315  0.4486 -0.2616 -0.0525
 8537SOL    HW127052   1.805   4.940   7.242 -1.4630  0.7814 -0.1517
 8537SOL    HW227053   1.690   4.852   7.286  0.2566 -0.8780  1.1683
 8538SOL     OW27054   3.295   3.998  10.678  0.0058 -0.3043 -0.1211
 8538SOL    HW127055   3.247   3.917  10.661 -0.0864 -0.0479 -1.1466
 8538SOL    HW227056   3.369   3.995  10.617 -0.7260  0.9954 -1.1098
 8539SOL     OW27057   2.151   1.243   9.911  0.1619 -0.0464  0.6720
 8539SOL    HW127058   2.116   1.207   9.993  2.4200  0.9795  2.1789
 8539SOL    HW227059   2.244   1.255   9.928  0.4657  1.3715 -1.6481
 8540SOL     OW27060   0.452   3.653   6.726 -0.5654 -0.3202  0.3623
 8540SOL    HW127061   0.402   3.589   6.677 -2.2860  1.1211  0.1406
 8540SOL    HW227062   0.449   3.733   6.672  1.3996  0.0295  0.6783
 8541SOL     OW27063   2.248   3.415   8.469 -0.3753 -0.0201 -0.0833
 8541SOL    HW127064   2.199   3.493   8.494  0.1780  0.3719 -0.2025
 8541SOL    HW227065   2.192   3.371   8.406 -0.5085  0.5060 -0.3415
 8542SOL     OW27066   2.695   3.401   9.835  0.2503 -0.3887 -0.2839
 8542SOL    HW127067   2.786   3.418   9.811 -0.3055  1.4217 -1.2841
 8542SOL    HW227068   2.679   3.460   9.909 -0.1212 -0.6812 -0.1295
 8543SOL     OW27069   2.952   3.171   8.793  0.2150 -0.1225  0.3010
 8543SOL    HW127070   2.858   3.167   8.812  0.0779  0.0578 -0.3013
 8543SOL    HW227071   2.972   3.265   8.792  0.5058 -0.1716  0.8861
 8544SOL     OW27072   2.174   1.433   8.426  0.7050  0.0634  0.7421
 8544SOL    HW127073   2.269   1.435   8.416  0.6860 -1.8487 -0.2039
 8544SOL    HW227074   2.140   1.428   8.337 -0.3551  1.7569  1.0194
 8545SOL     OW27075   3.448   2.528   7.530  0.0082  0.4083  0.6000
 8545SOL    HW127076   3.419   2.575   7.452  2.2353 -1.2403 -1.3666
 8545SOL    HW227077   3.507   2.588   7.575  1.7496  0.1245 -1.1535
 8546SOL     OW27078   1.553   4.626   9.354 -0.0199 -0.1188 -0.2014
 8546SOL    HW127079   1.459   4.620   9.372  0.0997  0.0600  0.5117
 8546SOL    HW227080   1.593   4.558   9.407  0.1880 -0.7172 -1.1039
 8547SOL     OW27081   3.081   1.715   7.935 -0.1567  0.3280 -0.0675
 8547SOL    HW127082   3.037   1.728   8.018 -0.4356 -1.0392  0.0218
 8547SOL    HW227083   3.026   1.759   7.870 -2.0350 -1.8184 -0.0452
 8548SOL     OW27084   4.388   0.863   8.551 -0.7876 -0.5850 -0.0524
 8548SOL    HW127085   4.350   0.791   8.600 -1.4227 -0.3367 -0.1689
 8548SOL    HW227086   4.320   0.930   8.550  0.4365  0.7626  1.6409
 8549SOL     OW27087   3.598   1.168   7.616  0.4118  0.0927 -0.1982
 8549SOL    HW127088   3.643   1.248   7.588  1.1019 -0.8545 -2.0138
 8549SOL    HW227089   3.649   1.137   7.691  0.2912  1.2027  0.3609
 8550SOL     OW27090   2.254   2.789   9.012 -0.5336  0.0491 -0.0242
 8550SOL    HW127091   2.164   2.792   8.979  0.6115  0.0525 -3.5715
 8550SOL    HW227092   2.281   2.698   9.001  0.4317  0.4046 -0.7419
 8551SOL     OW27093   4.394   3.497   7.834 -0.4479 -0.2394 -0.7155
 8551SOL    HW127094   4.328   3.495   7.765 -1.2483 -1.3844  0.0467
 8551SOL    HW227095   4.396   3.408   7.867 -0.9817  0.5155  1.5529
 8552SOL     OW27096   1.986   3.751   8.641  0.2645 -0.0272  0.0482
 8552SOL    HW127097   2.028   3.837   8.646  0.0853  0.1242 -0.9393
 8552SOL    HW227098   2.029   3.707   8.567 -1.2959  0.1332 -1.0043
 8553SOL     OW27099   1.667   2.376  10.875  0.4675  0.1512 -0.3510
 8553SOL    HW127100   1.720   2.311  10.828  1.1503  0.6837 -0.3275
 8553SOL    HW227101   1.677   2.456  10.823 -0.9787  0.0636 -0.8004
 8554SOL     OW27102   1.753   2.154  10.716  0.1874  0.4956 -0.6758
 8554SOL    HW127103   1.835   2.110  10.738  0.2385  0.7312 -0.3883
 8554SOL    HW227104   1.707   2.092  10.659 -0.1760 -0.3460  0.5100
 8555SOL     OW27105   3.278   2.036   9.683  0.6123  0.1019 -0.0362
 8555SOL    HW127106   3.332   1.958   9.688  1.7775  0.9624  1.7833
 8555SOL    HW227107   3.308   2.092   9.755 -0.4051  2.0845 -1.0409
 8556SOL     OW27108   3.222   2.326  10.842 -0.2243 -0.6528  0.5561
 8556SOL    HW127109   3.222   2.304  10.748 -3.4697 -0.8588  0.4947
 8556SOL    HW227110   3.219   2.241  10.886  0.4016 -0.5378  0.8234
 8557SOL     OW27111   4.885   1.466   9.822 -0.2404 -0.5468 -0.3139
 8557SOL    HW127112   4.831   1.524   9.875 -0.6426 -0.3172 -0.9693
 8557SOL    HW227113   4.974   1.500   9.832 -0.6401  1.0577 -1.8008
 8558SOL     OW27114   2.582   1.844  10.827  0.0850 -0.2399  0.2443
 8558SOL    HW127115   2.615   1.910  10.766 -0.2777 -0.3072 -0.0294
 8558SOL    HW227116   2.487   1.854  10.824 -0.0542 -1.6748 -0.8192
 8559SOL     OW27117   2.383   1.361  12.312  0.2982 -0.0402  0.1027
 8559SOL    HW127118   2.351   1.390  12.226  0.3628 -1.0240 -0.2745
 8559SOL    HW227119   2.303   1.354  12.365  0.3246  1.1355  0.3041
 8560SOL     OW27120   3.434   2.412   8.204 -0.4274  1.0484  0.0692
 8560SOL    HW127121   3.486   2.373   8.134  0.9869  1.7819  0.6858
 8560SOL    HW227122   3.375   2.473   8.160  1.0788  2.1823 -0.4294
 8561SOL     OW27123   1.325   4.666   9.979  0.4916 -0.1680  0.0030
 8561SOL    HW127124   1.409   4.712   9.980 -0.1299  1.1365 -2.2294
 8561SOL    HW227125   1.341   4.588   9.926  0.5518 -0.4932  0.4931
 8562SOL     OW27126   3.027   1.165  11.474 -0.1853 -0.3036  0.1371
 8562SOL    HW127127   2.954   1.103  11.469 -0.3140 -0.0488 -2.3122
 8562SOL    HW227128   3.094   1.128  11.416  2.4028 -1.3429  3.4771
 8563SOL     OW27129   3.892   2.546  11.953  0.3412 -0.5775 -0.3588
 8563SOL    HW127130   3.822   2.559  12.017 -0.8306  0.8077 -1.8430
 8563SOL    HW227131   3.896   2.451  11.941  0.3852 -0.8521  1.4998
 8564SOL     OW27132   0.612   1.650  10.511 -0.1204 -0.1483  0.4750
 8564SOL    HW127133   0.624   1.609  10.425 -0.4001 -0.2631  0.4910
 8564SOL    HW227134   0.692   1.629  10.559 -0.0900 -0.3310  0.3451
 8565SOL     OW27135   2.447   2.131  10.173 -0.4598 -0.2715  0.5897
 8565SOL    HW127136   2.404   2.083  10.102 -0.3180  0.1157  0.2340
 8565SOL    HW227137   2.432   2.078  10.251 -2.2407  0.2275  0.6346
 8566SOL     OW27138   2.788   4.166   9.671 -0.7802  0.1605 -0.0609
 8566SOL    HW127139   2.812   4.077   9.698 -1.2920  0.0047 -0.1194
 8566SOL    HW227140   2.736   4.200   9.744 -1.7633 -0.0904 -0.6300
 8567SOL     OW27141   4.121   4.064  11.374 -0.4045  0.1455 -0.1617
 8567SOL    HW127142   4.044   4.065  11.430 -0.7759  0.0720 -0.6549
 8567SOL    HW227143   4.192   4.093  11.430 -0.9182  0.9094  0.1174
 8568SOL     OW27144   2.831   3.181  10.003 -0.2617 -0.1060 -0.1743
 8568SOL    HW127145   2.820   3.091   9.973  0.0238  0.6199 -2.7500
 8568SOL    HW227146   2.816   3.234   9.924 -1.1092  2.1546  1.3960
 8569SOL     OW27147   2.947   3.699   8.842 -0.5168 -0.2902  0.4958
 8569SOL    HW127148   2.899   3.709   8.759 -1.7754 -2.7739  0.8181
 8569SOL    HW227149   2.882   3.718   8.909 -0.5295 -1.7104  0.9166
 8570SOL     OW27150   3.455   2.687  11.267  0.6560  0.4032  0.0044
 8570SOL    HW127151   3.483   2.663  11.179  1.8525  2.2590 -0.1880
 8570SOL    HW227152   3.536   2.714  11.311 -0.3308  2.8706  0.4848
 8571SOL     OW27153   1.052   4.558   8.495  0.1281 -0.3243  0.0638
 8571SOL    HW127154   1.112   4.526   8.428  0.4634  0.7835 -0.1991
 8571SOL    HW227155   1.074   4.651   8.504 -0.3209 -0.3128  1.2805
 8572SOL     OW27156   3.534   1.297  10.651  0.3447 -0.5759  0.3399
 8572SOL    HW127157   3.472   1.291  10.724 -1.1294 -1.1750 -0.9036
 8572SOL    HW227158   3.482   1.329  10.578  1.9617  0.7179 -0.2904
 8573SOL     OW27159   0.171   4.022  10.798  0.1314 -0.3387  0.6897
 8573SOL    HW127160   0.150   4.033  10.891  0.1566  0.8120  0.5748
 8573SOL    HW227161   0.180   4.112  10.764  0.5001 -0.7444 -0.3393
 8574SOL     OW27162   2.803   3.425   8.703 -0.4138 -0.4091  0.4606
 8574SOL    HW127163   2.810   3.495   8.638  0.5780 -0.2297  0.7451
 8574SOL    HW227164   2.854   3.457   8.778  1.1327 -1.9489  0.1257
 8575SOL     OW27165   4.021   1.692   9.986  0.0270 -0.2011 -0.0926
 8575SOL    HW127166   4.006   1.692   9.891  0.7079  1.3917 -0.2222
 8575SOL    HW227167   3.967   1.764  10.019 -2.2836 -2.3233  1.1499
 8576SOL     OW27168   4.116   2.863   8.954  0.3911 -0.1159 -0.0435
 8576SOL    HW127169   4.066   2.848   8.874  0.6441 -1.2215 -0.0111
 8576SOL    HW227170   4.206   2.841   8.931  0.5848  0.2707  0.3413
 8577SOL     OW27171   4.287   2.696   9.197 -0.1388  0.1523 -0.1850
 8577SOL    HW127172   4.327   2.743   9.124  0.7692 -0.9838 -0.4506
 8577SOL    HW227173   4.284   2.761   9.268 -1.0692  1.2843 -1.2047
 8578SOL     OW27174   3.790   1.415   9.737  0.1325 -0.6765 -0.0661
 8578SOL    HW127175   3.772   1.462   9.819  1.2753 -1.5630  0.7371
 8578SOL    HW227176   3.826   1.481   9.679 -0.9224  0.0217  0.0422
 8579SOL     OW27177   4.409   3.319  10.827 -0.1809 -0.3816 -0.4948
 8579SOL    HW127178   4.340   3.308  10.892 -0.1952 -0.8269 -0.5815
 8579SOL    HW227179   4.464   3.242  10.837  0.8014  0.3688  0.1543
 8580SOL     OW27180   3.518   3.355  10.314  0.2457 -0.6825  0.1677
 8580SOL    HW127181   3.591   3.305  10.349  0.4925 -0.4473 -0.0045
 8580SOL    HW227182   3.440   3.309  10.345  0.4551 -0.4201  1.0929
 8581SOL     OW27183   2.824   2.278  10.907 -0.0865 -0.4686 -0.7843
 8581SOL    HW127184   2.806   2.364  10.945 -1.8123 -0.5888 -1.2570
 8581SOL    HW227185   2.855   2.226  10.980  2.0228  0.8000 -0.6849
 8582SOL     OW27186   2.858   4.615   7.140  0.1510 -0.2004 -0.1927
 8582SOL    HW127187   2.904   4.585   7.219  2.2419  0.3170 -1.1517
 8582SOL    HW227188   2.880   4.550   7.073  1.0578  1.0200 -1.1338
 8583SOL     OW27189   4.309   5.075  10.539  0.5711  0.0716  0.0031
 8583SOL    HW127190   4.238   5.083  10.475  0.0491 -2.6519  0.1096
 8583SOL    HW227191   4.389   5.075  10.486  0.1627 -1.8809 -0.6907
 8584SOL     OW27192   2.701   2.891  10.670  0.0654 -0.3066 -0.1313
 8584SOL    HW127193   2.623   2.894  10.615  0.4254 -1.8536 -0.7577
 8584SOL    HW227194   2.668   2.872  10.758 -0.3622  0.4571 -0.1149
 8585SOL     OW27195   3.219   3.955  10.195  0.5479 -0.3426  0.1554
 8585SOL    HW127196   3.231   3.874  10.244  0.1428  0.5828  1.8465
 8585SOL    HW227197   3.126   3.976  10.205  0.6049  0.2294 -0.4437
 8586SOL     OW27198   4.060   2.669   9.460 -0.2118 -0.5031  0.5661
 8586SOL    HW127199   4.044   2.579   9.433  0.7432 -0.6370  0.4153
 8586SOL    HW227200   4.155   2.675   9.469 -0.0782  0.9843 -1.1785
 8587SOL     OW27201   4.222   1.760  10.852 -0.7213 -0.3600 -0.0497
 8587SOL    HW127202   4.286   1.708  10.803  0.4962  2.1566 -1.3029
 8587SOL    HW227203   4.141   1.709  10.847  0.3167 -1.9789 -1.4169
 8588SOL     OW27204   4.135   2.863  10.001 -0.2593  0.1452 -0.1171
 8588SOL    HW127205   4.049   2.893   9.974 -0.2257 -0.7670 -1.3063
 8588SOL    HW227206   4.167   2.931  10.059 -0.5861  1.9194 -1.9245
 8589SOL     OW27207   2.165   0.668  10.060 -0.0756 -0.2662 -0.4197
 8589SOL    HW127208   2.176   0.696   9.969 -0.9765  1.2258 -0.0881
 8589SOL    HW227209   2.182   0.746  10.112  1.7751 -1.3973  0.8151
 8590SOL     OW27210   3.069   0.927  10.118  0.3202  0.4695  0.1770
 8590SOL    HW127211   3.048   0.851  10.171 -1.1985  0.6541 -0.1323
 8590SOL    HW227212   3.023   0.913  10.035  0.6422  1.3587 -0.1723
 8591SOL     OW27213   2.299   3.310   9.915  0.2790 -0.4937  0.2594
 8591SOL    HW127214   2.299   3.400   9.884  1.2585  0.6867  3.3313
 8591SOL    HW227215   2.212   3.297   9.952 -0.0831 -1.0649 -0.7629
 8592SOL     OW27216   6.680   1.465  10.432 -0.4710  0.1614  0.2496
 8592SOL    HW127217   6.614   1.426  10.489  0.8153 -1.9603  0.4398
 8592SOL    HW227218   6.686   1.404  10.358  0.4342  0.9212 -0.3263
 8593SOL     OW27219   4.166   4.735  11.267 -0.1784  0.3908  0.1396
 8593SOL    HW127220   4.231   4.668  11.288  0.6762  1.1039 -0.1888
 8593SOL    HW227221   4.105   4.733  11.341  0.3946 -0.0642  0.6087
 8594SOL     OW27222   4.199   0.550   9.927  0.2382 -0.2257 -0.0159
 8594SOL    HW127223   4.272   0.558   9.866 -0.0219  0.1925 -0.2752
 8594SOL    HW227224   4.124   0.586   9.880 -0.2238 -1.0098  0.1015
 8595SOL     OW27225   5.722   2.843  12.063  0.5719  0.1166 -0.3795
 8595SOL    HW127226   5.691   2.847  12.153 -1.7311 -0.0564 -1.1141
 8595SOL    HW227227   5.801   2.788  12.067  0.9590  0.7404  1.5992
 8596SOL     OW27228   1.906   3.167   9.127  0.3796 -0.6151 -0.3827
 8596SOL    HW127229   1.918   3.203   9.215 -0.0288  0.1940 -0.6466
 8596SOL    HW227230   1.823   3.206   9.097  1.5876  0.8957 -1.9752
 8597SOL     OW27231   3.535   1.347   9.362 -0.7633 -0.3714  0.0591
 8597SOL    HW127232   3.447   1.308   9.361 -0.8230 -0.2261 -0.5087
 8597SOL    HW227233   3.550   1.375   9.272  0.6893 -2.2084 -0.3390
 8598SOL     OW27234   2.484   4.026   9.646 -0.0674 -0.2333  0.4708
 8598SOL    HW127235   2.527   4.085   9.583 -0.1218  0.0480  0.6947
 8598SOL    HW227236   2.393   4.055   9.647 -0.1234 -0.4074  0.4877
 8599SOL     OW27237   5.648   1.556   9.701  0.0661 -0.7697 -0.2938
 8599SOL    HW127238   5.570   1.572   9.755  0.3096 -0.0907 -0.1365
 8599SOL    HW227239   5.659   1.461   9.704  2.1965 -0.6215  3.8865
 8600SOL     OW27240   4.910   2.647   9.611 -0.2043  0.1342 -0.0743
 8600SOL    HW127241   4.874   2.609   9.531 -2.3484 -1.1426  1.3550
 8600SOL    HW227242   4.839   2.702   9.645  1.1615  1.7445  0.2934
 8601SOL     OW27243   4.059   3.058  11.889  0.1039  0.5562 -0.2014
 8601SOL    HW127244   4.116   3.020  11.956  0.1723  1.0979  0.0550
 8601SOL    HW227245   3.999   2.987  11.865  1.1596 -0.1699 -0.8051
 8602SOL     OW27246   3.772   2.925   8.907  0.1038  0.5154  0.0280
 8602SOL    HW127247   3.712   2.913   8.834  0.0892  0.4967  0.0435
 8602SOL    HW227248   3.827   2.999   8.881 -1.6811  2.3443  1.1959
 8603SOL     OW27249   3.441   3.620  10.946  0.5787 -0.6987  0.2559
 8603SOL    HW127250   3.376   3.575  11.000 -1.1337  0.6516 -0.6039
 8603SOL    HW227251   3.431   3.713  10.968  0.2471 -0.1731 -1.8769
 8604SOL     OW27252   2.847   2.355  11.386 -0.1996  0.8137 -0.5596
 8604SOL    HW127253   2.879   2.406  11.460 -0.3496  0.8108 -0.4940
 8604SOL    HW227254   2.847   2.265  11.417 -1.2203  0.9207 -0.2309
 8605SOL     OW27255   2.221   3.015   9.942  0.0390  0.2383  0.0678
 8605SOL    HW127256   2.203   2.921   9.948 -2.5774  0.6093 -1.1065
 8605SOL    HW227257   2.182   3.051  10.022 -2.0427  0.6914 -1.1004
 8606SOL     OW27258   3.225   3.407  10.163 -0.3929  0.0086 -0.3658
 8606SOL    HW127259   3.258   3.335  10.109 -2.2139 -0.1817 -1.2997
 8606SOL    HW227260   3.261   3.486  10.122 -0.6855 -0.2198 -1.0847
 8607SOL     OW27261   1.405   3.334   8.877 -0.3843  0.5382  0.1654
 8607SOL    HW127262   1.355   3.415   8.887  0.3261  1.1022 -0.6795
 8607SOL    HW227263   1.351   3.279   8.820 -0.1242  1.0778 -0.6085
 8608SOL     OW27264   2.370   1.570   9.341  0.2906 -0.2755 -0.0095
 8608SOL    HW127265   2.402   1.480   9.346 -0.2116 -0.4801 -0.4024
 8608SOL    HW227266   2.450   1.623   9.337  0.5885 -0.6736  0.6074
 8609SOL     OW27267   1.177   4.867   9.841 -0.2228 -0.2380 -0.6594
 8609SOL    HW127268   1.256   4.921   9.836 -0.9565  0.9251 -0.1044
 8609SOL    HW227269   1.193   4.807   9.913  0.0891  0.1120 -0.4353
 8610SOL     OW27270   2.406   4.095  10.464 -0.1745  0.6408  0.4418
 8610SOL    HW127271   2.387   4.175  10.415  2.2301  0.7783 -0.4258
 8610SOL    HW227272   2.394   4.119  10.555  1.4340  2.3527  0.2665
 8611SOL     OW27273   3.540   1.556   9.840 -0.5403 -0.6618  0.5409
 8611SOL    HW127274   3.501   1.497   9.776 -0.4569 -0.6404  0.4702
 8611SOL    HW227275   3.556   1.501   9.917 -0.0306 -0.8456  0.3109
 8612SOL     OW27276   5.192   2.096  10.876 -0.6081  0.0553 -0.1124
 8612SOL    HW127277   5.223   2.182  10.903  0.0244 -0.6196  1.3988
 8612SOL    HW227278   5.097   2.105  10.871 -0.8720  0.0895  3.0663
 8613SOL     OW27279   1.075   2.261   9.730 -0.4431 -0.5304  0.5007
 8613SOL    HW127280   1.017   2.331   9.761 -0.3990  0.3952 -1.3675
 8613SOL    HW227281   1.037   2.234   9.647  1.1650 -0.7102 -0.2056
 8614SOL     OW27282   1.969   1.748  11.017  0.0141 -0.2167  0.3479
 8614SOL    HW127283   1.889   1.725  11.065  1.0750  0.6364  2.6552
 8614SOL    HW227284   2.028   1.673  11.032  0.3492  0.0497  0.3713
 8615SOL     OW27285   2.466   2.988  10.460  0.2393 -0.4967  0.2897
 8615SOL    HW127286   2.405   2.940  10.403 -0.1764 -1.0707  1.1929
 8615SOL    HW227287   2.545   2.999  10.408  0.2921 -2.0439 -0.0045
 8616SOL     OW27288   2.830   3.698   9.715 -0.3710 -0.7972 -0.1526
 8616SOL    HW127289   2.871   3.624   9.760 -0.0500 -0.8255 -0.4870
 8616SOL    HW227290   2.852   3.774   9.770  0.1988 -0.8005 -0.3709
 8617SOL     OW27291   1.950   2.803   9.714 -0.1204 -0.1227 -0.0263
 8617SOL    HW127292   1.984   2.811   9.625  0.7052 -0.3924  0.2511
 8617SOL    HW227293   1.869   2.753   9.705  0.0940 -0.3684 -0.6013
 8618SOL     OW27294   4.824   1.906  10.172 -0.1711  0.6552  0.2099
 8618SOL    HW127295   4.857   1.859  10.096 -0.4324  0.0598  0.4620
 8618SOL    HW227296   4.789   1.988  10.135  0.9419  0.9889 -0.1341
 8619SOL     OW27297   5.184   1.840   9.308  0.3422 -0.5151  0.1669
 8619SOL    HW127298   5.117   1.907   9.322  0.5245 -0.4733  0.8463
 8619SOL    HW227299   5.142   1.775   9.251 -0.0258 -0.1176 -0.0190
 8620SOL     OW27300   1.810   2.485   9.396  0.4892  0.6667 -0.4505
 8620SOL    HW127301   1.748   2.435   9.449  1.1547  1.1352  0.8077
 8620SOL    HW227302   1.886   2.427   9.386  0.8607  1.0361  0.1692
 8621SOL     OW27303   5.059   0.522  10.685 -0.5658  0.9047  0.1767
 8621SOL    HW127304   5.147   0.558  10.695 -1.3778  3.5082 -1.0759
 8621SOL    HW227305   5.005   0.597  10.659 -2.9303 -0.8251 -0.2711
 8622SOL     OW27306   2.865   1.645   0.510  0.1124 -0.5904 -0.5089
 8622SOL    HW127307   2.890   1.680   0.595  0.1417  0.2945 -0.8692
 8622SOL    HW227308   2.790   1.589   0.527 -0.5385  0.4047 -0.0350
 8623SOL     OW27309   3.083   4.629   9.587 -0.2800 -0.4045  0.3430
 8623SOL    HW127310   3.074   4.541   9.549  0.8056 -0.6822  0.7113
 8623SOL    HW227311   2.993   4.663   9.588 -0.5114 -0.8378 -1.3697
 8624SOL     OW27312   4.151   3.653  10.803  0.2622  0.1653 -0.3462
 8624SOL    HW127313   4.100   3.727  10.768 -0.0180 -0.8812 -2.2571
 8624SOL    HW227314   4.101   3.625  10.881 -0.6812  0.7792 -0.7093
 8625SOL     OW27315   3.700   4.288  10.495  0.0190 -0.1564 -0.0070
 8625SOL    HW127316   3.645   4.360  10.525 -0.7170 -0.9587  0.6300
 8625SOL    HW227317   3.784   4.303  10.537  0.2207  0.9136 -0.7432
 8626SOL     OW27318   3.864   2.509   8.834  0.2315 -0.1738  0.3397
 8626SOL    HW127319   3.808   2.523   8.758  0.9209 -0.8811 -0.3266
 8626SOL    HW227320   3.901   2.595   8.853  0.2117 -0.0222 -0.2731
 8627SOL     OW27321   2.421   2.268  11.221  0.0246 -0.0644 -0.3244
 8627SOL    HW127322   2.354   2.329  11.252 -0.8441 -0.2675 -1.7217
 8627SOL    HW227323   2.419   2.196  11.285  0.2544  0.7978  0.6883
 8628SOL     OW27324   2.379   2.355   8.357 -0.3913 -0.5464 -0.0976
 8628SOL    HW127325   2.363   2.423   8.423 -0.8661  0.6031 -1.3514
 8628SOL    HW227326   2.420   2.402   8.284 -2.4861 -1.1899 -1.7728
 8629SOL     OW27327   1.370   2.019   9.847  0.0798 -0.0625 -0.2042
 8629SOL    HW127328   1.316   2.022   9.926  1.2338  2.3275  0.6013
 8629SOL    HW227329   1.417   1.935   9.853  0.1090  0.0475  1.6319
 8630SOL     OW27330   1.609   0.698   8.626 -0.4338 -0.3283 -0.0222
 8630SOL    HW127331   1.652   0.769   8.579 -0.1672 -0.6863 -0.3140
 8630SOL    HW227332   1.559   0.743   8.695 -0.7838  0.1919 -0.5981
 8631SOL     OW27333   2.452   3.827  10.071  0.2202 -0.0378  0.1280
 8631SOL    HW127334   2.410   3.913  10.071  2.6049  1.2390  1.1770
 8631SOL    HW227335   2.508   3.828   9.993  2.3800  0.5976  1.5917
 8632SOL     OW27336   5.586   1.811   8.995  0.4661  0.2677 -0.3646
 8632SOL    HW127337   5.525   1.857   9.053  0.9529  1.5206 -0.7973
 8632SOL    HW227338   5.594   1.869   8.918  3.7449  1.2340  0.5336
 8633SOL     OW27339   3.717   2.907   8.017  0.2211  0.5365 -0.3893
 8633SOL    HW127340   3.624   2.930   8.014  0.0732  0.0430  0.0917
 8633SOL    HW227341   3.762   2.990   8.023 -0.2394  0.7510  0.1960
 8634SOL     OW27342   3.883   7.798   8.120 -0.1394 -0.0467  0.6580
 8634SOL    HW127343   3.807   7.785   8.178 -0.8013  1.5283  0.1906
 8634SOL    HW227344   3.847   7.841   8.043  1.2493  0.8388  0.4659
 8635SOL     OW27345   2.878   0.341   9.249  0.1349  0.1672 -0.1087
 8635SOL    HW127346   2.908   0.277   9.313  0.0376 -1.8859 -1.9864
 8635SOL    HW227347   2.948   0.405   9.243  1.4079 -1.1725  0.0112
 8636SOL     OW27348   1.126   1.858   9.378  0.2677  0.5153 -0.5952
 8636SOL    HW127349   1.120   1.946   9.339 -0.3749  0.9865  0.5296
 8636SOL    HW227350   1.100   1.799   9.307 -1.6372  1.4058 -0.6841
 8637SOL     OW27351   3.649   1.791  11.367 -0.7973  0.6532  0.5348
 8637SOL    HW127352   3.596   1.727  11.320 -0.1435 -0.2910  1.0350
 8637SOL    HW227353   3.626   1.875  11.328 -1.1821  0.0398 -0.6174
 8638SOL     OW27354   2.303   0.865  10.468  0.6309  0.4906  0.2882
 8638SOL    HW127355   2.262   0.924  10.406 -0.9925  0.1341  0.9734
 8638SOL    HW227356   2.280   0.900  10.554  2.1129  0.4904  0.7130
 8639SOL     OW27357   4.289   3.595  10.568 -0.0798  0.0472 -0.0984
 8639SOL    HW127358   4.220   3.641  10.521 -0.5152 -0.5607 -0.0631
 8639SOL    HW227359   4.276   3.619  10.660 -0.8915 -0.8792  0.0401
 8640SOL     OW27360   2.921   3.888  10.535  0.0091  0.3534  0.3967
 8640SOL    HW127361   2.924   3.920  10.625 -0.7541  0.7096  0.2997
 8640SOL    HW227362   2.832   3.906  10.506 -0.9480 -3.0403  0.7675
 8641SOL     OW27363   4.252   4.089  11.605  0.1599 -0.3774  0.1222
 8641SOL    HW127364   4.199   4.010  11.618  0.9022 -0.8505  0.3530
 8641SOL    HW227365   4.342   4.060  11.620  0.5452  0.2829 -0.8333
 8642SOL     OW27366   3.727   0.097  10.220 -0.1695  0.3598 -0.5011
 8642SOL    HW127367   3.761   0.175  10.175 -1.0934  0.5754 -0.8689
 8642SOL    HW227368   3.770   0.024  10.176  0.6988  0.6510 -0.1624
 8643SOL     OW27369   4.493   0.886  10.321  0.0386 -0.3419 -0.0205
 8643SOL    HW127370   4.525   0.848  10.402 -0.4707  2.5992  1.7326
 8643SOL    HW227371   4.424   0.826  10.292  0.0112 -1.3189  1.9016
 8644SOL     OW27372   3.295   3.189  10.378 -0.0360 -0.5677 -0.6571
 8644SOL    HW127373   3.257   3.110  10.418 -0.1286  0.9500  2.5999
 8644SOL    HW227374   3.226   3.255  10.385  0.2300 -0.0026 -2.8218
 8645SOL     OW27375   3.334   2.939   9.945 -0.0662 -0.4717  0.5275
 8645SOL    HW127376   3.373   3.009   9.996 -0.9715 -1.5189  2.7858
 8645SOL    HW227377   3.405   2.877   9.929  0.6981  0.8008 -1.3395
 8646SOL     OW27378   1.719   2.581   8.237  0.2634  0.2246  0.3219
 8646SOL    HW127379   1.714   2.582   8.141 -1.3876  0.1347  0.3858
 8646SOL    HW227380   1.776   2.507   8.258  0.6447  0.2511 -0.5782
 8647SOL     OW27381   6.971   2.811  10.175 -0.2125 -0.0379  0.2350
 8647SOL    HW127382   6.947   2.771  10.092 -1.4204  0.6121  0.2452
 8647SOL    HW227383   6.925   2.760  10.241 -0.5315  0.4168  0.3711
 8648SOL     OW27384   3.106   1.723   9.744  0.4757  0.2885  0.9354
 8648SOL    HW127385   3.059   1.717   9.661  0.0627 -1.2081  1.2426
 8648SOL    HW227386   3.184   1.775   9.724 -0.1861  0.9300 -0.1004
 8649SOL     OW27387   3.668   2.009  10.231 -0.2868  0.3779  0.3921
 8649SOL    HW127388   3.679   1.995  10.325  1.0687 -2.3128 -0.0790
 8649SOL    HW227389   3.718   2.089  10.213 -1.2756  1.4316  2.0394
 8650SOL     OW27390   3.004   3.515  10.606  0.6864  1.2222  0.0495
 8650SOL    HW127391   3.052   3.518  10.688 -0.6863  2.2321  0.8638
 8650SOL    HW227392   2.912   3.507  10.632  0.4070 -1.3910 -1.4677
 8651SOL     OW27393   3.119   4.300  11.310 -0.3649 -0.1538 -0.0794
 8651SOL    HW127394   3.191   4.287  11.372 -0.2789 -0.7548 -0.2954
 8651SOL    HW227395   3.053   4.236  11.336  0.3832 -1.6249 -1.6399
 8652SOL     OW27396   4.016   1.844  11.066 -0.4623  0.5741  0.2447
 8652SOL    HW127397   4.108   1.849  11.040 -0.2232  0.9602  1.1554
 8652SOL    HW227398   4.014   1.880  11.154 -1.0122 -2.0843  1.4157
 8653SOL     OW27399   2.913   2.755   8.335 -0.0797  0.2059  0.1212
 8653SOL    HW127400   2.984   2.764   8.271  0.1295 -0.8603  0.1804
 8653SOL    HW227401   2.946   2.799   8.414  0.6689 -0.5595  0.2510
 8654SOL     OW27402   2.606   2.376  12.108 -0.1959 -0.0084  0.3314
 8654SOL    HW127403   2.648   2.440  12.049  0.2121 -1.7045 -1.3129
 8654SOL    HW227404   2.659   2.380  12.188  0.5439  0.8576 -0.1698
 8655SOL     OW27405   3.385   1.286  10.874 -0.0291 -0.0277 -0.4423
 8655SOL    HW127406   3.403   1.361  10.931 -0.9614  0.1131 -0.3136
 8655SOL    HW227407   3.355   1.217  10.934 -1.8013  0.3789 -0.8166
 8656SOL     OW27408   4.483   2.663  11.015 -0.3291  0.1112 -0.4375
 8656SOL    HW127409   4.391   2.644  11.000 -0.4439  0.7408 -0.5270
 8656SOL    HW227410   4.494   2.656  11.110 -0.7444  1.2379 -0.2930
 8657SOL     OW27411   3.285   0.823  10.963  0.3776 -0.0055  0.0862
 8657SOL    HW127412   3.244   0.890  10.908  0.3575  0.2458  0.4007
 8657SOL    HW227413   3.378   0.826  10.940  0.7200  1.5344  1.5075
 8658SOL     OW27414   2.781   2.066  11.886 -0.3569 -0.9946 -0.0464
 8658SOL    HW127415   2.695   2.045  11.921 -0.6864 -0.9279 -0.8008
 8658SOL    HW227416   2.814   2.135  11.944 -1.3548 -0.1104 -0.4934
 8659SOL     OW27417   3.969   3.216  11.049  0.8228  0.2935 -0.4032
 8659SOL    HW127418   4.005   3.196  10.962  0.7447 -2.5341  0.1325
 8659SOL    HW227419   3.910   3.290  11.033  2.8393  1.6220 -2.2289
 8660SOL     OW27420   4.038   1.093   8.911  0.0512  0.1790  0.2016
 8660SOL    HW127421   4.085   1.131   8.986  1.2718  0.3247 -0.6133
 8660SOL    HW227422   3.946   1.093   8.938  0.6274 -1.6421  2.5360
 8661SOL     OW27423   2.632   1.884  11.105  0.0819 -0.0752 -0.0451
 8661SOL    HW127424   2.615   1.818  11.172 -0.1184  1.1686  1.1846
 8661SOL    HW227425   2.637   1.835  11.023 -1.0820 -1.4711  0.6807
 8662SOL     OW27426   2.316   3.783  10.811 -0.0932  0.4517  0.1839
 8662SOL    HW127427   2.245   3.839  10.782  0.4126 -0.7294 -3.9951
 8662SOL    HW227428   2.396   3.832  10.791  0.3020 -0.3261 -0.2046
 8663SOL     OW27429   5.247   2.345   8.873 -0.1499  0.0900  0.1315
 8663SOL    HW127430   5.202   2.263   8.896 -0.4834  0.1750 -0.2104
 8663SOL    HW227431   5.191   2.414   8.909 -0.4548  0.2076 -0.5587
 8664SOL     OW27432   4.587   2.007   9.767  0.0546 -0.0295 -0.1040
 8664SOL    HW127433   4.611   1.994   9.675  1.3027  0.6941  0.1022
 8664SOL    HW227434   4.522   1.939   9.784  0.0736 -0.4044 -1.4242
 8665SOL     OW27435   1.771   2.316  10.489 -0.2322 -0.2508  0.0045
 8665SOL    HW127436   1.862   2.299  10.513 -0.9203 -2.3306  1.3714
 8665SOL    HW227437   1.741   2.381  10.552  0.4574  0.9631 -0.8768
 8666SOL     OW27438   2.292   2.628   9.604 -0.0781  0.0634  0.0589
 8666SOL    HW127439   2.256   2.710   9.572  0.8896  0.5626  0.2026
 8666SOL    HW227440   2.224   2.563   9.586 -0.6837  0.8162 -0.4422
 8667SOL     OW27441   4.059   2.114   9.131 -0.4225  0.1273 -0.6498
 8667SOL    HW127442   4.033   2.181   9.069 -2.0711 -0.4719 -0.6522
 8667SOL    HW227443   4.040   2.031   9.086  1.9886 -0.4007 -0.8382
 8668SOL     OW27444   2.903   2.525  12.464 -0.4183  0.7721 -0.4430
 8668SOL    HW127445   2.934   2.550  12.377  0.3022 -0.6679 -0.6177
 8668SOL    HW227446   2.834   2.588  12.483  0.3117  1.9441 -1.4860
 8669SOL     OW27447   5.182   4.547  10.192 -0.4976  0.0028  0.5088
 8669SOL    HW127448   5.227   4.491  10.256  0.7577 -2.6037 -2.3899
 8669SOL    HW227449   5.094   4.509  10.186 -1.4305  1.7041  2.2116
 8670SOL     OW27450   3.294   2.423  12.265 -0.0971  0.2081  0.1242
 8670SOL    HW127451   3.374   2.426  12.212 -0.0049  0.0502  0.2512
 8670SOL    HW227452   3.323   2.444  12.353 -0.0145 -0.8312  0.3659
 8671SOL     OW27453   3.266   3.024   8.675  0.4427  0.7168 -0.1452
 8671SOL    HW127454   3.268   3.118   8.661  0.8583  0.8161  0.5264
 8671SOL    HW227455   3.210   3.013   8.752 -0.2046  0.3506 -0.6543
 8672SOL     OW27456   4.771   0.938   9.770  0.1801  0.3644 -0.0843
 8672SOL    HW127457   4.766   1.023   9.813 -1.8635  0.7024 -0.8292
 8672SOL    HW227458   4.793   0.958   9.679 -1.2150  0.2365 -0.4820
 8673SOL     OW27459   3.802   3.711  11.807 -0.0926 -0.0544 -0.3356
 8673SOL    HW127460   3.786   3.618  11.791  0.6479 -0.3010  0.3035
 8673SOL    HW227461   3.858   3.713  11.885  1.5703  0.8184 -1.4847
 8674SOL     OW27462   2.431   2.070  10.565  0.0999 -0.5883 -0.3862
 8674SOL    HW127463   2.515   2.092  10.524  0.2212 -0.7800 -0.2412
 8674SOL    HW227464   2.394   2.002  10.509 -0.6398  0.5225 -1.2853
 8675SOL     OW27465   1.947   3.965  10.887 -0.1705  0.3405 -0.0092
 8675SOL    HW127466   1.904   3.881  10.870 -1.1127  1.1636 -1.9300
 8675SOL    HW227467   1.906   3.996  10.968 -0.1290 -0.8274  0.4848
 8676SOL     OW27468   2.038   1.994  12.201 -0.4900  0.1148 -0.0817
 8676SOL    HW127469   1.978   2.033  12.137 -0.8394  0.8690  0.6793
 8676SOL    HW227470   2.015   1.901  12.202 -1.7029  0.3964  0.2317
 8677SOL     OW27471   1.848   1.010  10.716  0.0348 -0.3307 -0.2613
 8677SOL    HW127472   1.803   0.960  10.648 -0.0635 -0.4598 -0.1053
 8677SOL    HW227473   1.941   0.993  10.702  0.0024 -0.5416 -0.2234
 8678SOL     OW27474   1.615   4.062   9.267 -0.3232 -0.3547  0.0260
 8678SOL    HW127475   1.655   4.139   9.307 -0.4860 -0.5945  0.6635
 8678SOL    HW227476   1.557   4.098   9.199  0.3271  0.0303 -0.3313
 8679SOL     OW27477   0.276   2.106   9.043 -0.0923  0.0857  0.5003
 8679SOL    HW127478   0.305   2.150   8.964 -0.2521  2.6320  1.7557
 8679SOL    HW227479   0.182   2.092   9.030  0.4214 -2.6549 -1.0690
 8680SOL     OW27480   3.192   3.739  10.634 -0.2131  0.2653  0.0036
 8680SOL    HW127481   3.209   3.655  10.677 -2.8283 -0.1907  0.3538
 8680SOL    HW227482   3.112   3.724  10.583 -0.1314  2.2437 -0.7928
 8681SOL     OW27483   3.176   2.642  10.235  0.3653 -0.4439  0.2156
 8681SOL    HW127484   3.121   2.720  10.244  1.3708  0.4937 -1.2310
 8681SOL    HW227485   3.184   2.607  10.324  3.0777  3.3803  1.7756
 8682SOL     OW27486   0.744   3.043   9.862  0.1347  0.4730  0.0873
 8682SOL    HW127487   0.745   3.138   9.874 -0.3166  0.5620 -0.5604
 8682SOL    HW227488   0.833   3.016   9.884 -0.2686  0.7700  2.3500
 8683SOL     OW27489   0.711   2.613  11.399  0.1747 -0.3046  0.4913
 8683SOL    HW127490   0.726   2.707  11.386  1.0728 -0.3804  0.9020
 8683SOL    HW227491   0.660   2.586  11.324 -0.7243  0.6641  0.7319
 8684SOL     OW27492   4.382   2.712   9.925 -0.3467 -0.1696  0.3125
 8684SOL    HW127493   4.297   2.719   9.968 -1.0291  1.1569 -1.1557
 8684SOL    HW227494   4.434   2.783   9.963 -0.3804 -0.0762  0.1851
 8685SOL     OW27495   3.271   2.435  11.559 -0.4022  0.0249  0.3278
 8685SOL    HW127496   3.275   2.343  11.534  1.4789 -0.3795  1.9164
 8685SOL    HW227497   3.177   2.456  11.554 -0.6716 -1.3598 -1.9790
 8686SOL     OW27498   2.412   2.990   8.235  0.8842 -0.4536  0.1574
 8686SOL    HW127499   2.375   3.026   8.154 -0.9707 -0.4743  0.9403
 8686SOL    HW227500   2.465   3.061   8.271  0.0031  0.3188 -0.0285
 8687SOL     OW27501   3.040   4.523  11.832 -0.1730 -0.0201 -0.1962
 8687SOL    HW127502   3.103   4.520  11.904 -1.4400 -0.0807  0.9497
 8687SOL    HW227503   3.091   4.556  11.758  2.2041 -3.6841 -0.4324
 8688SOL     OW27504   3.505   3.174   8.899  0.4022  0.0146 -0.0830
 8688SOL    HW127505   3.569   3.180   8.970  1.0475 -0.9970 -0.5576
 8688SOL    HW227506   3.536   3.101   8.845 -1.2876 -0.6614 -0.1940
 8689SOL     OW27507   5.374   3.314  11.972 -0.0258  0.1623 -0.1938
 8689SOL    HW127508   5.415   3.313  12.058 -0.2959 -2.4868 -0.0366
 8689SOL    HW227509   5.283   3.289  11.987 -0.1990  0.1259 -1.2011
 8690SOL     OW27510   2.272   2.983   7.656  0.0667  0.5885 -0.1447
 8690SOL    HW127511   2.363   3.011   7.644  0.4808 -0.5061  0.2998
 8690SOL    HW227512   2.229   3.006   7.573  0.6156  1.5648 -0.1786
 8691SOL     OW27513   3.199   2.919  10.488 -0.3291  0.1761 -0.3297
 8691SOL    HW127514   3.107   2.899  10.507  0.1362 -0.5075  1.3724
 8691SOL    HW227515   3.224   2.854  10.422 -0.8967 -0.0282 -0.3518
 8692SOL     OW27516   3.304   1.176   9.654  0.3713  0.0332 -0.0584
 8692SOL    HW127517   3.389   1.218   9.668  0.2847  0.4018 -0.5966
 8692SOL    HW227518   3.246   1.217   9.719  0.3960  0.4193 -0.2774
 8693SOL     OW27519   4.279   2.325   8.560 -0.1323  0.1617  0.0779
 8693SOL    HW127520   4.190   2.307   8.530  0.2718 -0.0624 -1.0117
 8693SOL    HW227521   4.317   2.382   8.493  0.7033 -0.1313  0.2835
 8694SOL     OW27522   3.977   3.604  10.059 -0.0113 -0.0615 -0.5595
 8694SOL    HW127523   3.952   3.543  10.128 -1.1024  1.9552  0.9279
 8694SOL    HW227524   3.896   3.622  10.012  0.1603  0.6896 -0.5863
 8695SOL     OW27525   3.881   4.024  10.262 -0.2913 -0.4047 -0.2474
 8695SOL    HW127526   3.929   4.053  10.340  0.4302 -0.8858 -0.5022
 8695SOL    HW227527   3.869   4.104  10.210  1.8097 -0.5324 -1.0183
 8696SOL     OW27528   2.080   2.754  10.225  0.0993 -0.2217 -0.0174
 8696SOL    HW127529   2.096   2.734  10.133 -0.3260 -0.6582  0.0021
 8696SOL    HW227530   2.061   2.670  10.266  1.4308 -0.1964  0.7186
 8697SOL     OW27531   3.234   3.704  10.307 -1.0708 -0.0674 -0.3547
 8697SOL    HW127532   3.270   3.685  10.220  0.6844  1.5606 -0.0490
 8697SOL    HW227533   3.300   3.673  10.368 -1.8394 -0.2751  0.4018
 8698SOL     OW27534   3.172   3.061   7.347 -0.1376 -0.4478  0.3524
 8698SOL    HW127535   3.211   3.145   7.370 -0.1734 -0.4879  0.5562
 8698SOL    HW227536   3.210   3.040   7.261 -0.6093  0.0861  0.0029
 8699SOL     OW27537   2.849   2.431  10.293  0.5369 -0.2937  0.1806
 8699SOL    HW127538   2.873   2.439  10.200 -1.5146  0.0798 -0.3503
 8699SOL    HW227539   2.782   2.363  10.295 -0.6976  0.9162  1.1405
 8700SOL     OW27540   4.202   2.596  11.014 -0.2609 -0.3555  0.1126
 8700SOL    HW127541   4.176   2.688  11.018 -1.4311 -0.6084 -0.8978
 8700SOL    HW227542   4.160   2.564  10.934 -1.9212 -2.3789  1.6904
 8701SOL     OW27543   0.448   3.489  10.384 -0.7342 -0.5525  0.1687
 8701SOL    HW127544   0.385   3.560  10.397 -3.0293 -2.4777  0.2282
 8701SOL    HW227545   0.496   3.485  10.467  0.9524  2.1814 -0.5287
 8702SOL     OW27546   2.501   4.119   8.749 -0.2023 -0.0630 -0.3282
 8702SOL    HW127547   2.501   4.197   8.694 -0.0403 -0.4083 -0.8257
 8702SOL    HW227548   2.428   4.132   8.810 -0.5348  0.2103 -0.7860
 8703SOL     OW27549   2.577   4.828  12.040  0.0630 -0.3755  0.0154
 8703SOL    HW127550   2.605   4.910  12.081 -1.4483  0.1497  0.0641
 8703SOL    HW227551   2.590   4.842  11.946  0.2845 -0.2674  0.0630
 8704SOL     OW27552   3.774   2.767   9.929  0.5700  0.4586 -0.3790
 8704SOL    HW127553   3.773   2.856   9.963  0.0747  0.9518 -1.6289
 8704SOL    HW227554   3.819   2.773   9.845 -1.3890 -0.0323 -1.5283
 8705SOL     OW27555   0.888   2.689   9.599  0.0521  0.3547 -0.1600
 8705SOL    HW127556   0.961   2.722   9.652  0.0943 -0.4449  0.2968
 8705SOL    HW227557   0.811   2.729   9.638  0.1228  0.0984  0.2543
 8706SOL     OW27558   2.490   2.958   9.657 -0.2867 -0.1870 -0.0021
 8706SOL    HW127559   2.543   2.883   9.686 -0.9326 -1.0458 -0.9690
 8706SOL    HW227560   2.532   2.986   9.576 -0.5914 -0.1052 -0.1322
 8707SOL     OW27561   4.601   5.228  10.137  0.0998  0.3561  0.5936
 8707SOL    HW127562   4.611   5.291  10.209  0.2671 -0.8723  1.6924
 8707SOL    HW227563   4.511   5.242  10.106  0.6327  2.1846 -0.2458
 8708SOL     OW27564   2.643   1.540   9.729 -0.0520 -0.3811 -0.0894
 8708SOL    HW127565   2.568   1.574   9.778 -0.3431  0.4379 -1.0880
 8708SOL    HW227566   2.702   1.507   9.797  0.3193  2.2434  0.9770
 8709SOL     OW27567   1.994   4.322  10.420 -0.0498 -0.6063 -0.2862
 8709SOL    HW127568   1.979   4.255  10.487  0.7060 -0.3858  0.1226
 8709SOL    HW227569   1.964   4.283  10.339  2.0775 -2.1771 -0.3755
 8710SOL     OW27570   5.618   2.591  10.687  0.2817 -0.2162 -0.1882
 8710SOL    HW127571   5.638   2.540  10.766  0.1729 -0.9468 -0.6192
 8710SOL    HW227572   5.522   2.585  10.680 -0.0697  2.2350  1.1886
 8711SOL     OW27573   4.082   1.974   9.638 -0.0277  0.4818 -0.5614
 8711SOL    HW127574   4.058   2.046   9.696 -1.5771 -0.2111 -0.2919
 8711SOL    HW227575   4.059   2.005   9.550  1.1790  1.0558 -0.7005
 8712SOL     OW27576   2.941   1.234  10.356  0.1427  0.5593 -0.0765
 8712SOL    HW127577   2.973   1.301  10.296  1.2296  2.6897  2.6542
 8712SOL    HW227578   3.019   1.188  10.386 -0.3697 -0.4163 -0.1862
 8713SOL     OW27579   2.534   2.299   9.904  0.1929 -0.4055 -0.3135
 8713SOL    HW127580   2.477   2.273   9.977 -0.5379 -0.0685 -0.7555
 8713SOL    HW227581   2.480   2.357   9.851  0.9062 -0.2043 -0.8298
 8714SOL     OW27582   3.792   2.518  11.124  0.0130 -0.4328  0.4171
 8714SOL    HW127583   3.841   2.466  11.061  1.1354  2.0513 -0.8939
 8714SOL    HW227584   3.708   2.535  11.082 -0.3174 -1.0894  0.8041
 8715SOL     OW27585   0.083   1.291   9.522 -0.0726 -0.3340 -0.6009
 8715SOL    HW127586   0.167   1.301   9.478  1.1713  0.3576  1.7456
 8715SOL    HW227587   0.053   1.204   9.497  2.1831 -1.2989 -0.2094
 8716SOL     OW27588   4.937   2.163   9.968  0.2390 -0.3148  0.3465
 8716SOL    HW127589   4.848   2.136   9.990  0.3960 -0.5275  0.7212
 8716SOL    HW227590   4.987   2.151  10.049  0.5309  0.1415  0.2392
 8717SOL     OW27591   3.577   2.386  11.544  0.8077  0.1825  0.0041
 8717SOL    HW127592   3.518   2.353  11.477  0.5937 -0.2630  0.4044
 8717SOL    HW227593   3.526   2.381  11.625  1.2473  0.2099  0.2849
 8718SOL     OW27594   2.469   1.954   9.745  0.0745 -0.2211  0.4045
 8718SOL    HW127595   2.435   1.914   9.665 -0.5570 -0.6731  0.8944
 8718SOL    HW227596   2.547   2.003   9.716 -0.8368  0.6347 -0.6901
 8719SOL     OW27597   3.138   1.270   9.831 -0.0891 -0.2199 -0.3467
 8719SOL    HW127598   3.070   1.210   9.800 -0.1464 -1.5881  2.1713
 8719SOL    HW227599   3.094   1.354   9.840 -0.9003 -0.5910 -0.7278
 8720SOL     OW27600   2.072   2.487   9.556 -0.2922 -0.0251 -0.1758
 8720SOL    HW127601   2.007   2.473   9.624 -0.2524  0.1184 -0.1078
 8720SOL    HW227602   2.027   2.538   9.489 -0.0306  0.7442  0.2231
 8721SOL     OW27603   3.298   1.617   9.981 -0.0204 -0.3395  0.2912
 8721SOL    HW127604   3.390   1.596   9.965  0.9916  2.0829  2.2727
 8721SOL    HW227605   3.287   1.704   9.943 -1.3733 -0.3898  0.5143
 8722SOL     OW27606   2.644   1.368  10.662  0.2753  0.2238  0.7329
 8722SOL    HW127607   2.737   1.353  10.681  0.9144  1.7239 -0.9794
 8722SOL    HW227608   2.623   1.448  10.709 -0.2436 -0.2077  1.2612
 8723SOL     OW27609   4.299   2.009  10.615  0.1411  1.0580  0.2769
 8723SOL    HW127610   4.354   1.991  10.691  0.6975  0.8250 -0.1656
 8723SOL    HW227611   4.349   2.073  10.565 -0.1893  1.1612  0.0815
 8724SOL     OW27612   2.720   0.667  10.852 -0.0491  0.1921  0.6215
 8724SOL    HW127613   2.715   0.571  10.855  0.0888  0.1289 -0.4893
 8724SOL    HW227614   2.717   0.695  10.943  0.3742 -0.8997  0.9817
 8725SOL     OW27615   4.925   2.113  10.825 -0.4994  0.0410 -0.3838
 8725SOL    HW127616   4.871   2.056  10.771  1.0378 -2.0744  0.1902
 8725SOL    HW227617   4.876   2.123  10.906 -0.7786 -0.4520 -0.4888
 8726SOL     OW27618   1.433   4.092  10.913 -0.0500 -0.1357  0.3119
 8726SOL    HW127619   1.480   4.125  10.837 -1.9669  1.3123 -0.3169
 8726SOL    HW227620   1.345   4.073  10.881 -0.0167 -2.5948  1.4845
 8727SOL     OW27621   4.301   0.712  10.462  0.0092 -0.0410  0.3043
 8727SOL    HW127622   4.360   0.685  10.532  0.6950  1.1639  0.2141
 8727SOL    HW227623   4.216   0.723  10.506  0.7749  2.3090  1.3503
 8728SOL     OW27624   2.793   2.582   8.841 -0.1547  0.1208 -0.0245
 8728SOL    HW127625   2.882   2.592   8.808  0.2744  0.0587  1.0884
 8728SOL    HW227626   2.748   2.532   8.773  0.3592  1.0661 -1.0899
 8729SOL     OW27627   1.093   2.819   9.667  0.1577 -0.1127 -0.3559
 8729SOL    HW127628   1.103   2.912   9.650  1.6681  0.0619  1.1600
 8729SOL    HW227629   1.162   2.777   9.614  1.7306  0.0104  1.4536
 8730SOL     OW27630   4.220   2.307   9.712  0.4100 -0.4450  0.0903
 8730SOL    HW127631   4.303   2.273   9.745  0.1959 -1.6647 -0.5811
 8730SOL    HW227632   4.230   2.307   9.616  1.0878  3.1858  0.0070
 8731SOL     OW27633   4.169   4.590  11.584 -0.2202  0.1494  0.2603
 8731SOL    HW127634   4.258   4.556  11.592 -0.5828 -0.5703  1.5690
 8731SOL    HW227635   4.117   4.515  11.554 -0.5246  0.3315  0.3210
 8732SOL     OW27636   3.448   0.813   9.151  0.1245  0.2081 -0.4339
 8732SOL    HW127637   3.541   0.790   9.149  0.3004 -0.8164  5.1580
 8732SOL    HW227638   3.402   0.731   9.138  0.1078  0.1912 -0.2700
 8733SOL     OW27639   2.772   3.362  10.216  0.1566  0.2471 -0.0586
 8733SOL    HW127640   2.791   3.296  10.150  1.4307  0.5902 -0.0703
 8733SOL    HW227641   2.821   3.439  10.186 -0.1330  0.7350  0.7149
 8734SOL     OW27642   3.703   2.573   9.147 -0.0806  0.6413  0.1078
 8734SOL    HW127643   3.796   2.594   9.137 -0.0966  1.3628  1.2208
 8734SOL    HW227644   3.658   2.657   9.139 -0.4180  0.6595  1.7111
 8735SOL     OW27645   4.093   2.486   8.371 -0.0775 -0.1377  0.0103
 8735SOL    HW127646   4.092   2.571   8.416  0.1521  0.3875 -0.9691
 8735SOL    HW227647   4.064   2.506   8.282  1.2570 -0.8670 -0.6033
 8736SOL     OW27648   2.831   1.851  10.541  0.2463  0.0654 -0.0267
 8736SOL    HW127649   2.899   1.894  10.593  1.5000 -1.1259 -0.6210
 8736SOL    HW227650   2.819   1.766  10.583 -2.9934  1.2329  1.8084
 8737SOL     OW27651   2.454   5.406  11.146  0.6941 -0.2050 -0.6626
 8737SOL    HW127652   2.468   5.500  11.134 -1.5765  0.2440 -0.2587
 8737SOL    HW227653   2.459   5.393  11.241 -0.6761 -0.1510 -0.5671
 8738SOL     OW27654   1.115   3.343  11.541  0.3715 -0.3209  0.4051
 8738SOL    HW127655   1.026   3.328  11.575 -0.0025  1.6943  0.4426
 8738SOL    HW227656   1.104   3.346  11.446  0.5022 -0.6295  0.3794
 8739SOL     OW27657   1.992   4.510  11.500  0.2543 -0.2179 -0.1238
 8739SOL    HW127658   1.945   4.543  11.423  1.0372  0.6645 -0.2333
 8739SOL    HW227659   1.973   4.574  11.568  1.0123 -0.0476 -0.0717
 8740SOL     OW27660   2.443   1.017  11.036  0.3558  0.1713 -0.4540
 8740SOL    HW127661   2.445   0.955  11.108  0.4999  0.3340 -0.3189
 8740SOL    HW227662   2.355   1.056  11.040  0.5203  0.5048 -0.0932
 8741SOL     OW27663   7.527   4.516   9.288  0.2967 -0.1113 -0.1019
 8741SOL    HW127664   7.482   4.532   9.205 -0.8011  0.6131  0.6176
 8741SOL    HW227665   7.565   4.428   9.278 -0.7569 -0.4839 -0.9499
 8742SOL     OW27666   3.213   4.262  10.754 -0.4159  0.3244  0.0736
 8742SOL    HW127667   3.248   4.275  10.841  1.2282  0.6355 -0.6053
 8742SOL    HW227668   3.230   4.169  10.735 -2.7644 -0.3388  0.8940
 8743SOL     OW27669   3.211   3.650  11.729  0.0869 -0.6156 -0.3343
 8743SOL    HW127670   3.181   3.707  11.800  0.6142 -0.3369 -0.3277
 8743SOL    HW227671   3.231   3.567  11.771  1.6535 -0.0568  0.0833
 8744SOL     OW27672   2.340   1.734  11.077 -0.0167 -0.0687 -0.1462
 8744SOL    HW127673   2.406   1.665  11.077 -0.2750 -0.3254  0.7329
 8744SOL    HW227674   2.256   1.687  11.069 -0.0977  0.2722 -1.6390
 8745SOL     OW27675   4.335   4.313  10.870  1.1809 -0.5825  0.0938
 8745SOL    HW127676   4.418   4.357  10.887  0.1463  0.5567  2.5875
 8745SOL    HW227677   4.281   4.333  10.946 -1.3288 -1.4805 -1.3491
 8746SOL     OW27678   5.106   2.634  10.731 -0.3607 -0.0390  0.1153
 8746SOL    HW127679   5.113   2.714  10.784 -1.5754 -1.2898  2.3057
 8746SOL    HW227680   5.061   2.662  10.652 -0.5954  1.4936  0.7569
 8747SOL     OW27681   3.129   2.622  11.237 -0.4660  0.3915 -0.4235
 8747SOL    HW127682   3.153   2.621  11.329  0.7643  0.5152 -0.7237
 8747SOL    HW227683   3.131   2.530  11.211  0.0104  0.4308 -0.5269
 8748SOL     OW27684   3.520   3.854  10.002  0.4116 -0.2615  0.0802
 8748SOL    HW127685   3.479   3.922  10.056  0.3190 -0.1192 -0.1673
 8748SOL    HW227686   3.540   3.897   9.919  0.9942 -0.3516  0.1681
 8749SOL     OW27687   1.782   2.698  10.035  0.2256  0.1021 -0.2481
 8749SOL    HW127688   1.864   2.687   9.987 -0.2915  1.7171 -1.6108
 8749SOL    HW227689   1.800   2.662  10.122  2.7127  1.2860 -0.1776
 8750SOL     OW27690   2.257   3.601  11.019 -0.0662 -0.1928  0.0347
 8750SOL    HW127691   2.222   3.674  11.070 -1.3629 -0.3110 -0.6471
 8750SOL    HW227692   2.295   3.642  10.942 -0.1621 -0.1819 -0.0071
 8751SOL     OW27693   3.167   2.630   9.852  0.3702  0.5766 -0.2744
 8751SOL    HW127694   3.174   2.686   9.775 -1.5064 -1.0184 -1.7037
 8751SOL    HW227695   3.136   2.688   9.922  2.2986  2.0905 -0.5799
 8752SOL     OW27696   0.905   2.274  11.005 -0.3233  0.2244  0.0634
 8752SOL    HW127697   0.884   2.248  11.095  1.3509  1.4560  0.8624
 8752SOL    HW227698   0.911   2.369  11.009 -0.4571  0.3088 -1.4312
 8753SOL     OW27699   3.242   2.544   9.413  0.1837  0.1067  0.1113
 8753SOL    HW127700   3.336   2.531   9.398  0.3100  1.2647 -0.2415
 8753SOL    HW227701   3.226   2.634   9.384 -1.5491 -0.8826 -2.3192
 8754SOL     OW27702   1.649   3.296  10.820  0.4400  0.4999 -0.1380
 8754SOL    HW127703   1.587   3.231  10.786 -0.0959  0.9870 -0.1141
 8754SOL    HW227704   1.721   3.296  10.757 -0.1394  0.7754 -0.8154
 8755SOL     OW27705   2.284   7.743  11.784 -0.0069 -0.3140  0.3493
 8755SOL    HW127706   2.249   7.770  11.699 -0.8360 -0.7166  0.5464
 8755SOL    HW227707   2.376   7.721  11.766  0.5710  2.0658  0.0979
 8756SOL     OW27708   1.531   7.997  11.839  0.3170  0.3787  0.2203
 8756SOL    HW127709   1.519   7.972  11.748 -0.0697  1.5812 -0.0783
 8756SOL    HW227710   1.610   7.950  11.867 -0.0805 -0.7174 -0.4399
 8757SOL     OW27711   3.905   1.820  11.683  0.0438  0.4578  0.0147
 8757SOL    HW127712   3.951   1.903  11.672  0.4046  0.2804  0.1848
 8757SOL    HW227713   3.818   1.845  11.714 -0.3431  0.8585 -1.3347
 8758SOL     OW27714   2.792   4.255  11.637 -0.6993 -0.8641 -0.3244
 8758SOL    HW127715   2.856   4.187  11.616  0.2055 -0.3194  0.6160
 8758SOL    HW227716   2.761   4.286  11.552 -0.8034 -2.1307 -0.7753
 8759SOL     OW27717   3.037   2.876  12.283  0.5159 -0.5751 -0.1203
 8759SOL    HW127718   3.103   2.939  12.314  0.3023  0.3753 -1.4826
 8759SOL    HW227719   2.955   2.905  12.323  0.7857 -1.3835  1.0728
 8760SOL     OW27720   4.852   2.422  11.596 -0.0288  0.7227 -0.2644
 8760SOL    HW127721   4.773   2.391  11.641  0.1108 -0.4045 -0.7686
 8760SOL    HW227722   4.919   2.356  11.616 -0.5149 -1.1186 -3.8652
 8761SOL     OW27723   2.792   3.849   0.437  0.1578  0.0775 -0.2166
 8761SOL    HW127724   2.731   3.790   0.394  0.2830 -1.2815  1.3806
 8761SOL    HW227725   2.858   3.868   0.370 -0.3006 -0.9766 -0.9946
 8762SOL     OW27726   3.701   2.761   0.156 -0.1660 -0.3530 -0.4257
 8762SOL    HW127727   3.611   2.788   0.177 -0.6432 -1.4802 -0.9350
 8762SOL    HW227728   3.726   2.705   0.229  1.0156  1.7613  0.8965
 8763SOL     OW27729   2.793   2.859   1.072  0.1382 -0.3599  0.4645
 8763SOL    HW127730   2.865   2.920   1.059  0.2799  0.0574  2.7912
 8763SOL    HW227731   2.826   2.797   1.137 -1.2779 -0.6997  0.8995
 8764SOL     OW27732   4.565   3.505  11.520  0.0599 -0.4090  0.0066
 8764SOL    HW127733   4.532   3.546  11.601  0.1093 -0.0449 -0.1561
 8764SOL    HW227734   4.624   3.436  11.551 -0.3596 -0.6466  0.2907
 8765SOL     OW27735   2.894   2.067  12.330 -0.1133 -0.1498 -0.0225
 8765SOL    HW127736   2.826   2.006  12.303 -0.1943 -0.4575  0.8636
 8765SOL    HW227737   2.893   2.065  12.425 -0.4429  1.5974  0.0526
 8766SOL     OW27738   3.669   1.340  11.506 -0.2682 -0.2824 -0.1308
 8766SOL    HW127739   3.700   1.298  11.587 -1.4835  0.7113  0.8926
 8766SOL    HW227740   3.687   1.433  11.519 -0.5390 -0.1011 -0.9904
 8767SOL     OW27741   3.692   3.949  11.832  0.0243 -0.0881 -0.1233
 8767SOL    HW127742   3.599   3.927  11.824  0.2256 -1.3708  0.7943
 8767SOL    HW227743   3.737   3.865  11.829  1.1853  0.5418 -0.8191
 8768SOL     OW27744   2.494   2.914  12.129  0.0478  0.3401  0.2068
 8768SOL    HW127745   2.488   2.940  12.037 -3.2164  1.0138  0.4837
 8768SOL    HW227746   2.447   2.832  12.134  1.2709 -0.3355  1.1251
 8769SOL     OW27747   2.493   3.452  10.763  0.0798  0.3363 -0.4475
 8769SOL    HW127748   2.490   3.360  10.735 -1.2652 -1.1064  3.6775
 8769SOL    HW227749   2.407   3.486  10.740  0.1129  0.1855 -0.8132
 8770SOL     OW27750   5.287   3.753   0.284 -0.3433  0.3493 -0.3975
 8770SOL    HW127751   5.366   3.799   0.254 -0.0850 -0.5149 -1.0833
 8770SOL    HW227752   5.310   3.720   0.370  0.0763  0.0532 -0.6183
 8771SOL     OW27753   2.987   2.848  10.261 -0.3597  0.4773  0.8225
 8771SOL    HW127754   2.966   2.941  10.248 -2.8912 -0.0040  0.8782
 8771SOL    HW227755   2.915   2.801  10.218  1.6734 -1.5386 -0.5950
 8772SOL     OW27756   3.388   3.134  11.190  0.7221  0.2757  0.2217
 8772SOL    HW127757   3.322   3.181  11.240  0.3882 -0.7282  0.7609
 8772SOL    HW227758   3.348   3.049  11.171  1.8587 -0.3797  0.5987
 8773SOL     OW27759   4.759   2.753  11.196  0.0899  0.3366  0.2264
 8773SOL    HW127760   4.705   2.698  11.253  1.8621  0.1381  1.8173
 8773SOL    HW227761   4.704   2.768  11.119 -2.0139 -0.2784  1.4978
 8774SOL     OW27762   1.238   3.904   2.201 -0.4609  0.3315 -0.2700
 8774SOL    HW127763   1.209   3.934   2.287  1.0051  0.9624  0.0497
 8774SOL    HW227764   1.220   3.810   2.201 -1.9887  0.6022  0.0652
 8775SOL     OW27765   2.816   2.094  11.111  0.5745  0.1110  0.1448
 8775SOL    HW127766   2.813   2.105  11.206  0.9813  0.9913  0.0697
 8775SOL    HW227767   2.739   2.040  11.091 -1.5061  2.6437  0.6411
 8776SOL     OW27768   3.362   1.692  11.039  0.1352  0.2114 -1.0996
 8776SOL    HW127769   3.373   1.700  11.134  0.4726  0.7233 -1.1763
 8776SOL    HW227770   3.283   1.638  11.029 -0.6694  1.2395 -0.5203
 8777SOL     OW27771   1.490   1.585  10.366 -0.5930 -0.1966 -0.3507
 8777SOL    HW127772   1.538   1.532  10.302 -0.3116 -0.7689  0.3295
 8777SOL    HW227773   1.453   1.522  10.427 -2.4194  0.1981 -0.9665
 8778SOL     OW27774   3.075   1.658  11.943 -0.1711  0.4476 -0.4458
 8778SOL    HW127775   3.129   1.606  11.884  0.6640 -1.2411  1.6712
 8778SOL    HW227776   3.005   1.598  11.971 -0.2205  1.0049  0.6934
 8779SOL     OW27777   3.668   2.897  11.046  0.2265 -0.2059  0.3460
 8779SOL    HW127778   3.602   2.862  10.986  1.4042 -1.5991 -0.1991
 8779SOL    HW227779   3.647   2.855  11.130  0.7600 -1.1150  0.0337
 8780SOL     OW27780   4.775   3.574  11.349  0.2750 -0.1094  0.4510
 8780SOL    HW127781   4.804   3.636  11.416 -0.2033 -0.1257  0.6737
 8780SOL    HW227782   4.680   3.573  11.356  0.2875 -1.1289  0.6918
 8781SOL     OW27783   3.763   1.601   0.273 -0.1744  0.0206  0.0676
 8781SOL    HW127784   3.688   1.613   0.215  0.8164  1.1666 -1.0204
 8781SOL    HW227785   3.744   1.520   0.320 -1.2356 -0.6959 -1.5101
 8782SOL     OW27786   4.607   1.045  12.196 -0.2611  0.1600  0.5363
 8782SOL    HW127787   4.617   1.138  12.213  0.7249  0.0608  0.5560
 8782SOL    HW227788   4.642   1.002  12.274 -2.3804 -0.2353  1.3398
 8783SOL     OW27789   3.678   3.621  11.333 -0.5463 -0.3478  0.3653
 8783SOL    HW127790   3.753   3.590  11.384 -0.5148 -0.6981  0.1096
 8783SOL    HW227791   3.672   3.560  11.259 -0.1294  0.6061 -0.4737
 8784SOL     OW27792   2.824   2.325  11.694 -0.2391  0.8326  0.5450
 8784SOL    HW127793   2.868   2.328  11.779  0.2427 -0.7462  0.3689
 8784SOL    HW227794   2.764   2.250  11.701 -0.8711  1.2525 -0.2042
 8785SOL     OW27795   2.611   2.582  11.502 -0.4237 -0.1895 -0.7109
 8785SOL    HW127796   2.685   2.522  11.493 -0.1953  0.1869 -1.4931
 8785SOL    HW227797   2.586   2.602  11.411 -0.2310  1.2033 -0.4748
 8786SOL     OW27798   2.177   2.786  11.852  0.7752  0.6199 -0.7118
 8786SOL    HW127799   2.210   2.714  11.797 -1.4197 -0.7451 -0.4005
 8786SOL    HW227800   2.094   2.810  11.810  1.3149  2.8023 -0.6097
 8787SOL     OW27801   2.790   7.536   0.515  0.4737  0.0883  0.1329
 8787SOL    HW127802   2.697   7.516   0.504  0.4570 -0.6336  1.3428
 8787SOL    HW227803   2.793   7.631   0.526 -0.4259 -0.0673  2.2878
 8788SOL     OW27804   3.215   2.499  10.472  0.3462  0.1189 -0.1372
 8788SOL    HW127805   3.254   2.421  10.511 -0.4758 -1.0761 -1.5761
 8788SOL    HW227806   3.145   2.524  10.533  2.3324  1.4306  1.7257
 8789SOL     OW27807   2.636   3.677   0.267  0.5043  0.0652  0.0341
 8789SOL    HW127808   2.678   3.664   0.182 -1.6151  0.2011 -1.0926
 8789SOL    HW227809   2.542   3.683   0.248 -0.1581 -0.8956  2.4897
 8790SOL     OW27810   3.997   2.661  10.107  0.3106 -0.0033  0.2315
 8790SOL    HW127811   4.059   2.726  10.074  0.4546 -0.5536 -0.5927
 8790SOL    HW227812   3.925   2.661  10.044  0.3606 -0.7140  0.1681
 8791SOL     OW27813   4.115   3.404  11.468  0.1130  0.8319 -0.4643
 8791SOL    HW127814   4.120   3.345  11.394 -0.9079 -0.4055  0.4070
 8791SOL    HW227815   4.198   3.392  11.514 -1.1184 -2.2005  1.2855
 8792SOL     OW27816   3.786   3.632  11.001 -0.5412  0.3988  0.1173
 8792SOL    HW127817   3.880   3.640  11.016 -0.5922 -0.5153  0.9971
 8792SOL    HW227818   3.756   3.722  10.985  0.0561  1.0665  2.4390
 8793SOL     OW27819   2.702   2.400  10.672  0.1465 -0.8258 -0.1584
 8793SOL    HW127820   2.746   2.370  10.752  0.8208  0.1248 -0.1532
 8793SOL    HW227821   2.609   2.390  10.690  0.1695  1.2968  1.5926
 8794SOL     OW27822   3.503   0.063  10.864 -0.0596 -0.1512  0.0986
 8794SOL    HW127823   3.522  -0.015  10.915 -3.1721 -0.5567  0.8462
 8794SOL    HW227824   3.466   0.125  10.927 -2.5233 -0.0687 -1.2933
 8795SOL     OW27825   2.876   3.659  10.846 -0.3535 -0.2737  0.2853
 8795SOL    HW127826   2.933   3.583  10.853 -0.5148 -0.4745 -0.4623
 8795SOL    HW227827   2.814   3.636  10.777 -1.1504  0.0625  0.8755
 8796SOL     OW27828   3.379   2.169   9.921 -0.3059 -0.1712  0.0357
 8796SOL    HW127829   3.313   2.155   9.989  0.6306 -0.0857  0.9930
 8796SOL    HW227830   3.401   2.262   9.929 -0.4952 -0.0575 -0.6911
 8797SOL     OW27831   4.278   4.196  11.202 -0.0240 -0.2143 -0.6161
 8797SOL    HW127832   4.313   4.135  11.137  1.7654 -0.0360  0.0982
 8797SOL    HW227833   4.212   4.146  11.250 -1.1533 -0.4335 -2.3336
 8798SOL     OW27834   3.812   1.300  11.222 -0.0204 -0.4486  0.0368
 8798SOL    HW127835   3.856   1.377  11.186 -0.2290 -0.5584 -0.4604
 8798SOL    HW227836   3.735   1.335  11.266 -0.6538 -0.4505 -1.0425
 8799SOL     OW27837   2.360   3.676   0.200  0.2989 -0.4556  0.1091
 8799SOL    HW127838   2.284   3.698   0.254 -0.0992 -0.8480 -0.2735
 8799SOL    HW227839   2.326   3.612   0.137  0.6287  0.3539 -0.9178
 8800SOL     OW27840   2.814   3.497   0.372  0.0050  0.4599  0.0495
 8800SOL    HW127841   2.792   3.461   0.458  1.2404 -0.0155  0.1899
 8800SOL    HW227842   2.731   3.528   0.337 -0.4789  0.8800  1.5124
 8801SOL     OW27843   4.800   3.684  10.873  0.4199  0.1576  0.1833
 8801SOL    HW127844   4.831   3.731  10.796  0.0065  1.0110  0.5274
 8801SOL    HW227845   4.875   3.680  10.932  0.4621  0.3741  0.1430
 8802SOL     OW27846   4.986   1.583  10.901 -0.2384  0.1400  0.7382
 8802SOL    HW127847   5.055   1.519  10.885 -0.1553  0.1232  1.1710
 8802SOL    HW227848   4.941   1.591  10.816 -0.1878 -0.4100  0.6564
 8803SOL     OW27849   2.720   2.288  12.358  1.0252  1.0424 -0.4380
 8803SOL    HW127850   2.793   2.227  12.364 -1.1983 -1.7028  1.2535
 8803SOL    HW227851   2.736   2.351  12.429  0.7867 -0.7972  1.3546
 8804SOL     OW27852   4.346   2.421  10.000  0.1304 -0.2297 -0.2736
 8804SOL    HW127853   4.340   2.509   9.964 -1.4209 -1.0421 -2.1923
 8804SOL    HW227854   4.422   2.382   9.955  1.1224  0.2298  0.9377
 8805SOL     OW27855   4.027   0.743  11.366 -0.3213  0.1013 -0.4616
 8805SOL    HW127856   3.993   0.690  11.438 -0.5888  0.3055 -0.4361
 8805SOL    HW227857   4.070   0.817  11.408 -0.8130  0.4271 -0.5090
 8806SOL     OW27858   5.236   3.841  11.918 -0.0464  0.3260 -0.2604
 8806SOL    HW127859   5.253   3.927  11.878  0.4559  0.2477 -0.2176
 8806SOL    HW227860   5.250   3.778  11.847 -2.3897  0.3836 -0.8638
 8807SOL     OW27861   2.363   2.373  11.776 -0.5219  0.0705  0.0357
 8807SOL    HW127862   2.364   2.468  11.764 -1.8355  0.1151  0.1560
 8807SOL    HW227863   2.290   2.357  11.837  0.4601 -0.9076  1.0117
 8808SOL     OW27864   5.318   2.383  12.139  0.2323  0.5447  0.0182
 8808SOL    HW127865   5.401   2.338  12.124  0.4668  1.0653 -0.2463
 8808SOL    HW227866   5.254   2.332  12.089 -0.5865 -2.8180  3.9082
 8809SOL     OW27867   3.998   4.682  10.647  0.1914  0.3431  0.5361
 8809SOL    HW127868   4.080   4.725  10.672  0.0914  0.4649  0.6592
 8809SOL    HW227869   4.023   4.618  10.580  0.2898  0.8506  0.0801
 8810SOL     OW27870   2.416   2.914  10.741 -0.7773 -0.5896 -0.4986
 8810SOL    HW127871   2.321   2.914  10.748 -0.7325  0.2779  0.3005
 8810SOL    HW227872   2.433   2.925  10.647 -1.4632 -0.4893 -0.6182
 8811SOL     OW27873   5.217   4.501   1.529  0.2085 -0.1583  0.5494
 8811SOL    HW127874   5.283   4.548   1.580  1.6065  1.1456 -2.2353
 8811SOL    HW227875   5.136   4.550   1.545  0.6886  0.4425  1.2272
 8812SOL     OW27876   5.242   2.492   9.794  0.7623  0.1001  0.1637
 8812SOL    HW127877   5.204   2.545   9.724  1.6935  2.3439  1.2409
 8812SOL    HW227878   5.167   2.459   9.842  0.0979  1.7179  0.3119
 8813SOL     OW27879   1.842   0.522  11.966 -0.4139 -0.2377  0.6103
 8813SOL    HW127880   1.823   0.457  12.033 -0.2424 -0.4044  0.4992
 8813SOL    HW227881   1.813   0.606  12.003 -0.8116 -0.4045  0.6777
 8814SOL     OW27882   3.185   0.018  11.493 -0.2205 -0.0440  0.3932
 8814SOL    HW127883   3.206   0.083  11.426  1.1223  0.0303  0.8505
 8814SOL    HW227884   3.147   0.068  11.565  0.3434  0.1841  0.5401
 8815SOL     OW27885   3.390   1.590   2.559  0.4705 -0.0788  0.3132
 8815SOL    HW127886   3.361   1.658   2.498 -0.9223 -1.5746 -0.7635
 8815SOL    HW227887   3.311   1.564   2.606  0.8100 -1.4461  0.1824
 8816SOL     OW27888   1.682   1.529  10.909 -0.1097  0.1040 -0.2754
 8816SOL    HW127889   1.766   1.529  10.863  0.0590 -0.1794  0.0310
 8816SOL    HW227890   1.669   1.438  10.936  0.7079  0.5787  1.8776
 8817SOL     OW27891   3.417   0.330   0.590 -0.1037 -0.2448  0.1034
 8817SOL    HW127892   3.416   0.268   0.663  3.4849  1.8294  2.2841
 8817SOL    HW227893   3.399   0.415   0.631  2.0758  1.0102 -1.3325
 8818SOL     OW27894   5.170   1.965  11.100 -0.4295  0.3229  0.5712
 8818SOL    HW127895   5.221   1.978  11.021  2.7215 -0.5480  2.2934
 8818SOL    HW227896   5.195   2.037  11.158 -2.5477  0.8624  0.9257
 8819SOL     OW27897   1.518   3.465  12.138  0.5895 -0.2760 -0.4500
 8819SOL    HW127898   1.535   3.378  12.103  1.0172 -0.1385 -0.6048
 8819SOL    HW227899   1.428   3.463  12.168  0.0329 -0.2537 -2.0281
 8820SOL     OW27900   5.092   3.803  10.965 -0.3194 -0.6383 -0.1034
 8820SOL    HW127901   5.136   3.722  10.991  0.3661  0.5816  2.9147
 8820SOL    HW227902   5.021   3.813  11.028 -1.0006  0.6453 -1.0263
 8821SOL     OW27903   3.691   3.155  10.728 -0.9863  0.1672 -0.4307
 8821SOL    HW127904   3.664   3.160  10.819 -3.1119  0.2051 -1.0274
 8821SOL    HW227905   3.787   3.154  10.732 -1.0145  1.0346  1.7346
 8822SOL     OW27906   2.974   1.854  10.044  0.0962 -0.2663  0.0186
 8822SOL    HW127907   3.006   1.944  10.030  2.1970 -0.8205  0.8454
 8822SOL    HW227908   2.928   1.832   9.963 -0.9576  1.7322  0.0058
 8823SOL     OW27909   5.540   3.295  11.255 -0.4933  0.4562  0.2201
 8823SOL    HW127910   5.583   3.374  11.288 -1.3324  0.0189  2.5425
 8823SOL    HW227911   5.567   3.225  11.315 -0.0929 -0.9895 -1.5399
 8824SOL     OW27912   4.606   3.451   0.641 -0.2784 -0.5742 -0.0255
 8824SOL    HW127913   4.587   3.527   0.695 -1.0678 -1.2503  0.6861
 8824SOL    HW227914   4.676   3.404   0.687  0.2150 -0.2924 -0.4670
 8825SOL     OW27915   5.298   3.278  11.458  0.1298 -0.4258  0.0717
 8825SOL    HW127916   5.294   3.228  11.376  0.5745 -2.3458  1.1504
 8825SOL    HW227917   5.392   3.288  11.475  0.1072  2.3345 -0.9445
 8826SOL     OW27918   3.289   3.579  12.163  0.4410 -0.0723  0.0919
 8826SOL    HW127919   3.290   3.484  12.160  2.2830 -0.0447 -2.5129
 8826SOL    HW227920   3.323   3.600  12.250  0.5869 -1.7566  0.4781
 8827SOL     OW27921   3.190   2.914   0.877 -0.3140 -0.2707  0.3138
 8827SOL    HW127922   3.098   2.935   0.863 -0.8740 -1.9701  1.1196
 8827SOL    HW227923   3.222   2.981   0.936 -1.1149  0.1865  0.2375
 8828SOL     OW27924   3.642   2.152  10.792  0.0224  0.0801 -0.3144
 8828SOL    HW127925   3.703   2.121  10.859 -1.0951 -2.3940 -0.3247
 8828SOL    HW227926   3.580   2.080  10.781 -0.6554  0.9588 -3.0537
 8829SOL     OW27927   2.830   2.583  12.088  0.8648 -0.0072 -0.1360
 8829SOL    HW127928   2.923   2.577  12.111  0.7189 -0.1717  0.4480
 8829SOL    HW227929   2.803   2.670  12.118  1.3275  0.9354 -2.2763
 8830SOL     OW27930   4.329   1.981   0.963 -0.7032 -0.0091  0.0853
 8830SOL    HW127931   4.302   2.059   0.914 -0.4638  1.0662  1.5914
 8830SOL    HW227932   4.311   2.003   1.054  1.6277 -0.7500  0.7904
 8831SOL     OW27933   3.769   2.558  12.180  0.4433 -0.0877  0.6552
 8831SOL    HW127934   3.795   2.486  12.237 -0.1832  0.0440  1.1201
 8831SOL    HW227935   3.749   2.630  12.240  1.4594  0.6113  0.1776
 8832SOL     OW27936   3.352   1.091  11.076 -0.0848 -0.2959  0.1217
 8832SOL    HW127937   3.271   1.041  11.068  0.9273 -1.9156 -0.5662
 8832SOL    HW227938   3.422   1.025  11.070  1.2892  0.7829  2.4802
 8833SOL     OW27939   3.518   2.248   1.165  0.1518 -0.1298 -0.0193
 8833SOL    HW127940   3.469   2.178   1.210 -0.6488  0.6692  0.3939
 8833SOL    HW227941   3.459   2.323   1.168  1.1279  0.6535 -0.1780
 8834SOL     OW27942   3.158   1.208  10.745  0.8898 -0.2639 -0.4112
 8834SOL    HW127943   3.229   1.257  10.787  2.0055 -2.6274  0.6594
 8834SOL    HW227944   3.203   1.141  10.694 -0.5618  0.0499 -2.1965
 8835SOL     OW27945   1.959   2.415  12.036  0.1244 -0.3817  0.1811
 8835SOL    HW127946   1.958   2.417  12.132 -0.0344  1.7662  0.1920
 8835SOL    HW227947   1.957   2.507  12.010 -1.3445 -0.9119 -1.9042
 8836SOL     OW27948   1.277   1.323  12.141  0.0246 -0.3259  0.3117
 8836SOL    HW127949   1.358   1.353  12.181  0.7329  0.1751 -1.4101
 8836SOL    HW227950   1.220   1.400  12.140  0.1926 -0.2042 -0.0773
 8837SOL     OW27951   2.327   2.653  11.630 -0.1636  0.2489  0.7422
 8837SOL    HW127952   2.417   2.648  11.597 -1.1020 -1.1150 -1.9076
 8837SOL    HW227953   2.273   2.658  11.551 -2.5332 -1.1872  2.1514
 8838SOL     OW27954   2.574   2.499   0.631 -0.0155 -0.1904  0.0096
 8838SOL    HW127955   2.600   2.432   0.568 -0.1565  1.1686 -1.5482
 8838SOL    HW227956   2.626   2.479   0.709  1.5317 -0.8615 -1.1343
 8839SOL     OW27957   5.066   0.488  11.998  0.1783 -0.2148  0.2998
 8839SOL    HW127958   5.120   0.481  12.077  2.1196 -2.0482 -1.0779
 8839SOL    HW227959   5.119   0.540  11.938 -0.3399 -0.6043 -0.5094
 8840SOL     OW27960   2.647   3.237  12.478 -0.3177 -0.3856 -0.3176
 8840SOL    HW127961   2.617   3.150  12.450 -2.0548 -0.4040  1.3979
 8840SOL    HW227962   2.626   3.241  12.571  1.3091  1.2578  0.0262
 8841SOL     OW27963   2.963   1.564  11.634  0.2360 -0.1416  0.3923
 8841SOL    HW127964   2.943   1.495  11.698 -0.2576 -0.0882  0.3013
 8841SOL    HW227965   3.041   1.533  11.589  1.7896  0.7250  2.3386
 8842SOL     OW27966   3.123   1.246  12.318  0.0739 -0.5779 -0.2314
 8842SOL    HW127967   3.187   1.314  12.339 -1.9984  1.1392  1.0203
 8842SOL    HW227968   3.139   1.177  12.383  0.1426  0.1996  0.5960
 8843SOL     OW27969   5.104   3.268  11.969  0.5349 -0.2522 -0.3488
 8843SOL    HW127970   5.127   3.237  11.882  1.6042 -0.3087 -0.0632
 8843SOL    HW227971   5.048   3.199  12.005  0.6943 -0.5748 -0.7172
 8844SOL     OW27972   4.388   3.292   0.166 -0.4630  0.0313  1.2393
 8844SOL    HW127973   4.431   3.304   0.250  1.5051 -1.3110  0.4957
 8844SOL    HW227974   4.458   3.303   0.101 -1.3794 -1.5047 -0.0837
 8845SOL     OW27975   2.510   3.247  11.988  0.0498  0.2353 -0.6458
 8845SOL    HW127976   2.488   3.331  12.029  0.7821  0.1328 -0.0000
 8845SOL    HW227977   2.583   3.214  12.041 -2.3713 -2.4574  1.3444
 8846SOL     OW27978   5.059   2.310  12.375 -0.0160  0.3379 -0.8072
 8846SOL    HW127979   4.989   2.271  12.322 -0.3819 -0.2924  0.1099
 8846SOL    HW227980   5.105   2.235  12.413 -0.4954  0.7712  0.6935
 8847SOL     OW27981   4.770   1.609  12.456 -0.0957 -0.8221  0.1455
 8847SOL    HW127982   4.707   1.580  12.390 -2.1530  2.5011  0.4069
 8847SOL    HW227983   4.818   1.681  12.414  0.5236 -0.4916  1.3640
 8848SOL     OW27984   1.981   3.510  11.384 -0.4262 -0.9490 -0.5080
 8848SOL    HW127985   2.066   3.537  11.419 -0.9521 -0.3657  0.3524
 8848SOL    HW227986   1.996   3.502  11.290 -0.0263  1.6366 -0.7496
 8849SOL     OW27987   2.454   3.016  11.328 -0.0114  0.1576 -0.2975
 8849SOL    HW127988   2.364   3.032  11.301 -0.3313 -2.1155 -0.7839
 8849SOL    HW227989   2.501   3.001  11.246  0.7327  0.9567 -0.0233
 8850SOL     OW27990   3.378   2.679  11.531 -0.1812 -0.3650 -0.8727
 8850SOL    HW127991   3.359   2.585  11.523 -0.1889 -0.4209 -0.2237
 8850SOL    HW227992   3.401   2.706  11.442 -0.9218 -0.8167 -1.2106
 8851SOL     OW27993   3.883   0.941   0.252 -0.4094  0.0576 -0.2823
 8851SOL    HW127994   3.948   0.881   0.288 -1.4709 -0.6983  0.3956
 8851SOL    HW227995   3.840   0.979   0.328 -2.8485 -1.7349 -0.6579
 8852SOL     OW27996   1.065   2.618  12.109  0.1477  0.2167  0.2991
 8852SOL    HW127997   1.076   2.553  12.178  0.1540  1.0671  1.1259
 8852SOL    HW227998   1.136   2.681  12.125  0.3111  0.2844 -0.6501
 8853SOL     OW27999   4.505   1.280  11.584 -0.4916 -0.3234 -0.5438
 8853SOL    HW128000   4.443   1.324  11.641 -0.4720  0.3039 -0.9949
 8853SOL    HW228001   4.576   1.344  11.572  0.0699 -0.8966 -0.3148
 8854SOL     OW28002   4.542   3.311  12.425  0.3950  0.1785  0.2635
 8854SOL    HW128003   4.633   3.298  12.397  0.9929 -1.2226  2.5631
 8854SOL    HW228004   4.494   3.327  12.344  2.2156 -1.8376 -1.3339
 8855SOL     OW28005   3.024   0.951  11.222 -0.3506 -0.3840  0.5821
 8855SOL    HW128006   3.016   0.941  11.127  0.4913  0.6859  0.3788
 8855SOL    HW228007   3.083   0.882  11.250  1.1860  0.6368 -0.0180
 8856SOL     OW28008   2.106   3.703   0.789 -0.0449  0.0512  0.0861
 8856SOL    HW128009   2.026   3.658   0.817 -0.6706  0.2070 -1.3384
 8856SOL    HW228010   2.075   3.780   0.741  0.9005 -0.4822 -1.4665
 8857SOL     OW28011   1.797   2.539  11.782 -0.2110  0.3626 -0.1241
 8857SOL    HW128012   1.804   2.446  11.761 -1.4066  0.4876 -1.2195
 8857SOL    HW228013   1.841   2.583  11.709 -1.4966  0.7015 -0.7201
 8858SOL     OW28014   3.611   2.267  12.203 -0.2900 -0.5178 -0.4836
 8858SOL    HW128015   3.680   2.311  12.253 -0.1261 -1.1817 -0.1161
 8858SOL    HW228016   3.628   2.291  12.112  0.2619 -0.4496 -0.3669
 8859SOL     OW28017   5.786   3.326   0.964  0.0345 -0.1658  0.4212
 8859SOL    HW128018   5.746   3.281   1.038 -0.6945  0.6391  0.5282
 8859SOL    HW228019   5.771   3.419   0.980  0.8979  0.0931 -0.1553
 8860SOL     OW28020   2.845   3.308   1.459  0.2661 -0.1530 -0.2407
 8860SOL    HW128021   2.780   3.240   1.472  0.4001 -0.0686  1.0137
 8860SOL    HW228022   2.917   3.285   1.518  0.5768  0.7462 -0.2418
 8861SOL     OW28023   3.480   1.989  11.616 -0.3475  0.6032  0.2722
 8861SOL    HW128024   3.557   2.027  11.659  0.1529  0.5543 -0.5616
 8861SOL    HW228025   3.462   2.048  11.543 -1.1601  0.6580  0.5104
 8862SOL     OW28026   3.294   2.028   0.018  0.6324 -0.8153 -0.0629
 8862SOL    HW128027   3.374   2.072  -0.011  0.7085 -1.7168 -1.3218
 8862SOL    HW228028   3.228   2.097   0.021  1.6117  0.1076  1.8032
 8863SOL     OW28029   4.878   3.164  12.089 -0.0330  0.5174 -0.5643
 8863SOL    HW128030   4.852   3.076  12.061  0.2100  0.8728 -1.9865
 8863SOL    HW228031   4.848   3.170  12.180  1.2430 -1.5696  0.0836
 8864SOL     OW28032   3.897   4.742   9.763 -0.2512  0.3380 -0.3132
 8864SOL    HW128033   3.897   4.833   9.734  0.3917  0.9439  1.4411
 8864SOL    HW228034   3.898   4.691   9.682 -1.9269  1.8382 -1.3519
 8865SOL     OW28035   4.604   3.739  11.120 -0.3611  0.6374  0.0252
 8865SOL    HW128036   4.518   3.702  11.144 -1.2338  2.0243 -0.8369
 8865SOL    HW228037   4.614   3.719  11.027  1.1480 -1.1458  0.5137
 8866SOL     OW28038   2.819   2.175   8.561  0.2664  0.2056  0.5338
 8866SOL    HW128039   2.837   2.248   8.502  0.1054  0.2800  0.5767
 8866SOL    HW228040   2.902   2.159   8.606 -0.1033  1.3593  1.6501
 8867SOL     OW28041   5.283   3.246  10.214  0.2800  0.1300 -0.1697
 8867SOL    HW128042   5.226   3.322  10.231 -0.7913 -0.7976  0.5504
 8867SOL    HW228043   5.311   3.257  10.123 -0.4234  1.0309 -0.2942
 8868SOL     OW28044   3.621   2.247  11.946 -0.1607  0.3867  1.2225
 8868SOL    HW128045   3.578   2.309  11.888 -0.6199 -0.9898  0.0438
 8868SOL    HW228046   3.558   2.176  11.958  0.4819 -0.0453  2.2595
 8869SOL     OW28047   1.052   1.741  11.264 -0.1760 -0.4089 -0.5625
 8869SOL    HW128048   1.037   1.800  11.338  1.1901 -0.5501 -0.1444
 8869SOL    HW228049   1.144   1.753  11.241  0.2669 -2.6146 -0.2103
 8870SOL     OW28050   4.154   5.361  11.009 -0.2527  0.3994  0.7391
 8870SOL    HW128051   4.193   5.428  10.954  0.8353  0.6797  1.8036
 8870SOL    HW228052   4.132   5.406  11.090  0.7001 -0.5370  1.5584
 8871SOL     OW28053   3.780   1.156   0.841 -1.3545  0.0429  0.0723
 8871SOL    HW128054   3.806   1.213   0.914  0.3524  0.0200 -0.4750
 8871SOL    HW228055   3.753   1.074   0.883  1.6954 -0.7723  0.6850
 8872SOL     OW28056   5.115   2.973  10.548  0.1402 -0.1883  0.1307
 8872SOL    HW128057   5.096   2.889  10.506  0.0191  0.1788 -0.5600
 8872SOL    HW228058   5.209   2.970  10.566  0.2000 -0.3332 -0.2040
 8873SOL     OW28059   3.445   5.101  10.865 -0.1847 -0.3519 -0.1476
 8873SOL    HW128060   3.439   5.034  10.934 -2.1307  1.6714  1.8449
 8873SOL    HW228061   3.378   5.076  10.801  0.0174 -1.0197 -0.1005
 8874SOL     OW28062   4.969   3.108   0.176  0.1250  0.0475  0.1507
 8874SOL    HW128063   4.901   3.043   0.193 -0.7604  1.1166  0.8750
 8874SOL    HW228064   5.000   3.134   0.263  0.2798  0.7685 -0.1097
 8875SOL     OW28065   2.810   1.897   0.040 -0.0247  0.4533 -0.2580
 8875SOL    HW128066   2.885   1.845   0.011 -0.4183  0.4109 -1.2327
 8875SOL    HW228067   2.781   1.854   0.121  0.5955  0.0831 -0.2295
 8876SOL     OW28068   3.011   3.421  11.991  0.0456 -0.4567 -0.0651
 8876SOL    HW128069   2.936   3.363  12.007  1.0805 -1.0066  3.6300
 8876SOL    HW228070   3.070   3.369  11.937 -0.5572 -1.5585  0.3076
 8877SOL     OW28071   3.357   1.749  11.570 -0.3180 -0.2574 -0.7431
 8877SOL    HW128072   3.274   1.796  11.567  0.2917  1.0185  0.5472
 8877SOL    HW228073   3.423   1.819  11.574  0.5889 -1.1495  2.1731
 8878SOL     OW28074   3.451   1.883  10.594 -0.4633 -0.4089 -0.4530
 8878SOL    HW128075   3.406   1.801  10.615 -0.2545 -0.1432  1.1850
 8878SOL    HW228076   3.382   1.943  10.568 -0.8033 -0.6797 -0.1941
 8879SOL     OW28077   2.350   3.157  11.032 -0.3214  0.5605  0.7461
 8879SOL    HW128078   2.359   3.154  10.936 -0.1084  0.2393  0.7762
 8879SOL    HW228079   2.437   3.133  11.065 -0.0154  1.9158  1.0178
 8880SOL     OW28080   1.913   3.256  12.331 -0.1170  0.1485  0.1816
 8880SOL    HW128081   1.896   3.217  12.246  1.1255  1.4435 -0.7021
 8880SOL    HW228082   1.952   3.341  12.312  1.0557  0.0888  2.0359
 8881SOL     OW28083   4.837   2.941  11.382  0.0047 -0.4608  0.1749
 8881SOL    HW128084   4.794   2.909  11.461  3.4823 -1.0771  1.9809
 8881SOL    HW228085   4.831   2.868  11.320 -1.1642 -0.6552  0.5005
 8882SOL     OW28086   4.979   3.093  10.900  0.3094  0.0451 -0.2024
 8882SOL    HW128087   5.004   3.166  10.957 -1.0839  0.3530  0.0527
 8882SOL    HW228088   5.005   3.121  10.813  2.4121 -0.4045  0.2235
 8883SOL     OW28089   4.180   0.770   1.342  0.0964 -0.0809  0.2798
 8883SOL    HW128090   4.270   0.741   1.359  0.1419 -1.1694 -1.4554
 8883SOL    HW228091   4.187   0.865   1.329  1.0838 -0.2126 -0.2538
 8884SOL     OW28092   1.474   1.243  10.555  0.2931 -0.1249 -0.4483
 8884SOL    HW128093   1.472   1.148  10.556 -1.4119 -0.1302 -1.2369
 8884SOL    HW228094   1.561   1.266  10.589 -0.0177 -1.8932  1.7243
 8885SOL     OW28095   2.828   3.512  11.188  0.4015 -0.1328  0.4116
 8885SOL    HW128096   2.751   3.455  11.192  0.5608 -0.3264  0.8150
 8885SOL    HW228097   2.821   3.555  11.103  0.6610 -1.2885 -0.2243
 8886SOL     OW28098   1.816   2.440   1.277 -0.5232 -0.1082  0.1770
 8886SOL    HW128099   1.909   2.462   1.271 -0.6754  0.6069  0.4234
 8886SOL    HW228100   1.809   2.389   1.357 -0.4350  0.3153  0.4549
 8887SOL     OW28101   2.133   1.536  11.068  0.8066  0.0640 -0.5865
 8887SOL    HW128102   2.200   1.481  11.109 -0.0489 -0.9265 -0.4734
 8887SOL    HW228103   2.054   1.482  11.069 -0.2527  1.5857  0.1700
 8888SOL     OW28104   4.454   3.826  11.551 -0.1263 -0.5223 -0.3531
 8888SOL    HW128105   4.387   3.781  11.501 -2.2390  1.7212  0.3045
 8888SOL    HW228106   4.413   3.843  11.636  0.8594  1.7974 -0.2720
 8889SOL     OW28107   4.661   2.956  10.735  0.0012 -0.9138  0.4932
 8889SOL    HW128108   4.658   2.985  10.826 -0.0456 -2.3016  0.9565
 8889SOL    HW228109   4.624   2.868  10.736  0.2807 -1.0745 -0.8186
 8890SOL     OW28110   3.047   2.988  11.358  0.2523  0.4407 -0.1872
 8890SOL    HW128111   3.020   3.004  11.267  1.1058  0.7901 -0.3874
 8890SOL    HW228112   3.140   2.965  11.352 -0.1052 -1.3890  0.4158
 8891SOL     OW28113   4.804   3.457  11.821  0.1436 -0.4132  0.3097
 8891SOL    HW128114   4.878   3.509  11.790  1.1004 -1.8421  0.1251
 8891SOL    HW228115   4.814   3.372  11.779 -1.0270 -0.9680  1.0835
 8892SOL     OW28116   2.677   0.351  11.849 -0.6713  0.0761  0.0636
 8892SOL    HW128117   2.626   0.271  11.864  1.0101 -1.0356  0.1373
 8892SOL    HW228118   2.744   0.350  11.917  1.4670 -0.2800 -1.9249
 8893SOL     OW28119   3.345   1.331   0.929 -1.0211  0.1665 -0.6442
 8893SOL    HW128120   3.272   1.372   0.882 -2.1283  0.2255  1.0287
 8893SOL    HW228121   3.310   1.315   1.017 -0.1041 -2.8422 -0.7125
 8894SOL     OW28122   4.804   2.924  12.016  0.4640  1.1215  0.1896
 8894SOL    HW128123   4.867   2.887  11.954 -0.3664  2.0784 -1.2470
 8894SOL    HW228124   4.719   2.895  11.985  0.0575  1.1353  1.2342
 8895SOL     OW28125   3.775   4.171   0.472 -0.3099  0.3970  0.1945
 8895SOL    HW128126   3.837   4.200   0.538 -0.0817 -0.0598  0.1853
 8895SOL    HW228127   3.823   4.176   0.389  0.6772 -2.5412  0.4654
 8896SOL     OW28128   3.469   2.840   0.297 -0.5631 -1.0941 -0.3075
 8896SOL    HW128129   3.429   2.862   0.381 -1.2229  0.2698 -0.9425
 8896SOL    HW228130   3.413   2.772   0.260  0.3335 -2.4770  0.7938
 8897SOL     OW28131   5.178   3.206  11.701  0.0675 -0.3584 -0.1508
 8897SOL    HW128132   5.260   3.162  11.726  0.1778 -0.3587 -0.4980
 8897SOL    HW228133   5.196   3.242  11.614 -0.3468 -0.4715 -0.2861
 8898SOL     OW28134   3.103   0.439  11.522 -0.1922 -0.1457  0.3105
 8898SOL    HW128135   3.171   0.495  11.562  0.4610  0.3809 -1.4467
 8898SOL    HW228136   3.150   0.386  11.458 -0.9647 -2.1113  1.2780
 8899SOL     OW28137   2.834   2.467  11.128 -0.2754  0.1662 -0.0948
 8899SOL    HW128138   2.843   2.401  11.196  1.9202 -0.9903 -1.3774
 8899SOL    HW228139   2.872   2.546  11.166  0.7533 -0.4133  0.1297
 8900SOL     OW28140   3.429   2.401  11.778 -0.4032 -0.1795 -0.2022
 8900SOL    HW128141   3.354   2.379  11.722 -0.9276 -0.8047  0.7071
 8900SOL    HW228142   3.390   2.453  11.849  0.7380  3.5527 -2.0926
 8901SOL     OW28143   4.573   3.601  11.784 -0.6262 -0.6807 -0.1085
 8901SOL    HW128144   4.649   3.543  11.782 -0.0642 -0.0657 -3.5961
 8901SOL    HW228145   4.609   3.688  11.802 -0.4410 -0.3911 -1.7495
 8902SOL     OW28146   3.920   1.560   0.727  0.1119 -0.2400 -0.3508
 8902SOL    HW128147   3.853   1.493   0.713  1.0770 -0.9974 -1.5749
 8902SOL    HW228148   3.926   1.568   0.822 -1.9820  0.1633 -0.1935
 8903SOL     OW28149   4.194   3.266  11.796 -0.0653  0.2916 -0.2365
 8903SOL    HW128150   4.202   3.248  11.702  2.7258  0.6031 -0.1184
 8903SOL    HW228151   4.147   3.189  11.830  2.1618 -1.7288 -1.3784
 8904SOL     OW28152   4.676   3.281  11.650 -0.0368  0.4451  0.0623
 8904SOL    HW128153   4.599   3.291  11.707 -0.1849  0.3194 -0.1169
 8904SOL    HW228154   4.726   3.211  11.691  0.5819  1.3159  0.8482
 8905SOL     OW28155   3.911   2.825  12.272  0.1088  0.2131  0.2349
 8905SOL    HW128156   3.830   2.792  12.310  0.8229  0.9608  2.6003
 8905SOL    HW228157   3.946   2.751  12.222 -1.3829 -0.5104  0.2089
 8906SOL     OW28158   1.581   3.682   1.518 -0.0880  0.8167 -0.1414
 8906SOL    HW128159   1.496   3.707   1.483  0.7726  1.4541 -1.9203
 8906SOL    HW228160   1.624   3.634   1.446 -0.5304 -3.4619  2.0859
 8907SOL     OW28161   2.924   3.707   1.136  0.2897  0.1802  0.3173
 8907SOL    HW128162   2.911   3.689   1.229  0.2802 -0.4577  0.1991
 8907SOL    HW228163   2.836   3.722   1.101  0.0276 -1.8197 -0.0210
 8908SOL     OW28164   2.968   4.061  11.447  1.0873 -0.7117  0.1952
 8908SOL    HW128165   2.892   4.009  11.420  2.7556 -2.9941 -0.2988
 8908SOL    HW228166   3.006   4.013  11.520  0.7921  1.6518  2.0395
 8909SOL     OW28167   4.240   3.365   0.594  0.0773  0.2445 -0.2604
 8909SOL    HW128168   4.313   3.388   0.536  0.9191 -0.6445  0.4156
 8909SOL    HW228169   4.205   3.283   0.558  0.1613  0.0574  0.0728
 8910SOL     OW28170   2.352   4.640   0.569 -0.2305  0.2229  0.5064
 8910SOL    HW128171   2.320   4.726   0.544  1.6463  1.5461  2.3235
 8910SOL    HW228172   2.376   4.598   0.486 -0.1217  1.8992 -0.3378
 8911SOL     OW28173   2.744   4.034   0.890 -1.0840  0.4390 -0.3685
 8911SOL    HW128174   2.729   4.097   0.960  1.6701  0.9626 -0.1579
 8911SOL    HW228175   2.826   3.992   0.912 -1.0111 -0.6140 -2.4151
 8912SOL     OW28176   4.248   3.740  11.386 -0.1463 -0.1798  0.1558
 8912SOL    HW128177   4.225   3.804  11.318 -1.1215 -0.6342  0.0424
 8912SOL    HW228178   4.164   3.714  11.425  0.1785 -1.6781 -0.0656
 8913SOL     OW28179   2.054   4.065   1.740 -0.1068  0.2570  0.1077
 8913SOL    HW128180   2.001   4.046   1.662 -2.5920  0.2472  1.6804
 8913SOL    HW228181   2.104   4.144   1.717 -0.4256 -0.0015 -1.6205
 8914SOL     OW28182   3.875   3.853   0.400  0.1253  0.1500 -0.1376
 8914SOL    HW128183   3.865   3.885   0.310 -0.3500 -1.8042 -0.8252
 8914SOL    HW228184   3.906   3.763   0.390  2.4312  0.6423  1.7258
 8915SOL     OW28185   0.851   3.967   2.378  0.3289  0.5216  0.3531
 8915SOL    HW128186   0.807   4.022   2.313  1.3040  0.7927 -0.1051
 8915SOL    HW228187   0.866   4.025   2.452 -0.8469  0.1932  0.8574
 8916SOL     OW28188   3.820   5.154   0.815  0.4540  0.2123  0.0927
 8916SOL    HW128189   3.898   5.196   0.777  0.1901  0.7500  0.1347
 8916SOL    HW228190   3.782   5.221   0.872  1.2015 -0.7670  1.8389
 8917SOL     OW28191   1.234   4.616   2.618 -0.4065 -0.1933 -0.6549
 8917SOL    HW128192   1.182   4.624   2.698  2.9294  1.2921  1.5969
 8917SOL    HW228193   1.204   4.687   2.562 -2.1401 -0.6286 -0.3136
 8918SOL     OW28194   1.426   3.952   1.587  0.1888 -0.6613 -0.1501
 8918SOL    HW128195   1.344   3.920   1.623 -0.8083  0.6022 -1.2208
 8918SOL    HW228196   1.444   3.894   1.512  0.0378 -0.6479 -0.1957
 8919SOL     OW28197   1.498   6.360  12.387 -0.3783  0.2911 -0.3885
 8919SOL    HW128198   1.494   6.297  12.315 -0.2245  0.0673 -0.2021
 8919SOL    HW228199   1.589   6.391  12.387 -0.6058  0.9946 -0.8870
 8920SOL     OW28200   1.978   5.435   2.279  0.7021  0.2483 -0.1532
 8920SOL    HW128201   1.937   5.517   2.252  0.4691  0.9384  2.1058
 8920SOL    HW228202   2.025   5.457   2.359  0.7539 -1.8089  0.4325
 8921SOL     OW28203   3.775   3.339   1.023  0.2785 -0.7456 -0.2165
 8921SOL    HW128204   3.726   3.304   1.097  0.4876 -1.4507 -0.3992
 8921SOL    HW228205   3.724   3.312   0.946 -0.2907  0.5475 -0.3146
 8922SOL     OW28206   3.275   5.348   1.542  0.5668 -0.0771  0.0545
 8922SOL    HW128207   3.181   5.352   1.525  0.3850 -2.4742  0.2284
 8922SOL    HW228208   3.311   5.299   1.468  1.0973 -2.4142  1.7442
 8923SOL     OW28209   7.954   6.927   2.143 -0.3722 -0.5863  0.0111
 8923SOL    HW128210   7.865   6.893   2.140 -0.6426  0.0609  0.5743
 8923SOL    HW228211   7.977   6.926   2.236 -0.6760  1.4585  0.1537
 8924SOL     OW28212   5.325   1.089   0.517 -0.1584  0.2108 -0.6669
 8924SOL    HW128213   5.392   1.156   0.535 -0.5669  1.0186 -2.0138
 8924SOL    HW228214   5.348   1.016   0.575 -0.5830  2.0561  1.9939
 8925SOL     OW28215   2.719   2.412   0.855 -0.2199  0.0433  0.6707
 8925SOL    HW128216   2.805   2.391   0.892 -0.7900 -0.8651  1.5484
 8925SOL    HW228217   2.689   2.486   0.906  0.0191  0.3312  0.3954
 8926SOL     OW28218   1.747   5.699   0.026  0.0777  0.3451 -0.9004
 8926SOL    HW128219   1.811   5.728  -0.040 -0.4342  0.3068 -1.4195
 8926SOL    HW228220   1.800   5.653   0.091  1.0720  3.1851  0.4748
 8927SOL     OW28221   5.173   4.795   1.887 -0.1159  0.5245  0.2939
 8927SOL    HW128222   5.093   4.761   1.926 -0.2933  0.4418 -0.1386
 8927SOL    HW228223   5.208   4.856   1.953  1.1590 -1.7535  1.9088
 8928SOL     OW28224   2.876   4.572   0.155  0.0831  0.1237 -0.0901
 8928SOL    HW128225   2.868   4.478   0.171  2.1818 -0.1404 -0.3021
 8928SOL    HW228226   2.968   4.584   0.129 -0.1822  2.2131 -0.2132
 8929SOL     OW28227   3.924   5.009   2.063 -0.3284  0.0281  0.1233
 8929SOL    HW128228   3.992   4.944   2.080 -0.3678 -0.4414 -1.4061
 8929SOL    HW228229   3.864   5.001   2.137  0.7820 -0.1916  1.0234
 8930SOL     OW28230   4.546   2.703  10.745 -0.4631  0.1664  0.2893
 8930SOL    HW128231   4.627   2.654  10.727  0.7425  1.6728  1.3189
 8930SOL    HW228232   4.535   2.697  10.840 -1.6137 -0.0674  0.1565
 8931SOL     OW28233   1.974   5.777   2.319  0.2609  0.3656 -0.3751
 8931SOL    HW128234   1.927   5.835   2.379  0.9741  0.0002  0.5706
 8931SOL    HW228235   2.050   5.747   2.370 -0.6494 -2.2735 -0.4093
 8932SOL     OW28236   2.701   6.439  11.538  0.0597  0.3367 -0.0459
 8932SOL    HW128237   2.615   6.413  11.507  0.9020  0.9564 -3.2260
 8932SOL    HW228238   2.702   6.534  11.533  1.3371  0.2967 -1.4860
 8933SOL     OW28239   3.253   6.470   1.485  0.5024  0.0366  0.6710
 8933SOL    HW128240   3.332   6.443   1.531  1.9740  1.0556 -1.1069
 8933SOL    HW228241   3.232   6.557   1.520  2.7779  1.7118 -1.7330
 8934SOL     OW28242   3.229   2.888   0.605  0.0506 -0.0420  0.1741
 8934SOL    HW128243   3.237   2.794   0.595  1.5037 -0.2029  2.3721
 8934SOL    HW228244   3.254   2.906   0.695  0.6002  2.5471 -0.4056
 8935SOL     OW28245   2.009   5.610   3.728  0.3410  0.7503 -0.0569
 8935SOL    HW128246   2.081   5.550   3.708 -0.0949  0.1018  0.2790
 8935SOL    HW228247   1.950   5.559   3.783 -0.3301  1.3018 -0.2480
 8936SOL     OW28248   4.526   3.246  12.041  0.4737  0.0119 -0.3838
 8936SOL    HW128249   4.532   3.154  12.019 -1.8751 -0.6035  1.1544
 8936SOL    HW228250   4.502   3.289  11.959  0.5023 -0.9014 -0.8817
 8937SOL     OW28251   1.434   5.111   2.424 -0.1715  0.2750 -0.0149
 8937SOL    HW128252   1.396   5.167   2.491  1.5014 -0.3960  1.5831
 8937SOL    HW228253   1.526   5.103   2.449 -0.0713 -2.1643 -0.8531
 8938SOL     OW28254   3.669   2.922  12.025  0.1929 -0.1559 -0.3155
 8938SOL    HW128255   3.617   2.847  12.053  2.2992 -1.7117 -0.4227
 8938SOL    HW228256   3.738   2.886  11.971  0.1103  2.1065 -2.0910
 8939SOL     OW28257   2.013   4.564   1.927  0.6947 -0.0063 -0.4870
 8939SOL    HW128258   2.027   4.471   1.910 -0.1304 -0.0435 -1.0207
 8939SOL    HW228259   1.922   4.580   1.902  0.4703  0.6992  0.7117
 8940SOL     OW28260   4.506   3.842   0.185  0.3347 -0.1061 -0.8405
 8940SOL    HW128261   4.590   3.806   0.157  0.9111  1.7944 -1.7639
 8940SOL    HW228262   4.529   3.912   0.247 -0.6854 -0.7303  0.2961
 8941SOL     OW28263   3.604   4.166   0.743  0.6448 -0.1327  0.0885
 8941SOL    HW128264   3.649   4.129   0.666 -1.4151 -0.3425 -1.0789
 8941SOL    HW228265   3.550   4.094   0.775 -1.1712  0.9427 -0.4246
 8942SOL     OW28266   2.596   1.117   2.628 -0.6551 -0.3355  0.0235
 8942SOL    HW128267   2.536   1.133   2.555 -0.9505 -0.5555  0.2127
 8942SOL    HW228268   2.659   1.188   2.624 -1.2168  0.1744  0.1132
 8943SOL     OW28269   4.361   4.672   0.574  0.0065 -0.1931  0.2240
 8943SOL    HW128270   4.296   4.734   0.540  1.6907  0.7347 -1.5457
 8943SOL    HW228271   4.327   4.646   0.660 -0.6015  3.5705  1.3077
 8944SOL     OW28272   1.008   5.656   2.462 -0.1012 -0.7323  0.0093
 8944SOL    HW128273   1.076   5.655   2.395  0.8188  0.2378  0.8785
 8944SOL    HW228274   1.035   5.727   2.521 -2.9070  1.0722 -0.7004
 8945SOL     OW28275   2.137   4.382   2.496 -0.3567 -0.3568 -0.4765
 8945SOL    HW128276   2.132   4.310   2.559 -0.2061 -0.2071 -0.2944
 8945SOL    HW228277   2.101   4.345   2.415 -1.1482 -0.3561 -0.1318
 8946SOL     OW28278   2.157   7.019   2.252 -0.2540 -0.2230 -0.1056
 8946SOL    HW128279   2.180   6.952   2.317  2.1211 -0.7415 -1.3830
 8946SOL    HW228280   2.135   7.096   2.305  3.6216  0.0313  1.4337
 8947SOL     OW28281   2.896   4.099   0.650 -0.1455 -0.2711  0.9301
 8947SOL    HW128282   2.836   4.108   0.725 -1.2694  0.0832  0.0195
 8947SOL    HW228283   2.962   4.167   0.664  0.5681 -1.2175  2.3936
 8948SOL     OW28284   2.147   6.338   1.373  0.0286 -0.3709  0.1791
 8948SOL    HW128285   2.135   6.306   1.284  0.4563  1.1479 -0.4572
 8948SOL    HW228286   2.239   6.363   1.377 -0.0761 -0.0760  0.9199
 8949SOL     OW28287   3.372   3.466   1.375  0.5516  0.5624 -0.2009
 8949SOL    HW128288   3.293   3.516   1.397  0.1813 -1.1006  2.8480
 8949SOL    HW228289   3.440   3.504   1.431  1.0896 -0.1820 -0.3423
 8950SOL     OW28290   2.097   5.265   1.299 -0.1243  0.7225  0.0176
 8950SOL    HW128291   2.031   5.282   1.366 -0.3745  0.4856 -0.1681
 8950SOL    HW228292   2.063   5.191   1.248  1.3155 -0.9175  1.2994
 8951SOL     OW28293   3.823   4.536   0.185  0.0602 -0.0850 -0.1801
 8951SOL    HW128294   3.751   4.529   0.247 -0.2323  2.2634 -0.1469
 8951SOL    HW228295   3.786   4.585   0.112  1.2330 -0.1498 -0.8344
 8952SOL     OW28296   3.586   4.989   0.753  0.2673 -0.0143  0.0205
 8952SOL    HW128297   3.672   5.021   0.783  1.2659 -1.0982 -1.5204
 8952SOL    HW228298   3.547   5.063   0.708  0.9355  0.1434 -0.3108
 8953SOL     OW28299   3.049   1.776   1.213 -0.4229  0.0776 -0.2094
 8953SOL    HW128300   3.126   1.777   1.157 -0.9733 -0.4663 -0.9972
 8953SOL    HW228301   3.034   1.868   1.235 -0.4699  0.3618 -1.3588
 8954SOL     OW28302   4.163   4.237   0.694  0.0396 -0.1941 -0.6952
 8954SOL    HW128303   4.213   4.178   0.751 -0.1192 -0.6401 -1.0068
 8954SOL    HW228304   4.118   4.178   0.633 -1.1436  0.1611 -0.1989
 8955SOL     OW28305   1.359   4.993   1.730  0.2906 -0.3725  0.1262
 8955SOL    HW128306   1.269   4.978   1.757 -0.4506  1.4329 -1.1263
 8955SOL    HW228307   1.402   5.028   1.808 -0.9876  1.8344 -0.0873
 8956SOL     OW28308   2.662   4.644  12.281  0.7793  0.2064  0.2008
 8956SOL    HW128309   2.607   4.578  12.323 -0.6236  0.3117 -1.3700
 8956SOL    HW228310   2.606   4.721  12.274  1.6152  0.8010 -0.1266
 8957SOL     OW28311   3.147   4.529   0.118 -0.3387 -0.1485  0.0887
 8957SOL    HW128312   3.235   4.530   0.157 -0.3694 -0.1735  0.1564
 8957SOL    HW228313   3.157   4.581   0.038 -0.2792 -0.0902  0.1332
 8958SOL     OW28314   3.734   5.050   0.385 -0.0362 -0.4778 -0.1358
 8958SOL    HW128315   3.798   5.016   0.447  0.8297  3.8424  1.7239
 8958SOL    HW228316   3.651   5.010   0.411  1.2144 -3.4744 -0.3413
 8959SOL     OW28317   3.385   2.760  12.436  0.3267  0.2952  0.0372
 8959SOL    HW128318   3.361   2.679  12.482 -1.7846  0.1490 -1.1936
 8959SOL    HW228319   3.321   2.825  12.467  0.6273  0.9112 -0.6048
 8960SOL     OW28320   4.339   3.552   1.020  0.2104 -0.3537  0.4603
 8960SOL    HW128321   4.299   3.480   0.970  1.5587  0.2501 -1.6328
 8960SOL    HW228322   4.389   3.508   1.088 -0.8059 -1.2770  0.6419
 8961SOL     OW28323   2.592   5.867   2.259  0.1782  0.1005 -0.2743
 8961SOL    HW128324   2.499   5.845   2.257  0.1948  0.1019 -1.4973
 8961SOL    HW228325   2.599   5.947   2.208  0.9784 -0.4156 -0.9953
 8962SOL     OW28326   2.417   5.454  12.313 -0.3724  0.7927 -0.2072
 8962SOL    HW128327   2.417   5.369  12.270  0.0738  1.0944 -0.8238
 8962SOL    HW228328   2.467   5.511  12.254  1.2866  0.9446  1.2428
 8963SOL     OW28329   3.329   3.020   1.885  0.3521  0.1794  0.7214
 8963SOL    HW128330   3.278   2.949   1.846  0.3818  0.7586 -0.4251
 8963SOL    HW228331   3.267   3.067   1.940  0.2908 -0.6199  1.3532
 8964SOL     OW28332   0.659   7.134  12.121 -0.0866  0.4186 -0.0719
 8964SOL    HW128333   0.655   7.202  12.053 -0.0512  0.6441  0.1513
 8964SOL    HW228334   0.587   7.075  12.099  0.2717  0.1859 -0.6294
 8965SOL     OW28335   2.829   3.325   2.079 -0.1864  0.1852  0.2684
 8965SOL    HW128336   2.898   3.390   2.095  0.2334 -0.2098  0.0733
 8965SOL    HW228337   2.798   3.302   2.167 -0.0676  0.3589  0.3582
 8966SOL     OW28338   1.930   4.161   0.575  0.5847  0.1419  0.1079
 8966SOL    HW128339   1.936   4.251   0.608 -1.5329 -0.3302  2.0518
 8966SOL    HW228340   1.897   4.170   0.486  1.4320  1.2938 -0.1169
 8967SOL     OW28341   1.049   5.366  12.359  0.6183 -0.3327  0.0943
 8967SOL    HW128342   1.092   5.372  12.273  0.7385  2.4986  0.2732
 8967SOL    HW228343   0.994   5.444  12.364 -2.8083 -2.5835  0.8823
 8968SOL     OW28344   4.194   3.671   0.387 -0.6230 -0.1566 -0.2961
 8968SOL    HW128345   4.108   3.634   0.366 -1.6634  0.8153  1.8751
 8968SOL    HW228346   4.193   3.758   0.345 -1.0438  0.1593  0.3456
 8969SOL     OW28347   1.589   4.127   2.909  0.1567 -0.1111  0.7422
 8969SOL    HW128348   1.590   4.078   2.827 -2.7656  0.1129  0.4663
 8969SOL    HW228349   1.608   4.217   2.883 -1.3885  0.0772  0.1527
 8970SOL     OW28350   2.568   4.954  11.112  0.0958  0.7653 -0.2948
 8970SOL    HW128351   2.580   5.026  11.049  0.8058  1.0356  0.1321
 8970SOL    HW228352   2.619   4.981  11.188  0.5564 -0.3052 -0.2152
 8971SOL     OW28353   0.081   4.487   3.664 -0.4209  0.0925  0.3469
 8971SOL    HW128354   0.148   4.489   3.732  0.5113  1.1026 -0.5761
 8971SOL    HW228355   0.048   4.576   3.659  0.6693  0.4454 -1.6038
 8972SOL     OW28356   2.727   3.814   1.578  0.0785 -0.6097 -0.2854
 8972SOL    HW128357   2.709   3.864   1.498 -1.2280  0.6721  0.7618
 8972SOL    HW228358   2.808   3.851   1.611 -0.8365  0.8326  0.4401
 8973SOL     OW28359   2.347   4.015   2.391  0.0588  0.0354  0.1026
 8973SOL    HW128360   2.415   3.968   2.343 -0.0715  0.5641 -0.6134
 8973SOL    HW228361   2.332   4.095   2.340 -0.4534  0.3594  0.7427
 8974SOL     OW28362   3.288   3.909   2.178 -0.5437  0.2247 -0.5214
 8974SOL    HW128363   3.368   3.925   2.227  0.6066 -0.8908 -1.9506
 8974SOL    HW228364   3.228   3.871   2.243  0.8207 -0.9089  0.1435
 8975SOL     OW28365   2.500   4.064  11.796  0.3808 -0.0624 -0.8900
 8975SOL    HW128366   2.471   4.098  11.712 -0.0607 -1.0600 -1.1638
 8975SOL    HW228367   2.573   4.005  11.774  1.3263  0.9000 -0.4017
 8976SOL     OW28368   2.171   6.263   1.098 -0.4045 -0.2576 -0.6199
 8976SOL    HW128369   2.087   6.242   1.058 -0.8672  1.2812 -0.5353
 8976SOL    HW228370   2.236   6.247   1.030 -1.0715  1.3231 -1.6766
 8977SOL     OW28371   4.875   3.842  11.120 -0.4548  0.5243 -0.0976
 8977SOL    HW128372   4.799   3.787  11.140 -0.3160  0.1654 -0.5410
 8977SOL    HW228373   4.839   3.916  11.071 -0.6925  1.0276  0.8073
 8978SOL     OW28374   3.969   3.078  12.356  0.1075 -0.1254 -0.1533
 8978SOL    HW128375   3.948   3.090  12.449 -1.1410 -0.6930 -0.3397
 8978SOL    HW228376   3.952   2.985  12.340  2.5601 -0.5873 -0.4231
 8979SOL     OW28377   2.120   5.103   0.352  0.0948 -0.1134 -0.1163
 8979SOL    HW128378   2.031   5.075   0.330 -0.6166  0.5390  1.7268
 8979SOL    HW228379   2.156   5.136   0.269 -1.5782  0.1508 -0.7742
 8980SOL     OW28380   2.330   5.164   2.332 -0.0066  0.3529  0.6250
 8980SOL    HW128381   2.276   5.201   2.263 -1.3528 -2.1837  0.2145
 8980SOL    HW228382   2.418   5.200   2.316 -0.1044 -0.6272 -2.8331
 8981SOL     OW28383   3.198   5.127  12.162 -0.3523 -0.6442  0.5914
 8981SOL    HW128384   3.183   5.122  12.257  1.3095 -2.5088  0.8275
 8981SOL    HW228385   3.136   5.064  12.125 -1.3376  0.4295  0.3417
 8982SOL     OW28386   0.476   6.442   1.358  0.6597 -0.6887 -0.6432
 8982SOL    HW128387   0.560   6.396   1.358  1.4925  0.7715  0.3877
 8982SOL    HW228388   0.492   6.520   1.305 -0.4142 -0.9907 -1.4424
 8983SOL     OW28389   5.012   4.693   1.607  0.3714  0.1876  0.6363
 8983SOL    HW128390   4.977   4.713   1.694 -0.4845 -0.8905  0.5659
 8983SOL    HW228391   5.030   4.779   1.568  0.0485  0.7020  1.5838
 8984SOL     OW28392   3.530   3.101  11.867  0.2630  0.6143 -0.2545
 8984SOL    HW128393   3.453   3.071  11.916 -0.2407 -0.7427 -1.7888
 8984SOL    HW228394   3.599   3.040  11.893  0.1377  0.2430 -0.7618
 8985SOL     OW28395   1.679   4.019   0.955 -0.1648  0.1863 -0.0250
 8985SOL    HW128396   1.639   3.989   1.037  0.9209 -0.4693  0.2964
 8985SOL    HW228397   1.772   3.999   0.966  1.2595  5.6216  1.1884
 8986SOL     OW28398   2.057   5.288  12.391  0.1646 -0.0052 -0.2861
 8986SOL    HW128399   2.141   5.275  12.435 -1.0539  1.6514  2.8990
 8986SOL    HW228400   2.011   5.205  12.403  0.6357 -0.2615 -0.2437
 8987SOL     OW28401   2.165   3.132   1.165 -0.3670  0.2230  0.2479
 8987SOL    HW128402   2.071   3.123   1.174 -0.1792 -1.4848  0.8724
 8987SOL    HW228403   2.185   3.219   1.198 -1.3901 -0.5205  3.0993
 8988SOL     OW28404   0.494   3.227  11.422  0.7057  0.1104 -0.1555
 8988SOL    HW128405   0.563   3.244  11.487  0.1971  0.4714  0.3073
 8988SOL    HW228406   0.431   3.299  11.435  1.5879  1.4123 -2.4410
 8989SOL     OW28407   4.356   4.376   2.840  0.4398  0.1696  0.2179
 8989SOL    HW128408   4.381   4.468   2.835 -1.3778  0.6605 -0.8287
 8989SOL    HW228409   4.395   4.345   2.922 -0.4269  2.3676  1.5526
 8990SOL     OW28410   3.003   5.948   0.516 -0.4194 -0.2880  0.2093
 8990SOL    HW128411   2.978   5.858   0.538 -2.7163  0.0453 -0.7161
 8990SOL    HW228412   3.043   5.942   0.430 -0.9933 -0.3980 -0.0564
 8991SOL     OW28413   4.377   4.357   0.492 -0.0266 -0.0384  0.2431
 8991SOL    HW128414   4.365   4.424   0.560  1.8798 -0.9374  1.5310
 8991SOL    HW228415   4.413   4.405   0.417 -1.6098  0.8583 -0.0101
 8992SOL     OW28416   1.959   5.491   0.586  0.2000 -0.6250 -0.4902
 8992SOL    HW128417   1.931   5.521   0.500 -0.8273  0.4320  0.1886
 8992SOL    HW228418   1.944   5.396   0.584  1.1953 -0.7689 -1.8252
 8993SOL     OW28419   2.858   4.174   0.327 -0.6656  0.5548 -0.1812
 8993SOL    HW128420   2.901   4.088   0.337 -0.0731  0.9059  0.3720
 8993SOL    HW228421   2.815   4.189   0.411  1.6415  2.0725  0.8380
 8994SOL     OW28422   4.611   4.124  12.220 -0.2733  0.5037 -0.4183
 8994SOL    HW128423   4.532   4.148  12.173 -0.3909 -0.1510 -0.5513
 8994SOL    HW228424   4.580   4.093  12.305 -0.1057  0.9845 -0.1760
 8995SOL     OW28425   0.286   4.814   0.656  0.3520 -0.7918 -0.0447
 8995SOL    HW128426   0.227   4.759   0.604  1.1984 -1.7138 -0.0509
 8995SOL    HW228427   0.239   4.897   0.665 -0.3902 -1.0787 -1.1165
 8996SOL     OW28428   4.280   3.792   0.056  0.3799  0.4207 -0.2292
 8996SOL    HW128429   4.310   3.712   0.015  1.6048  1.5110 -1.5436
 8996SOL    HW228430   4.352   3.820   0.112  1.3009  2.2039 -2.1698
 8997SOL     OW28431   0.345   6.276   0.802 -0.4655  0.3978  0.2049
 8997SOL    HW128432   0.414   6.260   0.737 -2.1910  2.8363 -2.5258
 8997SOL    HW228433   0.376   6.350   0.853 -0.2606  0.2401  0.3105
 8998SOL     OW28434   3.078   5.695   0.597 -0.2732 -0.0292  0.0083
 8998SOL    HW128435   3.144   5.693   0.666  0.8270 -0.4118 -1.0256
 8998SOL    HW228436   3.098   5.619   0.542 -1.5485 -0.1175 -0.3590
 8999SOL     OW28437   2.770   5.224   0.007 -0.0414  0.4727 -0.0727
 8999SOL    HW128438   2.860   5.257   0.011 -0.6435  2.1834 -0.0592
 8999SOL    HW228439   2.724   5.267   0.079 -1.0890  0.2923 -0.6068
 9000SOL     OW28440   3.897   3.972  12.340 -0.1137  0.0937 -0.0166
 9000SOL    HW128441   3.992   3.960  12.346 -0.2599 -1.7327 -0.8234
 9000SOL    HW228442   3.880   3.979  12.246 -0.6772  1.7456  0.1710
 9001SOL     OW28443   3.525   2.856   1.189 -0.0439 -0.0559 -0.1456
 9001SOL    HW128444   3.491   2.793   1.252  0.0455 -0.5457 -0.5848
 9001SOL    HW228445   3.600   2.812   1.148  1.5506  1.2149  1.2269
 9002SOL     OW28446   1.684   4.886   1.724 -0.0930 -0.4106 -0.0446
 9002SOL    HW128447   1.602   4.844   1.751 -0.3854 -0.4414 -0.9677
 9002SOL    HW228448   1.669   4.979   1.740 -0.3480 -0.4055 -0.3031
 9003SOL     OW28449   4.821   4.398   1.451 -0.2172 -0.2306 -0.5665
 9003SOL    HW128450   4.800   4.492   1.449  0.8723  0.0946  1.0251
 9003SOL    HW228451   4.737   4.355   1.465 -0.5631  0.6316  0.1632
 9004SOL     OW28452   2.104   4.843   1.140  0.3164 -0.4742  0.6885
 9004SOL    HW128453   2.179   4.796   1.103  1.4927  0.3412  1.9336
 9004SOL    HW228454   2.075   4.900   1.070  1.4234 -0.1804  0.4452
 9005SOL     OW28455   3.051   3.427   1.619 -0.4540 -0.3326 -0.5249
 9005SOL    HW128456   2.972   3.465   1.656  0.4502  2.1150 -0.8932
 9005SOL    HW228457   3.107   3.408   1.694 -0.2988  0.6188 -0.3859
 9006SOL     OW28458   1.188   6.800   3.031  0.3480  0.0480 -0.3208
 9006SOL    HW128459   1.105   6.754   3.021 -0.0048  0.5008  0.4668
 9006SOL    HW228460   1.222   6.808   2.942 -0.2152 -0.5631 -0.5998
 9007SOL     OW28461   1.673   5.281   0.046  0.2287  0.5131 -0.5991
 9007SOL    HW128462   1.629   5.344  -0.010  1.1110 -0.2266 -2.2113
 9007SOL    HW228463   1.604   5.222   0.076 -0.1120  0.1990 -1.9369
 9008SOL     OW28464   3.571   3.891   0.468  0.3803 -0.4114 -0.0229
 9008SOL    HW128465   3.598   3.815   0.520  2.4711  0.6420  0.5516
 9008SOL    HW228466   3.651   3.919   0.423 -1.0121 -0.3321 -2.6285
 9009SOL     OW28467   3.499   4.849   0.453 -0.5530 -0.1995  0.1110
 9009SOL    HW128468   3.454   4.931   0.431  1.1371  1.0893  1.1903
 9009SOL    HW228469   3.455   4.818   0.532 -1.0534 -0.2283 -0.1732
 9010SOL     OW28470   4.042   5.333   0.724  0.1961  0.4508 -0.2686
 9010SOL    HW128471   4.013   5.413   0.768 -0.0469  0.3408 -0.2304
 9010SOL    HW228472   4.138   5.339   0.725  0.1852  0.5731  0.0432
 9011SOL     OW28473   3.687   4.334   0.962 -0.1472  0.0284  0.3548
 9011SOL    HW128474   3.654   4.279   1.033 -0.0508 -0.0782  0.3183
 9011SOL    HW228475   3.666   4.285   0.882  0.5763 -0.2984  0.3590
 9012SOL     OW28476   3.536   5.149   3.468 -0.1683  0.0695  0.6111
 9012SOL    HW128477   3.452   5.144   3.514  0.0066  1.2166  1.0942
 9012SOL    HW228478   3.594   5.093   3.520  0.1909  1.8331  2.2105
 9013SOL     OW28479   1.558   4.244   2.182 -0.0434 -0.3280 -0.0501
 9013SOL    HW128480   1.518   4.267   2.266 -0.5531  3.2918 -1.1127
 9013SOL    HW228481   1.492   4.191   2.138 -1.0373  0.2341  0.7058
 9014SOL     OW28482   2.511   4.737   2.993  0.0832 -0.1642 -0.1440
 9014SOL    HW128483   2.531   4.646   2.969  0.8622 -0.7973  2.5529
 9014SOL    HW228484   2.449   4.767   2.926 -0.7676 -2.9200 -0.7097
 9015SOL     OW28485   3.313   3.010   1.260 -0.4921 -0.0474  0.3106
 9015SOL    HW128486   3.343   3.009   1.351 -2.4500 -0.6330  0.9920
 9015SOL    HW228487   3.368   2.946   1.216 -0.5835 -0.9346  1.4448
 9016SOL     OW28488   2.608   4.383   0.090  0.5018 -0.3922 -0.5451
 9016SOL    HW128489   2.547   4.437   0.039  0.7958  1.8607  1.2782
 9016SOL    HW228490   2.575   4.294   0.081 -2.8617  0.6484 -0.0264
 9017SOL     OW28491   1.923   4.043   1.474 -0.0763 -0.1076  0.1415
 9017SOL    HW128492   1.834   4.011   1.486 -0.6060  0.9490 -0.7934
 9017SOL    HW228493   1.913   4.135   1.452  1.1673 -0.2478 -1.1754
 9018SOL     OW28494   4.041   3.843   0.815  0.2816  0.0072  0.3868
 9018SOL    HW128495   4.071   3.906   0.750 -0.8569 -1.4899 -1.7430
 9018SOL    HW228496   4.033   3.760   0.766 -2.0587 -0.8608  2.0484
 9019SOL     OW28497   2.077   4.638   1.292 -0.2567 -0.1187  0.0869
 9019SOL    HW128498   2.044   4.581   1.223  1.2590  0.2080 -0.9531
 9019SOL    HW228499   2.081   4.725   1.251  2.1367 -0.2032  0.0464
 9020SOL     OW28500   0.978   5.138   2.539 -0.2597  0.2409  0.2649
 9020SOL    HW128501   1.034   5.201   2.495  0.0763 -1.4517 -1.8761
 9020SOL    HW228502   0.986   5.159   2.632  1.1783  2.2170 -0.2556
 9021SOL     OW28503   0.448   6.467   0.966 -0.1145 -0.1568 -0.3794
 9021SOL    HW128504   0.459   6.519   1.046 -2.6674 -0.3145  0.1959
 9021SOL    HW228505   0.507   6.393   0.977  0.6628  0.5938  0.6644
 9022SOL     OW28506   3.238   3.794   1.190 -0.3024 -0.0424  0.3318
 9022SOL    HW128507   3.272   3.761   1.107 -1.9029  1.1353 -0.8505
 9022SOL    HW228508   3.158   3.744   1.206 -0.3367  0.1655  0.8454
 9023SOL     OW28509   3.450   2.710  11.802 -0.0882 -0.1207 -0.0925
 9023SOL    HW128510   3.543   2.730  11.793 -0.2770  0.6293 -0.4242
 9023SOL    HW228511   3.422   2.683  11.714 -0.0483 -0.9589  0.1435
 9024SOL     OW28512   4.336   4.189  12.465  0.0915 -0.5118  0.7410
 9024SOL    HW128513   4.416   4.137  12.476 -0.5385 -2.1334 -1.6579
 9024SOL    HW228514   4.297   4.190  12.552  0.4453 -3.6590  1.0558
 9025SOL     OW28515   2.382   3.586   1.281  0.2287  0.5655 -0.3166
 9025SOL    HW128516   2.464   3.577   1.330 -0.8003 -1.9506  1.1728
 9025SOL    HW228517   2.365   3.680   1.278  0.8136  0.9578  3.5153
 9026SOL     OW28518   2.419   3.161   1.249 -0.1114 -0.6172  0.3737
 9026SOL    HW128519   2.398   3.251   1.275  1.8132  0.0692 -0.2659
 9026SOL    HW228520   2.336   3.125   1.217 -1.0071  0.7753  1.0465
 9027SOL     OW28521   4.454   4.053   1.646  0.3818 -0.3425 -0.4296
 9027SOL    HW128522   4.464   4.068   1.552  0.6506  0.6214 -0.2602
 9027SOL    HW228523   4.534   4.010   1.673  1.2794  1.3494 -0.2690
 9028SOL     OW28524   4.222   4.738   3.076  0.5643 -0.1660 -0.2105
 9028SOL    HW128525   4.192   4.780   3.156  0.3623 -0.6602 -0.0286
 9028SOL    HW228526   4.208   4.804   3.008  1.2471  0.4616  0.2358
 9029SOL     OW28527   3.189   4.496   1.620 -0.5316 -0.0823  0.2233
 9029SOL    HW128528   3.107   4.451   1.600  0.7121 -1.6915 -1.6288
 9029SOL    HW228529   3.240   4.432   1.670  0.5235 -0.0453 -0.7664
 9030SOL     OW28530   3.610   3.274   0.148 -0.0402  0.4359  0.0041
 9030SOL    HW128531   3.637   3.221   0.223  1.2593  0.4042 -0.4584
 9030SOL    HW228532   3.538   3.328   0.182 -1.0890 -1.2718  0.5964
 9031SOL     OW28533   3.298   5.201   0.644 -0.2361  0.4163 -0.3860
 9031SOL    HW128534   3.225   5.245   0.689 -0.3145  0.1341 -0.2359
 9031SOL    HW228535   3.368   5.267   0.643 -0.1347  0.3337  0.4182
 9032SOL     OW28536   0.588   4.728   0.139  0.2186 -0.1076  0.0857
 9032SOL    HW128537   0.546   4.765   0.216  0.7653  3.4381 -1.1476
 9032SOL    HW228538   0.521   4.730   0.071  0.2353 -1.6399 -0.0186
 9033SOL     OW28539   1.906   4.171   2.957 -0.4969 -0.3801  0.7058
 9033SOL    HW128540   1.845   4.244   2.947 -0.9327 -0.5840  1.7183
 9033SOL    HW228541   1.932   4.148   2.868 -2.4244 -0.7194  0.1953
 9034SOL     OW28542   3.388   3.818   2.561  0.1794 -0.4413  0.1057
 9034SOL    HW128543   3.305   3.809   2.608 -0.1196  0.8368 -0.1407
 9034SOL    HW228544   3.432   3.891   2.603  0.5182 -0.1577 -0.7161
 9035SOL     OW28545   2.562   2.141   3.116 -0.8148  0.7062  0.2716
 9035SOL    HW128546   2.597   2.124   3.203 -2.0354 -0.2515  0.6035
 9035SOL    HW228547   2.523   2.058   3.089 -0.5164  1.0064 -1.1715
 9036SOL     OW28548   4.317   6.382   1.076 -0.5015 -0.2749  0.0311
 9036SOL    HW128549   4.227   6.392   1.045 -1.0451  1.6687  1.9986
 9036SOL    HW228550   4.308   6.345   1.163  0.5584  0.3899  0.4410
 9037SOL     OW28551   1.792   4.639  12.444  0.4907 -0.2066 -0.4306
 9037SOL    HW128552   1.842   4.583  12.383 -0.6204 -0.9933 -0.6547
 9037SOL    HW228553   1.708   4.652  12.400 -0.9503 -2.1012  1.5899
 9038SOL     OW28554   0.164   4.925   3.072  0.0079 -0.1786  0.4412
 9038SOL    HW128555   0.202   5.007   3.103 -1.1695  0.7395 -0.4431
 9038SOL    HW228556   0.147   4.875   3.151 -0.6059  1.0558  1.1084
 9039SOL     OW28557   1.203   4.724   1.760  0.2657  1.0883 -0.0694
 9039SOL    HW128558   1.165   4.646   1.721  0.5568  1.1004 -0.3869
 9039SOL    HW228559   1.169   4.727   1.849 -0.1180  0.8606 -0.2115
 9040SOL     OW28560   7.870   4.867   2.519  0.3097  0.2413  0.5302
 9040SOL    HW128561   7.918   4.789   2.493 -0.6680  0.1532 -1.1477
 9040SOL    HW228562   7.918   4.902   2.594 -0.5994 -3.3215  3.0092
 9041SOL     OW28563   3.617   5.910   2.435  0.5150  0.3868  0.4467
 9041SOL    HW128564   3.555   5.841   2.413  1.1169  0.3690 -1.3507
 9041SOL    HW228565   3.702   5.865   2.437  0.7983  0.9060  0.1420
 9042SOL     OW28566   3.781   5.684   0.565 -0.0524  0.0628 -0.1753
 9042SOL    HW128567   3.754   5.592   0.565  0.8825 -0.2399 -0.9868
 9042SOL    HW228568   3.869   5.682   0.527 -0.2861  1.3681 -0.8241
 9043SOL     OW28569   4.659   5.062   0.992  0.0769  0.2546  0.4913
 9043SOL    HW128570   4.722   5.113   1.042 -2.1978  2.1445  1.6214
 9043SOL    HW228571   4.679   4.971   1.014  1.8498  0.8318  1.4502
 9044SOL     OW28572   1.981   5.330   2.710 -0.4827  0.4171  0.5879
 9044SOL    HW128573   1.978   5.261   2.644 -1.4735  1.2057 -0.2409
 9044SOL    HW228574   1.988   5.411   2.660  1.9106  0.8959  1.5753
 9045SOL     OW28575   2.932   3.330   0.766  0.0579 -0.0042  0.2883
 9045SOL    HW128576   2.887   3.299   0.845 -0.5779 -0.8961 -0.3984
 9045SOL    HW228577   2.861   3.355   0.706  0.2690 -3.2400 -1.5503
 9046SOL     OW28578   3.543   4.700  12.440 -0.5987 -0.2739 -1.0326
 9046SOL    HW128579   3.497   4.783  12.435  1.8971  1.2583 -0.6017
 9046SOL    HW228580   3.513   4.660  12.521 -3.3371 -0.8424 -2.2362
 9047SOL     OW28581   1.294   2.341  12.165 -0.0705 -0.5497 -0.6186
 9047SOL    HW128582   1.217   2.290  12.139  0.1354  0.0000 -2.4806
 9047SOL    HW228583   1.261   2.404  12.229 -0.7329 -1.6462  0.1541
 9048SOL     OW28584   3.313   5.216   3.654  0.3600 -0.0480  0.0100
 9048SOL    HW128585   3.323   5.275   3.729  2.3029  1.1752 -1.1025
 9048SOL    HW228586   3.313   5.128   3.692  0.2420  0.5671  1.5057
 9049SOL     OW28587   2.545   4.664   0.746 -0.1934  0.0060 -0.0509
 9049SOL    HW128588   2.588   4.579   0.741 -1.6102 -0.8326  1.3730
 9049SOL    HW228589   2.476   4.659   0.680  0.2226  0.3882 -0.5303
 9050SOL     OW28590   3.191   3.247   0.751 -0.1615 -0.0955  0.4684
 9050SOL    HW128591   3.216   3.215   0.838 -0.3713 -0.8772  0.2487
 9050SOL    HW228592   3.096   3.252   0.754 -0.2664 -1.3155 -0.1003
 9051SOL     OW28593   3.651   5.919   0.633  0.0960  0.1911 -0.1342
 9051SOL    HW128594   3.699   5.839   0.611  1.7087  1.0734  0.0159
 9051SOL    HW228595   3.570   5.912   0.583  1.0703 -0.6195 -1.6972
 9052SOL     OW28596   3.024   6.104   1.122 -0.5334  0.2632  0.1853
 9052SOL    HW128597   2.980   6.088   1.038 -0.6431  2.1430 -0.1646
 9052SOL    HW228598   3.105   6.055   1.116 -0.9331 -0.3281 -0.6635
 9053SOL     OW28599   1.395   5.863   2.671 -0.1437 -0.1857  0.2504
 9053SOL    HW128600   1.475   5.815   2.651 -1.4120 -2.0708 -0.5434
 9053SOL    HW228601   1.389   5.862   2.766  0.5061 -0.4587  0.2944
 9054SOL     OW28602   1.532   5.356   0.812 -0.0916 -0.1635  0.1954
 9054SOL    HW128603   1.541   5.446   0.782 -2.8562  0.2451  0.3933
 9054SOL    HW228604   1.507   5.363   0.904  0.9373 -1.2081  0.5897
 9055SOL     OW28605   3.135   2.966  11.872 -0.0682 -0.8109 -0.0529
 9055SOL    HW128606   3.209   2.984  11.929  0.4601 -1.6181 -0.4739
 9055SOL    HW228607   3.137   3.037  11.807  0.1798 -0.6904  0.0848
 9056SOL     OW28608   3.716   4.203   0.145  0.2733 -0.0261  0.3308
 9056SOL    HW128609   3.632   4.157   0.153  0.2488 -0.1225 -0.3925
 9056SOL    HW228610   3.704   4.285   0.193  0.7145 -1.2757  2.6856
 9057SOL     OW28611   3.458   5.567   0.407 -0.0411  0.2171  0.3289
 9057SOL    HW128612   3.445   5.658   0.433  0.1199  0.5219 -0.6173
 9057SOL    HW228613   3.414   5.516   0.474 -0.2932  1.0032  0.7685
 9058SOL     OW28614   2.515   4.950   5.438  0.1123 -0.0598 -0.2177
 9058SOL    HW128615   2.550   5.005   5.368  1.4260  1.4916  1.5448
 9058SOL    HW228616   2.587   4.891   5.461  0.5685  1.0463  1.3519
 9059SOL     OW28617   2.518   4.816   0.056  0.4719 -0.1318 -0.3120
 9059SOL    HW128618   2.454   4.885   0.073  0.2270 -0.0758 -1.3723
 9059SOL    HW228619   2.467   4.735   0.061  0.5619 -0.1705 -0.0099
 9060SOL     OW28620   2.038   3.910   0.618 -0.4722 -0.1020  0.6196
 9060SOL    HW128621   2.037   4.005   0.609 -0.2516 -0.2879 -2.1010
 9060SOL    HW228622   1.946   3.884   0.613 -0.3791 -0.1725 -1.3283
 9061SOL     OW28623   3.780   4.032  12.106  0.3508 -0.1953  0.4838
 9061SOL    HW128624   3.757   3.990  12.023  0.9747  1.4534 -0.5686
 9061SOL    HW228625   3.697   4.063  12.142  0.2441  0.3934 -0.2650
 9062SOL     OW28626   3.734   5.879   1.060  0.2862  0.2136 -0.8581
 9062SOL    HW128627   3.799   5.854   1.127 -1.0835 -2.5005 -0.4317
 9062SOL    HW228628   3.787   5.906   0.985  1.9140 -0.7666 -0.1258
 9063SOL     OW28629   2.006   4.550   0.931  0.5474 -0.6992 -0.1410
 9063SOL    HW128630   2.019   4.512   1.017  1.6530 -0.5290 -0.2161
 9063SOL    HW228631   2.094   4.564   0.897  0.1921  1.1240 -0.4602
 9064SOL     OW28632   2.653   4.844   1.699 -0.1442 -0.5618  0.1341
 9064SOL    HW128633   2.687   4.927   1.732 -0.3371 -0.1081 -0.7716
 9064SOL    HW228634   2.621   4.864   1.611  0.2954 -1.7191 -0.3092
 9065SOL     OW28635   2.566   5.889  12.047 -0.7162  0.3452 -0.1200
 9065SOL    HW128636   2.553   5.842  12.129 -2.1192 -0.8321 -0.9529
 9065SOL    HW228637   2.602   5.973  12.072  1.8204 -1.1005  1.4682
 9066SOL     OW28638   1.334   3.824   3.113 -0.5941 -0.1867 -0.3237
 9066SOL    HW128639   1.362   3.790   3.027 -0.5920  0.8741 -0.7524
 9066SOL    HW228640   1.247   3.858   3.097 -0.5615  0.0812  0.0870
 9067SOL     OW28641   3.827   2.912   0.854  0.4865 -0.2178 -0.4283
 9067SOL    HW128642   3.731   2.912   0.863  0.6421  0.3682  1.6387
 9067SOL    HW228643   3.842   2.949   0.767 -1.1447  1.1572 -0.1939
 9068SOL     OW28644   3.140   3.054  10.819 -0.6638  0.2106  0.1971
 9068SOL    HW128645   3.150   2.959  10.826 -2.1058  0.1478  3.3637
 9068SOL    HW228646   3.052   3.066  10.784 -0.6630  0.3513  0.2432
 9069SOL     OW28647   0.263   5.719   2.377 -0.1667  0.3153 -0.2553
 9069SOL    HW128648   0.335   5.766   2.336  0.1025  0.4012  0.3018
 9069SOL    HW228649   0.189   5.731   2.318  0.7172 -1.3520 -1.8160
 9070SOL     OW28650   2.574   3.926   2.798 -0.5215 -0.2552  0.5966
 9070SOL    HW128651   2.578   3.952   2.890 -1.7738 -0.6716  0.7912
 9070SOL    HW228652   2.636   3.853   2.791  1.4019  1.3064  0.5311
 9071SOL     OW28653   2.394   5.130   0.959  0.6813 -0.5315  0.3902
 9071SOL    HW128654   2.438   5.193   1.016 -0.4122 -0.2565  0.9526
 9071SOL    HW228655   2.354   5.184   0.890 -1.6292 -0.3688  1.7554
 9072SOL     OW28656   2.168   3.658   1.951  0.0652  0.1284  0.7427
 9072SOL    HW128657   2.197   3.667   1.861 -2.7502  0.2946 -0.2420
 9072SOL    HW228658   2.177   3.746   1.988 -1.4258  0.7667 -0.3101
 9073SOL     OW28659   3.007   3.650  11.547  0.4797 -0.0628 -0.1290
 9073SOL    HW128660   2.972   3.731  11.584  0.4739  0.6653 -1.6724
 9073SOL    HW228661   3.089   3.635  11.595 -0.4953 -0.2640  1.5513
 9074SOL     OW28662   3.901   4.758   1.759 -0.1880  0.8839  0.2436
 9074SOL    HW128663   3.843   4.757   1.835 -1.7474  0.3139 -0.8839
 9074SOL    HW228664   3.975   4.702   1.783 -1.9550 -1.5338  0.4368
 9075SOL     OW28665   2.329   5.183  12.187  0.1197  0.9192  0.0417
 9075SOL    HW128666   2.274   5.174  12.109  0.5463  0.4996 -0.2126
 9075SOL    HW228667   2.316   5.102  12.236  0.2980  0.9340  0.1160
 9076SOL     OW28668   2.044   6.060   1.735  0.5929 -0.1228 -0.0392
 9076SOL    HW128669   2.009   6.047   1.647  1.5309 -0.0716 -0.4395
 9076SOL    HW228670   1.997   5.998   1.790 -1.3010  1.0891 -0.2127
 9077SOL     OW28671   4.246   2.703   0.335  0.2566  0.2610  0.0254
 9077SOL    HW128672   4.239   2.760   0.412  2.3828  1.2107 -0.4026
 9077SOL    HW228673   4.308   2.748   0.278  0.7425 -1.7016 -1.0681
 9078SOL     OW28674   2.798   3.480   1.727 -0.5117  0.5465  0.2765
 9078SOL    HW128675   2.780   3.573   1.717 -1.1511  0.3374 -0.6980
 9078SOL    HW228676   2.721   3.444   1.770 -1.1644  0.1479 -1.1734
 9079SOL     OW28677   4.343   3.317  10.570  0.2462 -0.2656  0.3401
 9079SOL    HW128678   4.386   3.328  10.655  3.2156  1.4771 -1.2153
 9079SOL    HW228679   4.303   3.402  10.552  2.9839  0.7578 -1.5518
 9080SOL     OW28680   2.976   5.609   9.868  0.0355  0.1108 -0.3889
 9080SOL    HW128681   2.940   5.663   9.939 -1.0987  0.1347 -0.9688
 9080SOL    HW228682   3.060   5.650   9.847  0.4824  0.0009  1.0434
 9081SOL     OW28683   3.004   4.105   1.440 -0.1704  0.1675 -0.2030
 9081SOL    HW128684   2.999   4.171   1.509  0.1246 -0.5350  0.5101
 9081SOL    HW228685   3.093   4.112   1.407 -0.2155  0.2906 -0.3002
 9082SOL     OW28686   4.545   5.594   0.114 -0.3276 -0.0008  0.4828
 9082SOL    HW128687   4.598   5.535   0.060 -0.0036  2.1775 -1.7349
 9082SOL    HW228688   4.586   5.591   0.200  1.5473 -0.6671 -0.3844
 9083SOL     OW28689   3.039   5.595   0.098 -0.1040 -0.0806 -0.5472
 9083SOL    HW128690   2.966   5.613   0.158 -0.3734 -0.8865 -0.6105
 9083SOL    HW228691   3.091   5.675   0.099 -1.2770  0.7248 -0.9195
 9084SOL     OW28692   2.361   4.986   1.359 -0.4163 -0.4900 -0.6025
 9084SOL    HW128693   2.274   4.969   1.322 -0.6009  1.5760 -1.2702
 9084SOL    HW228694   2.380   5.077   1.334  2.2270 -1.0901 -0.9983
 9085SOL     OW28695   2.254   3.657   1.697 -0.0618  0.4244  0.0101
 9085SOL    HW128696   2.346   3.682   1.707  0.0976  0.2582 -0.9617
 9085SOL    HW228697   2.220   3.717   1.630 -0.7030  0.5808  0.4654
 9086SOL     OW28698   4.549   1.874   0.517 -0.1296 -0.0887  0.1678
 9086SOL    HW128699   4.523   1.848   0.605 -0.8546 -1.5442 -0.4295
 9086SOL    HW228700   4.521   1.965   0.508 -0.5485 -0.1036  1.2442
 9087SOL     OW28701   1.349   6.014   0.574 -0.8244 -0.3135 -0.2477
 9087SOL    HW128702   1.417   5.973   0.521 -0.5619 -1.5553  1.0229
 9087SOL    HW228703   1.377   6.106   0.582  2.4654 -1.3703  2.8409
 9088SOL     OW28704   3.332   5.702   2.092  0.4805  0.3313 -0.0995
 9088SOL    HW128705   3.404   5.646   2.123  0.4744  0.3705 -0.0123
 9088SOL    HW228706   3.284   5.724   2.172 -1.8682 -2.7218 -0.5166
 9089SOL     OW28707   2.602   4.583   1.343  0.3077  0.6818  0.2504
 9089SOL    HW128708   2.693   4.570   1.370  0.2718  2.0285  1.1321
 9089SOL    HW228709   2.583   4.674   1.367 -1.4686  0.2398  0.6629
 9090SOL     OW28710   4.237   5.271   0.057  0.0935 -0.4044  0.1800
 9090SOL    HW128711   4.260   5.316  -0.024  0.2855 -1.8369 -0.5784
 9090SOL    HW228712   4.321   5.259   0.102  0.0258  0.0833  0.4524
 9091SOL     OW28713   2.180   3.859   1.092 -0.4307  0.0734  0.1825
 9091SOL    HW128714   2.105   3.822   1.046 -0.2010 -0.8724  0.5350
 9091SOL    HW228715   2.159   3.848   1.185 -1.2014  2.5828  0.3843
 9092SOL     OW28716   0.909   4.655   1.104 -0.1395  0.4010 -0.5764
 9092SOL    HW128717   0.950   4.646   1.018  1.5447 -0.0494  0.2383
 9092SOL    HW228718   0.957   4.595   1.160 -1.5257  0.3300  0.6028
 9093SOL     OW28719   3.402   4.504   0.499 -0.0846 -0.0037  0.4207
 9093SOL    HW128720   3.492   4.530   0.522 -0.0387 -0.0292  0.2727
 9093SOL    HW228721   3.387   4.424   0.550 -0.7238  1.0498  1.9639
 9094SOL     OW28722   4.337   4.001   0.778 -0.3426 -0.5648 -0.3228
 9094SOL    HW128723   4.344   3.907   0.795 -0.5697 -0.6519 -0.7241
 9094SOL    HW228724   4.418   4.037   0.815 -1.6172 -0.4977  2.7167
 9095SOL     OW28725   3.680   6.260   0.123 -0.4282  0.1640  0.5401
 9095SOL    HW128726   3.624   6.188   0.152 -0.8448  0.2145 -0.1231
 9095SOL    HW228727   3.626   6.338   0.138 -0.6875  0.1809 -0.4706
 9096SOL     OW28728   3.244   4.681  12.420 -0.0095  0.2988 -0.2068
 9096SOL    HW128729   3.231   4.731  12.340  1.6986  0.5970 -0.3319
 9096SOL    HW228730   3.298   4.606  12.393 -1.2653 -0.8138  0.2675
 9097SOL     OW28731   0.383   5.473   2.510 -0.2926 -0.0640  0.4031
 9097SOL    HW128732   0.460   5.508   2.553  0.2598 -0.0853 -0.5449
 9097SOL    HW228733   0.339   5.549   2.472 -0.5710 -0.0862  0.6809
 9098SOL     OW28734   3.770   3.939   1.711 -0.3451  0.0875 -0.5267
 9098SOL    HW128735   3.802   3.887   1.785  0.4998 -0.2803 -1.1383
 9098SOL    HW228736   3.686   3.974   1.742  0.6247  1.0989  1.1307
 9099SOL     OW28737   3.899   3.814   1.926 -0.1280  0.0871 -0.4699
 9099SOL    HW128738   3.925   3.782   2.012 -0.5302 -0.4781 -0.5529
 9099SOL    HW228739   3.975   3.795   1.870 -0.4379 -0.9399 -0.5660
 9100SOL     OW28740   2.920   4.748   1.206  0.0910 -0.1311 -0.5751
 9100SOL    HW128741   2.858   4.812   1.243 -1.6272 -0.3268 -2.8459
 9100SOL    HW228742   3.005   4.791   1.212 -0.5476  1.0055  0.8808
 9101SOL     OW28743   3.131   4.170   0.134 -0.5832 -0.0460  0.7057
 9101SOL    HW128744   3.206   4.223   0.164  1.2015 -0.2237 -2.8396
 9101SOL    HW228745   3.072   4.234   0.095 -0.0225 -0.2858 -0.5878
 9102SOL     OW28746   4.263   5.736   0.892  0.1125 -0.0818 -0.4277
 9102SOL    HW128747   4.205   5.764   0.963 -0.1179 -1.7085  0.0633
 9102SOL    HW228748   4.321   5.811   0.878 -1.9281  1.5347 -0.8004
 9103SOL     OW28749   1.108   3.130   2.529 -0.3113 -1.2160  0.0664
 9103SOL    HW128750   1.032   3.156   2.581 -1.5611 -1.2442 -1.6427
 9103SOL    HW228751   1.112   3.035   2.540  0.2997 -1.0830  1.1752
 9104SOL     OW28752   3.377   3.978   0.821  0.0530 -0.4673  0.7689
 9104SOL    HW128753   3.354   3.928   0.899  0.1487 -0.9653  0.4784
 9104SOL    HW228754   3.339   3.929   0.748 -0.4412  0.2420  0.5339
 9105SOL     OW28755   4.546   2.975  12.457 -0.6638 -0.4115  0.3685
 9105SOL    HW128756   4.603   2.956  12.382  0.0902  1.0891  0.5274
 9105SOL    HW228757   4.548   3.070  12.465 -0.8646 -0.5270  2.1932
 9106SOL     OW28758   2.948   4.315   1.633 -0.4708 -0.9221 -0.2495
 9106SOL    HW128759   2.981   4.260   1.703  0.6830 -0.9938 -0.8340
 9106SOL    HW228760   2.872   4.360   1.671  0.2742 -0.7763  1.1003
 9107SOL     OW28761   4.747   4.857  10.008 -0.0330  0.1553  0.2438
 9107SOL    HW128762   4.758   4.792  10.077 -0.0541 -0.7343 -0.5661
 9107SOL    HW228763   4.654   4.855   9.987  0.2199 -0.7072 -0.8644
 9108SOL     OW28764   2.249   4.698   0.175  0.6464  0.2219 -0.3570
 9108SOL    HW128765   2.165   4.735   0.150 -0.1819 -1.2457  0.1760
 9108SOL    HW228766   2.283   4.758   0.242 -0.7633 -0.0677  0.6530
 9109SOL     OW28767   4.809   2.701   1.553 -0.2595 -0.3821 -0.1396
 9109SOL    HW128768   4.777   2.667   1.469 -1.0352  0.2043 -0.0957
 9109SOL    HW228769   4.871   2.769   1.529  1.4546 -1.9014 -0.2293
 9110SOL     OW28770   1.594   6.013   1.654 -0.0612  0.7257 -0.1342
 9110SOL    HW128771   1.536   6.089   1.651  0.1535  0.9727  1.2037
 9110SOL    HW228772   1.611   6.000   1.747 -0.4263 -1.2327 -0.3023
 9111SOL     OW28773   2.096   6.569   0.664  0.1456  0.1080  0.5769
 9111SOL    HW128774   2.088   6.583   0.758  0.7615  0.9963  0.5025
 9111SOL    HW228775   2.150   6.642   0.633  0.7720 -0.7033 -0.3121
 9112SOL     OW28776   1.111   5.114   1.886 -0.2664  0.1086 -0.1510
 9112SOL    HW128777   1.025   5.093   1.921 -1.2597  2.4421 -0.9969
 9112SOL    HW228778   1.166   5.131   1.963 -0.9523  0.0106  0.3631
 9113SOL     OW28779   2.878   2.907   1.894 -0.0248  0.1271 -0.0640
 9113SOL    HW128780   2.933   2.983   1.916 -0.4106  0.5377 -0.5072
 9113SOL    HW228781   2.941   2.838   1.872  0.3366  1.1112 -2.3568
 9114SOL     OW28782   7.877   4.693   2.873  0.0587  0.1458 -0.3150
 9114SOL    HW128783   7.887   4.605   2.909 -0.2080 -0.3753 -1.4418
 9114SOL    HW228784   7.810   4.734   2.927 -0.0701 -0.4774  0.0086
 9115SOL     OW28785   3.549   4.847   2.772  0.0005 -0.1489 -0.3571
 9115SOL    HW128786   3.527   4.782   2.838  0.1422 -0.7327 -0.8822
 9115SOL    HW228787   3.612   4.905   2.815 -1.6288  0.8732  0.8039
 9116SOL     OW28788   3.516   5.100   2.329  0.5943  0.3044  0.1818
 9116SOL    HW128789   3.483   5.118   2.417 -1.5991  0.0087 -0.5195
 9116SOL    HW228790   3.525   5.005   2.326 -2.8717 -0.1485 -0.9390
 9117SOL     OW28791   2.101   4.095   2.733  0.1019  0.1875  0.4147
 9117SOL    HW128792   2.190   4.076   2.703 -0.5363  0.9482 -2.1931
 9117SOL    HW228793   2.063   4.010   2.753  1.6149 -0.1068  2.4429
 9118SOL     OW28794   4.394   5.158   3.462 -0.0674 -0.2896 -0.3091
 9118SOL    HW128795   4.361   5.156   3.551  1.0725  1.5862  0.2132
 9118SOL    HW228796   4.464   5.094   3.460 -0.6787 -0.9759 -0.1353
 9119SOL     OW28797   1.850   5.612   2.646  0.0469  0.0203 -0.0154
 9119SOL    HW128798   1.927   5.618   2.589 -0.1881  1.2493 -0.2387
 9119SOL    HW228799   1.885   5.588   2.732  1.2308  3.9714  0.8226
 9120SOL     OW28800   2.833   5.049   4.815 -0.2398 -0.3642  0.2054
 9120SOL    HW128801   2.877   4.992   4.751  2.0968  1.8174 -0.2913
 9120SOL    HW228802   2.890   5.048   4.892 -1.3645 -0.4332  1.0737
 9121SOL     OW28803   1.154   4.882   0.988  0.4478 -0.4405 -0.1158
 9121SOL    HW128804   1.141   4.954   0.926 -2.0388 -2.4165 -2.1001
 9121SOL    HW228805   1.245   4.856   0.976  0.0413 -0.7937 -3.1172
 9122SOL     OW28806   2.275   3.612   3.269  0.0487 -0.3384  0.0516
 9122SOL    HW128807   2.212   3.581   3.333 -0.0540  0.0395  0.1330
 9122SOL    HW228808   2.306   3.696   3.303  0.0192 -0.1499 -0.3751
 9123SOL     OW28809   2.295   5.006   4.704 -0.0247 -0.2240 -0.5429
 9123SOL    HW128810   2.333   4.948   4.638 -0.8237 -3.0410  1.2667
 9123SOL    HW228811   2.367   5.024   4.764  0.2462  0.8075 -1.1533
 9124SOL     OW28812   3.614   4.368   2.895 -0.3707  0.3384  0.1943
 9124SOL    HW128813   3.692   4.341   2.847 -1.1276  1.5083 -1.8687
 9124SOL    HW228814   3.641   4.374   2.986  1.0821 -2.3530  0.0104
 9125SOL     OW28815   2.321   3.442   2.392  0.0844  0.0825  0.4930
 9125SOL    HW128816   2.384   3.472   2.457  0.6602  0.8820 -0.4142
 9125SOL    HW228817   2.337   3.497   2.315 -0.2673 -1.1410 -0.4902
 9126SOL     OW28818   2.708   2.969   2.880 -0.3290  0.1202  0.2165
 9126SOL    HW128819   2.788   2.948   2.928 -0.4132 -0.4363  0.1270
 9126SOL    HW228820   2.712   3.063   2.865  0.1438  0.1480  0.5113
 9127SOL     OW28821   1.312   5.843   2.317 -0.4676  0.3060 -0.6208
 9127SOL    HW128822   1.357   5.876   2.395 -0.5186 -1.4105  0.1564
 9127SOL    HW228823   1.383   5.822   2.256 -0.3391 -0.2022 -0.2917
 9128SOL     OW28824   1.986   5.102   4.905 -0.1804  0.3966 -0.2776
 9128SOL    HW128825   1.971   5.010   4.925  1.9027 -0.3001 -1.6065
 9128SOL    HW228826   1.958   5.112   4.814  1.6354  0.4976 -0.8529
 9129SOL     OW28827   0.750   6.457   3.320  0.0008 -0.3367  0.0166
 9129SOL    HW128828   0.692   6.394   3.277 -0.0064  0.7321 -1.6051
 9129SOL    HW228829   0.713   6.543   3.300  1.2111  0.2934  0.3470
 9130SOL     OW28830   3.130   5.865   3.483  0.3273  0.2303  0.0132
 9130SOL    HW128831   3.109   5.841   3.573  1.9655 -1.1513  0.0665
 9130SOL    HW228832   3.225   5.855   3.476  0.3881  1.4087 -1.5709
 9131SOL     OW28833   1.891   5.164   2.165 -0.3426 -0.0574  0.1293
 9131SOL    HW128834   1.949   5.218   2.219 -1.1477  1.4353 -0.4318
 9131SOL    HW228835   1.911   5.190   2.075 -0.1300 -1.3651 -0.2287
 9132SOL     OW28836   1.993   5.651   2.893  0.4622 -0.3627  0.4612
 9132SOL    HW128837   2.088   5.641   2.903  0.4828 -0.5394  0.0994
 9132SOL    HW228838   1.958   5.631   2.980  0.7738 -0.0230  0.6735
 9133SOL     OW28839   3.487   4.616   2.934 -0.2034 -0.1269  0.3052
 9133SOL    HW128840   3.422   4.607   3.005 -1.1430  0.4992 -0.4493
 9133SOL    HW228841   3.509   4.526   2.910 -0.8172 -0.3549  0.5619
 9134SOL     OW28842   2.374   5.516   1.662  0.2636  0.1840  0.5051
 9134SOL    HW128843   2.423   5.482   1.587  0.1271  0.3370  0.3446
 9134SOL    HW228844   2.329   5.593   1.628  0.0885  0.1722  0.7081
 9135SOL     OW28845   0.680   4.409   2.308 -0.5931  0.1383  0.3028
 9135SOL    HW128846   0.628   4.461   2.370 -1.8897 -0.5279 -0.1927
 9135SOL    HW228847   0.675   4.458   2.226 -0.3027  0.1576  0.2972
 9136SOL     OW28848   2.905   4.967   2.003 -0.2163  0.0428 -0.1538
 9136SOL    HW128849   2.868   5.016   1.931 -2.5396 -2.0109 -0.4866
 9136SOL    HW228850   2.969   4.907   1.962 -0.2774  0.0601 -0.2726
 9137SOL     OW28851   3.766   4.959   2.935  0.4423  0.2612 -0.0483
 9137SOL    HW128852   3.855   4.975   2.966 -0.2689  0.4999  2.0118
 9137SOL    HW228853   3.750   4.867   2.956  0.4377 -0.0115 -1.1478
 9138SOL     OW28854   2.526   4.460   3.124  0.4822  0.6586  0.4428
 9138SOL    HW128855   2.442   4.418   3.106  0.8261 -0.4075  1.1741
 9138SOL    HW228856   2.526   4.474   3.218  2.0097 -1.5092  0.8545
 9139SOL     OW28857   3.889   4.733   3.234 -0.2680  0.3296  0.0625
 9139SOL    HW128858   3.893   4.716   3.140  0.5863 -0.1115  0.1730
 9139SOL    HW228859   3.813   4.791   3.245  0.2150  1.1883 -1.0181
 9140SOL     OW28860   4.103   4.645   1.937 -0.1549 -0.1412  0.4572
 9140SOL    HW128861   4.135   4.555   1.948  0.9698  0.1232 -0.5310
 9140SOL    HW228862   4.165   4.686   1.877 -1.3258  0.9560 -0.0534
 9141SOL     OW28863   1.801   4.847   4.480 -0.1021  0.2729 -0.2580
 9141SOL    HW128864   1.717   4.832   4.521 -0.6948  1.3601 -1.0227
 9141SOL    HW228865   1.860   4.868   4.553 -0.0901 -1.9647  0.4444
 9142SOL     OW28866   1.796   5.942   3.210  0.3362 -0.1953 -0.2635
 9142SOL    HW128867   1.720   5.886   3.195 -0.5342  1.1719 -1.2980
 9142SOL    HW228868   1.840   5.945   3.125 -0.2016  1.4185 -0.5325
 9143SOL     OW28869   4.502   6.289   0.924 -0.2099  0.1683  0.5503
 9143SOL    HW128870   4.437   6.319   0.987 -0.0172 -0.6731  1.1786
 9143SOL    HW228871   4.509   6.195   0.940 -0.4862 -0.1497 -1.0470
 9144SOL     OW28872   3.861   3.941   4.191  0.4223  0.2663  0.0712
 9144SOL    HW128873   3.956   3.930   4.193  0.2534 -1.3169  0.2018
 9144SOL    HW228874   3.829   3.893   4.268 -0.6388 -1.2486 -1.2482
 9145SOL     OW28875   1.736   3.440   3.529  0.3490 -0.2756  0.3406
 9145SOL    HW128876   1.749   3.427   3.623  1.5332 -0.2640  0.2056
 9145SOL    HW228877   1.671   3.510   3.523  0.8220  0.2663  1.1747
 9146SOL     OW28878   2.851   4.605   3.928  0.7568 -0.0573  0.4870
 9146SOL    HW128879   2.858   4.688   3.880  2.7402 -0.3484  0.2002
 9146SOL    HW228880   2.880   4.539   3.866  0.8380 -0.7626  1.2672
 9147SOL     OW28881   4.117   4.416   2.617  0.0090  0.3802  0.0135
 9147SOL    HW128882   4.201   4.403   2.573  0.5641  0.3755  1.0467
 9147SOL    HW228883   4.110   4.343   2.678 -1.0581  0.0246 -0.5046
 9148SOL     OW28884   1.630   4.698   1.169  0.1027 -0.0639 -0.3679
 9148SOL    HW128885   1.704   4.717   1.227 -0.1109  1.6380 -0.5806
 9148SOL    HW228886   1.555   4.693   1.228  0.3621 -1.9230 -0.1367
 9149SOL     OW28887   2.737   4.648   1.052 -0.0577  0.0802 -0.1615
 9149SOL    HW128888   2.712   4.566   1.094  0.8085 -1.5322 -2.5914
 9149SOL    HW228889   2.797   4.689   1.115  0.4848 -1.7525  0.6001
 9150SOL     OW28890   4.143   6.157   0.942  0.4595  0.2768 -0.1806
 9150SOL    HW128891   4.098   6.231   0.984  0.0525  1.1564 -2.0415
 9150SOL    HW228892   4.073   6.105   0.905  0.7915 -0.7195  0.5524
 9151SOL     OW28893   2.107   4.114   3.655  0.2810  0.9086 -0.4005
 9151SOL    HW128894   2.094   4.118   3.749 -0.1925  0.2291 -0.4246
 9151SOL    HW228895   2.117   4.020   3.636  0.5865  1.0525 -0.9963
 9152SOL     OW28896   2.683   4.315   4.882 -0.2700 -0.1238  0.1510
 9152SOL    HW128897   2.666   4.268   4.801  0.3674 -2.9172  1.5036
 9152SOL    HW228898   2.778   4.308   4.895 -0.3441  0.3770  1.0881
 9153SOL     OW28899   2.557   3.072   3.950  0.0102 -0.1251  0.1678
 9153SOL    HW128900   2.636   3.024   3.973  0.2980 -0.2126 -0.9801
 9153SOL    HW228901   2.491   3.039   4.011  0.8400 -0.0673  1.1199
 9154SOL     OW28902   1.534   2.235   3.905  0.1896 -0.0380 -0.0471
 9154SOL    HW128903   1.618   2.189   3.897 -1.0382 -2.4950  0.1151
 9154SOL    HW228904   1.514   2.232   3.999 -0.1613  0.3699 -0.1088
 9155SOL     OW28905   2.746   5.555   1.942 -0.6186  0.7072 -0.1317
 9155SOL    HW128906   2.830   5.588   1.974 -0.0018  1.1523 -2.0837
 9155SOL    HW228907   2.715   5.498   2.012  0.9088  1.1629  0.9848
 9156SOL     OW28908   1.849   5.456   3.234  0.3511 -0.5409  0.3487
 9156SOL    HW128909   1.878   5.436   3.323 -2.4303  0.2823  1.5475
 9156SOL    HW228910   1.798   5.536   3.243 -0.6143 -0.8385 -1.8547
 9157SOL     OW28911   2.649   4.342   2.030 -0.2897 -0.2383  0.0652
 9157SOL    HW128912   2.649   4.334   2.126  2.5082 -1.4715  0.0557
 9157SOL    HW228913   2.699   4.421   2.013  0.7580 -0.9703 -0.3633
 9158SOL     OW28914   4.613   3.911   2.651  0.4448  0.0792 -0.0021
 9158SOL    HW128915   4.657   3.980   2.702 -1.8824  1.4836  0.2279
 9158SOL    HW228916   4.629   3.831   2.702  1.0143  0.8816  1.1403
 9159SOL     OW28917   3.145   5.383   2.875 -0.1721 -0.2063  0.0690
 9159SOL    HW128918   3.061   5.344   2.897 -0.3495  1.1262  2.0087
 9159SOL    HW228919   3.206   5.309   2.873 -1.0032 -0.9378  0.8107
 9160SOL     OW28920   2.258   3.024   0.891  0.1440 -0.5271  0.7117
 9160SOL    HW128921   2.220   3.097   0.843  0.5390 -0.8148 -0.0481
 9160SOL    HW228922   2.258   3.053   0.983 -1.4941 -0.3479  0.6943
 9161SOL     OW28923   2.204   6.512   3.794  0.1570  0.4261  0.5775
 9161SOL    HW128924   2.234   6.594   3.755 -0.8826  0.0688 -1.0610
 9161SOL    HW228925   2.137   6.538   3.857 -0.2568  0.8309 -0.0241
 9162SOL     OW28926   2.628   6.212   3.064 -0.3127  0.3458 -0.2034
 9162SOL    HW128927   2.695   6.231   2.998  0.9371 -3.1035 -0.1433
 9162SOL    HW228928   2.673   6.222   3.147 -0.5153  0.1604 -0.0711
 9163SOL     OW28929   2.102   6.494   2.845  0.1214  0.6742 -0.5444
 9163SOL    HW128930   2.119   6.588   2.856 -0.9574  0.7405  0.8226
 9163SOL    HW228931   2.014   6.490   2.809  0.0945  0.1768 -0.4214
 9164SOL     OW28932   2.387   3.538   4.168  0.0719 -0.1772 -0.2117
 9164SOL    HW128933   2.379   3.630   4.193 -0.9815 -0.6689  1.4277
 9164SOL    HW228934   2.481   3.521   4.171  0.3975  1.1085 -1.7049
 9165SOL     OW28935   1.648   5.712   2.513  0.1721 -0.4545 -0.0786
 9165SOL    HW128936   1.712   5.653   2.552 -0.7487 -2.6871 -1.7722
 9165SOL    HW228937   1.692   5.797   2.512  0.8367 -0.4858  4.2490
 9166SOL     OW28938   1.304   4.516   3.257  0.2227 -0.0775  0.2406
 9166SOL    HW128939   1.380   4.459   3.242  0.2410 -0.1209  0.4840
 9166SOL    HW228940   1.327   4.599   3.215  0.4237 -0.0784  0.3447
 9167SOL     OW28941   2.812   5.241   4.076  0.1089  0.2668 -0.1122
 9167SOL    HW128942   2.888   5.271   4.025 -0.5689  2.4536  0.0583
 9167SOL    HW228943   2.822   5.146   4.080  0.2436 -0.1136 -4.3197
 9168SOL     OW28944   2.795   5.674   0.255  0.0347  0.0864 -0.0773
 9168SOL    HW128945   2.819   5.647   0.343 -0.6112 -1.5676 -0.3653
 9168SOL    HW228946   2.744   5.600   0.220  2.4772 -0.4960 -2.7722
 9169SOL     OW28947   1.972   3.106   6.393 -0.0971 -0.0783 -0.5121
 9169SOL    HW128948   1.951   3.081   6.303  0.2508  3.1335 -1.5955
 9169SOL    HW228949   1.902   3.166   6.419  0.5122  0.0895  0.8826
 9170SOL     OW28950   3.484   5.196   0.267 -0.5196 -0.0076  0.0338
 9170SOL    HW128951   3.476   5.223   0.176 -1.2124 -0.3001  0.0072
 9170SOL    HW228952   3.577   5.173   0.277  0.3709  3.2586  0.3117
 9171SOL     OW28953   0.999   7.047   2.090 -1.1309  0.0664  0.0425
 9171SOL    HW128954   1.067   7.002   2.039  0.4395 -1.0489  2.9148
 9171SOL    HW228955   0.921   6.993   2.079 -1.1823  0.4487 -1.9489
 9172SOL     OW28956   3.136   4.177   2.567 -0.2544  0.5804  0.5630
 9172SOL    HW128957   3.186   4.215   2.640 -1.0659  3.0117 -0.0388
 9172SOL    HW228958   3.096   4.253   2.525 -1.5034 -0.9741 -1.1581
 9173SOL     OW28959   2.656   6.500   2.995 -0.7619  0.1458  0.2878
 9173SOL    HW128960   2.611   6.428   3.040  2.3804 -1.2037  1.6139
 9173SOL    HW228961   2.657   6.571   3.059  0.1223 -0.3244  0.8219
 9174SOL     OW28962   2.929   4.804   4.231  0.0189  0.0611 -0.2300
 9174SOL    HW128963   2.974   4.733   4.184  0.4647  0.4124 -0.3343
 9174SOL    HW228964   2.994   4.838   4.292 -0.0408  0.7015 -0.5191
 9175SOL     OW28965   2.845   3.467   2.708  0.4415  0.2309  0.2637
 9175SOL    HW128966   2.789   3.402   2.750  0.8319 -1.0223 -1.0423
 9175SOL    HW228967   2.930   3.456   2.749  0.6144 -0.4088 -0.2495
 9176SOL     OW28968   3.946   4.203   3.700  0.5535 -0.3632  0.2421
 9176SOL    HW128969   4.013   4.135   3.697 -0.0559 -1.0016  0.9417
 9176SOL    HW228970   3.863   4.156   3.699  0.1169  0.3947  0.0257
 9177SOL     OW28971   2.272   3.748   2.517  0.7879 -0.0800 -0.5705
 9177SOL    HW128972   2.273   3.840   2.491  3.8104 -0.0205 -0.5782
 9177SOL    HW228973   2.262   3.700   2.435 -2.5762  0.1511 -0.4176
 9178SOL     OW28974   1.800   2.128   5.400  0.5114  0.4408 -0.1927
 9178SOL    HW128975   1.881   2.139   5.449  0.9505  2.3070 -1.2772
 9178SOL    HW228976   1.827   2.116   5.309 -0.3972  0.1344 -0.4404
 9179SOL     OW28977   1.953   7.055   2.777 -0.1468 -0.2383  0.5974
 9179SOL    HW128978   1.911   7.029   2.695 -2.7147 -1.2944  2.1129
 9179SOL    HW228979   1.989   7.142   2.759  0.0463 -0.7402 -1.8287
 9180SOL     OW28980   3.693   4.652   4.130  0.4140  0.2160 -0.1844
 9180SOL    HW128981   3.785   4.633   4.144  0.9363  1.0483 -2.0903
 9180SOL    HW228982   3.692   4.741   4.095 -1.0249 -0.0681 -0.9364
 9181SOL     OW28983   1.889   5.711   4.209 -0.1064 -0.7218  0.6958
 9181SOL    HW128984   1.819   5.650   4.234 -0.4296 -0.5461  0.2340
 9181SOL    HW228985   1.869   5.790   4.258 -1.4274  0.0358 -0.9406
 9182SOL     OW28986   2.446   4.007   1.644 -0.5386  0.5287 -0.2730
 9182SOL    HW128987   2.441   3.919   1.682 -2.8165  0.9964  0.6961
 9182SOL    HW228988   2.483   4.061   1.715  0.2125  0.5056 -0.6321
 9183SOL     OW28989   2.994   3.904   0.964 -0.2045  0.9080  0.0258
 9183SOL    HW128990   3.088   3.911   0.947  0.4392  1.3962  3.1425
 9183SOL    HW228991   2.986   3.835   1.030 -2.0358  0.9192 -0.1217
 9184SOL     OW28992   0.301   4.371   1.885  0.5329 -0.4111 -0.6260
 9184SOL    HW128993   0.335   4.420   1.960 -1.2959 -0.3468  0.2142
 9184SOL    HW228994   0.211   4.401   1.875  0.8028 -0.2516 -3.0347
 9185SOL     OW28995   3.055   5.219   2.060  0.4442  0.2164 -0.2468
 9185SOL    HW128996   3.105   5.194   2.138 -0.1343 -2.2730 -0.5931
 9185SOL    HW228997   3.001   5.142   2.040 -0.9561  1.5435 -1.9137
 9186SOL     OW28998   2.357   0.795   1.817  0.4537  0.2051  0.0025
 9186SOL    HW128999   2.327   0.712   1.852 -0.6968  0.7504  0.3451
 9186SOL    HW229000   2.411   0.832   1.886  0.1607  0.1874  0.2425
 9187SOL     OW29001   2.385   5.235   0.293  0.4298  0.4617 -0.0331
 9187SOL    HW129002   2.473   5.272   0.299 -0.1787  1.9757 -0.1309
 9187SOL    HW229003   2.330   5.296   0.343 -0.9278  0.7818 -1.8303
 9188SOL     OW29004   2.076   5.775   1.835  0.6862  0.2074 -0.1412
 9188SOL    HW129005   2.025   5.699   1.810  0.5637  0.3392 -0.2974
 9188SOL    HW229006   2.122   5.749   1.915  0.2145  0.1553  0.1189
 9189SOL     OW29007   1.649   5.321   1.626  0.0186  0.3043 -0.0381
 9189SOL    HW129008   1.594   5.383   1.676 -1.8837 -0.4247 -1.1159
 9189SOL    HW229009   1.652   5.243   1.681  1.0079  0.7453  0.5585
 9190SOL     OW29010   0.840   4.245   4.485  0.3042 -0.2112 -0.7306
 9190SOL    HW129011   0.857   4.235   4.391 -0.0697 -0.0338 -0.8178
 9190SOL    HW229012   0.758   4.294   4.490 -0.0589 -0.8354 -0.3153
 9191SOL     OW29013   2.720   4.213   3.834 -0.4068  0.1639  0.2084
 9191SOL    HW129014   2.770   4.143   3.792  0.7769  0.5768  0.8676
 9191SOL    HW229015   2.737   4.201   3.928  0.2225  1.5931  0.3037
 9192SOL     OW29016   2.945   4.567   2.263  0.2519 -0.0629  0.3094
 9192SOL    HW129017   2.944   4.662   2.271 -0.3592 -0.1505  1.4050
 9192SOL    HW229018   2.937   4.550   2.169 -2.3770  0.9337  0.2987
 9193SOL     OW29019   3.032   5.106   1.575 -0.7205  0.0659  0.0430
 9193SOL    HW129020   3.061   5.016   1.560 -0.8048 -0.1335  0.9900
 9193SOL    HW229021   3.094   5.141   1.639 -1.2969  0.3389  0.4596
 9194SOL     OW29022   2.076   3.411   3.138 -0.0438  0.0880  0.2955
 9194SOL    HW129023   2.147   3.349   3.156  1.6952  1.9979  0.2815
 9194SOL    HW229024   2.006   3.385   3.199 -0.0616 -2.8727 -0.8382
 9195SOL     OW29025   3.078   5.053   3.026 -0.2509 -0.2919 -0.3541
 9195SOL    HW129026   3.101   4.980   3.084 -1.0384 -0.5455 -0.3468
 9195SOL    HW229027   3.035   5.116   3.083  0.2461  0.0933 -0.4010
 9196SOL     OW29028   4.306   4.397   1.423 -1.0197 -0.2932  0.6487
 9196SOL    HW129029   4.276   4.307   1.411  0.3698 -0.5194 -1.5995
 9196SOL    HW229030   4.339   4.423   1.337 -0.8516  2.1755  1.3962
 9197SOL     OW29031   3.212   6.698   1.630  0.2784  0.0314  0.3852
 9197SOL    HW129032   3.229   6.638   1.702  0.2289 -0.7268 -0.2206
 9197SOL    HW229033   3.271   6.772   1.645 -0.4368  0.3496  1.7332
 9198SOL     OW29034   2.807   4.189   2.883 -0.3940 -0.5473  0.4317
 9198SOL    HW129035   2.758   4.151   2.957  0.6681 -0.6746  1.0883
 9198SOL    HW229036   2.869   4.122   2.858 -0.3245 -0.2567 -0.1803
 9199SOL     OW29037   2.352   4.982   1.650 -0.0158  0.0672  0.1430
 9199SOL    HW129038   2.305   4.901   1.671 -0.4245  0.0854 -0.6853
 9199SOL    HW229039   2.368   4.977   1.556  1.0180  0.3978  0.2798
 9200SOL     OW29040   2.354   5.395   3.297  0.5242 -0.1349 -0.0257
 9200SOL    HW129041   2.371   5.341   3.374 -1.1058 -0.5317  0.0870
 9200SOL    HW229042   2.433   5.385   3.244  1.1692 -0.8350  1.0227
 9201SOL     OW29043   3.345   5.585   4.529 -0.0913 -0.4739  0.1504
 9201SOL    HW129044   3.334   5.606   4.436 -1.3869 -0.4979  0.2788
 9201SOL    HW229045   3.268   5.532   4.551 -1.6091  2.2810  2.0310
 9202SOL     OW29046   3.898   5.275   4.691  0.4418  0.1305 -0.1786
 9202SOL    HW129047   3.877   5.194   4.738  0.0465  0.3950  0.1121
 9202SOL    HW229048   3.839   5.274   4.615  1.8101 -0.8126 -1.2718
 9203SOL     OW29049   3.434   5.487   3.944  0.2361  0.2984  0.3636
 9203SOL    HW129050   3.474   5.448   3.867 -0.8097 -0.8881  0.3898
 9203SOL    HW229051   3.398   5.413   3.993 -3.0212  1.2972 -0.2509
 9204SOL     OW29052   5.116   4.947   1.556  0.2001 -0.5393 -0.3853
 9204SOL    HW129053   5.186   5.001   1.519 -1.1747  0.4148 -1.7026
 9204SOL    HW229054   5.120   4.965   1.650  2.4617 -1.4445 -0.2527
 9205SOL     OW29055   4.413   4.407   3.322  0.4541  0.1972  0.3462
 9205SOL    HW129056   4.343   4.414   3.387  0.1943  0.0803  0.0801
 9205SOL    HW229057   4.491   4.437   3.368 -0.1868  2.7078 -0.0698
 9206SOL     OW29058   1.522   5.064   1.210 -0.2750 -0.5966 -0.0376
 9206SOL    HW129059   1.535   5.020   1.294  0.4641  0.0690  0.2097
 9206SOL    HW229060   1.428   5.080   1.205 -0.2860 -0.3276  0.8318
 9207SOL     OW29061   7.861   4.051   3.331 -0.0193 -0.9941  0.0819
 9207SOL    HW129062   7.942   4.099   3.347 -0.8326  0.7948 -0.7774
 9207SOL    HW229063   7.866   4.023   3.240 -0.8481  0.2654 -0.3938
 9208SOL     OW29064   1.424   3.333   3.562 -0.1906 -0.1586 -0.0005
 9208SOL    HW129065   1.495   3.269   3.559  1.2378  1.3127  0.7526
 9208SOL    HW229066   1.363   3.298   3.627 -0.2455 -1.5096 -0.7484
 9209SOL     OW29067   1.732   4.563   3.654 -0.3350 -0.2934  0.1230
 9209SOL    HW129068   1.712   4.557   3.561 -1.1564 -1.1670  0.3409
 9209SOL    HW229069   1.656   4.606   3.693 -0.1056 -0.1609  0.4326
 9210SOL     OW29070   3.613   4.312   3.703  0.1457  0.5292 -0.3122
 9210SOL    HW129071   3.670   4.295   3.628  0.9902  2.3926 -0.1629
 9210SOL    HW229072   3.653   4.263   3.775 -0.6941 -1.3007 -1.0404
 9211SOL     OW29073   3.099   5.942   5.042  0.0311  0.3540 -0.1261
 9211SOL    HW129074   3.115   5.900   4.958  0.6499  1.4077 -0.5598
 9211SOL    HW229075   3.113   6.036   5.025  0.6100  0.5449  1.2375
 9212SOL     OW29076   2.953   5.273   3.236 -0.5705 -0.4601 -0.2069
 9212SOL    HW129077   3.035   5.264   3.284 -1.1558  0.2206  0.9869
 9212SOL    HW229078   2.892   5.311   3.300 -1.3087  0.7779 -1.5693
 9213SOL     OW29079   2.708   4.064   1.407  0.2004 -0.0658  0.7888
 9213SOL    HW129080   2.802   4.078   1.419  0.0816  2.1036 -0.3960
 9213SOL    HW229081   2.669   4.148   1.428 -1.5655 -1.0623  1.6963
 9214SOL     OW29082   0.977   6.429   3.695  0.4847 -0.0341 -0.3877
 9214SOL    HW129083   1.063   6.398   3.724  0.8339 -1.7814 -2.9536
 9214SOL    HW229084   0.995   6.506   3.642  0.2200  0.8005  0.6907
 9215SOL     OW29085   2.514   5.172   3.525 -0.3563 -0.0899  0.0127
 9215SOL    HW129086   2.487   5.119   3.450 -2.3985 -0.0680  0.6522
 9215SOL    HW229087   2.453   5.146   3.595  1.2060  0.1914  1.5372
 9216SOL     OW29088   3.737   4.033   3.720 -0.3872  0.3810 -0.3550
 9216SOL    HW129089   3.651   4.042   3.679 -0.2843  1.1754 -0.3991
 9216SOL    HW229090   3.717   3.998   3.807 -1.0010  2.8620  0.5836
 9217SOL     OW29091   2.938   3.588   4.098  0.0972  0.2486 -0.0476
 9217SOL    HW129092   2.972   3.606   4.186 -1.0091 -0.9769  0.6698
 9217SOL    HW229093   3.013   3.551   4.051  0.5872  0.5055  0.5176
 9218SOL     OW29094   3.381   3.233   1.704  0.4362  0.0005 -0.2774
 9218SOL    HW129095   3.334   3.161   1.746 -0.8479  0.2601 -1.1753
 9218SOL    HW229096   3.331   3.312   1.728 -1.3014  0.0174 -3.3686
 9219SOL     OW29097   3.207   5.271   3.390  0.1577 -0.0983 -0.4191
 9219SOL    HW129098   3.277   5.236   3.334  2.1887  2.2589  0.4715
 9219SOL    HW229099   3.242   5.262   3.479 -1.7822 -1.1046  0.3073
 9220SOL     OW29100   2.161   4.656   2.660 -0.6403 -0.0378 -0.2832
 9220SOL    HW129101   2.215   4.604   2.718  1.4390  1.0097 -1.1744
 9220SOL    HW229102   2.143   4.598   2.586  2.3270  0.5918 -1.6546
 9221SOL     OW29103   2.076   3.183   3.359  0.4693 -0.1215  0.4327
 9221SOL    HW129104   2.035   3.131   3.428 -1.6093 -0.8622 -1.2610
 9221SOL    HW229105   2.025   3.264   3.357  1.6492  0.6597  0.8939
 9222SOL     OW29106   2.459   4.565   3.400 -0.1685 -0.5078 -0.5496
 9222SOL    HW129107   2.474   4.474   3.422 -0.6338 -0.3087  0.6670
 9222SOL    HW229108   2.506   4.614   3.467 -0.7058  0.1297 -0.6225
 9223SOL     OW29109   7.811   3.762   2.142  0.5012  0.1195  0.1207
 9223SOL    HW129110   7.822   3.673   2.108  1.4002  0.7504 -1.3130
 9223SOL    HW229111   7.848   3.759   2.230  0.5376 -0.9081  0.0828
 9224SOL     OW29112   2.416   3.943   3.836  0.0516  0.6948 -0.2760
 9224SOL    HW129113   2.418   3.962   3.742 -0.4026 -2.1251 -0.9478
 9224SOL    HW229114   2.503   3.910   3.856 -0.2664  0.0079 -0.0164
 9225SOL     OW29115   7.331   5.315   2.403 -0.1746  0.3935  0.4017
 9225SOL    HW129116   7.423   5.334   2.383  0.6565  0.0048  3.3696
 9225SOL    HW229117   7.313   5.234   2.355  1.1813  0.2104  0.1412
 9226SOL     OW29118   2.065   5.279   3.031  0.0686  0.2405  0.4966
 9226SOL    HW129119   2.088   5.367   3.059  1.8144  0.2622 -0.8364
 9226SOL    HW229120   2.046   5.287   2.938 -2.9249 -0.2891  0.9687
 9227SOL     OW29121   1.958   4.777   3.851  0.5481 -0.2606  0.2389
 9227SOL    HW129122   1.946   4.864   3.890 -0.6568  0.4982 -1.6819
 9227SOL    HW229123   1.899   4.720   3.900 -0.8595  0.6388 -0.3437
 9228SOL     OW29124   2.834   4.982   4.035  0.3288 -0.2636 -0.0339
 9228SOL    HW129125   2.871   4.910   4.086  0.9344  0.4448  0.5461
 9228SOL    HW229126   2.788   4.939   3.963 -0.9318 -1.3089  1.3394
 9229SOL     OW29127   2.733   3.956   1.994 -0.3511 -0.0334 -0.1257
 9229SOL    HW129128   2.749   3.863   1.981  0.5386  0.3124 -1.8008
 9229SOL    HW229129   2.789   3.981   2.068 -0.5453 -0.7954  0.2824
 9230SOL     OW29130   3.296   6.144   2.582 -0.1280  1.1591  0.7922
 9230SOL    HW129131   3.327   6.092   2.656 -0.8252  0.0202  0.3136
 9230SOL    HW229132   3.374   6.157   2.527 -0.0694  0.0456  0.5927
 9231SOL     OW29133   3.017   3.654   1.983  0.2212  0.1067 -0.0588
 9231SOL    HW129134   3.062   3.687   1.905  0.5331  0.6612  0.3457
 9231SOL    HW229135   3.033   3.560   1.982 -0.4372 -0.0058 -1.0827
 9232SOL     OW29136   2.501   3.745   1.731 -0.7073  0.0040 -0.3753
 9232SOL    HW129137   2.563   3.730   1.659 -1.7519  0.9975 -1.5083
 9232SOL    HW229138   2.556   3.745   1.809  0.8511  1.5011 -1.3925
 9233SOL     OW29139   3.283   5.922   1.914  0.2621  0.0676  0.2395
 9233SOL    HW129140   3.193   5.929   1.880  1.0202  0.1330 -1.9163
 9233SOL    HW229141   3.300   5.828   1.919  1.0463 -0.0052 -2.3413
 9234SOL     OW29142   1.243   4.077   2.437  0.5158 -0.5433  0.4584
 9234SOL    HW129143   1.324   4.126   2.454  0.9260 -0.8515 -0.5475
 9234SOL    HW229144   1.228   4.029   2.518  0.1475  1.1539  1.4448
 9235SOL     OW29145   2.371   5.209   1.801 -0.1174  0.1495  0.2693
 9235SOL    HW129146   2.367   5.136   1.740 -0.8798  0.2304  0.2089
 9235SOL    HW229147   2.464   5.231   1.807  0.2312 -1.3833  0.9638
 9236SOL     OW29148   1.978   4.123   1.210  0.5739 -0.2639 -0.0890
 9236SOL    HW129149   1.947   4.041   1.248  1.0860 -0.5192 -0.2140
 9236SOL    HW229150   2.073   4.123   1.226  1.0985 -1.1381 -2.6710
 9237SOL     OW29151   2.834   6.555   4.512  0.0930 -0.4861 -0.0320
 9237SOL    HW129152   2.753   6.565   4.461 -0.2470 -1.1635  0.3596
 9237SOL    HW229153   2.904   6.577   4.451 -0.3806 -0.0310 -0.4196
 9238SOL     OW29154   0.723   4.943   2.187 -0.1705 -0.2165  0.3802
 9238SOL    HW129155   0.663   5.004   2.229 -0.3875 -0.3141  0.2142
 9238SOL    HW229156   0.693   4.857   2.217 -0.2719 -0.2815  0.0996
 9239SOL     OW29157   2.791   5.695   4.131  0.3602 -0.0602 -0.1730
 9239SOL    HW129158   2.747   5.611   4.122 -0.0920  0.0752  0.6535
 9239SOL    HW229159   2.853   5.683   4.203  0.6918  0.1571 -0.4133
 9240SOL     OW29160   2.813   5.924   2.954  0.0644  0.2385  0.4529
 9240SOL    HW129161   2.889   5.867   2.965 -0.3163 -0.5289 -0.6520
 9240SOL    HW229162   2.820   5.955   2.863 -1.5236 -0.7543 -0.0409
 9241SOL     OW29163   1.260   2.442   4.342 -0.5563  0.3245 -0.0646
 9241SOL    HW129164   1.306   2.468   4.422  0.6111  1.9042 -1.1763
 9241SOL    HW229165   1.281   2.511   4.279 -0.2156 -1.5847 -2.1895
 9242SOL     OW29166   2.657   3.629   3.689 -0.3367 -0.5840 -0.0885
 9242SOL    HW129167   2.708   3.708   3.671 -2.3189  0.7192 -0.2862
 9242SOL    HW229168   2.670   3.613   3.782  0.4661 -0.3340 -0.1463
 9243SOL     OW29169   1.679   4.559   3.348  0.0792 -0.4760  0.4503
 9243SOL    HW129170   1.628   4.497   3.295  1.3431 -1.4439  0.3280
 9243SOL    HW229171   1.770   4.537   3.329  0.5538  0.8650  1.0843
 9244SOL     OW29172   2.458   6.130   4.904  0.4233  0.0651  0.2511
 9244SOL    HW129173   2.519   6.077   4.955 -0.7543  0.2143  1.8661
 9244SOL    HW229174   2.501   6.215   4.897  0.5162  0.1032  1.1871
 9245SOL     OW29175   1.924   3.430   2.762  0.4155 -0.8762  0.0211
 9245SOL    HW129176   1.979   3.356   2.788  1.4239 -0.0181  0.4029
 9245SOL    HW229177   1.986   3.499   2.738 -0.4111  0.6975  2.0486
 9246SOL     OW29178   2.107   6.955   4.949 -0.6213  0.1409 -0.5081
 9246SOL    HW129179   2.051   6.956   4.872  0.0899 -2.1964 -1.1290
 9246SOL    HW229180   2.113   6.863   4.974  2.0976  0.3985  0.1306
 9247SOL     OW29181   2.233   3.363   1.776  0.2303  0.0701 -0.3297
 9247SOL    HW129182   2.267   3.331   1.860  0.4082  0.0178 -0.4211
 9247SOL    HW229183   2.266   3.452   1.768  2.1466 -0.6890 -1.4063
 9248SOL     OW29184   2.411   5.408   2.911 -0.5612  0.0240  0.1820
 9248SOL    HW129185   2.350   5.476   2.881  0.3809 -0.0237 -2.0737
 9248SOL    HW229186   2.434   5.434   3.000 -2.1641  1.2416  0.2878
 9249SOL     OW29187   3.851   5.581   3.537 -0.2814 -0.2496 -0.0547
 9249SOL    HW129188   3.765   5.581   3.578 -0.9936  1.0698 -1.4408
 9249SOL    HW229189   3.874   5.674   3.530 -0.7724 -0.2766 -3.6776
 9250SOL     OW29190   1.983   3.586   1.541 -0.0743  0.0990  0.3759
 9250SOL    HW129191   1.964   3.496   1.567  0.1305  0.1702  0.7928
 9250SOL    HW229192   2.035   3.621   1.614 -1.0157  0.8651  0.7129
 9251SOL     OW29193   4.803   5.608   3.760  0.4949 -0.0650  0.4598
 9251SOL    HW129194   4.896   5.584   3.755  0.4219 -0.5898  1.3107
 9251SOL    HW229195   4.793   5.645   3.848  0.4043  2.3788 -0.4968
 9252SOL     OW29196   4.343   5.446   2.078 -0.4326 -0.1754 -0.0386
 9252SOL    HW129197   4.438   5.456   2.083 -0.5348  0.7425  0.2757
 9252SOL    HW229198   4.317   5.415   2.164 -0.3085 -1.5725 -0.4780
 9253SOL     OW29199   2.453   5.845   3.686 -0.3216 -0.1674  0.1760
 9253SOL    HW129200   2.413   5.762   3.712  0.7019 -0.9045 -0.5342
 9253SOL    HW229201   2.490   5.828   3.600  0.3185  0.9019  0.2213
 9254SOL     OW29202   1.877   3.910   5.445  0.2005  0.3263 -0.4555
 9254SOL    HW129203   1.925   3.827   5.443  1.0395  0.7136  1.3298
 9254SOL    HW229204   1.798   3.891   5.494  0.5261  0.6343  0.1969
 9255SOL     OW29205   1.667   2.856   2.067  0.6832  0.2170 -0.4037
 9255SOL    HW129206   1.607   2.836   2.138  0.4408  1.6683 -0.1779
 9255SOL    HW229207   1.689   2.770   2.029 -1.2539 -0.3714 -0.2913
 9256SOL     OW29208   1.701   5.038   0.659  0.4783 -0.4013  0.3182
 9256SOL    HW129209   1.619   5.050   0.708  1.3641 -0.6035  1.9349
 9256SOL    HW229210   1.757   4.990   0.720  1.6940 -0.5505 -0.8896
 9257SOL     OW29211   1.589   5.658   5.609  0.2589 -0.5306  0.5465
 9257SOL    HW129212   1.636   5.602   5.671 -0.9837 -2.0500  0.1876
 9257SOL    HW229213   1.658   5.705   5.562  1.3813 -1.8915  0.7682
 9258SOL     OW29214   2.754   5.549   3.731 -0.1420 -0.7135 -0.0571
 9258SOL    HW129215   2.711   5.494   3.797 -0.0030 -0.5269  0.1919
 9258SOL    HW229216   2.683   5.580   3.675 -0.1598 -1.5955 -0.5368
 9259SOL     OW29217   0.245   4.588   2.638  0.1834 -0.8895  0.3692
 9259SOL    HW129218   0.200   4.651   2.695  1.2543  0.1673  0.0886
 9259SOL    HW229219   0.285   4.526   2.699 -1.2000 -1.5686  0.6385
 9260SOL     OW29220   1.689   4.386   2.822  0.1458  0.4446  0.0201
 9260SOL    HW129221   1.753   4.422   2.883  0.9210 -0.9683  0.0804
 9260SOL    HW229222   1.632   4.460   2.800 -0.6781  0.8561  3.0456
 9261SOL     OW29223   1.842   5.167   3.701  0.3761 -0.0212  0.0664
 9261SOL    HW129224   1.919   5.160   3.645  1.1758  0.1133  1.1184
 9261SOL    HW229225   1.840   5.084   3.749  0.2679  0.2514  0.5399
 9262SOL     OW29226   2.315   3.333   2.028  0.6950  0.0185 -0.5532
 9262SOL    HW129227   2.411   3.341   2.027  0.8839 -1.3980  1.0701
 9262SOL    HW229228   2.299   3.252   2.076 -1.3306 -0.0550 -1.2945
 9263SOL     OW29229   3.526   4.019   1.796 -0.8116 -0.0831  0.0706
 9263SOL    HW129230   3.547   4.104   1.834 -1.1493 -0.2715  0.7004
 9263SOL    HW229231   3.457   4.037   1.732  0.4405  0.3755 -1.1953
 9264SOL     OW29232   1.750   6.310   2.952 -0.5853  0.2510 -0.3063
 9264SOL    HW129233   1.827   6.265   2.986  0.8896  1.6479 -1.6302
 9264SOL    HW229234   1.716   6.360   3.026  0.5491  0.5964  0.0014
 9265SOL     OW29235   1.925   5.975   1.960  0.0478 -0.1947  0.1614
 9265SOL    HW129236   1.915   5.952   2.052  2.7798 -0.1917  0.5643
 9265SOL    HW229237   1.963   5.897   1.919 -0.9960 -0.1477 -0.9461
 9266SOL     OW29238   4.601   4.860   2.801  0.4784  0.2339  0.2878
 9266SOL    HW129239   4.586   4.912   2.880  0.0437 -0.3027  0.5644
 9266SOL    HW229240   4.536   4.891   2.738 -0.6637 -0.8714  0.8947
 9267SOL     OW29241   2.990   5.677   4.327 -0.2065  0.1364 -0.5220
 9267SOL    HW129242   2.979   5.686   4.422 -2.6258 -0.8122 -0.6198
 9267SOL    HW229243   3.004   5.584   4.314  0.5894  0.3323 -1.0709
 9268SOL     OW29244   2.750   3.662   3.060  0.2767  0.0213  0.1382
 9268SOL    HW129245   2.828   3.651   3.115  1.1395 -0.4428 -1.1123
 9268SOL    HW229246   2.722   3.572   3.042 -0.3662  0.1836  0.3095
 9269SOL     OW29247   1.980   3.269   1.900 -0.6732  0.2979 -0.7990
 9269SOL    HW129248   1.931   3.189   1.880  0.2253  0.1804 -2.7126
 9269SOL    HW229249   2.033   3.285   1.822  0.8293  1.5317  0.4133
 9270SOL     OW29250   1.733   7.037   1.928 -0.5740  0.2338  0.6135
 9270SOL    HW129251   1.803   7.048   1.993  1.4733 -0.8773 -1.2483
 9270SOL    HW229252   1.722   7.125   1.891 -0.6700  0.5613  1.3911
 9271SOL     OW29253   3.493   5.537   3.539  0.4930  0.1553  0.5360
 9271SOL    HW129254   3.512   5.488   3.619 -0.7573 -1.1429  0.0755
 9271SOL    HW229255   3.527   5.482   3.468  0.6790  0.8125  0.1031
 9272SOL     OW29256   2.185   3.802   3.655  0.6900  0.1331  0.6646
 9272SOL    HW129257   2.248   3.736   3.627 -0.4033 -0.7567  0.2101
 9272SOL    HW229258   2.105   3.752   3.673 -0.1155  1.3172  0.4547
 9273SOL     OW29259   2.975   3.243   1.210 -0.6471  0.5377 -0.3385
 9273SOL    HW129260   2.918   3.278   1.279 -0.6405  1.4261 -0.7607
 9273SOL    HW229261   3.054   3.297   1.215 -0.2893  0.0367 -0.4759
 9274SOL     OW29262   2.668   3.638   5.609  0.1841 -0.1472 -0.2171
 9274SOL    HW129263   2.711   3.708   5.657 -1.8291  0.4478  0.8303
 9274SOL    HW229264   2.574   3.650   5.627 -0.6873 -0.1756 -3.9261
 9275SOL     OW29265   2.276   4.044   4.911  0.3676  0.2322  0.0002
 9275SOL    HW129266   2.255   4.005   4.996  1.1568  0.3364  0.2567
 9275SOL    HW229267   2.358   4.001   4.886  0.7186  1.0002 -0.1859
 9276SOL     OW29268   1.842   4.247   2.326  0.0788  0.2940 -0.3832
 9276SOL    HW129269   1.771   4.274   2.268  0.1049  2.5678  0.5693
 9276SOL    HW229270   1.921   4.254   2.272  0.0336  1.8134 -0.2849
 9277SOL     OW29271   2.678   4.323   1.479  0.1481 -0.1318  0.2873
 9277SOL    HW129272   2.648   4.414   1.477 -0.7972 -0.4467 -0.2924
 9277SOL    HW229273   2.767   4.328   1.515  0.1830  1.0371  0.0736
 9278SOL     OW29274   2.551   5.882   2.834  0.3744 -0.0968 -0.4761
 9278SOL    HW129275   2.541   5.788   2.821  1.1807 -0.4319  1.0504
 9278SOL    HW229276   2.634   5.891   2.880 -0.1687  1.2779  0.2946
 9279SOL     OW29277   2.485   5.068   3.262 -0.2264 -0.2738  0.2510
 9279SOL    HW129278   2.556   5.077   3.199 -0.1022 -1.1621  0.2609
 9279SOL    HW229279   2.480   4.975   3.280 -0.9070 -0.1356  0.8187
 9280SOL     OW29280   2.489   3.701   4.718 -0.1246  0.5977 -0.0592
 9280SOL    HW129281   2.453   3.740   4.638  0.0143  0.4013 -0.2176
 9280SOL    HW229282   2.580   3.679   4.696  0.0372  0.9080  0.2765
 9281SOL     OW29283   4.685   3.292   2.317 -0.3259  0.0389 -0.5811
 9281SOL    HW129284   4.646   3.379   2.309  0.9798  0.5836 -1.2514
 9281SOL    HW229285   4.616   3.238   2.355 -0.6598  1.7173  1.3210
 9282SOL     OW29286   4.247   6.903   5.701  0.0680 -0.1797 -0.5520
 9282SOL    HW129287   4.324   6.895   5.757 -1.6192 -1.3871  1.7735
 9282SOL    HW229288   4.219   6.994   5.710  0.3450 -0.1299 -0.1844
 9283SOL     OW29289   2.499   5.661   1.903 -0.1020 -0.0762  0.0634
 9283SOL    HW129290   2.584   5.640   1.940 -0.5139  0.1839  1.1935
 9283SOL    HW229291   2.440   5.592   1.935 -0.5231  0.3126  0.1429
 9284SOL     OW29292   2.321   5.680   2.304 -0.5585  0.4330 -0.0532
 9284SOL    HW129293   2.397   5.622   2.315 -0.1137  0.0942 -3.6880
 9284SOL    HW229294   2.267   5.664   2.381  3.0111  0.7488  2.7896
 9285SOL     OW29295   2.013   6.322   3.127  0.2587 -0.1005 -0.0066
 9285SOL    HW129296   2.064   6.275   3.062 -0.4483  0.0867 -0.7020
 9285SOL    HW229297   2.010   6.412   3.095 -0.0744 -0.0016  0.2971
 9286SOL     OW29298   5.233   4.218   2.840 -0.6783  0.2468 -0.2073
 9286SOL    HW129299   5.201   4.129   2.854 -0.7624 -0.3491 -3.3884
 9286SOL    HW229300   5.155   4.273   2.845 -1.2933 -0.4006 -1.8083
 9287SOL     OW29301   3.889   4.382   2.449 -0.7516 -0.0892  0.5364
 9287SOL    HW129302   3.946   4.311   2.421 -2.2505 -0.3255 -2.2008
 9287SOL    HW229303   3.801   4.347   2.440 -1.4631  1.4888  1.0389
 9288SOL     OW29304   3.536   3.602   2.628  0.0390  0.0115  0.5721
 9288SOL    HW129305   3.474   3.666   2.592  1.6263  1.2010 -0.1455
 9288SOL    HW229306   3.584   3.650   2.695  1.9383 -0.0924 -0.6586
 9289SOL     OW29307   2.728   5.087   4.338 -0.2055  0.2733 -0.2511
 9289SOL    HW129308   2.823   5.089   4.323 -0.4663  2.2339 -2.0537
 9289SOL    HW229309   2.703   4.996   4.320  1.2356 -0.1469 -0.2556
 9290SOL     OW29310   1.694   5.115   2.561  0.2314 -0.6295 -0.3336
 9290SOL    HW129311   1.789   5.107   2.564  0.3713  0.9740  0.9413
 9290SOL    HW229312   1.677   5.209   2.567 -1.4326 -0.8718 -0.6464
 9291SOL     OW29313   3.678   5.200   2.815  0.0176  0.6170 -0.2243
 9291SOL    HW129314   3.706   5.257   2.887  0.5025  0.8503 -0.6008
 9291SOL    HW229315   3.709   5.113   2.841  0.0639  0.6745 -0.0831
 9292SOL     OW29316   2.107   4.977   2.338  0.7380  0.3194 -0.3088
 9292SOL    HW129317   2.171   5.046   2.320  1.1491  0.2505  0.8026
 9292SOL    HW229318   2.159   4.899   2.353  0.6337  0.7015  2.7758
 9293SOL     OW29319   2.612   5.621   2.735  0.1030 -0.1984  0.0977
 9293SOL    HW129320   2.544   5.554   2.719  0.4391 -0.5075 -0.0491
 9293SOL    HW229321   2.666   5.584   2.805 -1.0779  0.9407  1.6891
 9294SOL     OW29322   0.685   4.302   4.805 -0.5040 -0.1593 -0.1295
 9294SOL    HW129323   0.661   4.350   4.884 -0.5097 -0.0357 -0.2047
 9294SOL    HW229324   0.761   4.349   4.770 -0.5977 -0.1171 -0.2815
 9295SOL     OW29325   3.392   6.290   3.576  0.4645  1.0281 -0.0557
 9295SOL    HW129326   3.325   6.269   3.512 -0.1896  1.7974  0.3504
 9295SOL    HW229327   3.413   6.207   3.619  0.5039  0.6102 -0.8652
 9296SOL     OW29328   1.724   3.300   1.046  0.2324  0.2867  0.2482
 9296SOL    HW129329   1.698   3.210   1.064 -1.4120  0.6721 -0.0183
 9296SOL    HW229330   1.674   3.324   0.968  0.3079  1.5709  0.5721
 9297SOL     OW29331   3.698   5.669   2.890 -0.3144 -0.0866 -0.3333
 9297SOL    HW129332   3.710   5.614   2.967 -0.4408  1.9658  1.2438
 9297SOL    HW229333   3.623   5.630   2.844 -0.8353 -0.8400  1.0766
 9298SOL     OW29334   2.242   3.393   4.353  0.0700 -0.6290 -0.1896
 9298SOL    HW129335   2.299   3.441   4.293  1.1382 -1.8857 -0.2348
 9298SOL    HW229336   2.193   3.461   4.399  1.4329  0.5029 -0.3268
 9299SOL     OW29337   2.250   5.892   2.956 -0.4118 -0.0435  0.2311
 9299SOL    HW129338   2.333   5.938   2.963 -0.4139  0.5966 -2.5715
 9299SOL    HW229339   2.190   5.957   2.920 -1.6763 -0.9852  0.5760
 9300SOL     OW29340   2.759   3.359   3.599 -0.0006  0.0827  0.3449
 9300SOL    HW129341   2.688   3.417   3.627 -1.1451 -1.2713  0.3903
 9300SOL    HW229342   2.808   3.340   3.679 -0.7000 -0.4232  0.6575
 9301SOL     OW29343   2.659   5.461   1.352 -0.3011  0.1023  0.0117
 9301SOL    HW129344   2.687   5.523   1.419 -1.0610  0.2484  0.1975
 9301SOL    HW229345   2.670   5.508   1.269 -0.8074  0.4537  0.1465
 9302SOL     OW29346   1.369   3.500   5.627 -0.2445 -0.0509 -0.2451
 9302SOL    HW129347   1.447   3.448   5.648  0.0672  1.0551  1.5258
 9302SOL    HW229348   1.393   3.547   5.547  0.3901 -0.7477 -0.4777
 9303SOL     OW29349   2.775   4.259   2.565 -0.3958 -0.0471 -0.5377
 9303SOL    HW129350   2.809   4.192   2.625  0.8446  1.2054  0.2223
 9303SOL    HW229351   2.689   4.282   2.601 -1.0269 -1.5008 -1.0554
 9304SOL     OW29352   2.090   5.762   3.515 -0.2888  0.2255 -0.0251
 9304SOL    HW129353   2.056   5.703   3.582  1.4603 -1.5979 -0.6315
 9304SOL    HW229354   2.178   5.729   3.497  0.6420  2.8201 -0.7007
 9305SOL     OW29355   2.974   5.161   2.644  0.2471  0.6749 -0.2709
 9305SOL    HW129356   2.901   5.209   2.606  0.2162  0.8271 -0.0197
 9305SOL    HW229357   2.937   5.076   2.668  0.2095  0.6678 -0.3532
 9306SOL     OW29358   2.100   4.249   2.219  0.2558  1.0402  0.6099
 9306SOL    HW129359   2.195   4.258   2.213  0.0823  2.1253 -0.8622
 9306SOL    HW229360   2.068   4.264   2.130 -1.2507 -0.1995  0.8861
 9307SOL     OW29361   2.748   4.871   0.520  0.3341 -0.2155 -0.0008
 9307SOL    HW129362   2.784   4.959   0.513  3.1029 -1.2910 -0.6383
 9307SOL    HW229363   2.722   4.848   0.431 -1.2403  0.2266  0.3124
 9308SOL     OW29364   7.084   4.295   4.887 -0.0680 -0.0238 -0.2054
 9308SOL    HW129365   7.060   4.228   4.823 -1.8175 -0.9262  1.2762
 9308SOL    HW229366   7.142   4.250   4.949  0.4112  0.4079 -0.3426
 9309SOL     OW29367   3.378   3.181   4.625 -0.3621  0.0606 -0.0850
 9309SOL    HW129368   3.453   3.174   4.566 -0.9617 -0.0667 -0.8533
 9309SOL    HW229369   3.392   3.262   4.674  0.7990 -0.4952  0.5318
 9310SOL     OW29370   2.571   3.477   5.212  0.1006  0.3153 -0.2547
 9310SOL    HW129371   2.583   3.412   5.143 -0.1760  0.8708 -0.8356
 9310SOL    HW229372   2.658   3.485   5.252  0.1778 -0.2812 -0.2805
 9311SOL     OW29373   0.460   5.911   5.162 -0.0691  0.1306 -0.9362
 9311SOL    HW129374   0.458   5.819   5.138 -1.3845 -0.4789  1.2446
 9311SOL    HW229375   0.548   5.925   5.198 -0.1425 -0.5110 -0.4885
 9312SOL     OW29376   5.199   5.274   4.714 -0.2344 -0.4809 -0.4954
 9312SOL    HW129377   5.111   5.269   4.677 -0.4090 -0.7717 -0.0505
 9312SOL    HW229378   5.208   5.194   4.766 -0.1800  0.1339  0.4715
 9313SOL     OW29379   3.601   4.385   4.219 -0.5462 -0.0350 -0.5978
 9313SOL    HW129380   3.651   4.357   4.295  2.5540  0.6180 -2.2137
 9313SOL    HW229381   3.623   4.477   4.208 -0.6351 -0.1974 -2.4551
 9314SOL     OW29382   3.051   5.156   4.407  0.2231 -0.5460  0.7713
 9314SOL    HW129383   3.096   5.200   4.479  0.4018  3.0488 -1.3226
 9314SOL    HW229384   3.120   5.106   4.364  1.1893  1.0318  0.4208
 9315SOL     OW29385   1.685   5.063   4.839  0.2110 -0.3033  0.0232
 9315SOL    HW129386   1.724   5.137   4.792  2.2998 -0.6183  1.1309
 9315SOL    HW229387   1.675   4.995   4.772 -0.5786  0.5458 -0.7463
 9316SOL     OW29388   0.830   4.883   4.718 -0.0536 -0.4186 -0.0846
 9316SOL    HW129389   0.751   4.937   4.713 -0.0811 -0.3389  0.8895
 9316SOL    HW229390   0.894   4.929   4.665 -0.3648  0.0593 -0.0497
 9317SOL     OW29391   2.840   5.299   4.758 -0.4431 -0.2566  0.1468
 9317SOL    HW129392   2.844   5.204   4.747  0.7667 -0.2095 -0.0001
 9317SOL    HW229393   2.759   5.325   4.713  0.2593 -0.9941 -1.6334
 9318SOL     OW29394   1.987   5.050   3.929 -0.2225  0.5895  0.0533
 9318SOL    HW129395   1.946   5.041   4.015 -0.0975  0.6704  0.1221
 9318SOL    HW229396   2.046   5.125   3.938 -0.1333  0.5353 -0.0730
 9319SOL     OW29397   1.973   5.185   6.671 -0.3963  0.6235  0.1310
 9319SOL    HW129398   1.981   5.129   6.748  0.8164  1.3160  0.5432
 9319SOL    HW229399   2.018   5.137   6.601 -2.3510 -0.4639 -0.4579
 9320SOL     OW29400   1.275   4.912   5.929 -0.4713 -0.6274 -0.1919
 9320SOL    HW129401   1.277   5.002   5.963  0.4662 -0.1409 -1.4516
 9320SOL    HW229402   1.314   4.919   5.842 -1.8927 -2.0056 -0.9660
 9321SOL     OW29403   3.087   3.935   4.305 -0.2760 -0.6890 -0.6086
 9321SOL    HW129404   3.102   3.917   4.398 -0.3239 -1.3346 -0.7205
 9321SOL    HW229405   3.051   4.024   4.303  2.4681  0.5397 -0.2349
 9322SOL     OW29406   1.457   3.015   4.286  0.0076 -0.0439  0.1197
 9322SOL    HW129407   1.516   3.080   4.248  1.0824 -1.0854 -0.0616
 9322SOL    HW229408   1.395   2.996   4.215  0.4954 -0.1688 -0.2846
 9323SOL     OW29409   2.728   3.150   5.895 -0.3137 -0.2879 -0.1381
 9323SOL    HW129410   2.683   3.205   5.958 -1.9753 -2.6202  0.8776
 9323SOL    HW229411   2.687   3.170   5.811 -0.9832 -0.0640  0.2377
 9324SOL     OW29412   2.887   4.415   5.303  0.2964 -0.7212  0.0861
 9324SOL    HW129413   2.894   4.328   5.342  1.0176  0.0985  1.9609
 9324SOL    HW229414   2.926   4.407   5.216  1.5132 -2.0031  0.7099
 9325SOL     OW29415   2.690   5.958   6.301 -0.3614 -0.2038 -0.0038
 9325SOL    HW129416   2.740   6.026   6.347 -1.8078  2.5763 -2.2148
 9325SOL    HW229417   2.614   5.943   6.356 -0.4377  0.6127  0.1293
 9326SOL     OW29418   0.946   5.454   5.513  0.1517 -0.2614  0.0660
 9326SOL    HW129419   0.908   5.477   5.428 -0.1039 -1.6641 -0.2184
 9326SOL    HW229420   0.891   5.382   5.545  2.6810 -2.5536 -0.4643
 9327SOL     OW29421   2.457   3.399   2.829  0.2752  0.2262 -0.0705
 9327SOL    HW129422   2.404   3.450   2.891  1.8243  1.2675  0.4621
 9327SOL    HW229423   2.432   3.308   2.845 -0.1248  0.5593  1.3481
 9328SOL     OW29424   2.559   4.921   6.358 -0.1532  0.5603 -0.0524
 9328SOL    HW129425   2.625   4.988   6.340 -0.6999  1.3582  0.8408
 9328SOL    HW229426   2.551   4.873   6.276  1.4977  0.4756 -0.1940
 9329SOL     OW29427   4.155   4.856   3.324  0.3518  0.2618  0.3662
 9329SOL    HW129428   4.062   4.836   3.308  0.6216 -0.6990 -0.1035
 9329SOL    HW229429   4.171   4.825   3.413  0.6480 -1.2817 -0.1913
 9330SOL     OW29430   1.030   5.334   4.508  0.1949 -0.6064 -0.2232
 9330SOL    HW129431   1.088   5.391   4.558  0.0688 -1.0191  0.3965
 9330SOL    HW229432   1.003   5.388   4.433 -0.9581  0.6340  1.0311
 9331SOL     OW29433   3.686   4.326   3.438 -0.0009 -0.5130 -0.6057
 9331SOL    HW129434   3.742   4.403   3.428 -0.5635 -0.1275 -0.8360
 9331SOL    HW229435   3.724   4.261   3.379 -1.0598  0.4815 -2.4735
 9332SOL     OW29436   1.556   3.780   6.480  0.2102  0.1367 -0.1282
 9332SOL    HW129437   1.582   3.851   6.422  1.4705 -0.0856  0.1501
 9332SOL    HW229438   1.633   3.723   6.486 -0.5166 -0.8509  0.2650
 9333SOL     OW29439   3.548   5.281   5.081  0.3017 -0.2908 -0.3902
 9333SOL    HW129440   3.560   5.232   4.999 -1.4594  1.6408 -1.9299
 9333SOL    HW229441   3.486   5.229   5.131  3.2329 -2.7808  1.0043
 9334SOL     OW29442   4.564   5.219   5.221 -0.3920  0.4765 -0.3699
 9334SOL    HW129443   4.558   5.162   5.297 -0.6548  0.5370 -0.3438
 9334SOL    HW229444   4.502   5.181   5.158 -2.1949  1.9159  0.4219
 9335SOL     OW29445   1.853   4.005   2.520  0.5193  0.2094 -0.2150
 9335SOL    HW129446   1.854   3.962   2.606 -1.7038 -0.0435 -0.2559
 9335SOL    HW229447   1.863   4.098   2.540 -0.4415  0.2017  0.3875
 9336SOL     OW29448   1.538   4.635   4.465  0.2845 -0.1103 -0.3797
 9336SOL    HW129449   1.520   4.542   4.449 -0.7775 -0.0216  0.1934
 9336SOL    HW229450   1.554   4.671   4.378 -0.5009 -0.5993 -0.7394
 9337SOL     OW29451   4.083   5.365   3.594 -0.2004 -0.3218 -0.6758
 9337SOL    HW129452   3.990   5.383   3.581 -0.3093 -1.0623 -0.9989
 9337SOL    HW229453   4.091   5.271   3.575 -0.0117 -1.1004  2.6162
 9338SOL     OW29454   1.593   6.075   5.475  0.0532 -0.4264  0.0064
 9338SOL    HW129455   1.627   6.029   5.398  0.0570  0.0087 -0.2598
 9338SOL    HW229456   1.501   6.048   5.481 -1.1468  2.5387 -2.5521
 9339SOL     OW29457   1.476   3.957   5.144 -0.0431  0.1764 -0.2621
 9339SOL    HW129458   1.515   3.883   5.096 -1.3908 -0.5581 -0.2555
 9339SOL    HW229459   1.551   4.013   5.166  0.9143 -0.8064 -0.9238
 9340SOL     OW29460   2.619   6.044   3.776 -0.3086 -0.5235  0.3123
 9340SOL    HW129461   2.674   5.999   3.840 -0.8624 -0.2114  1.0212
 9340SOL    HW229462   2.567   5.975   3.736  0.4037 -0.7852 -0.1731
 9341SOL     OW29463   1.383   1.776   4.800  0.2796 -0.1631  0.3208
 9341SOL    HW129464   1.474   1.746   4.804  0.8231  0.8218 -2.4445
 9341SOL    HW229465   1.389   1.869   4.780 -1.3737  0.2757  1.6721
 9342SOL     OW29466   3.980   6.778   4.701  0.0529 -0.1659 -0.0020
 9342SOL    HW129467   3.884   6.781   4.702  0.0441 -0.0235  1.4712
 9342SOL    HW229468   4.002   6.704   4.756  0.8041 -1.8914 -2.4678
 9343SOL     OW29469   2.139   5.712   7.233 -0.7417  0.1912 -0.1262
 9343SOL    HW129470   2.103   5.789   7.189  0.1146  0.1231 -0.9710
 9343SOL    HW229471   2.209   5.747   7.288 -0.1241 -0.0154 -0.7728
 9344SOL     OW29472   2.398   4.391   6.509  0.1320 -0.1244 -0.2482
 9344SOL    HW129473   2.434   4.433   6.431  0.8137 -1.0708 -0.4546
 9344SOL    HW229474   2.402   4.297   6.490 -2.3953 -0.3010 -0.2710
 9345SOL     OW29475   2.135   4.424   3.129  0.0789  0.0881 -0.3102
 9345SOL    HW129476   2.210   4.364   3.128  0.6127  0.7433 -1.0239
 9345SOL    HW229477   2.099   4.416   3.217  0.4613 -0.8787 -0.2289
 9346SOL     OW29478   3.068   5.817   3.734  0.5204  0.9422  0.7106
 9346SOL    HW129479   3.125   5.885   3.770 -1.5966  2.0783  2.0520
 9346SOL    HW229480   2.979   5.845   3.755 -0.6249 -0.5618 -1.6722
 9347SOL     OW29481   1.767   2.887   4.130 -0.4266  0.4731 -0.1574
 9347SOL    HW129482   1.832   2.844   4.074 -0.0395  1.1145 -0.2070
 9347SOL    HW229483   1.747   2.821   4.197 -0.3218 -0.0217 -0.5990
 9348SOL     OW29484   2.688   3.388   4.653  0.4201  0.4029  0.0643
 9348SOL    HW129485   2.753   3.318   4.661 -1.1202 -0.9726  1.3900
 9348SOL    HW229486   2.713   3.451   4.721 -0.4661 -0.9037  1.6884
 9349SOL     OW29487   0.994   3.212   6.131 -0.5854  0.0642  0.0611
 9349SOL    HW129488   0.998   3.240   6.222  1.4389 -1.3692  0.4835
 9349SOL    HW229489   1.035   3.126   6.131 -1.4471 -0.4066 -2.0700
 9350SOL     OW29490   1.988   5.553   1.611 -0.4403  0.1652  0.2456
 9350SOL    HW129491   1.959   5.506   1.689  1.0325  0.4539  0.9947
 9350SOL    HW229492   1.923   5.530   1.544 -0.9330 -1.2292  1.1527
 9351SOL     OW29493   0.914   4.560   4.500  0.0675 -0.0436 -0.5580
 9351SOL    HW129494   0.843   4.566   4.564  0.5352 -0.1969 -0.0133
 9351SOL    HW229495   0.994   4.571   4.552  0.4276  0.6127 -1.2248
 9352SOL     OW29496   3.226   7.194   6.849  0.3081  0.0674 -0.3483
 9352SOL    HW129497   3.229   7.136   6.773 -0.0812 -1.5290  0.8194
 9352SOL    HW229498   3.289   7.157   6.911 -0.9206  0.0783  0.9630
 9353SOL     OW29499   2.244   3.484   5.423  0.6298  0.2660 -0.2572
 9353SOL    HW129500   2.267   3.410   5.367 -0.1897  0.0247 -0.2765
 9353SOL    HW229501   2.292   3.469   5.505  0.7540 -0.0824 -0.3952
 9354SOL     OW29502   2.715   4.149   4.124  0.0965  1.0616  0.3375
 9354SOL    HW129503   2.755   4.068   4.093 -2.0638  0.0728 -0.0399
 9354SOL    HW229504   2.773   4.179   4.195  0.5331 -1.2206  1.0107
 9355SOL     OW29505   1.513   5.740   3.451  0.4391 -0.0622  0.4173
 9355SOL    HW129506   1.575   5.791   3.504  0.4727  0.1094  0.2165
 9355SOL    HW229507   1.456   5.806   3.411 -0.1307 -0.2419  0.9188
 9356SOL     OW29508   4.328   5.431   5.014  0.1859  0.3126 -0.0391
 9356SOL    HW129509   4.242   5.471   5.008  0.0262  0.0921  0.6931
 9356SOL    HW229510   4.357   5.423   4.923 -0.6329  0.2235 -0.2989
 9357SOL     OW29511   0.588   4.680   6.504  1.1097 -0.0062 -0.1715
 9357SOL    HW129512   0.590   4.718   6.592 -2.3246  0.8894 -0.3605
 9357SOL    HW229513   0.538   4.599   6.514 -1.5416  1.3288 -1.5751
 9358SOL     OW29514   3.216   5.105   4.914 -0.4423  0.4085  0.3369
 9358SOL    HW129515   3.244   5.072   4.829 -2.0831 -0.5605  0.1469
 9358SOL    HW229516   3.195   5.197   4.898  1.3625  0.8517  0.2340
 9359SOL     OW29517   3.607   5.287   5.431  0.0886 -0.0638 -0.1929
 9359SOL    HW129518   3.700   5.295   5.450  0.0847  0.3980 -0.3476
 9359SOL    HW229519   3.597   5.198   5.396  0.1152 -0.8981  1.8108
 9360SOL     OW29520   1.970   3.827   4.653 -0.1663  0.0137 -0.1968
 9360SOL    HW129521   1.970   3.908   4.703  0.5020 -0.1058  0.0146
 9360SOL    HW229522   1.897   3.776   4.688 -0.0341  0.1547  0.2865
 9361SOL     OW29523   0.614   7.656   3.929 -0.2113  0.1680  0.8137
 9361SOL    HW129524   0.585   7.661   4.020  0.4440 -0.8732  1.0983
 9361SOL    HW229525   0.701   7.696   3.929 -0.2083  0.1639  0.6344
 9362SOL     OW29526   2.370   6.300   3.936 -0.5499 -0.1422  0.0267
 9362SOL    HW129527   2.307   6.349   3.883  0.4047  0.6418 -0.4211
 9362SOL    HW229528   2.396   6.227   3.881  0.3785  0.6264 -0.5846
 9363SOL     OW29529   1.497   4.418   5.062  0.3516 -0.1253  0.2433
 9363SOL    HW129530   1.428   4.354   5.081  0.5383 -0.0826  1.1255
 9363SOL    HW229531   1.451   4.502   5.055  0.1298 -0.3224 -0.7312
 9364SOL     OW29532   2.795   3.419   3.333 -0.2080 -0.0178  0.0610
 9364SOL    HW129533   2.715   3.467   3.312 -0.6897 -1.4628 -1.5926
 9364SOL    HW229534   2.801   3.424   3.429 -1.5011  1.2916  0.1096
 9365SOL     OW29535   2.532   4.451   6.280 -0.9499 -0.4265 -0.1722
 9365SOL    HW129536   2.616   4.450   6.326 -1.5604 -1.2532  0.9869
 9365SOL    HW229537   2.507   4.544   6.278  0.2288 -0.1112 -1.0175
 9366SOL     OW29538   2.727   5.337   5.719  0.0119  0.4745 -0.0976
 9366SOL    HW129539   2.799   5.360   5.660  0.8982 -1.2004  0.2923
 9366SOL    HW229540   2.762   5.354   5.807 -0.0527 -0.3652  0.0926
 9367SOL     OW29541   3.093   5.341   4.854  0.7331  0.7795  0.2510
 9367SOL    HW129542   3.005   5.307   4.838  1.2458 -1.9246  2.3403
 9367SOL    HW229543   3.083   5.399   4.930  0.5417  1.8616 -0.5762
 9368SOL     OW29544   2.868   3.093   4.363 -0.0180  0.4540  0.3656
 9368SOL    HW129545   2.949   3.067   4.407 -1.2118 -1.8307  1.3399
 9368SOL    HW229546   2.875   3.189   4.357  2.5383  0.3739  0.7923
 9369SOL     OW29547   2.732   1.641   3.003  0.5618  0.3555 -0.2369
 9369SOL    HW129548   2.665   1.574   2.991 -0.7922  1.4946  0.6076
 9369SOL    HW229549   2.701   1.715   2.951 -1.6749  2.7740  3.9912
 9370SOL     OW29550   3.762   6.236   5.443 -0.3397  0.2349 -0.0378
 9370SOL    HW129551   3.826   6.226   5.513 -1.1646 -2.0726  0.4825
 9370SOL    HW229552   3.708   6.310   5.471  0.6817  0.7462  0.6466
 9371SOL     OW29553   1.628   3.534   4.369 -0.3642 -0.2370 -0.4478
 9371SOL    HW129554   1.547   3.540   4.420  0.2507 -2.1116  0.8696
 9371SOL    HW229555   1.599   3.511   4.281 -1.3813  1.9358 -0.7529
 9372SOL     OW29556   1.959   3.729   4.340 -0.5698 -0.3568 -0.4433
 9372SOL    HW129557   1.870   3.756   4.364 -0.8909  0.0882 -2.0540
 9372SOL    HW229558   1.948   3.673   4.264  0.6336  1.6256 -2.1887
 9373SOL     OW29559   2.488   5.102   5.185 -0.1110  0.4955 -0.3205
 9373SOL    HW129560   2.559   5.145   5.138  0.2471  1.5104  1.0600
 9373SOL    HW229561   2.418   5.093   5.120  0.9474  0.3078 -1.4580
 9374SOL     OW29562   3.009   3.639   4.473  0.0765  0.0595 -0.0122
 9374SOL    HW129563   3.067   3.702   4.516 -0.3843 -0.2269  1.0680
 9374SOL    HW229564   3.064   3.561   4.461  0.5773  0.5626 -1.1395
 9375SOL     OW29565   2.686   4.726   5.489 -0.6034  0.3015 -0.3423
 9375SOL    HW129566   2.661   4.645   5.535 -1.3578  0.8885  0.2982
 9375SOL    HW229567   2.782   4.719   5.481 -0.8475 -1.9557 -2.7802
 9376SOL     OW29568   2.809   3.759   4.345  0.0363 -0.2186  0.9540
 9376SOL    HW129569   2.835   3.830   4.287 -0.2622 -1.5733 -0.9768
 9376SOL    HW229570   2.891   3.726   4.382  0.1976  0.9023  1.6449
 9377SOL     OW29571   2.312   4.660   4.597  0.2020  0.3940  0.0347
 9377SOL    HW129572   2.232   4.691   4.556  0.7656 -0.5024 -1.8281
 9377SOL    HW229573   2.320   4.569   4.569  0.7386 -0.2304  2.0062
 9378SOL     OW29574   2.348   4.815   6.182  0.2761  0.2524  0.3497
 9378SOL    HW129575   2.417   4.794   6.118 -0.3545  1.9054 -0.9532
 9378SOL    HW229576   2.269   4.774   6.146  0.1874  0.0256  0.7991
 9379SOL     OW29577   2.449   3.941   6.528  0.2106  0.4594  0.8903
 9379SOL    HW129578   2.453   3.951   6.623  2.4623 -0.7202  1.0040
 9379SOL    HW229579   2.541   3.938   6.501 -0.3250 -1.6696 -1.0092
 9380SOL     OW29580   3.503   2.843   5.258 -0.7072 -0.3514 -0.7851
 9380SOL    HW129581   3.537   2.921   5.214  0.0670 -0.2544 -0.0377
 9380SOL    HW229582   3.520   2.772   5.196  1.3913 -0.3880 -0.2151
 9381SOL     OW29583   3.694   4.387   3.154 -0.0984 -0.5173 -0.1612
 9381SOL    HW129584   3.681   4.480   3.169  0.6055  0.1884 -3.2178
 9381SOL    HW229585   3.770   4.364   3.208 -1.1131  0.2760  1.6967
 9382SOL     OW29586   4.236   4.200   1.776  0.1445 -0.5232  0.0185
 9382SOL    HW129587   4.296   4.126   1.772 -1.1388 -1.5956 -0.0017
 9382SOL    HW229588   4.167   4.179   1.713  0.2074  1.1261 -0.6499
 9383SOL     OW29589   3.406   4.625   4.111  0.5782 -0.6417 -0.0337
 9383SOL    HW129590   3.498   4.623   4.134  0.5742  2.4632  0.7319
 9383SOL    HW229591   3.360   4.610   4.193  0.4555 -0.1710 -0.0099
 9384SOL     OW29592   2.543   3.770   4.280 -0.3858  0.5902  0.5854
 9384SOL    HW129593   2.630   3.765   4.321 -0.3718 -0.4602  0.4361
 9384SOL    HW229594   2.556   3.825   4.203  0.0600  0.7696  0.7858
 9385SOL     OW29595   2.445   5.154   6.663  0.6956  0.3709  0.0883
 9385SOL    HW129596   2.396   5.158   6.746 -0.0734  0.9028 -0.3814
 9385SOL    HW229597   2.527   5.110   6.686 -0.2323 -1.0604  0.7790
 9386SOL     OW29598   3.733   6.552   4.613  0.1269 -0.2333 -0.1769
 9386SOL    HW129599   3.734   6.471   4.665 -0.2752 -0.8194 -1.0588
 9386SOL    HW229600   3.646   6.588   4.628  0.9551  1.1392  1.8177
 9387SOL     OW29601   2.906   5.380   6.336  0.1403 -0.3678 -0.6055
 9387SOL    HW129602   2.939   5.467   6.314 -0.9264 -0.1649 -1.5244
 9387SOL    HW229603   2.984   5.329   6.356  0.9059  0.3941 -1.5327
 9388SOL     OW29604   1.860   5.041   5.580 -0.5583 -0.1124 -0.2295
 9388SOL    HW129605   1.944   5.072   5.613  0.1893  1.0963 -2.9597
 9388SOL    HW229606   1.878   4.953   5.546 -0.6504 -0.2710  0.1354
 9389SOL     OW29607   1.743   4.650   4.015 -0.4278 -0.4957  0.6285
 9389SOL    HW129608   1.704   4.618   4.096 -0.1224 -1.6640  0.3283
 9389SOL    HW229609   1.818   4.593   4.000 -0.5462 -0.3690 -0.5359
 9390SOL     OW29610   1.279   5.186   2.833  0.2897 -0.2503  0.0891
 9390SOL    HW129611   1.332   5.227   2.902  0.9297 -1.5412  0.4072
 9390SOL    HW229612   1.202   5.153   2.879  0.7629 -1.1976  0.2314
 9391SOL     OW29613   2.423   4.318   5.416  0.0817  0.5732  0.3941
 9391SOL    HW129614   2.420   4.241   5.473 -0.2352 -0.6845 -1.2483
 9391SOL    HW229615   2.416   4.283   5.327 -0.3769  2.5266 -0.4024
 9392SOL     OW29616   1.605   4.169   4.728 -0.1170  0.2760 -0.2828
 9392SOL    HW129617   1.610   4.086   4.775 -0.8611 -0.1005 -0.8663
 9392SOL    HW229618   1.526   4.212   4.763  0.3037  0.7870  0.0740
 9393SOL     OW29619   2.328   2.634   6.026  0.1482 -0.2399  0.1460
 9393SOL    HW129620   2.382   2.685   6.087 -1.1457  1.1149  0.2363
 9393SOL    HW229621   2.326   2.546   6.064 -0.4493  0.5149  1.9859
 9394SOL     OW29622   2.927   5.954   4.347  0.6171  0.2324 -0.8110
 9394SOL    HW129623   2.966   5.871   4.318  0.2107  0.2033 -1.2764
 9394SOL    HW229624   2.984   5.983   4.418  2.0764  0.6673 -2.0966
 9395SOL     OW29625   4.955   5.252   4.574  0.0776  0.4517 -0.3560
 9395SOL    HW129626   4.944   5.304   4.494 -1.5141  1.1593  0.2956
 9395SOL    HW229627   4.897   5.177   4.562  0.9842 -0.2452 -0.4949
 9396SOL     OW29628   2.923   4.210   4.294  0.5885 -0.4078  0.7766
 9396SOL    HW129629   2.995   4.270   4.275  0.3750 -0.2363  0.4863
 9396SOL    HW229630   2.914   4.211   4.389 -0.1619  0.9255  0.7149
 9397SOL     OW29631   0.799   3.983   5.056 -0.3086  0.2633 -0.2789
 9397SOL    HW129632   0.724   3.924   5.060 -2.0762  2.2852 -1.6696
 9397SOL    HW229633   0.761   4.070   5.059  1.8472  1.3902 -2.5733
 9398SOL     OW29634   2.384   4.782   5.240  0.4581  0.0928  0.2547
 9398SOL    HW129635   2.454   4.810   5.181  0.5337  2.7936  1.4304
 9398SOL    HW229636   2.387   4.846   5.312 -1.6736 -1.1446  1.5660
 9399SOL     OW29637   0.570   5.424   7.758  0.5006 -0.5866 -0.2766
 9399SOL    HW129638   0.523   5.408   7.841  1.8435 -1.5567  0.3223
 9399SOL    HW229639   0.564   5.519   7.746 -0.9085 -0.5838  0.1902
 9400SOL     OW29640   3.168   2.021   5.862 -0.0423 -0.1162  0.4134
 9400SOL    HW129641   3.179   2.086   5.932  0.7199 -1.0723  1.2113
 9400SOL    HW229642   3.245   1.964   5.870 -0.6232 -1.0313 -0.3582
 9401SOL     OW29643   2.261   2.500   4.931 -0.4607 -0.1338 -0.1260
 9401SOL    HW129644   2.274   2.407   4.916 -1.6980 -0.4141  0.3812
 9401SOL    HW229645   2.231   2.533   4.846  0.3007 -0.1176 -0.3973
 9402SOL     OW29646   2.798   5.225   5.273 -0.3581  0.1403  0.0593
 9402SOL    HW129647   2.837   5.275   5.201  1.3273 -0.4341  0.5130
 9402SOL    HW229648   2.813   5.280   5.350  0.4469 -0.5075  0.3810
 9403SOL     OW29649   7.956   5.143   6.410 -0.1874  0.1889 -0.2718
 9403SOL    HW129650   8.020   5.194   6.361  0.1394  1.0312  0.9896
 9403SOL    HW229651   8.005   5.067   6.442 -0.1168  0.2354 -0.2705
 9404SOL     OW29652   2.567   4.589   3.990  0.4371 -0.6943  0.0116
 9404SOL    HW129653   2.653   4.595   3.947  0.1741  1.5683 -0.3109
 9404SOL    HW229654   2.586   4.609   4.082  0.0952  1.2361 -0.3130
 9405SOL     OW29655   2.216   4.010   5.318  0.6579 -0.3696 -0.2985
 9405SOL    HW129656   2.300   4.056   5.314  1.5860 -2.0673 -1.2522
 9405SOL    HW229657   2.239   3.918   5.328 -1.1458 -0.6989  1.5496
 9406SOL     OW29658   2.499   4.063   4.445 -0.0080  0.0574 -0.5743
 9406SOL    HW129659   2.548   4.099   4.518  1.2147 -0.4686 -1.1113
 9406SOL    HW229660   2.522   4.118   4.370 -1.6351  0.9054 -0.4955
 9407SOL     OW29661   2.268   2.044   4.375 -0.5829 -0.5068 -0.2505
 9407SOL    HW129662   2.186   2.089   4.397  0.3066  0.8272  0.4785
 9407SOL    HW229663   2.283   1.984   4.449 -0.2914  0.1347  0.2176
 9408SOL     OW29664   3.981   6.875   5.284  0.0908 -0.1232  0.4388
 9408SOL    HW129665   4.033   6.832   5.216  1.0020 -1.5271  1.9593
 9408SOL    HW229666   3.896   6.889   5.242  0.5187 -1.2362 -0.9038
 9409SOL     OW29667   1.855   6.972   5.224 -0.0271 -0.0295  0.1322
 9409SOL    HW129668   1.802   6.930   5.157  1.5937 -0.9535 -0.6346
 9409SOL    HW229669   1.890   7.051   5.182 -0.9342  0.6957  0.7048
 9410SOL     OW29670   1.231   4.872   6.285  0.0252 -0.1286  0.5068
 9410SOL    HW129671   1.323   4.893   6.299  0.0926  0.5448 -0.7245
 9410SOL    HW229672   1.232   4.796   6.226 -0.2351 -1.7290  2.4570
 9411SOL     OW29673   3.504   3.568   4.010  0.9790  0.0027  0.3407
 9411SOL    HW129674   3.451   3.489   4.009  0.2351  0.4321  1.7597
 9411SOL    HW229675   3.584   3.543   4.056 -0.0370  0.4653  2.4962
 9412SOL     OW29676   2.338   5.016   4.316 -0.3077  0.4751 -0.3783
 9412SOL    HW129677   2.370   4.979   4.398 -0.7836 -0.5456 -0.6348
 9412SOL    HW229678   2.307   4.940   4.266  1.2394  0.8948 -2.0778
 9413SOL     OW29679   2.435   5.310   4.849  0.1374 -0.2292  0.0468
 9413SOL    HW129680   2.495   5.254   4.899  1.9753 -0.1408 -1.9028
 9413SOL    HW229681   2.463   5.299   4.758 -1.5445  1.4018 -0.7270
 9414SOL     OW29682   1.664   5.731   4.755  0.1393 -0.1449  0.2458
 9414SOL    HW129683   1.583   5.768   4.721 -1.2616 -0.6088  2.7886
 9414SOL    HW229684   1.721   5.806   4.770 -1.0985  0.5864  1.4979
 9415SOL     OW29685   1.780   4.402   5.350 -0.0503  0.3146  0.1465
 9415SOL    HW129686   1.735   4.322   5.376 -0.0547  0.3190  0.1517
 9415SOL    HW229687   1.813   4.438   5.432 -1.0020  0.9009  0.2860
 9416SOL     OW29688   2.476   4.700   5.740  0.4353 -0.2501  0.6272
 9416SOL    HW129689   2.543   4.761   5.710 -2.8882  3.3449 -0.3064
 9416SOL    HW229690   2.439   4.664   5.659 -0.6970  0.1641  0.9512
 9417SOL     OW29691   1.335   4.168   4.851 -0.0545 -0.1995 -0.1536
 9417SOL    HW129692   1.315   4.184   4.944  1.3419  1.3138 -0.0551
 9417SOL    HW229693   1.316   4.075   4.838  0.5332 -0.6600  1.8779
 9418SOL     OW29694   0.158   5.058   5.293  0.5191 -0.0263  0.1788
 9418SOL    HW129695   0.227   5.067   5.228  0.4203  1.2988  0.2351
 9418SOL    HW229696   0.111   5.141   5.290 -1.3827 -1.0580 -0.2008
 9419SOL     OW29697   3.353   5.210   6.278  0.5162  0.4180  0.3631
 9419SOL    HW129698   3.432   5.261   6.258  0.2423  0.2600 -1.3095
 9419SOL    HW229699   3.365   5.128   6.230 -0.3849  0.1407  0.5984
 9420SOL     OW29700   1.372   4.963   5.681 -0.0662 -0.3154  0.0623
 9420SOL    HW129701   1.465   4.980   5.671 -0.4804  1.6604 -0.9345
 9420SOL    HW229702   1.349   4.910   5.605  0.0966 -0.1817 -0.0788
 9421SOL     OW29703   0.739   3.404   6.172 -0.3097 -0.1829  0.7022
 9421SOL    HW129704   0.702   3.384   6.086  2.2513 -0.4918 -0.4229
 9421SOL    HW229705   0.709   3.333   6.229 -0.5441 -1.0147 -0.4228
 9422SOL     OW29706   1.727   4.890   5.929 -0.4959 -0.1283  0.1413
 9422SOL    HW129707   1.676   4.931   5.859 -0.7097  2.0347  1.4707
 9422SOL    HW229708   1.804   4.946   5.938 -0.8029  0.0349  2.0437
 9423SOL     OW29709   2.380   3.806   4.486 -0.3933 -0.7929  0.3390
 9423SOL    HW129710   2.397   3.899   4.468 -1.9210 -0.8379 -1.6492
 9423SOL    HW229711   2.426   3.760   4.416 -1.8127 -1.3476 -0.2634
 9424SOL     OW29712   1.985   5.212   4.536  0.5732 -0.0419  0.1847
 9424SOL    HW129713   2.061   5.241   4.586  0.9316 -0.2287 -0.2412
 9424SOL    HW229714   1.983   5.270   4.460  0.1533  0.1101  0.3113
 9425SOL     OW29715   1.761   5.295   4.691 -0.0980 -0.1169 -0.4601
 9425SOL    HW129716   1.801   5.377   4.719 -0.7867  1.0541 -2.6575
 9425SOL    HW229717   1.793   5.281   4.602 -0.7676 -1.7177 -0.4864
 9426SOL     OW29718   3.058   4.507   3.128 -0.8481  0.0146 -0.2159
 9426SOL    HW129719   3.008   4.588   3.137 -2.2071 -0.7147 -0.9349
 9426SOL    HW229720   3.019   4.447   3.192 -0.9896 -0.6091 -0.8701
 9427SOL     OW29721   7.524   4.720   5.133 -0.2716 -0.3139 -0.3963
 9427SOL    HW129722   7.514   4.643   5.190 -0.6502  0.4040  0.5404
 9427SOL    HW229723   7.462   4.783   5.168 -1.8076 -0.4412 -2.6921
 9428SOL     OW29724   1.475   5.550   7.480  0.1656 -0.7836  0.6352
 9428SOL    HW129725   1.479   5.597   7.397  1.1173 -1.5832  0.2086
 9428SOL    HW229726   1.566   5.533   7.503 -0.1193 -1.4951  1.3067
 9429SOL     OW29727   3.158   4.464   3.714  0.0837  0.5141 -0.3323
 9429SOL    HW129728   3.175   4.456   3.808 -1.1518 -0.3426 -0.1537
 9429SOL    HW229729   3.242   4.442   3.673 -0.0574 -1.9721  0.5296
 9430SOL     OW29730   3.606   5.538   2.125  0.1790 -0.3892  0.1892
 9430SOL    HW129731   3.608   5.492   2.210  0.0155 -0.4843  0.1415
 9430SOL    HW229732   3.668   5.489   2.071  1.4167  0.5442  0.6935
 9431SOL     OW29733   3.360   4.967   5.147 -0.5308 -0.0176  0.3768
 9431SOL    HW129734   3.309   4.887   5.156 -1.0453  0.4406  2.0476
 9431SOL    HW229735   3.344   4.996   5.057 -1.9584 -0.7389  0.3629
 9432SOL     OW29736   1.473   3.573   4.793  0.4592 -0.5382 -0.0277
 9432SOL    HW129737   1.495   3.562   4.701  1.0597 -0.9094  0.1569
 9432SOL    HW229738   1.387   3.532   4.803  0.9792 -1.6961 -0.1499
 9433SOL     OW29739   4.604   6.068   3.502  0.6390 -0.0833 -0.1639
 9433SOL    HW129740   4.628   6.122   3.427  1.5452 -1.2124 -0.7125
 9433SOL    HW229741   4.513   6.043   3.486  0.1392  1.4309  0.2042
 9434SOL     OW29742   2.706   4.848   3.840  0.2806  0.3105  0.1796
 9434SOL    HW129743   2.669   4.796   3.769  2.6225 -1.8092  0.3562
 9434SOL    HW229744   2.637   4.853   3.905 -0.3617 -1.7868 -0.2822
 9435SOL     OW29745   3.867   5.487   4.931  0.2815 -0.2588  0.1638
 9435SOL    HW129746   3.947   5.521   4.971  0.1753  0.3501 -0.1256
 9435SOL    HW229747   3.854   5.402   4.972  0.7264 -0.0819  0.6854
 9436SOL     OW29748   2.005   5.494   4.015  0.2354  0.0135 -0.2010
 9436SOL    HW129749   1.960   5.558   4.069  1.1602 -0.0690  0.7145
 9436SOL    HW229750   1.936   5.452   3.964 -0.7596 -0.3211  1.3585
 9437SOL     OW29751   3.165   4.391   3.970 -0.1284  0.4775 -0.3132
 9437SOL    HW129752   3.089   4.333   3.966  0.2105 -0.2057  2.0907
 9437SOL    HW229753   3.238   4.334   3.990  1.1959  1.0637 -2.9556
 9438SOL     OW29754   3.580   5.779   4.197  0.2824 -0.4188  0.5172
 9438SOL    HW129755   3.524   5.795   4.121 -0.4497 -0.0791  1.1151
 9438SOL    HW229756   3.647   5.847   4.191  0.5248 -0.7000 -0.0921
 9439SOL     OW29757   3.278   4.233   4.505  0.1348 -0.3733 -0.1357
 9439SOL    HW129758   3.305   4.147   4.535  0.6693 -0.2363 -0.2114
 9439SOL    HW229759   3.187   4.243   4.536  0.0323 -1.0043 -0.2340
 9440SOL     OW29760   1.624   2.564   4.862 -0.2203  0.0769  0.6129
 9440SOL    HW129761   1.532   2.579   4.883 -0.0945  0.2163  1.0853
 9440SOL    HW229762   1.660   2.652   4.846  0.0288  0.1051  1.2928
 9441SOL     OW29763   3.031   5.758   5.413 -0.4229 -0.2214 -0.0680
 9441SOL    HW129764   3.110   5.727   5.457  0.1941  0.3973 -0.7186
 9441SOL    HW229765   3.011   5.842   5.455 -0.8157 -0.4440  0.1919
 9442SOL     OW29766   0.996   3.552   5.464 -0.9207 -0.0397  0.6457
 9442SOL    HW129767   1.037   3.639   5.466 -0.6311 -0.1825  0.9249
 9442SOL    HW229768   0.950   3.545   5.548  0.5273 -0.8585  1.4057
 9443SOL     OW29769   2.520   4.901   4.020  0.6263  0.3576  0.0849
 9443SOL    HW129770   2.521   4.994   4.041  0.5273  0.0896  1.3077
 9443SOL    HW229771   2.573   4.860   4.088  0.8738 -0.4673 -0.5817
 9444SOL     OW29772   3.814   3.545   1.699  0.5852  0.3476  0.0470
 9444SOL    HW129773   3.898   3.515   1.733  0.6599  0.9610  0.4190
 9444SOL    HW229774   3.757   3.468   1.702  1.3830 -0.3265 -1.0828
 9445SOL     OW29775   4.015   6.639   5.908 -0.8429 -0.3293 -0.3783
 9445SOL    HW129776   4.061   6.630   5.825  0.5576 -0.2251  0.3699
 9445SOL    HW229777   4.065   6.704   5.957 -0.8059 -1.4289  1.1073
 9446SOL     OW29778   5.083   6.208   4.599  0.2095  0.0791 -0.3853
 9446SOL    HW129779   5.133   6.246   4.527 -0.4960 -0.3995 -1.1534
 9446SOL    HW229780   5.073   6.279   4.662 -1.1468  1.2319 -1.8155
 9447SOL     OW29781   3.115   4.416   4.292  0.3597 -0.3290 -0.3158
 9447SOL    HW129782   3.147   4.394   4.379 -0.2135  0.0573  0.0030
 9447SOL    HW229783   3.161   4.497   4.269  2.1532 -1.5549 -1.3128
 9448SOL     OW29784   3.111   3.480   4.788  0.2882  0.0069  0.9226
 9448SOL    HW129785   3.202   3.463   4.810  0.6881  1.3442  0.4303
 9448SOL    HW229786   3.103   3.575   4.791 -0.2834  0.1538 -1.9279
 9449SOL     OW29787   3.623   5.359   3.324  0.2407  0.4691  0.6377
 9449SOL    HW129788   3.554   5.354   3.258  0.1512  1.3870  0.6426
 9449SOL    HW229789   3.603   5.288   3.385 -0.1715  0.1500  0.1372
 9450SOL     OW29790   1.816   3.375   3.778 -0.2744  0.1620  0.1844
 9450SOL    HW129791   1.906   3.401   3.801 -1.4218  2.4074  2.5886
 9450SOL    HW229792   1.804   3.291   3.822  0.4996  0.0776  0.2563
 9451SOL     OW29793   2.204   5.551   6.457  0.2419  0.4094 -1.0139
 9451SOL    HW129794   2.210   5.460   6.429 -0.3705  0.3007 -0.8040
 9451SOL    HW229795   2.218   5.548   6.552 -2.8283  0.1364 -0.4818
 9452SOL     OW29796   2.457   4.322   5.748 -0.4749  0.1076 -0.5862
 9452SOL    HW129797   2.501   4.319   5.833 -0.3671 -0.0105 -0.6473
 9452SOL    HW229798   2.465   4.234   5.714 -0.2166  0.2452 -0.8767
 9453SOL     OW29799   0.363   4.918   2.728 -0.6203  0.0019  0.0514
 9453SOL    HW129800   0.324   4.850   2.782  1.1297  1.2529  3.0922
 9453SOL    HW229801   0.292   4.981   2.714 -1.2246 -0.5737  0.4958
 9454SOL     OW29802   1.940   3.749   5.125 -0.1106  0.6408 -0.4580
 9454SOL    HW129803   1.955   3.837   5.160  2.5232 -1.0324  3.3571
 9454SOL    HW229804   2.000   3.743   5.050  0.9704  1.5798  0.2881
 9455SOL     OW29805   3.901   4.491   3.413 -0.2735  0.3200  0.7620
 9455SOL    HW129806   3.912   4.579   3.376  0.7939 -0.5433 -1.1005
 9455SOL    HW229807   3.990   4.466   3.441 -0.5123 -0.2914  0.9846
 9456SOL     OW29808   1.773   3.576   6.041 -0.4886  0.7620 -0.2260
 9456SOL    HW129809   1.715   3.651   6.036 -1.7037 -0.1184  0.2126
 9456SOL    HW229810   1.721   3.508   6.084  0.2420 -0.6222 -1.4325
 9457SOL     OW29811   4.086   5.042   4.541  0.1280 -0.0941 -0.2635
 9457SOL    HW129812   4.075   4.947   4.542  1.2143 -0.2444 -0.8069
 9457SOL    HW229813   4.005   5.076   4.503 -1.2529 -0.6211  2.0398
 9458SOL     OW29814   2.943   4.163   5.879 -0.4696  0.2016 -1.2430
 9458SOL    HW129815   3.011   4.137   5.817  0.7943  1.1900 -0.3282
 9458SOL    HW229816   2.975   4.132   5.964 -1.3933  0.2857 -0.8523
 9459SOL     OW29817   3.937   5.199   6.100 -0.6769  0.5890 -0.0395
 9459SOL    HW129818   3.883   5.121   6.090  1.8789 -1.1739 -1.1120
 9459SOL    HW229819   3.964   5.222   6.012  1.8652  0.1744  0.5609
 9460SOL     OW29820   2.742   4.769   4.593  0.1139 -0.0726 -0.3491
 9460SOL    HW129821   2.812   4.827   4.561  0.1430 -0.4881 -1.0595
 9460SOL    HW229822   2.744   4.694   4.534 -0.9032 -0.1161 -0.3424
 9461SOL     OW29823   3.455   3.789   3.802  0.1707  0.3056  0.6234
 9461SOL    HW129824   3.475   3.873   3.760 -1.8679  0.3109 -0.4613
 9461SOL    HW229825   3.527   3.731   3.774  0.6183  1.2032 -0.1463
 9462SOL     OW29826   3.060   4.335   2.898  0.3429 -0.1433 -0.2519
 9462SOL    HW129827   3.071   4.403   2.963  0.2628 -0.0037 -0.3847
 9462SOL    HW229828   2.970   4.304   2.909  0.9147 -1.4681  1.0123
 9463SOL     OW29829   3.407   4.862   3.992  0.2292  0.2934 -0.0128
 9463SOL    HW129830   3.399   4.773   4.027  0.9782  0.1019 -0.3083
 9463SOL    HW229831   3.501   4.881   3.996 -0.0682  1.7494  1.7079
 9464SOL     OW29832   3.603   5.629   4.605 -0.8194  0.3456 -0.0373
 9464SOL    HW129833   3.604   5.600   4.696 -1.8129 -0.6504 -0.3203
 9464SOL    HW229834   3.515   5.607   4.574 -0.3624  0.3095 -1.3519
 9465SOL     OW29835   2.891   5.637   4.887 -0.4262 -0.1380  0.1598
 9465SOL    HW129836   2.904   5.666   4.977 -0.6329 -0.6948  0.3733
 9465SOL    HW229837   2.885   5.542   4.893 -0.0897 -0.2062 -0.4859
 9466SOL     OW29838   1.948   4.207   3.913 -0.0723 -0.1198  0.6092
 9466SOL    HW129839   2.042   4.191   3.918 -0.1249 -0.6304  0.0305
 9466SOL    HW229840   1.908   4.131   3.955 -0.2867 -1.0145 -1.1300
 9467SOL     OW29841   4.397   5.874   3.044  0.0196 -0.1860  0.1381
 9467SOL    HW129842   4.301   5.868   3.036 -0.1363 -1.5906  2.2999
 9467SOL    HW229843   4.411   5.923   3.125  1.2172  1.5534 -1.0373
 9468SOL     OW29844   1.581   4.808   4.682  0.5013  0.3353 -0.3926
 9468SOL    HW129845   1.568   4.737   4.619  2.1529 -0.5565  0.2087
 9468SOL    HW229846   1.493   4.830   4.712 -0.0553 -1.4158 -0.6373
 9469SOL     OW29847   0.219   4.380   4.728  0.0809 -0.2339 -0.2248
 9469SOL    HW129848   0.243   4.455   4.783  2.3104  0.9820 -2.6830
 9469SOL    HW229849   0.284   4.313   4.749 -0.4221 -0.6184  0.1612
 9470SOL     OW29850   2.258   3.822   5.075 -0.3903  0.2819 -0.6779
 9470SOL    HW129851   2.312   3.767   5.131  0.3341  1.1829 -0.4658
 9470SOL    HW229852   2.212   3.760   5.018 -1.1729 -0.6529  0.9020
 9471SOL     OW29853   3.809   4.025   4.836 -0.0836  0.5743  0.1055
 9471SOL    HW129854   3.809   3.987   4.923  2.3540  1.7409  0.6919
 9471SOL    HW229855   3.807   4.119   4.850  0.6301  0.7891 -1.0689
 9472SOL     OW29856   2.424   4.678   4.880  0.3933  0.2415  0.3738
 9472SOL    HW129857   2.382   4.683   4.794  0.6250  0.4462  0.2688
 9472SOL    HW229858   2.511   4.642   4.863  0.7791  1.1248  0.3906
 9473SOL     OW29859   3.078   6.561   5.678 -0.2176 -0.3763 -0.0423
 9473SOL    HW129860   3.076   6.532   5.769  0.9517  0.1660  0.1764
 9473SOL    HW229861   3.116   6.648   5.681 -0.5303 -0.1923 -1.0199
 9474SOL     OW29862   1.379   4.302   5.847 -0.4059 -0.0690 -0.3102
 9474SOL    HW129863   1.296   4.348   5.841 -0.5592 -0.2780  0.1522
 9474SOL    HW229864   1.373   4.252   5.928  0.3667  0.3093 -0.0001
 9475SOL     OW29865   3.847   5.257   3.777 -0.1144  0.2030 -0.3750
 9475SOL    HW129866   3.801   5.234   3.858  0.4874 -0.2102 -0.1429
 9475SOL    HW229867   3.862   5.173   3.733  2.4260  0.0433  0.6544
 9476SOL     OW29868   2.662   2.777   4.550 -0.2212 -0.1585 -0.1284
 9476SOL    HW129869   2.738   2.792   4.607 -0.9791  0.7745  0.6792
 9476SOL    HW229870   2.640   2.685   4.564 -0.5315  0.1013  1.3131
 9477SOL     OW29871   2.379   4.672   3.815 -0.2469  0.2924  0.2002
 9477SOL    HW129872   2.321   4.596   3.821 -0.9558  0.8441  0.4811
 9477SOL    HW229873   2.448   4.655   3.878 -1.5233  0.8226  1.8051
 9478SOL     OW29874   3.429   5.290   3.149  0.0945 -0.9081  0.5602
 9478SOL    HW129875   3.413   5.258   3.060 -1.4524  0.6872  0.2113
 9478SOL    HW229876   3.393   5.379   3.150  1.2018 -0.4132  2.4353
 9479SOL     OW29877   3.415   3.593   4.447 -0.1621  0.6015 -0.0118
 9479SOL    HW129878   3.421   3.685   4.473 -0.8060  0.5600  0.3158
 9479SOL    HW229879   3.500   3.556   4.472 -0.1472  0.9543  0.4925
 9480SOL     OW29880   7.952   5.057   3.591  0.1348 -0.1128 -0.4766
 9480SOL    HW129881   7.967   5.142   3.633 -0.7607  1.0880 -2.4659
 9480SOL    HW229882   7.916   5.002   3.661 -0.3866  1.4842  0.5645
 9481SOL     OW29883   2.759   6.660   5.287 -0.2462 -0.1755 -0.3225
 9481SOL    HW129884   2.830   6.595   5.280 -0.3964 -0.5486  1.1626
 9481SOL    HW229885   2.692   6.616   5.339 -1.0730  0.6037 -0.7004
 9482SOL     OW29886   1.242   4.457   8.902 -0.8657 -0.2072  0.3632
 9482SOL    HW129887   1.251   4.541   8.858  1.4525 -0.8504 -0.5234
 9482SOL    HW229888   1.197   4.401   8.838 -0.3136 -0.2698  0.0230
 9483SOL     OW29889   1.879   4.265   7.626  0.6047  0.2283 -0.5684
 9483SOL    HW129890   1.889   4.324   7.700  0.1918  0.7127 -0.8919
 9483SOL    HW229891   1.873   4.322   7.550  0.8675 -0.2555 -0.9627
 9484SOL     OW29892   1.295   2.478   7.136  0.2301  0.1193 -0.2923
 9484SOL    HW129893   1.244   2.517   7.207  1.3290  1.5354 -0.2482
 9484SOL    HW229894   1.364   2.430   7.180 -0.9064 -1.6880 -0.3579
 9485SOL     OW29895   2.204   4.061   5.995 -0.4892 -0.5278  0.1012
 9485SOL    HW129896   2.222   4.019   5.911 -0.2631  1.8028 -1.1279
 9485SOL    HW229897   2.290   4.076   6.034 -0.4543  0.1823 -0.2309
 9486SOL     OW29898   0.742   3.852   3.928 -0.2354 -0.4520  0.2168
 9486SOL    HW129899   0.699   3.776   3.889  1.8604 -1.6623  0.0993
 9486SOL    HW229900   0.675   3.892   3.983 -1.7487 -1.6710 -0.6548
 9487SOL     OW29901   2.701   5.696   7.254 -0.3545 -0.5382  0.0712
 9487SOL    HW129902   2.726   5.698   7.162  1.6842 -3.1514  0.4556
 9487SOL    HW229903   2.676   5.605   7.270 -0.9159 -0.0878  2.0659
 9488SOL     OW29904   1.815   4.859   6.345  0.2349 -0.3279  0.5420
 9488SOL    HW129905   1.820   4.774   6.302  0.2407 -0.5756  1.0175
 9488SOL    HW229906   1.834   4.840   6.437  0.7832  0.2638  0.5640
 9489SOL     OW29907   2.516   3.656   6.591 -0.0407 -0.3960  0.1866
 9489SOL    HW129908   2.543   3.746   6.605 -0.0966 -0.0785 -1.5232
 9489SOL    HW229909   2.439   3.644   6.646  0.6511  0.2226  1.3114
 9490SOL     OW29910   3.079   5.556   7.306 -0.2022 -0.1231  0.0400
 9490SOL    HW129911   3.029   5.479   7.277  0.3550 -0.0315 -1.2568
 9490SOL    HW229912   3.153   5.561   7.244 -1.0321  2.3147 -0.8835
 9491SOL     OW29913   1.463   4.856   8.287  0.4711 -0.2710  0.6338
 9491SOL    HW129914   1.409   4.823   8.359 -0.9518  0.8063  0.1168
 9491SOL    HW229915   1.413   4.929   8.251  1.0043 -0.9339 -1.6357
 9492SOL     OW29916   2.339   7.834   6.563 -0.1956  0.3166 -0.1711
 9492SOL    HW129917   2.353   7.828   6.468 -2.1234 -0.3680 -0.4555
 9492SOL    HW229918   2.249   7.866   6.572 -0.1914 -0.0381  1.4352
 9493SOL     OW29919   1.011   3.144   7.372 -1.0659  0.3390 -0.4781
 9493SOL    HW129920   1.032   3.232   7.404 -0.3403  0.2730 -0.7429
 9493SOL    HW229921   1.019   3.152   7.276  2.6251 -0.8343 -0.4309
 9494SOL     OW29922   2.914   4.668   8.152  0.6519  0.3768  0.2356
 9494SOL    HW129923   2.991   4.693   8.203  0.9103  0.8737 -0.3976
 9494SOL    HW229924   2.916   4.724   8.075 -0.0435  0.0112 -0.0589
 9495SOL     OW29925   1.919   5.760   7.773  0.6764 -0.0285 -0.2637
 9495SOL    HW129926   1.847   5.783   7.714 -0.6353 -0.9144  0.9234
 9495SOL    HW229927   1.969   5.841   7.782 -1.2585  1.1945  0.3062
 9496SOL     OW29928   3.255   5.593   7.112 -0.0130  0.5545  0.3799
 9496SOL    HW129929   3.186   5.605   7.047 -0.4141  0.7385  0.8444
 9496SOL    HW229930   3.321   5.659   7.089  0.6826 -0.5110 -0.9248
 9497SOL     OW29931   3.108   4.925   6.569  0.6092 -0.2299  1.1087
 9497SOL    HW129932   3.136   4.846   6.523 -0.6557  0.0044 -0.1563
 9497SOL    HW229933   3.161   4.995   6.531 -0.5560 -0.0088 -0.2161
 9498SOL     OW29934   2.134   3.963   5.705  0.0486 -0.4766  0.2731
 9498SOL    HW129935   2.124   4.045   5.658 -0.1783 -0.5951  0.1125
 9498SOL    HW229936   2.075   3.902   5.660  1.8413 -1.3374 -1.0287
 9499SOL     OW29937   2.267   3.098   6.098 -0.1162 -0.2813 -0.2548
 9499SOL    HW129938   2.249   3.012   6.060 -0.5922  0.3926 -1.6067
 9499SOL    HW229939   2.323   3.141   6.034 -1.5618  1.1726 -0.5808
 9500SOL     OW29940   4.055   4.391   5.636  0.3529 -0.1012  0.0888
 9500SOL    HW129941   3.978   4.424   5.589  0.8142 -0.6508 -1.0834
 9500SOL    HW229942   4.029   4.304   5.667  0.2762 -0.0177  0.2565
 9501SOL     OW29943   1.676   4.722   6.808 -0.2902  0.0039  0.0069
 9501SOL    HW129944   1.740   4.777   6.852  0.5813 -1.1629  0.2533
 9501SOL    HW229945   1.657   4.652   6.870  1.3984 -2.0074 -1.5799
 9502SOL     OW29946   3.633   6.460   5.542  0.2386 -0.3894 -0.0305
 9502SOL    HW129947   3.646   6.493   5.631  1.4860  3.3692 -1.4025
 9502SOL    HW229948   3.698   6.507   5.489 -2.2471 -0.3491 -3.3662
 9503SOL     OW29949   1.552   4.612   5.440 -0.3453 -0.1327 -0.4651
 9503SOL    HW129950   1.531   4.557   5.515  1.4304  2.0354  1.7866
 9503SOL    HW229951   1.620   4.563   5.393  0.8170 -0.1742  1.1810
 9504SOL     OW29952   1.239   4.476   6.985 -0.2603  0.4265 -0.2305
 9504SOL    HW129953   1.246   4.451   7.078  1.0654 -1.3954 -0.7609
 9504SOL    HW229954   1.179   4.413   6.947  1.4948 -0.7692 -1.1714
 9505SOL     OW29955   1.822   5.783   7.472  0.0050  0.0357 -0.0751
 9505SOL    HW129956   1.873   5.853   7.431  2.4043 -1.3898  0.3286
 9505SOL    HW229957   1.887   5.724   7.509 -1.9813 -1.5877  1.0201
 9506SOL     OW29958   3.616   4.207   7.163 -0.4248 -0.0762  0.0462
 9506SOL    HW129959   3.645   4.233   7.076  0.6758 -1.7411 -0.1425
 9506SOL    HW229960   3.567   4.126   7.149 -1.3517  0.3115  0.8640
 9507SOL     OW29961   1.266   1.571   4.576 -0.2391  0.1109 -0.0269
 9507SOL    HW129962   1.298   1.647   4.624  2.7616 -0.8918 -0.2676
 9507SOL    HW229963   1.246   1.604   4.489  0.5221  0.7342  0.0291
 9508SOL     OW29964   2.214   5.292   6.439  0.3860 -0.1221 -0.4968
 9508SOL    HW129965   2.146   5.242   6.393 -0.0173  0.1413 -0.2015
 9508SOL    HW229966   2.280   5.227   6.463 -0.7499 -0.7959  1.0476
 9509SOL     OW29967   2.795   5.337   8.320  0.5314  0.3107  0.1672
 9509SOL    HW129968   2.797   5.393   8.397  2.1484  1.4423 -0.6244
 9509SOL    HW229969   2.776   5.397   8.247  0.4538 -0.4792 -0.4811
 9510SOL     OW29970   2.016   6.054   8.701 -0.4458  0.4388  0.3198
 9510SOL    HW129971   2.046   6.045   8.791 -0.9955  0.4795  0.5111
 9510SOL    HW229972   1.921   6.068   8.708 -0.3023  1.7862 -0.1976
 9511SOL     OW29973   1.504   4.886   5.108  0.3499  0.3117  0.2504
 9511SOL    HW129974   1.488   4.955   5.173 -1.1454  0.8928 -0.6955
 9511SOL    HW229975   1.525   4.934   5.027 -0.1497 -0.3422 -0.2758
 9512SOL     OW29976   4.049   5.390   6.749  0.2377  0.7759  0.3222
 9512SOL    HW129977   4.138   5.399   6.717 -0.3406  1.4480 -1.2191
 9512SOL    HW229978   4.040   5.298   6.772  1.0803  0.5235 -0.3254
 9513SOL     OW29979   3.213   5.139   5.928  0.2288  0.4353 -0.1152
 9513SOL    HW129980   3.267   5.074   5.972  1.2578  0.6026 -1.0622
 9513SOL    HW229981   3.264   5.220   5.936 -1.8434  1.6194  2.6238
 9514SOL     OW29982   2.985   6.485   4.915 -0.4612  0.5579  0.3197
 9514SOL    HW129983   2.930   6.430   4.971 -0.6385 -0.0109 -0.3916
 9514SOL    HW229984   2.924   6.533   4.860 -0.2658  0.1877 -0.2330
 9515SOL     OW29985   1.882   6.653   7.296  0.5620 -0.2979  0.1408
 9515SOL    HW129986   1.975   6.662   7.274  1.3411  0.3663  3.2825
 9515SOL    HW229987   1.872   6.561   7.320  0.1631 -0.5734 -1.0211
 9516SOL     OW29988   3.401   4.110   7.534 -0.3313 -0.0189 -0.3162
 9516SOL    HW129989   3.309   4.122   7.556 -0.9101  0.0357 -2.5584
 9516SOL    HW229990   3.429   4.195   7.501  0.5905  0.0068  0.5007
 9517SOL     OW29991   1.479   3.807   7.225  0.4222  0.0928 -0.2966
 9517SOL    HW129992   1.549   3.872   7.220  0.8277 -0.1085  1.7817
 9517SOL    HW229993   1.521   3.728   7.259 -0.4225 -0.7068 -1.0557
 9518SOL     OW29994   1.359   4.128   7.820  0.5655 -0.2304 -0.1641
 9518SOL    HW129995   1.428   4.074   7.782  1.5903  1.4039 -0.6914
 9518SOL    HW229996   1.353   4.204   7.762 -2.2202 -0.6592 -0.5628
 9519SOL     OW29997   2.326   5.061   7.979  0.6800  0.3121  1.1012
 9519SOL    HW129998   2.405   5.038   7.930 -0.7142  0.3771 -1.3444
 9519SOL    HW229999   2.294   4.978   8.014 -0.1975 -0.3987 -1.2072
 9520SOL     OW30000   1.238   6.565   7.536  0.7458  0.2747  0.2067
 9520SOL    HW130001   1.297   6.637   7.556  1.8660 -0.3817 -0.6608
 9520SOL    HW230002   1.257   6.499   7.603  0.5599  0.3050  0.2905
 9521SOL     OW30003   2.275   5.998   7.456  0.2661 -0.0428 -0.6328
 9521SOL    HW130004   2.348   6.007   7.395  1.3618 -1.1561  0.4570
 9521SOL    HW230005   2.300   6.052   7.531 -0.3331  0.0782 -0.5175
 9522SOL     OW30006   1.745   3.583   6.406 -0.1017  0.0356 -0.3371
 9522SOL    HW130007   1.836   3.581   6.378 -0.9086 -1.0092 -3.2122
 9522SOL    HW230008   1.698   3.534   6.339 -2.9072  1.2623  0.5844
 9523SOL     OW30009   3.530   3.924   7.372 -0.6992 -0.4301  0.6253
 9523SOL    HW130010   3.457   3.873   7.336 -1.6174  1.5165 -0.4275
 9523SOL    HW230011   3.488   3.996   7.420  0.4860  0.9308 -0.3037
 9524SOL     OW30012   2.598   4.754   7.966 -0.1960 -0.3815 -0.0875
 9524SOL    HW130013   2.546   4.686   7.924  0.1241 -0.0457 -1.0601
 9524SOL    HW230014   2.689   4.729   7.950 -0.0677 -0.2406  0.4005
 9525SOL     OW30015   3.232   4.679   5.482 -0.1933  0.2172 -0.5884
 9525SOL    HW130016   3.310   4.628   5.505  0.7067  1.6789 -0.2923
 9525SOL    HW230017   3.159   4.627   5.516  0.8937  1.2639  4.0517
 9526SOL     OW30018   1.825   5.210   7.400  0.0593 -0.1826 -0.1325
 9526SOL    HW130019   1.821   5.138   7.338 -3.0322  0.0477 -0.3732
 9526SOL    HW230020   1.772   5.181   7.474  0.3829  1.0822  0.6406
 9527SOL     OW30021   3.651   5.115   6.277 -0.7918 -0.7052 -0.2841
 9527SOL    HW130022   3.723   5.136   6.335 -0.6983 -0.8960 -0.3297
 9527SOL    HW230023   3.690   5.061   6.208 -0.4247  1.4123 -1.8210
 9528SOL     OW30024   2.885   4.491   8.424 -0.2002 -0.7829  0.6628
 9528SOL    HW130025   2.801   4.485   8.377 -0.5010 -0.5026  1.1657
 9528SOL    HW230026   2.932   4.412   8.397 -0.1579 -0.3809 -0.5131
 9529SOL     OW30027   1.678   4.521   4.248  0.2758 -0.3839  0.1241
 9529SOL    HW130028   1.724   4.546   4.328  0.5280  0.3332 -0.2384
 9529SOL    HW230029   1.731   4.450   4.210  0.7948  0.0780 -0.0182
 9530SOL     OW30030   3.323   4.633   8.068  0.9714  0.3431  0.1452
 9530SOL    HW130031   3.249   4.636   8.007  1.3535  2.3860 -0.2806
 9530SOL    HW230032   3.382   4.567   8.032  1.1822  1.4957 -1.7358
 9531SOL     OW30033   3.376   4.678   6.773  0.4800 -0.5399  0.2263
 9531SOL    HW130034   3.452   4.708   6.822  1.5343 -2.8856  0.1552
 9531SOL    HW230035   3.412   4.623   6.704 -1.1325  0.6603 -1.6872
 9532SOL     OW30036   1.171   3.446   6.883  0.0725 -0.4972 -0.0083
 9532SOL    HW130037   1.254   3.483   6.855 -1.0917  2.3541  0.0310
 9532SOL    HW230038   1.105   3.510   6.857 -1.6289  0.1860  4.8466
 9533SOL     OW30039   3.097   5.129   5.347 -0.5716  0.3732 -0.5936
 9533SOL    HW130040   3.106   5.079   5.428  1.4842 -1.0502 -1.6381
 9533SOL    HW230041   3.004   5.154   5.346 -1.0055 -0.8577  1.4249
 9534SOL     OW30042   2.444   6.118   6.620 -0.0134  0.4004 -0.4833
 9534SOL    HW130043   2.539   6.124   6.606 -0.1266  1.7072 -0.7770
 9534SOL    HW230044   2.423   6.194   6.675 -0.9487  0.3352 -0.7366
 9535SOL     OW30045   2.327   6.315   6.762  0.0391 -0.4325  0.4772
 9535SOL    HW130046   2.246   6.276   6.729  0.2715 -1.9294  1.6062
 9535SOL    HW230047   2.319   6.312   6.857  0.9973  0.3521  0.6042
 9536SOL     OW30048   1.176   3.958   4.733  0.0392 -0.4126 -0.3422
 9536SOL    HW130049   1.087   3.926   4.749  0.5458 -0.8160  1.9456
 9536SOL    HW230050   1.166   4.026   4.666 -1.9825 -0.4081 -0.0783
 9537SOL     OW30051   3.405   4.529   7.046 -0.0850  0.1398 -0.0111
 9537SOL    HW130052   3.413   4.566   7.134  0.3212  0.6267 -0.2444
 9537SOL    HW230053   3.494   4.505   7.022 -0.4904 -2.2199  0.6323
 9538SOL     OW30054   2.668   2.480   5.499 -0.0150 -0.3981 -0.2731
 9538SOL    HW130055   2.648   2.386   5.508 -1.9105 -0.0496 -0.3110
 9538SOL    HW230056   2.762   2.483   5.486  0.4033 -2.1616  1.6912
 9539SOL     OW30057   1.723   4.181   7.924  0.2191 -0.2547 -0.5980
 9539SOL    HW130058   1.774   4.256   7.894 -0.4972 -0.1378 -1.5486
 9539SOL    HW230059   1.789   4.113   7.942  0.7489  0.0695 -1.2952
 9540SOL     OW30060   1.647   5.022   5.727  0.2783 -0.5460  0.1861
 9540SOL    HW130061   1.720   5.036   5.666 -1.4704 -0.0019 -1.9406
 9540SOL    HW230062   1.623   5.111   5.755  0.3338 -0.7168  0.7908
 9541SOL     OW30063   2.896   4.482   6.731 -0.1029 -0.4745  0.1179
 9541SOL    HW130064   2.977   4.487   6.781 -0.1277 -0.2655  0.1376
 9541SOL    HW230065   2.916   4.423   6.658 -0.1332 -0.9577  0.4971
 9542SOL     OW30066   1.853   5.861   6.255 -0.0594 -0.1392  0.1220
 9542SOL    HW130067   1.780   5.824   6.206 -1.4788  1.0170  1.2776
 9542SOL    HW230068   1.887   5.787   6.306 -1.2257 -0.4506  0.4832
 9543SOL     OW30069   3.362   2.404   6.276 -0.7430  0.0310  0.2641
 9543SOL    HW130070   3.296   2.353   6.228 -0.5228 -2.4948  2.3818
 9543SOL    HW230071   3.445   2.364   6.252 -0.5054 -0.2944  1.5543
 9544SOL     OW30072   2.120   4.933   7.105 -0.1207 -0.2477  0.7642
 9544SOL    HW130073   2.148   4.984   7.181 -1.6923  1.1291  0.4749
 9544SOL    HW230074   2.187   4.865   7.095  2.3765  2.0432  0.8744
 9545SOL     OW30075   2.308   2.857   5.132 -0.0172  0.0577  0.1307
 9545SOL    HW130076   2.343   2.770   5.152 -0.3860 -0.1429 -0.0718
 9545SOL    HW230077   2.338   2.912   5.204  0.2968 -0.2172  0.2135
 9546SOL     OW30078   1.073   4.054   6.013 -0.6405  0.4205  0.5728
 9546SOL    HW130079   1.072   4.026   6.104 -0.4550 -1.4198  0.0589
 9546SOL    HW230080   1.162   4.035   5.983 -0.6957  1.0048  0.0117
 9547SOL     OW30081   3.435   5.412   7.416 -0.5601  0.0079 -0.0656
 9547SOL    HW130082   3.385   5.331   7.407 -1.0486  0.3653 -0.6370
 9547SOL    HW230083   3.377   5.471   7.465 -1.4369  1.0099 -2.2033
 9548SOL     OW30084   4.802   6.282   4.530  0.4535  0.1415 -0.3352
 9548SOL    HW130085   4.766   6.198   4.557 -1.0135  1.3763  1.9674
 9548SOL    HW230086   4.894   6.278   4.553  0.2129 -0.5644  0.5638
 9549SOL     OW30087   2.172   4.832   4.912 -0.1845  0.1990 -0.2105
 9549SOL    HW130088   2.208   4.890   4.844 -1.2136 -0.6768 -1.5666
 9549SOL    HW230089   2.248   4.802   4.961  0.5578  1.1619 -0.7520
 9550SOL     OW30090   0.920   5.618   7.723  0.1269 -0.3229  0.1045
 9550SOL    HW130091   0.907   5.576   7.808  0.5062 -0.7097 -0.0233
 9550SOL    HW230092   0.921   5.545   7.661  1.3612 -0.1832 -0.0546
 9551SOL     OW30093   2.004   2.724   5.292 -0.4838  0.0009 -0.3550
 9551SOL    HW130094   1.987   2.716   5.198 -1.8926 -2.0775  0.0087
 9551SOL    HW230095   2.025   2.635   5.320  1.2868  0.8193  1.0898
 9552SOL     OW30096   1.765   3.172   6.972  0.6018  0.3885 -0.0824
 9552SOL    HW130097   1.671   3.187   6.959  0.1638 -0.2463  1.8845
 9552SOL    HW230098   1.791   3.114   6.901 -1.1496 -1.6459  0.8276
 9553SOL     OW30099   2.318   4.785   8.136 -0.2149  0.4795  0.0382
 9553SOL    HW130100   2.226   4.802   8.117 -0.8500 -1.9511  0.5039
 9553SOL    HW230101   2.345   4.723   8.069  1.3354  1.7028 -0.5164
 9554SOL     OW30102   2.697   4.039   8.149 -0.2185 -0.3287  0.5809
 9554SOL    HW130103   2.758   4.096   8.194  0.1024 -0.5743  0.4656
 9554SOL    HW230104   2.657   4.094   8.081 -1.1754  0.2101  1.5570
 9555SOL     OW30105   2.954   1.198   3.928  0.5590 -0.0861  0.3179
 9555SOL    HW130106   2.895   1.220   4.001  1.1329 -0.7278  0.9929
 9555SOL    HW230107   2.897   1.195   3.851 -0.2146 -0.2823  0.8847
 9556SOL     OW30108   3.259   4.820   6.333  0.8857  0.0863 -0.7724
 9556SOL    HW130109   3.320   4.858   6.270  1.1828 -1.4806 -1.4830
 9556SOL    HW230110   3.304   4.742   6.366 -0.3182 -0.5402 -0.5404
 9557SOL     OW30111   2.992   4.376   6.959 -0.2395  0.2576  0.1934
 9557SOL    HW130112   2.925   4.318   6.923  0.7977 -0.1659 -1.1060
 9557SOL    HW230113   3.049   4.319   7.010 -0.0264  0.3797  0.0901
 9558SOL     OW30114   3.160   4.630   6.959 -0.2669 -0.5577 -1.0165
 9558SOL    HW130115   3.116   4.547   6.942 -1.2180 -0.0913 -0.8902
 9558SOL    HW230116   3.253   4.612   6.944 -0.6417 -1.1887 -2.8093
 9559SOL     OW30117   1.065   5.010   7.279 -0.0310 -0.4711 -0.4683
 9559SOL    HW130118   1.105   4.926   7.260  0.8729 -0.1287 -0.1113
 9559SOL    HW230119   1.089   5.066   7.205  0.4535 -0.1662 -0.0843
 9560SOL     OW30120   0.943   3.579   6.699  0.5543 -0.4063 -0.0405
 9560SOL    HW130121   0.851   3.552   6.693  1.1105 -2.1122 -1.8530
 9560SOL    HW230122   0.972   3.587   6.608  3.0084 -3.0311  0.3724
 9561SOL     OW30123   2.700   4.653   7.404  0.1867 -0.2999  0.4193
 9561SOL    HW130124   2.786   4.613   7.393  0.8061  0.9017  0.7728
 9561SOL    HW230125   2.711   4.743   7.374 -1.0983 -0.2764 -0.0634
 9562SOL     OW30126   3.124   5.933   8.099 -0.1519  0.5095 -0.4473
 9562SOL    HW130127   3.089   6.004   8.046  0.2758  0.9496 -0.1528
 9562SOL    HW230128   3.201   5.971   8.141  0.7959 -0.4910 -1.2349
 9563SOL     OW30129   3.906   5.392   7.087  0.1687  0.6256 -0.8119
 9563SOL    HW130130   3.918   5.310   7.040  1.3762  0.9070 -1.0345
 9563SOL    HW230131   3.869   5.452   7.022 -1.4085  0.0812 -0.4548
 9564SOL     OW30132   1.902   4.571   7.042  1.0669  0.0123  0.5509
 9564SOL    HW130133   1.932   4.515   6.970 -0.7054 -0.0858 -0.1470
 9564SOL    HW230134   1.871   4.509   7.109 -0.0844  0.1111  0.1348
 9565SOL     OW30135   2.439   3.798   5.931  0.2217 -0.5115 -0.1424
 9565SOL    HW130136   2.526   3.834   5.947  1.3681 -3.2936  0.5512
 9565SOL    HW230137   2.403   3.782   6.018  0.1365 -1.7783 -0.3946
 9566SOL     OW30138   2.777   6.027   8.237 -0.2218  1.2563  0.0705
 9566SOL    HW130139   2.806   6.081   8.311  1.1144  0.1262  0.4150
 9566SOL    HW230140   2.742   6.090   8.174  0.1092  2.3996  0.9828
 9567SOL     OW30141   2.736   3.915   6.203  0.3855  0.0207  0.3270
 9567SOL    HW130142   2.655   3.863   6.198  0.3651  0.1478 -1.4517
 9567SOL    HW230143   2.805   3.855   6.176  0.9041 -0.0502  1.7275
 9568SOL     OW30144   3.415   3.890   6.765 -0.0364  0.3974  0.1096
 9568SOL    HW130145   3.351   3.939   6.713 -1.2926 -0.4511  0.8003
 9568SOL    HW230146   3.498   3.904   6.719 -0.8635  0.7487 -1.3697
 9569SOL     OW30147   2.481   4.069   5.637 -1.0730  0.1447 -0.3066
 9569SOL    HW130148   2.520   4.018   5.707  1.7556 -0.4288 -2.1231
 9569SOL    HW230149   2.483   4.012   5.560  0.6641  2.3146 -2.0286
 9570SOL     OW30150   2.276   6.272   6.396  0.0268  0.3011  0.1910
 9570SOL    HW130151   2.208   6.211   6.367 -1.7688  1.9736  0.6746
 9570SOL    HW230152   2.314   6.231   6.473  0.0461 -0.9546 -0.4593
 9571SOL     OW30153   2.305   5.171   5.374 -0.4463 -0.5776 -0.5423
 9571SOL    HW130154   2.366   5.121   5.319  0.4639 -1.0883  0.8600
 9571SOL    HW230155   2.337   5.156   5.463 -1.4570  0.7830  0.0726
 9572SOL     OW30156   2.065   5.797   5.684 -0.0927 -0.4670  0.3813
 9572SOL    HW130157   2.083   5.710   5.648  0.6280 -0.3075  0.3368
 9572SOL    HW230158   2.008   5.781   5.759 -0.0420 -0.9663  0.3135
 9573SOL     OW30159   3.772   4.624   5.893  0.3828 -1.1084 -0.0028
 9573SOL    HW130160   3.780   4.549   5.834 -1.0337 -1.9471  0.8319
 9573SOL    HW230161   3.726   4.590   5.970 -1.2213  0.8457 -0.0306
 9574SOL     OW30162   2.758   2.832   6.896 -0.2423  0.3672 -0.4593
 9574SOL    HW130163   2.786   2.764   6.957  1.7115  0.9183 -0.6764
 9574SOL    HW230164   2.743   2.786   6.814 -2.1213 -0.2551  0.1822
 9575SOL     OW30165   0.414   5.387   8.005  0.3373 -0.2652  0.1279
 9575SOL    HW130166   0.321   5.390   8.028  0.2299 -1.3850 -0.1043
 9575SOL    HW230167   0.453   5.460   8.054 -0.6805  0.3062  0.1087
 9576SOL     OW30168   3.696   4.008   7.744 -0.2214 -0.0258  0.0488
 9576SOL    HW130169   3.691   3.971   7.832  0.4909  0.3893  0.2774
 9576SOL    HW230170   3.672   4.100   7.756  2.7999  0.8450  0.3963
 9577SOL     OW30171   1.867   4.412   7.853  0.4433 -0.2408  0.1515
 9577SOL    HW130172   1.892   4.384   7.941  0.2679  0.4235  0.4226
 9577SOL    HW230173   1.935   4.475   7.828 -0.2998  0.6830  0.4130
 9578SOL     OW30174   2.674   4.726   8.346 -0.4171  0.5517 -0.1184
 9578SOL    HW130175   2.728   4.703   8.270 -0.1273 -0.1768  0.3051
 9578SOL    HW230176   2.617   4.796   8.313  0.9512  1.5393 -0.5056
 9579SOL     OW30177   3.463   4.354   7.368  0.2393 -0.3926  0.3072
 9579SOL    HW130178   3.456   4.448   7.356 -1.9373 -0.5700 -0.2186
 9579SOL    HW230179   3.543   4.329   7.323  0.8279  1.1830  0.4374
 9580SOL     OW30180   3.273   2.909   6.667  0.2046  0.6475  0.2589
 9580SOL    HW130181   3.261   2.895   6.761  1.1660 -0.4227  0.2512
 9580SOL    HW230182   3.225   2.989   6.648  0.9994  1.5716  1.9023
 9581SOL     OW30183   1.949   4.729   7.484 -0.1504 -0.3833 -0.3525
 9581SOL    HW130184   2.033   4.721   7.440 -0.2736 -1.0289 -0.4749
 9581SOL    HW230185   1.910   4.808   7.447  1.0999  0.8904  0.9087
 9582SOL     OW30186   2.780   3.791   6.749  0.2168  0.0174  0.2917
 9582SOL    HW130187   2.758   3.802   6.841  1.4709  0.3231  0.5697
 9582SOL    HW230188   2.872   3.815   6.743  0.4537 -1.0855 -0.8406
 9583SOL     OW30189   1.524   3.075   6.254  0.0968  0.1937 -0.1913
 9583SOL    HW130190   1.569   3.011   6.309 -0.5716 -2.7271 -2.7768
 9583SOL    HW230191   1.438   3.084   6.295  0.8829  1.1125  1.3507
 9584SOL     OW30192   3.923   4.689   6.905 -0.1770  0.2643 -0.1054
 9584SOL    HW130193   4.016   4.701   6.889  0.8247 -2.1238  2.9591
 9584SOL    HW230194   3.895   4.770   6.947  0.4114  1.0597 -1.1775
 9585SOL     OW30195   5.157   4.685   7.601 -0.0803  0.9251 -0.6092
 9585SOL    HW130196   5.158   4.590   7.585 -0.9627  0.6153  0.9325
 9585SOL    HW230197   5.086   4.718   7.547 -0.5580  0.5115 -0.2377
 9586SOL     OW30198   4.857   6.551   7.898  0.4672 -0.1395  0.2328
 9586SOL    HW130199   4.950   6.546   7.874  0.1839  0.4259 -1.0401
 9586SOL    HW230200   4.858   6.554   7.994  1.6452 -2.3869  0.3580
 9587SOL     OW30201   2.076   4.419   8.354 -0.6422 -0.1038  0.3277
 9587SOL    HW130202   2.107   4.436   8.443  0.8021 -0.2930 -0.1156
 9587SOL    HW230203   2.155   4.423   8.300 -0.6923 -4.2320 -0.3956
 9588SOL     OW30204   3.056   4.452   5.512 -0.2612 -0.3461  0.1923
 9588SOL    HW130205   3.019   4.437   5.599 -1.0533 -1.5741 -0.3224
 9588SOL    HW230206   2.980   4.447   5.453  0.3391 -0.0637 -0.6124
 9589SOL     OW30207   2.522   5.136   7.363  0.2271  0.2723 -0.1719
 9589SOL    HW130208   2.499   5.188   7.441  1.6008  2.3696 -1.0597
 9589SOL    HW230209   2.526   5.200   7.292  0.9855 -1.2557 -1.5712
 9590SOL     OW30210   0.968   3.305   5.863  0.2160 -0.3124 -0.0325
 9590SOL    HW130211   1.056   3.343   5.860  0.2051 -0.3604 -1.1758
 9590SOL    HW230212   0.956   3.280   5.955 -0.1820  3.4039  1.0968
 9591SOL     OW30213   3.341   5.053   6.507 -0.1813  0.2266 -0.0907
 9591SOL    HW130214   3.412   4.999   6.541 -1.5181 -3.2281 -2.1724
 9591SOL    HW230215   3.379   5.097   6.431  0.3784  0.4431  0.3122
 9592SOL     OW30216   3.400   4.164   6.891  0.6718  0.0653  0.1882
 9592SOL    HW130217   3.493   4.140   6.886  0.8337  0.8031 -0.5950
 9592SOL    HW230218   3.394   4.248   6.844 -0.2868  0.3336  0.7544
 9593SOL     OW30219   2.734   4.690   6.640 -0.2654  0.1442  0.3174
 9593SOL    HW130220   2.796   4.634   6.687 -0.7780 -0.9002 -0.2053
 9593SOL    HW230221   2.693   4.631   6.575 -1.9169  0.7363  0.7593
 9594SOL     OW30222   0.992   2.889   5.261  0.6132 -0.0443  0.3030
 9594SOL    HW130223   0.948   2.966   5.297 -0.3298  0.2517 -1.3966
 9594SOL    HW230224   1.083   2.899   5.289  0.2527  0.9867  1.2030
 9595SOL     OW30225   2.923   5.078   7.476  0.6422  0.5387 -0.1916
 9595SOL    HW130226   2.961   4.991   7.484 -2.8779 -1.2224 -0.7504
 9595SOL    HW230227   2.916   5.093   7.382 -2.0441 -0.2804 -0.1951
 9596SOL     OW30228   2.444   4.115   6.090  0.9029  0.3380 -0.2129
 9596SOL    HW130229   2.472   4.197   6.051  2.6118  0.5177  1.2624
 9596SOL    HW230230   2.476   4.118   6.180  0.7158 -1.7997 -0.0077
 9597SOL     OW30231   2.506   2.762   7.508 -0.1835  0.0916  0.1716
 9597SOL    HW130232   2.518   2.857   7.501 -1.6064  0.2942  0.1604
 9597SOL    HW230233   2.515   2.730   7.419 -2.1243  0.5552 -0.2296
 9598SOL     OW30234   2.748   5.108   6.330  0.0221 -0.4325 -0.2514
 9598SOL    HW130235   2.771   5.079   6.418 -3.2873 -0.8191  0.6117
 9598SOL    HW230236   2.813   5.066   6.273  2.5711  0.2171  1.9339
 9599SOL     OW30237   1.596   3.581   6.886 -0.2146 -0.0666 -1.1768
 9599SOL    HW130238   1.564   3.667   6.913  0.3876  0.5313 -2.2775
 9599SOL    HW230239   1.563   3.571   6.797  1.2744 -0.1362 -1.7391
 9600SOL     OW30240   2.247   5.840   6.246 -0.1510 -0.0295 -0.2001
 9600SOL    HW130241   2.332   5.874   6.275 -0.8071  1.4918  0.0393
 9600SOL    HW230242   2.245   5.750   6.278  0.1898  0.7871  2.3332
 9601SOL     OW30243   3.052   2.919   6.964  0.3306 -0.4194  1.2967
 9601SOL    HW130244   2.968   2.947   6.929  0.4957 -2.9177 -1.5478
 9601SOL    HW230245   3.113   2.988   6.939 -0.5119  0.4769  1.6469
 9602SOL     OW30246   0.740   4.702   8.431 -0.0981  0.4083  0.4516
 9602SOL    HW130247   0.692   4.785   8.430 -0.7813  0.0171  0.0773
 9602SOL    HW230248   0.822   4.721   8.386  0.3884  1.2412  1.6145
 9603SOL     OW30249   1.507   6.532   8.183  0.3949 -0.0173 -0.0480
 9603SOL    HW130250   1.485   6.456   8.128 -1.2522  1.0114 -0.8873
 9603SOL    HW230251   1.598   6.552   8.161  0.2837 -0.6487 -1.1707
 9604SOL     OW30252   3.773   5.824   6.736 -0.3456 -0.0857 -0.2317
 9604SOL    HW130253   3.696   5.841   6.789 -0.5109  0.8629 -0.7364
 9604SOL    HW230254   3.845   5.867   6.784 -0.3867  0.2434 -0.4609
 9605SOL     OW30255   1.548   3.629   5.401 -0.8907  0.0961  0.2618
 9605SOL    HW130256   1.561   3.534   5.408 -1.0781  0.1251  1.1359
 9605SOL    HW230257   1.567   3.649   5.309  1.8937 -0.3480  0.6592
 9606SOL     OW30258   1.475   4.797   6.340 -0.3351  0.2223  0.4061
 9606SOL    HW130259   1.509   4.847   6.266 -1.0064 -4.3190 -3.3978
 9606SOL    HW230260   1.550   4.748   6.373 -0.7867 -0.6545  0.1515
 9607SOL     OW30261   3.575   4.401   6.736  0.1193  0.1853  0.8917
 9607SOL    HW130262   3.597   4.461   6.665 -0.4095 -1.2118 -0.5134
 9607SOL    HW230263   3.622   4.435   6.812  1.4923  1.1849 -0.3553
 9608SOL     OW30264   3.865   4.412   7.153 -0.2513 -0.3917 -0.1787
 9608SOL    HW130265   3.878   4.324   7.190  0.2054 -0.3224 -0.1715
 9608SOL    HW230266   3.943   4.460   7.179 -0.6905  0.1416  0.1749
 9609SOL     OW30267   3.600   5.591   7.261 -0.2372  0.3937 -0.3137
 9609SOL    HW130268   3.542   5.524   7.296 -2.3186  2.3883  0.2711
 9609SOL    HW230269   3.616   5.563   7.171 -0.5462 -1.1673  0.0744
 9610SOL     OW30270   2.507   4.833   7.039 -0.5511 -0.0237 -0.1580
 9610SOL    HW130271   2.515   4.754   6.985 -0.9157  0.3261 -0.7350
 9610SOL    HW230272   2.557   4.899   6.993 -1.1793  0.3800 -0.2727
 9611SOL     OW30273   4.009   5.553   7.869  0.5244 -0.4683  0.2574
 9611SOL    HW130274   3.947   5.518   7.806  0.1663 -2.4217  1.6018
 9611SOL    HW230275   3.983   5.514   7.952  1.0736  1.9075  1.6145
 9612SOL     OW30276   3.356   6.342   6.655 -0.2626  0.0894  0.0837
 9612SOL    HW130277   3.287   6.342   6.721 -1.5485  0.6560 -1.1971
 9612SOL    HW230278   3.322   6.399   6.586  1.4696  0.3182 -0.6235
 9613SOL     OW30279   3.363   6.256   7.102 -0.1287  0.1334 -0.2136
 9613SOL    HW130280   3.450   6.239   7.138 -0.2670  0.8702  0.5073
 9613SOL    HW230281   3.307   6.189   7.142 -0.1292  0.4479  0.3162
 9614SOL     OW30282   4.644   6.152   6.382 -0.0852  0.4002 -0.2973
 9614SOL    HW130283   4.626   6.058   6.380 -0.2152  0.3355  1.6786
 9614SOL    HW230284   4.723   6.163   6.328  1.7140 -1.3254  1.7837
 9615SOL     OW30285   2.585   6.515   7.059 -0.0898 -0.0490 -0.3160
 9615SOL    HW130286   2.514   6.466   7.018 -1.4642 -1.4001  3.2609
 9615SOL    HW230287   2.543   6.592   7.096  0.8453  0.5003 -0.3620
 9616SOL     OW30288   4.425   7.656   7.605 -0.1911 -0.7331  0.0940
 9616SOL    HW130289   4.509   7.611   7.612  1.3395  1.8080 -0.6430
 9616SOL    HW230290   4.409   7.690   7.692  0.2880 -0.0103 -0.0954
 9617SOL     OW30291   3.722   4.090   6.348  0.4612  0.6091  0.8828
 9617SOL    HW130292   3.688   4.150   6.415 -1.1708  0.0842  0.5723
 9617SOL    HW230293   3.645   4.064   6.298  1.6777  1.3736 -1.5491
 9618SOL     OW30294   1.308   3.962   5.903  0.5299 -0.2463  0.0063
 9618SOL    HW130295   1.356   4.014   5.966 -0.0496 -0.3461  0.5397
 9618SOL    HW230296   1.332   3.871   5.923  1.7780 -0.2003 -1.1187
 9619SOL     OW30297   3.032   5.588   6.271  0.0025  0.3973  0.5358
 9619SOL    HW130298   3.103   5.609   6.210  0.0136 -2.8339 -0.7636
 9619SOL    HW230299   2.960   5.645   6.244  1.3551  2.1667  0.4397
 9620SOL     OW30300   3.180   4.468   7.280  0.4196 -0.5087  0.1445
 9620SOL    HW130301   3.263   4.501   7.313  0.1405  0.1922  0.1511
 9620SOL    HW230302   3.206   4.403   7.214  0.9837  0.1521 -0.3104
 9621SOL     OW30303   2.382   3.858   5.457 -0.5060 -0.2161  0.1985
 9621SOL    HW130304   2.403   3.798   5.385  0.5581 -1.0299  1.1432
 9621SOL    HW230305   2.345   3.802   5.525 -1.1616  0.4848  0.4293
 9622SOL     OW30306   3.214   5.234   6.683  0.0982 -0.0973 -0.0616
 9622SOL    HW130307   3.151   5.251   6.613  0.6549 -1.5985 -0.9698
 9622SOL    HW230308   3.283   5.182   6.642  1.0468 -0.0085  1.3289
 9623SOL     OW30309   1.740   5.612   6.918  0.3159  0.0399  0.4484
 9623SOL    HW130310   1.728   5.536   6.975  0.6184  0.1331  0.6420
 9623SOL    HW230311   1.754   5.685   6.979 -0.1368  0.2791  0.2676
 9624SOL     OW30312   2.987   5.073   7.212  0.3356  0.0523  0.6859
 9624SOL    HW130313   2.989   4.991   7.163 -0.1105  0.2416  0.3438
 9624SOL    HW230314   3.046   5.131   7.164 -0.2756  0.3110  0.2248
 9625SOL     OW30315   1.679   4.230   6.385  0.3286  0.1947  0.4998
 9625SOL    HW130316   1.725   4.222   6.469  0.6674  0.6103  0.3551
 9625SOL    HW230317   1.724   4.301   6.339 -0.6792  0.8616  0.4987
 9626SOL     OW30318   3.595   6.147   7.217  0.0446  0.1064  0.0680
 9626SOL    HW130319   3.588   6.055   7.240 -0.2018  0.0670 -0.1547
 9626SOL    HW230320   3.679   6.154   7.172  1.2598  0.4668  2.2491
 9627SOL     OW30321   4.662   5.283   5.521  0.8311 -0.0084 -0.4937
 9627SOL    HW130322   4.680   5.282   5.615  1.0720 -0.0018 -0.5405
 9627SOL    HW230323   4.652   5.191   5.497 -0.0128  0.0226 -0.3119
 9628SOL     OW30324   1.669   4.446   4.719 -0.4936  0.2442 -0.2470
 9628SOL    HW130325   1.658   4.353   4.700  3.7002 -0.3197 -0.8499
 9628SOL    HW230326   1.666   4.451   4.815 -0.2319 -0.5807 -0.1939
 9629SOL     OW30327   2.639   5.386   6.775 -0.1637 -0.0985 -0.1805
 9629SOL    HW130328   2.629   5.379   6.680  0.0787 -1.1336 -0.1438
 9629SOL    HW230329   2.555   5.420   6.805 -0.4062 -0.1923 -0.7251
 9630SOL     OW30330   3.140   4.057   6.925 -0.3079 -0.1828 -0.1409
 9630SOL    HW130331   3.115   3.998   6.854  1.6699 -1.8661  0.4478
 9630SOL    HW230332   3.229   4.086   6.902  0.5891 -1.1822  1.8299
 9631SOL     OW30333   1.485   3.329   6.502  0.4622 -0.5267  0.2787
 9631SOL    HW130334   1.418   3.263   6.516 -0.5898  0.2695 -0.8390
 9631SOL    HW230335   1.454   3.406   6.550  0.8115 -0.3017  0.1536
 9632SOL     OW30336   2.938   3.713   7.241  0.5986 -0.3410 -0.5535
 9632SOL    HW130337   2.977   3.768   7.173 -0.1843  1.6351  0.5212
 9632SOL    HW230338   3.006   3.708   7.309  0.5374 -0.4167 -0.4975
 9633SOL     OW30339   1.512   5.590   7.199 -0.5201  0.0478 -0.3711
 9633SOL    HW130340   1.579   5.537   7.156 -1.0573  0.3863 -1.6977
 9633SOL    HW230341   1.531   5.679   7.171  1.0844  0.8220  2.7644
 9634SOL     OW30342   2.872   5.447   5.439 -0.3020 -0.1154 -0.5150
 9634SOL    HW130343   2.920   5.471   5.518 -0.3179 -1.2087 -0.1551
 9634SOL    HW230344   2.896   5.514   5.375 -1.8729  1.9904  0.9735
 9635SOL     OW30345   2.435   5.821   7.270 -0.2284 -0.3952 -0.0672
 9635SOL    HW130346   2.472   5.752   7.325  0.1640  0.1843  0.4065
 9635SOL    HW230347   2.497   5.893   7.277 -1.6739  0.7946  1.1506
 9636SOL     OW30348   2.841   6.357   7.802  0.4302  0.2934 -0.2335
 9636SOL    HW130349   2.883   6.407   7.732  2.3174  0.5026  0.9586
 9636SOL    HW230350   2.817   6.423   7.867 -0.3643  0.0003 -0.2241
 9637SOL     OW30351   1.450   4.847   6.698 -0.5028  0.3999  0.4830
 9637SOL    HW130352   1.394   4.782   6.655 -1.0414  0.6338  0.8165
 9637SOL    HW230353   1.531   4.800   6.717 -0.5259  0.0974 -0.1405
 9638SOL     OW30354   2.088   5.993   7.794  0.0180 -0.2355 -0.1670
 9638SOL    HW130355   2.038   6.046   7.731 -0.3373  0.5944  0.7859
 9638SOL    HW230356   2.125   6.057   7.855  0.4376 -1.0166  0.4100
 9639SOL     OW30357   4.064   3.989   8.075 -0.3145  0.0535  0.4375
 9639SOL    HW130358   4.012   4.063   8.106 -0.7367 -0.1156  0.1435
 9639SOL    HW230359   4.155   4.018   8.081 -0.1825 -0.5942  3.6571
 9640SOL     OW30360   2.838   4.757   6.350 -0.0371  0.5314 -0.0892
 9640SOL    HW130361   2.918   4.705   6.360  0.6152  1.0974 -1.9128
 9640SOL    HW230362   2.780   4.702   6.298 -1.8595 -0.8345  3.0731
 9641SOL     OW30363   3.434   5.014   7.092  0.3283  0.1824  0.1512
 9641SOL    HW130364   3.392   4.947   7.146 -0.3307  0.7710  0.3801
 9641SOL    HW230365   3.523   4.982   7.079 -0.1025 -0.9392 -0.0956
 9642SOL     OW30366   3.481   3.960   7.111  0.4008  0.4901  0.0026
 9642SOL    HW130367   3.509   3.907   7.036  0.4102 -1.4240  1.2756
 9642SOL    HW230368   3.387   3.940   7.121  0.4288  0.6077  0.5712
 9643SOL     OW30369   2.223   5.035   7.345 -0.1410 -0.2143  0.7187
 9643SOL    HW130370   2.168   5.112   7.357  0.6116  0.2312  1.3327
 9643SOL    HW230371   2.312   5.069   7.338  0.0361 -0.8765 -0.8310
 9644SOL     OW30372   2.436   5.533   7.726  0.0426  0.2557 -0.3294
 9644SOL    HW130373   2.482   5.570   7.802 -0.1404  1.5568 -0.8402
 9644SOL    HW230374   2.410   5.445   7.755  3.1123 -0.7130 -0.1159
 9645SOL     OW30375   1.206   4.648   7.842  0.0807  0.4494  0.2267
 9645SOL    HW130376   1.114   4.649   7.814  0.1262  0.3313  0.0740
 9645SOL    HW230377   1.252   4.694   7.772  0.3001 -0.4919 -0.2664
 9646SOL     OW30378   1.764   4.627   6.012  0.2014 -0.5092 -0.0723
 9646SOL    HW130379   1.741   4.718   5.991 -1.8840 -1.4532 -2.2085
 9646SOL    HW230380   1.813   4.596   5.936  0.9499 -1.1875  0.6663
 9647SOL     OW30381   5.737   5.875   5.460  0.3942  0.1952  0.0174
 9647SOL    HW130382   5.699   5.800   5.504  0.2326 -1.0935 -2.1982
 9647SOL    HW230383   5.828   5.877   5.491 -0.2086  0.5777  1.8900
 9648SOL     OW30384   1.941   4.052   6.839  0.3167  0.4244  0.5175
 9648SOL    HW130385   1.926   3.962   6.808  0.0686  0.0813  1.5938
 9648SOL    HW230386   2.036   4.063   6.836  0.2742  0.5989 -0.8639
 9649SOL     OW30387   2.134   4.658   5.674  1.0116 -0.0296 -0.0015
 9649SOL    HW130388   2.159   4.748   5.695  2.2970 -0.5201  0.7200
 9649SOL    HW230389   2.213   4.620   5.634  0.7115 -1.0203  0.3132
 9650SOL     OW30390   3.492   6.083   6.425  0.0234 -0.1457 -0.0168
 9650SOL    HW130391   3.409   6.064   6.469 -0.0033 -0.7027 -0.3042
 9650SOL    HW230392   3.466   6.121   6.341  0.0749  1.4522  0.6531
 9651SOL     OW30393   3.892   2.780   7.362 -0.1248 -0.0808  0.3965
 9651SOL    HW130394   3.967   2.831   7.392 -0.0679 -0.1457  0.3652
 9651SOL    HW230395   3.837   2.843   7.316  0.1162 -0.1180  0.0513
 9652SOL     OW30396   2.135   3.748   6.963  0.2847 -0.1511 -0.4150
 9652SOL    HW130397   2.204   3.694   7.003  0.1783  0.8086  1.1804
 9652SOL    HW230398   2.055   3.697   6.974  0.4858 -0.5441 -0.7568
 9653SOL     OW30399   4.519   5.273   6.058  0.2816 -0.0547  0.6591
 9653SOL    HW130400   4.452   5.260   5.991  0.4080  0.5418  0.4151
 9653SOL    HW230401   4.507   5.200   6.119 -1.7892  1.0019  1.6268
 9654SOL     OW30402   0.807   4.635   5.095  0.1108  0.1797 -0.0586
 9654SOL    HW130403   0.819   4.728   5.074  0.5444  0.1230 -0.0656
 9654SOL    HW230404   0.868   4.618   5.166  1.0354 -0.4236 -0.9679
 9655SOL     OW30405   2.511   6.071   7.730 -0.2136  0.4882  0.4541
 9655SOL    HW130406   2.516   6.099   7.638  0.0646  0.3462  0.4246
 9655SOL    HW230407   2.600   6.080   7.762 -0.1698 -0.1259  0.5122
 9656SOL     OW30408   2.704   4.182   6.317  0.2526  0.0670  0.2263
 9656SOL    HW130409   2.616   4.188   6.354 -0.2741  1.9574 -1.1487
 9656SOL    HW230410   2.706   4.098   6.272 -0.9856  0.1544 -0.0230
 9657SOL     OW30411   3.309   4.431   6.600 -0.3291 -0.0983  0.4107
 9657SOL    HW130412   3.360   4.350   6.606  0.2348 -0.0181 -2.1024
 9657SOL    HW230413   3.309   4.452   6.506 -2.1271  1.7629  0.7591
 9658SOL     OW30414   2.642   4.919   7.315  0.0092  0.2152 -0.5381
 9658SOL    HW130415   2.606   5.007   7.332 -1.4302 -0.0354 -1.9808
 9658SOL    HW230416   2.605   4.895   7.230  1.6461 -1.1628 -0.8973
 9659SOL     OW30417   3.673   4.398   6.082  0.0741 -0.0806 -0.2515
 9659SOL    HW130418   3.635   4.374   5.997 -1.1533  1.7546 -0.2982
 9659SOL    HW230419   3.598   4.425   6.135  1.0767  1.5730  0.4169
 9660SOL     OW30420   0.617   5.103   5.836  0.4127  0.6867 -0.0047
 9660SOL    HW130421   0.680   5.164   5.876  1.6543 -0.1677 -0.5948
 9660SOL    HW230422   0.577   5.058   5.910 -0.5030  2.1514  0.4437
 9661SOL     OW30423   5.053   6.983   8.200 -0.1078  0.1848  0.3582
 9661SOL    HW130424   5.088   6.927   8.270  0.6479  0.2792  0.0662
 9661SOL    HW230425   4.968   7.012   8.233  1.3918  2.5276  2.5723
 9662SOL     OW30426   1.300   3.496   6.137 -0.0003  0.5348 -0.3522
 9662SOL    HW130427   1.239   3.568   6.153 -0.5976 -0.1858  0.7243
 9662SOL    HW230428   1.260   3.445   6.066 -0.6396  0.0957  0.3141
 9663SOL     OW30429   1.327   4.748   7.638  0.0845 -0.0323 -0.3150
 9663SOL    HW130430   1.268   4.749   7.562  0.8279  0.1101 -0.9035
 9663SOL    HW230431   1.412   4.776   7.603  0.3885  0.2603  0.6170
 9664SOL     OW30432   1.933   5.935   8.144  0.0442 -0.2708  0.0173
 9664SOL    HW130433   1.855   5.970   8.101 -0.4155  1.3212  2.0088
 9664SOL    HW230434   1.993   6.009   8.150  1.5929 -1.3598 -1.0550
 9665SOL     OW30435   3.992   5.918   8.460 -0.0231 -0.1320  0.4068
 9665SOL    HW130436   3.908   5.873   8.473 -0.4164  0.0699 -1.1925
 9665SOL    HW230437   3.989   5.992   8.521 -1.3895  0.3440 -0.1866
 9666SOL     OW30438   1.498   5.199   9.204  0.5373 -0.3946 -0.0998
 9666SOL    HW130439   1.538   5.178   9.120 -0.7723 -1.1403 -0.5699
 9666SOL    HW230440   1.514   5.122   9.258  1.3411  0.0679  0.3324
 9667SOL     OW30441   2.141   4.184   7.669 -0.4910 -0.3912 -0.1369
 9667SOL    HW130442   2.045   4.175   7.667 -0.5067 -0.2092 -0.2550
 9667SOL    HW230443   2.162   4.227   7.586 -0.4122  0.5613  0.3653
 9668SOL     OW30444   3.348   5.352   9.148 -1.0469 -0.5374 -0.5855
 9668SOL    HW130445   3.316   5.390   9.066 -0.5854  0.1057 -0.4711
 9668SOL    HW230446   3.279   5.371   9.211 -0.1682  1.4918 -0.1707
 9669SOL     OW30447   1.042   3.250   8.743  0.0101 -0.2571 -0.6906
 9669SOL    HW130448   0.969   3.241   8.682 -2.1562  1.7363  1.4087
 9669SOL    HW230449   1.092   3.325   8.710 -1.3682  1.0557  0.0468
 9670SOL     OW30450   2.357   5.283   8.159 -0.5542  0.1747  0.4402
 9670SOL    HW130451   2.295   5.218   8.126 -0.3788  1.0804 -1.9055
 9670SOL    HW230452   2.317   5.367   8.139 -0.6592  0.8591  3.1962
 9671SOL     OW30453   2.490   4.596  10.765 -0.1473 -0.5128  0.4007
 9671SOL    HW130454   2.557   4.553  10.712  0.0476 -2.4505  2.1259
 9671SOL    HW230455   2.495   4.554  10.850 -3.3452 -0.5243  0.7087
 9672SOL     OW30456   1.323   4.641  10.556  0.3735 -0.1143  0.1948
 9672SOL    HW130457   1.291   4.636  10.466  1.1951 -1.5918 -0.0401
 9672SOL    HW230458   1.395   4.705  10.552  0.3852 -0.1490 -0.1884
 9673SOL     OW30459   3.762   5.754   8.478  0.0626  0.2005 -0.1130
 9673SOL    HW130460   3.669   5.744   8.499  0.3761 -2.1675  0.5007
 9673SOL    HW230461   3.772   5.709   8.394  0.1811  3.1067 -1.7787
 9674SOL     OW30462   1.731   3.615   8.658  0.1809  0.1352 -0.1256
 9674SOL    HW130463   1.701   3.682   8.718 -0.1928  0.1444 -0.3152
 9674SOL    HW230464   1.825   3.608   8.673  0.0312 -0.1116  0.6997
 9675SOL     OW30465   2.637   7.400   7.571  0.3967 -0.5352  0.2017
 9675SOL    HW130466   2.559   7.385   7.624  0.7662  1.4893  1.4165
 9675SOL    HW230467   2.629   7.338   7.499 -1.4477 -1.5663  1.2128
 9676SOL     OW30468   4.038   6.337   9.270 -0.0427 -0.1058  0.0415
 9676SOL    HW130469   4.095   6.329   9.347 -0.7460  0.4761  0.6393
 9676SOL    HW230470   3.981   6.411   9.290  0.2879  0.5672 -1.3985
 9677SOL     OW30471   3.217   4.957   7.839 -0.1435 -0.0043 -0.1208
 9677SOL    HW130472   3.145   5.011   7.872 -1.8409 -1.3035 -1.5221
 9677SOL    HW230473   3.277   4.948   7.913 -1.9487  0.2370  1.4344
 9678SOL     OW30474   2.803   5.732   6.996 -0.0536 -0.1550 -0.2326
 9678SOL    HW130475   2.789   5.794   6.924  2.9887  1.0596  0.1028
 9678SOL    HW230476   2.865   5.668   6.961  3.1325  1.5962  1.7330
 9679SOL     OW30477   2.768   7.283   8.204  0.6154 -0.1510  0.2393
 9679SOL    HW130478   2.750   7.376   8.193  1.3039  0.3205  2.5596
 9679SOL    HW230479   2.707   7.240   8.144 -0.6143  1.7427  0.0432
 9680SOL     OW30480   1.975   4.459   6.562 -0.2481 -0.1720  0.1787
 9680SOL    HW130481   1.915   4.386   6.575 -0.3704 -0.1857 -0.4586
 9680SOL    HW230482   2.010   4.446   6.474  2.1071 -1.2192  1.1716
 9681SOL     OW30483   1.873   4.987   4.193  0.2287 -0.3382  0.2562
 9681SOL    HW130484   1.815   5.060   4.214 -0.5702 -0.4138 -1.5141
 9681SOL    HW230485   1.865   4.927   4.267  0.5870  1.1582  1.5430
 9682SOL     OW30486   3.218   4.715   9.811  0.2682 -0.4792 -0.0888
 9682SOL    HW130487   3.158   4.705   9.738 -1.2034  2.4240  0.5801
 9682SOL    HW230488   3.227   4.810   9.823  1.1535 -0.8147  2.8969
 9683SOL     OW30489   4.122   5.956   7.661 -0.1716  0.1924 -0.4566
 9683SOL    HW130490   4.170   5.896   7.604  0.4774 -0.2090  0.4813
 9683SOL    HW230491   4.057   5.901   7.705  0.3446  0.1737  0.3160
 9684SOL     OW30492   1.196   4.211   6.830 -0.2984  0.5539 -0.3157
 9684SOL    HW130493   1.173   4.175   6.916  1.6075  0.2772  0.1101
 9684SOL    HW230494   1.180   4.139   6.769  1.5625 -0.4219  0.2777
 9685SOL     OW30495   1.770   5.487   7.868 -0.0778  0.4697  0.2090
 9685SOL    HW130496   1.838   5.460   7.806  0.2995 -0.1611  0.8800
 9685SOL    HW230497   1.818   5.522   7.943 -0.5453  2.2076 -0.2588
 9686SOL     OW30498   3.112   3.046   9.122  0.0161 -0.4635  0.1531
 9686SOL    HW130499   3.039   3.101   9.149 -0.0136 -0.4888  0.1246
 9686SOL    HW230500   3.184   3.107   9.106  0.6589 -0.5962  2.2289
 9687SOL     OW30501   2.648   4.395   6.811 -0.3693 -0.0609 -0.1226
 9687SOL    HW130502   2.728   4.444   6.790  0.2904 -1.4758 -1.0747
 9687SOL    HW230503   2.667   4.305   6.784 -1.7877 -0.7222  0.9379
 9688SOL     OW30504   1.920   5.186   7.748 -0.4440 -0.0388 -0.0614
 9688SOL    HW130505   1.939   5.280   7.740 -1.7654  0.2430 -0.1618
 9688SOL    HW230506   2.005   5.144   7.744  0.3529  1.2689  1.8274
 9689SOL     OW30507   3.030   4.333   8.654 -0.3536 -0.7827  0.0515
 9689SOL    HW130508   3.032   4.322   8.559 -0.4429  0.5388 -0.1100
 9689SOL    HW230509   3.064   4.250   8.688  2.2133 -0.3432 -1.2014
 9690SOL     OW30510   2.529   3.277   9.662 -0.5112 -0.4341  0.0150
 9690SOL    HW130511   2.592   3.248   9.595 -1.3561 -2.1284 -0.1006
 9690SOL    HW230512   2.583   3.318   9.729  0.5925 -0.6753 -0.6969
 9691SOL     OW30513   2.931   5.128   8.193 -0.6908 -0.5876  0.6088
 9691SOL    HW130514   2.882   5.189   8.248  0.3230  2.0929 -1.2240
 9691SOL    HW230515   3.014   5.114   8.239 -0.1214  1.0993  0.1746
 9692SOL     OW30516   3.814   6.352   8.435 -0.1380  0.3967 -0.3050
 9692SOL    HW130517   3.826   6.389   8.523  3.6004  0.6836 -0.7700
 9692SOL    HW230518   3.832   6.425   8.376 -1.9137  0.0242 -1.3620
 9693SOL     OW30519   1.565   4.125   6.925 -0.4240 -0.1548  0.0129
 9693SOL    HW130520   1.532   4.121   6.835  0.6833 -0.3619 -0.3982
 9693SOL    HW230521   1.633   4.192   6.923  0.8145 -1.3537  0.2675
 9694SOL     OW30522   2.736   3.756   8.364  0.1949  0.3408  0.0437
 9694SOL    HW130523   2.700   3.755   8.275 -2.4473  0.7808  1.0243
 9694SOL    HW230524   2.776   3.843   8.373 -1.9969  1.3900  0.1455
 9695SOL     OW30525   3.525   5.758   6.922  0.2973  0.3067 -0.1499
 9695SOL    HW130526   3.530   5.664   6.942 -0.6025  0.2929  0.0742
 9695SOL    HW230527   3.437   5.769   6.886  0.3243  1.1053  0.0242
 9696SOL     OW30528   2.873   3.532   6.968  0.1066  0.2139  0.9778
 9696SOL    HW130529   2.936   3.596   6.935  0.5167  0.4105  2.0965
 9696SOL    HW230530   2.874   3.545   7.062 -0.6576 -0.6740  1.1139
 9697SOL     OW30531   3.096   4.293   8.398  0.0838 -0.8041  0.1294
 9697SOL    HW130532   3.116   4.199   8.393  0.3946 -0.8428  1.5498
 9697SOL    HW230533   3.180   4.336   8.382  0.1555 -0.8086  0.4767
 9698SOL     OW30534   3.186   3.831   8.847  0.0462 -0.0127  0.2308
 9698SOL    HW130535   3.166   3.906   8.903 -0.9196 -1.7381  2.3237
 9698SOL    HW230536   3.110   3.773   8.856  0.8109 -1.3279 -1.2216
 9699SOL     OW30537   2.682   3.555   8.932  0.1660  0.2625  0.3765
 9699SOL    HW130538   2.622   3.517   8.867 -0.0264  2.2351 -0.6723
 9699SOL    HW230539   2.710   3.481   8.984 -1.3837 -1.0788 -0.5894
 9700SOL     OW30540   1.610   3.167  10.446  0.7561 -0.4279  0.0377
 9700SOL    HW130541   1.538   3.133  10.393  0.4897  0.4263 -0.1657
 9700SOL    HW230542   1.687   3.161  10.390  0.5206  0.2356 -0.3671
 9701SOL     OW30543   2.574   5.091   8.232  0.0130  0.2566 -0.1419
 9701SOL    HW130544   2.495   5.133   8.199 -0.4912 -2.1687 -2.3543
 9701SOL    HW230545   2.629   5.079   8.154  0.9299 -1.4007  0.7063
 9702SOL     OW30546   1.198   4.769   8.754  0.1663 -0.4474  0.2305
 9702SOL    HW130547   1.202   4.852   8.707  1.1424 -0.6020  0.0095
 9702SOL    HW230548   1.290   4.747   8.770 -0.0553 -1.7890 -0.2511
 9703SOL     OW30549   3.329   4.708   9.433 -0.1483  0.1246  0.5425
 9703SOL    HW130550   3.347   4.622   9.393  0.0630  1.4687 -2.5924
 9703SOL    HW230551   3.257   4.692   9.493 -2.4558 -1.7551 -2.4552
 9704SOL     OW30552   4.087   5.321   7.549  0.0179  0.2157  0.2117
 9704SOL    HW130553   4.022   5.349   7.613  0.4561 -0.8576  1.1854
 9704SOL    HW230554   4.037   5.297   7.471 -0.6905  0.0046  0.7253
 9705SOL     OW30555   1.594   4.244   7.364 -0.3073 -0.0024 -0.3211
 9705SOL    HW130556   1.684   4.235   7.332  0.1075 -0.1765  0.8787
 9705SOL    HW230557   1.580   4.168   7.420 -0.3440  1.2893  1.4899
 9706SOL     OW30558   2.035   4.863   9.640 -0.6258 -0.1746  0.1782
 9706SOL    HW130559   2.031   4.958   9.654 -1.4309  0.2275 -2.3193
 9706SOL    HW230560   2.128   4.844   9.627 -0.5508  0.4344 -0.2108
 9707SOL     OW30561   2.621   4.388   8.338 -0.0627 -0.5388  0.0379
 9707SOL    HW130562   2.696   4.330   8.322 -2.0262 -3.3505  0.3387
 9707SOL    HW230563   2.590   4.413   8.251  0.1561 -0.8209 -0.1208
 9708SOL     OW30564   3.330   6.029   8.282  0.1945  0.0967  0.0553
 9708SOL    HW130565   3.320   6.076   8.365 -2.5430  0.9552 -0.6372
 9708SOL    HW230566   3.371   6.093   8.223 -0.8180  0.6539 -0.0776
 9709SOL     OW30567   2.071   4.828   8.038  0.5415  0.5164  0.1638
 9709SOL    HW130568   2.017   4.801   7.964 -0.5918 -0.1156  1.1863
 9709SOL    HW230569   2.047   4.920   8.053  0.0621  0.3652  0.3370
 9710SOL     OW30570   3.332   5.519   8.192  0.8014  0.6351 -0.3748
 9710SOL    HW130571   3.257   5.579   8.186  0.0274 -0.3008 -0.3338
 9710SOL    HW230572   3.403   5.565   8.148  0.7843  2.4124  1.3298
 9711SOL     OW30573   2.153   6.874   9.725  0.2970  0.2576 -0.1421
 9711SOL    HW130574   2.171   6.942   9.660 -0.1916 -1.1414 -1.8205
 9711SOL    HW230575   2.061   6.888   9.750 -0.1412 -0.3737 -1.2924
 9712SOL     OW30576   2.390   4.582   7.903 -0.0886 -0.3422 -0.3448
 9712SOL    HW130577   2.380   4.490   7.882  1.3117 -0.3097 -1.2615
 9712SOL    HW230578   2.325   4.627   7.849 -1.1019 -0.8083  0.4589
 9713SOL     OW30579   2.193   4.023   9.655  0.0650  0.1175 -0.1496
 9713SOL    HW130580   2.191   3.938   9.699 -1.0695  0.2916  0.1658
 9713SOL    HW230581   2.124   4.017   9.588  2.5212 -0.5850 -2.8028
 9714SOL     OW30582   3.386   5.770   8.850 -0.1387  0.2986  0.0406
 9714SOL    HW130583   3.344   5.806   8.772 -2.4058 -1.0673  0.5625
 9714SOL    HW230584   3.431   5.845   8.889 -2.3322  1.9298 -0.4037
 9715SOL     OW30585   1.698   6.844   7.876  0.1446 -0.5412 -0.5976
 9715SOL    HW130586   1.606   6.853   7.848 -0.0145 -0.7373 -0.1430
 9715SOL    HW230587   1.728   6.935   7.884 -0.5567 -0.4048  0.9980
 9716SOL     OW30588   0.521   5.376  10.098 -0.3029  0.4100  0.4937
 9716SOL    HW130589   0.553   5.464  10.120  1.3910 -0.6094  2.4173
 9716SOL    HW230590   0.429   5.377  10.121 -0.1032  1.4359  1.3359
 9717SOL     OW30591   2.775   4.602   9.400  0.1719 -0.2648  0.2605
 9717SOL    HW130592   2.680   4.585   9.397  0.2038 -0.4324  0.1037
 9717SOL    HW230593   2.812   4.522   9.438  0.2316 -0.1180  0.5054
 9718SOL     OW30594   1.230   5.005   8.601  0.4236  0.5866 -0.9962
 9718SOL    HW130595   1.319   5.025   8.570  1.2645  0.0094  0.8922
 9718SOL    HW230596   1.187   5.090   8.604  0.6992  0.8125 -2.4723
 9719SOL     OW30597   2.253   3.893   6.345  0.1125 -0.1183 -0.2292
 9719SOL    HW130598   2.329   3.902   6.403  0.4252 -0.7085 -0.5290
 9719SOL    HW230599   2.203   3.821   6.383 -0.5315  0.5483  0.2102
 9720SOL     OW30600   2.678   5.825   9.645  0.3997 -0.0434  0.1206
 9720SOL    HW130601   2.773   5.821   9.656  0.4213  0.5881  0.1949
 9720SOL    HW230602   2.644   5.766   9.712  0.6607  1.3736  1.5769
 9721SOL     OW30603   3.612   5.061  10.099  0.1212 -0.3219  0.1117
 9721SOL    HW130604   3.551   5.107  10.157  0.0029 -0.6100  0.2170
 9721SOL    HW230605   3.574   5.069  10.012  1.7625  2.7038 -0.4721
 9722SOL     OW30606   2.265   4.807   9.965  0.0212  0.0883 -0.1140
 9722SOL    HW130607   2.170   4.799   9.957 -0.0139  0.5126 -0.1212
 9722SOL    HW230608   2.299   4.739   9.907 -0.2540  1.8461 -2.4888
 9723SOL     OW30609   1.397   4.271   8.355 -0.4147  0.0798 -0.3206
 9723SOL    HW130610   1.441   4.260   8.271 -1.1154 -0.8593 -0.5878
 9723SOL    HW230611   1.306   4.287   8.332 -0.3621  1.2457  0.2351
 9724SOL     OW30612   1.648   5.882   7.286  0.3377  0.5785 -0.3258
 9724SOL    HW130613   1.654   5.833   7.369  0.6284  1.6549  0.3065
 9724SOL    HW230614   1.633   5.972   7.313 -0.1370  0.8533 -1.4803
 9725SOL     OW30615   2.920   2.431   6.663  0.2903 -0.4626  0.2726
 9725SOL    HW130616   3.012   2.425   6.688  0.3821  0.9854  0.3658
 9725SOL    HW230617   2.888   2.340   6.666  2.3301 -1.3795 -2.2326
 9726SOL     OW30618   3.551   4.599   6.532 -0.2028 -0.2448 -0.4474
 9726SOL    HW130619   3.572   4.620   6.441  0.4939 -1.4402 -0.5812
 9726SOL    HW230620   3.620   4.641   6.583  0.7982 -1.5485 -0.6669
 9727SOL     OW30621   2.242   3.835  10.393  0.3567 -0.1995  0.3194
 9727SOL    HW130622   2.331   3.823  10.426  0.7112 -0.1633 -0.5931
 9727SOL    HW230623   2.221   3.926  10.415  1.0787  0.2242 -0.6728
 9728SOL     OW30624   3.582   5.600   8.956 -0.3235 -0.5839  0.1033
 9728SOL    HW130625   3.508   5.649   8.994  0.7793  0.7511  0.6304
 9728SOL    HW230626   3.660   5.643   8.992  0.7224 -2.3517  0.0674
 9729SOL     OW30627   3.153   4.099   8.693 -0.0150  0.6229 -0.4265
 9729SOL    HW130628   3.157   4.080   8.599  0.5937  0.1865 -0.3215
 9729SOL    HW230629   3.245   4.105   8.720 -0.1799  0.5761  0.1709
 9730SOL     OW30630   3.598   6.828   8.587 -0.5645 -0.1801  0.2673
 9730SOL    HW130631   3.534   6.757   8.582 -0.8292  0.0284  0.5940
 9730SOL    HW230632   3.626   6.828   8.678 -0.3750 -0.0272  0.2091
 9731SOL     OW30633   1.566   5.305   7.843 -0.0881  0.4651  0.1071
 9731SOL    HW130634   1.640   5.365   7.845  2.1847 -2.1429  0.0660
 9731SOL    HW230635   1.604   5.220   7.865 -2.9209 -1.1707 -0.8873
 9732SOL     OW30636   2.060   3.637   8.062 -0.5130 -0.3532  0.5711
 9732SOL    HW130637   2.153   3.646   8.079 -0.4058 -2.0006  1.0142
 9732SOL    HW230638   2.047   3.544   8.043 -2.0585 -0.1563  0.4725
 9733SOL     OW30639   3.063   4.838   7.459  0.6308  0.5400 -0.0827
 9733SOL    HW130640   3.052   4.855   7.366 -0.1200 -2.0653 -0.5548
 9733SOL    HW230641   3.149   4.797   7.466 -0.0852 -1.0014  0.0456
 9734SOL     OW30642   2.600   4.173   9.445 -0.5554 -0.3568  0.2953
 9734SOL    HW130643   2.690   4.168   9.478 -0.9153  0.1817  1.3964
 9734SOL    HW230644   2.610   4.173   9.349  0.7816  1.7068  0.3520
 9735SOL     OW30645   1.893   5.956   8.477  0.2172  0.7179  0.2278
 9735SOL    HW130646   1.829   6.020   8.448 -0.9005  0.7937  2.5920
 9735SOL    HW230647   1.870   5.938   8.568 -0.2127 -3.8752 -0.5193
 9736SOL     OW30648   2.849   4.433   8.046  0.6224  0.0859 -0.1696
 9736SOL    HW130649   2.815   4.461   7.961 -1.0311 -0.0423  0.4064
 9736SOL    HW230650   2.879   4.514   8.088  2.0439  0.0654 -1.1005
 9737SOL     OW30651   0.195   4.316   7.611 -0.3081  0.2846  0.0954
 9737SOL    HW130652   0.156   4.403   7.597  0.7503  1.3641  3.0536
 9737SOL    HW230653   0.282   4.334   7.647  0.5348 -2.0568 -0.6002
 9738SOL     OW30654   4.371   6.402   6.661 -0.1979  0.2842  0.1263
 9738SOL    HW130655   4.299   6.407   6.724 -0.1137  1.1024  0.1659
 9738SOL    HW230656   4.333   6.361   6.584 -0.9162  1.4155 -0.1374
 9739SOL     OW30657   1.856   5.081   7.137  0.2753  0.5657 -0.4565
 9739SOL    HW130658   1.793   5.064   7.066 -1.3594  0.6946  0.9033
 9739SOL    HW230659   1.939   5.048   7.103 -0.2387  1.4814 -2.7963
 9740SOL     OW30660   1.571   4.746   8.052 -0.8511  0.2597 -0.0308
 9740SOL    HW130661   1.553   4.762   8.145 -1.5682 -1.9973  0.2855
 9740SOL    HW230662   1.506   4.798   8.006 -1.2039  0.5459  0.7707
 9741SOL     OW30663   3.748   6.427   9.209 -0.1194  0.2287  0.5032
 9741SOL    HW130664   3.675   6.488   9.201 -0.7837 -0.7555 -1.5026
 9741SOL    HW230665   3.789   6.449   9.293 -0.9584  2.7080  0.3295
 9742SOL     OW30666   2.691   6.223   8.082  0.2098 -0.1742 -0.0095
 9742SOL    HW130667   2.608   6.199   8.041 -0.1434  1.9682 -0.6510
 9742SOL    HW230668   2.754   6.223   8.010  0.6476 -1.0867  0.3515
 9743SOL     OW30669   0.656   3.026   8.595  0.2797  0.1279 -0.0363
 9743SOL    HW130670   0.565   2.995   8.588  0.7387 -1.5787  0.9716
 9743SOL    HW230671   0.705   2.973   8.533  0.9165 -0.4357  0.9224
 9744SOL     OW30672   2.520   3.808   9.146 -0.2706 -0.0532 -0.0918
 9744SOL    HW130673   2.520   3.830   9.239 -0.0937 -0.2902 -0.0326
 9744SOL    HW230674   2.434   3.770   9.129 -0.1791 -0.3294  0.0553
 9745SOL     OW30675   1.732   5.584   8.762 -0.0613  0.2277  0.0150
 9745SOL    HW130676   1.817   5.624   8.748 -0.7217  2.6340  2.2304
 9745SOL    HW230677   1.679   5.614   8.688  0.7979 -0.8906 -1.1091
 9746SOL     OW30678   2.516   6.116   7.452 -0.3128 -0.4845  0.0710
 9746SOL    HW130679   2.461   6.171   7.396 -1.2571 -0.1533  1.2943
 9746SOL    HW230680   2.606   6.136   7.425 -0.7468 -1.5395 -2.4350
 9747SOL     OW30681   2.836   3.855   7.710  0.0250  0.2045 -0.2206
 9747SOL    HW130682   2.881   3.850   7.626  0.1788  1.6937 -0.2411
 9747SOL    HW230683   2.896   3.815   7.772 -0.2953 -1.3774 -0.8574
 9748SOL     OW30684   1.204   5.399   8.379  0.4269 -0.2189 -0.3657
 9748SOL    HW130685   1.185   5.492   8.390 -0.5916 -0.4002 -0.5544
 9748SOL    HW230686   1.165   5.377   8.294 -1.5085 -1.3707  0.7596
 9749SOL     OW30687   1.071   4.045   7.740  0.0264  0.5212 -0.0997
 9749SOL    HW130688   1.073   3.963   7.690 -0.3835  1.1676 -1.2222
 9749SOL    HW230689   1.129   4.029   7.815  1.5171 -0.1541 -1.3336
 9750SOL     OW30690   2.163   6.188   8.529 -0.3935  0.0689 -0.0491
 9750SOL    HW130691   2.092   6.134   8.563  0.7515 -0.7147  1.1862
 9750SOL    HW230692   2.210   6.131   8.468  0.9375 -0.4675  1.4100
 9751SOL     OW30693   1.465   4.669   8.798 -0.0881  0.2934 -0.5415
 9751SOL    HW130694   1.514   4.611   8.856 -0.7140  0.7415  0.4659
 9751SOL    HW230695   1.489   4.641   8.710  3.4188  1.6653 -0.1800
 9752SOL     OW30696   2.394   5.474   8.605 -0.6696 -0.4297 -0.3202
 9752SOL    HW130697   2.410   5.492   8.512 -0.1838  0.8410 -0.0152
 9752SOL    HW230698   2.299   5.466   8.612 -0.7268 -0.3011 -0.8946
 9753SOL     OW30699   2.690   5.493   8.120 -0.3111  0.1582 -0.3122
 9753SOL    HW130700   2.717   5.422   8.061  1.9572 -0.3198  1.1825
 9753SOL    HW230701   2.608   5.525   8.082 -0.4362 -1.9906 -2.1018
 9754SOL     OW30702   2.703   4.975  11.352 -0.3940 -0.0671 -0.3840
 9754SOL    HW130703   2.759   5.040  11.393  0.2520 -0.9490  0.1758
 9754SOL    HW230704   2.678   4.916  11.423 -1.5113 -0.0626 -0.7537
 9755SOL     OW30705   2.806   2.934   9.896 -0.0575 -0.0276 -0.1461
 9755SOL    HW130706   2.890   2.899   9.925 -0.3992 -1.0420 -0.3202
 9755SOL    HW230707   2.823   2.967   9.808 -0.3614 -2.5443 -1.2308
 9756SOL     OW30708   2.074   3.635   8.399 -0.4490  0.2149  0.0047
 9756SOL    HW130709   1.997   3.666   8.351  1.2595  2.8240 -1.2566
 9756SOL    HW230710   2.149   3.661   8.344  1.4998  0.9264  2.7748
 9757SOL     OW30711   4.419   5.901   8.069 -0.3791  0.0006  0.2685
 9757SOL    HW130712   4.412   5.808   8.045  1.9105  0.0132 -0.6580
 9757SOL    HW230713   4.359   5.946   8.010 -0.3019 -0.7411 -0.3915
 9758SOL     OW30714   2.926   3.999   8.901  0.6305 -0.7815 -0.3381
 9758SOL    HW130715   3.002   3.976   8.847  0.3399 -1.7680 -0.3518
 9758SOL    HW230716   2.852   3.993   8.842  0.4029 -1.0597 -0.0307
 9759SOL     OW30717   2.606   3.763   8.626 -0.0967 -0.0434  0.4136
 9759SOL    HW130718   2.521   3.748   8.668 -0.1847  0.9982  0.6362
 9759SOL    HW230719   2.592   3.737   8.535 -0.4764 -0.4633  0.5875
 9760SOL     OW30720   3.517   5.178   9.041 -0.1175 -0.0082 -0.1007
 9760SOL    HW130721   3.445   5.227   9.081 -1.0044 -0.0566 -1.5388
 9760SOL    HW230722   3.500   5.087   9.063  0.0151  0.0622  0.3043
 9761SOL     OW30723   2.603   3.135   8.026  0.5035  0.0576 -0.0948
 9761SOL    HW130724   2.637   3.176   7.947 -0.5821  1.1665 -0.0201
 9761SOL    HW230725   2.594   3.207   8.089  0.4869 -0.6485  0.7390
 9762SOL     OW30726   3.693   4.975   9.771 -0.2718  0.1414 -0.9446
 9762SOL    HW130727   3.619   5.033   9.754 -1.2459 -0.9712 -0.5752
 9762SOL    HW230728   3.678   4.899   9.714 -1.9046 -2.1846  2.2614
 9763SOL     OW30729   2.330   4.154   9.864 -0.2073 -0.2090 -0.0279
 9763SOL    HW130730   2.270   4.111   9.803 -1.0138  0.8459 -0.0153
 9763SOL    HW230731   2.300   4.125   9.951  1.0703 -1.8763 -0.0830
 9764SOL     OW30732   2.760   5.326   7.932  0.4553 -0.6430  0.1286
 9764SOL    HW130733   2.845   5.354   7.896  1.6980 -2.1043  1.7502
 9764SOL    HW230734   2.747   5.238   7.897 -1.7881  0.4776 -2.2390
 9765SOL     OW30735   1.144   3.202  10.037  0.5695 -0.5326 -0.4726
 9765SOL    HW130736   1.111   3.122  10.078  0.5661  0.3807  1.4631
 9765SOL    HW230737   1.234   3.209  10.069  0.1458  0.8942  0.5005
 9766SOL     OW30738   4.835   5.150  10.606 -0.2140  0.2132  0.1402
 9766SOL    HW130739   4.868   5.102  10.530 -0.2703 -0.2035  0.3769
 9766SOL    HW230740   4.846   5.242  10.582  0.0005  0.0850 -0.2720
 9767SOL     OW30741   0.135   4.403   6.833 -0.1855  0.5948 -0.1188
 9767SOL    HW130742   0.113   4.410   6.926  2.2349  0.0054  0.5647
 9767SOL    HW230743   0.088   4.325   6.803 -0.6160  0.5123  0.7416
 9768SOL     OW30744   4.056   3.671   7.860  0.1191  0.1498  0.2583
 9768SOL    HW130745   3.978   3.725   7.850  0.6348  0.9509  0.5182
 9768SOL    HW230746   4.041   3.597   7.801 -0.7402  0.3950  0.1507
 9769SOL     OW30747   2.813   4.254   8.967 -0.0442 -0.4057  0.0351
 9769SOL    HW130748   2.860   4.171   8.962  0.4149 -0.3027  2.0494
 9769SOL    HW230749   2.834   4.299   8.885 -0.0253 -2.1149 -0.9321
 9770SOL     OW30750   1.719   5.056   8.515  0.3089  0.2137  0.1254
 9770SOL    HW130751   1.730   5.056   8.420  1.5658 -0.0470  0.2517
 9770SOL    HW230752   1.708   4.964   8.539  0.3179  0.2474  0.2649
 9771SOL     OW30753   2.609   3.623   9.584 -0.3798  0.3384 -0.0010
 9771SOL    HW130754   2.663   3.567   9.529 -2.5818 -1.6981 -0.2455
 9771SOL    HW230755   2.669   3.658   9.649  1.5503 -0.2980 -1.3667
 9772SOL     OW30756   2.028   4.226   8.040 -0.0992  0.2487 -0.1426
 9772SOL    HW130757   1.957   4.217   8.105  0.1310 -0.8231 -0.0353
 9772SOL    HW230758   2.108   4.219   8.092  0.0878  0.0995 -0.4537
 9773SOL     OW30759   1.331   6.785   5.927 -0.1365 -0.0903 -0.4203
 9773SOL    HW130760   1.386   6.727   5.874  0.1221  1.9886 -2.5925
 9773SOL    HW230761   1.393   6.834   5.980 -0.1571 -0.0385 -0.4441
 9774SOL     OW30762   2.651   6.510   7.391 -0.2107  0.1858  0.1931
 9774SOL    HW130763   2.639   6.533   7.299  1.7567 -2.4054 -0.8401
 9774SOL    HW230764   2.634   6.416   7.394 -0.1376  0.2004  2.4768
 9775SOL     OW30765   3.025   4.320   9.725  0.3069  0.1403  0.2855
 9775SOL    HW130766   2.963   4.275   9.667  0.1611  0.1921  0.4033
 9775SOL    HW230767   2.972   4.380   9.776  0.5132  0.5100  0.0708
 9776SOL     OW30768   3.993   5.276   8.412 -0.3971  0.7295 -0.5171
 9776SOL    HW130769   4.061   5.222   8.451 -0.4039  0.8371 -0.3571
 9776SOL    HW230770   3.976   5.344   8.476 -0.3935  0.9204 -0.7170
 9777SOL     OW30771   2.271   6.090   8.298 -0.4930  0.3771  0.0460
 9777SOL    HW130772   2.355   6.079   8.254 -0.5552 -0.8980  0.2151
 9777SOL    HW230773   2.207   6.094   8.226 -0.3976  0.2576 -0.0456
 9778SOL     OW30774   1.670   4.796   7.607 -0.8693 -0.4645  0.4190
 9778SOL    HW130775   1.738   4.832   7.549 -0.5585 -0.4697  0.7769
 9778SOL    HW230776   1.636   4.720   7.559 -0.1451 -0.8704  0.5335
 9779SOL     OW30777   2.294   4.744   8.521  0.0789  0.1476  0.1558
 9779SOL    HW130778   2.219   4.725   8.464 -0.1543  1.7478 -0.1125
 9779SOL    HW230779   2.356   4.789   8.465  1.1869 -0.9659  0.4401
 9780SOL     OW30780   1.129   5.303  10.450  0.1940  0.0664  0.2779
 9780SOL    HW130781   1.198   5.335  10.392  0.7014  0.6515  1.1905
 9780SOL    HW230782   1.092   5.382  10.489  0.5137 -0.3652  1.4936
 9781SOL     OW30783   1.508   4.210   8.598  0.1762 -0.1546  0.2557
 9781SOL    HW130784   1.470   4.236   8.682  1.6647  2.6819  0.1746
 9781SOL    HW230785   1.454   4.254   8.533  0.3237 -0.5922 -0.1679
 9782SOL     OW30786   1.514   5.295   9.871  0.6693  0.1070  0.2939
 9782SOL    HW130787   1.561   5.315   9.790  1.3305 -0.1845  0.5960
 9782SOL    HW230788   1.451   5.366   9.881  0.0997 -0.2182 -0.8327
 9783SOL     OW30789   0.795   3.553   8.129  0.3902 -1.1280 -0.5909
 9783SOL    HW130790   0.808   3.468   8.087  0.5344 -0.7777 -1.2728
 9783SOL    HW230791   0.827   3.617   8.065  1.4282 -0.6254  0.3982
 9784SOL     OW30792   2.986   6.034   9.450  0.3435 -0.1282  0.1376
 9784SOL    HW130793   2.955   6.087   9.523  0.2064  0.4989 -0.3704
 9784SOL    HW230794   3.061   5.986   9.486  1.9121  2.0888  0.0376
 9785SOL     OW30795   1.920   4.109   9.194 -0.2168 -0.1410  0.4029
 9785SOL    HW130796   1.839   4.147   9.228 -0.7817 -1.6761  0.8363
 9785SOL    HW230797   1.930   4.149   9.108  0.0127  2.0740  1.3814
 9786SOL     OW30798   3.810   5.306   9.122  0.4899 -0.2096 -0.4468
 9786SOL    HW130799   3.863   5.352   9.057 -0.0341 -0.1267 -0.8205
 9786SOL    HW230800   3.861   5.312   9.203  0.1724  1.5926 -0.3317
 9787SOL     OW30801   0.555   4.285   9.005  0.6081 -0.2638  0.0228
 9787SOL    HW130802   0.528   4.287   8.914  1.3440 -0.3964 -0.1986
 9787SOL    HW230803   0.644   4.249   9.004  0.3000 -1.0829  0.8683
 9788SOL     OW30804   6.753   5.024   7.813  0.8313  0.7262 -0.2194
 9788SOL    HW130805   6.792   5.042   7.728  1.6396 -0.6147 -0.1521
 9788SOL    HW230806   6.820   4.975   7.861 -0.2813 -0.0933  0.5498
 9789SOL     OW30807   2.626   4.462   9.643  0.1926  0.7406 -0.1927
 9789SOL    HW130808   2.716   4.438   9.621 -0.2778 -0.0979 -1.2812
 9789SOL    HW230809   2.596   4.391   9.700 -0.9604 -1.0581 -2.8331
 9790SOL     OW30810   3.744   3.640   7.929 -0.4125  0.1339  0.2263
 9790SOL    HW130811   3.653   3.651   7.903 -0.5395  0.1047  0.6432
 9790SOL    HW230812   3.766   3.720   7.977 -0.7249 -0.5262  1.5332
 9791SOL     OW30813   2.955   5.814   7.728  0.6535  0.1635 -0.1632
 9791SOL    HW130814   2.884   5.769   7.681  0.1049  0.0226  0.7773
 9791SOL    HW230815   2.969   5.894   7.677 -0.2660  0.2516 -0.3080
 9792SOL     OW30816   1.093   6.291   7.822 -0.5338 -0.5423 -0.0828
 9792SOL    HW130817   1.172   6.343   7.801  0.3350 -1.7170  0.2004
 9792SOL    HW230818   1.124   6.201   7.825 -2.0884 -1.1396 -0.8754
 9793SOL     OW30819   2.299   3.373   8.071  0.4085  0.0597  0.0604
 9793SOL    HW130820   2.384   3.347   8.108  1.8984  0.3666 -2.8201
 9793SOL    HW230821   2.305   3.469   8.063 -1.2806  0.3960  2.0958
 9794SOL     OW30822   2.752   5.160   7.706 -0.0609  0.0050 -0.1140
 9794SOL    HW130823   2.805   5.127   7.634 -0.4571  0.8520 -0.8071
 9794SOL    HW230824   2.756   5.255   7.698  0.5758  0.1406  1.4939
 9795SOL     OW30825   1.877   4.591   6.259 -0.4925  0.2619  0.1772
 9795SOL    HW130826   1.938   4.519   6.277 -1.4468 -0.8453 -0.8638
 9795SOL    HW230827   1.863   4.588   6.165 -0.7231  1.6933  0.1495
 9796SOL     OW30828   3.979   5.195   7.959  0.2833  0.9338 -0.2260
 9796SOL    HW130829   3.890   5.194   7.924  0.0401 -0.6273  0.3804
 9796SOL    HW230830   4.020   5.117   7.923  0.7744  0.5794  1.0533
 9797SOL     OW30831   0.487   5.546   8.230  0.1194  0.0972 -0.1780
 9797SOL    HW130832   0.431   5.488   8.282  1.7937  0.3502  2.0449
 9797SOL    HW230833   0.499   5.624   8.284  0.3137  1.2834 -1.8456
 9798SOL     OW30834   3.347   4.998   8.071 -0.1197 -0.1007  0.0261
 9798SOL    HW130835   3.313   5.074   8.118 -0.1844  0.1475 -0.4179
 9798SOL    HW230836   3.371   4.936   8.140 -1.1314 -0.1386  0.3645
 9799SOL     OW30837   2.605   3.872   9.856 -0.5694  0.0447  0.3696
 9799SOL    HW130838   2.664   3.946   9.871  2.4825 -2.0602 -0.3030
 9799SOL    HW230839   2.563   3.891   9.773 -0.4993  1.4180  0.6274
 9800SOL     OW30840   3.327   4.453   8.377  0.0968 -0.1421 -0.3947
 9800SOL    HW130841   3.370   4.489   8.299 -0.1378  0.4170 -0.2649
 9800SOL    HW230842   3.392   4.460   8.446  0.2165 -0.4045 -0.4807
 9801SOL     OW30843   2.430   5.297   7.852  0.4709  0.2825  0.9224
 9801SOL    HW130844   2.389   5.247   7.922  1.2044 -3.5219 -1.1043
 9801SOL    HW230845   2.524   5.287   7.867  0.6896 -2.0814 -1.3479
 9802SOL     OW30846   1.015   4.221   9.632 -0.0286 -0.5381  0.4030
 9802SOL    HW130847   1.065   4.208   9.713  0.3659 -0.1812  0.2242
 9802SOL    HW230848   1.052   4.301   9.595 -0.7524 -0.2538  0.2756
 9803SOL     OW30849   3.171   4.632   8.582  0.2766 -0.2099 -0.2261
 9803SOL    HW130850   3.213   4.651   8.498  0.2099  1.2984  0.0615
 9803SOL    HW230851   3.241   4.642   8.647  0.1026 -0.4032 -0.0079
 9804SOL     OW30852   3.668   4.935   7.827  0.3138  0.0562 -0.1099
 9804SOL    HW130853   3.740   4.906   7.771  1.5146  1.4909  0.6375
 9804SOL    HW230854   3.593   4.884   7.797  1.0679  0.2550 -2.5582
 9805SOL     OW30855   0.772   4.091   9.379 -0.3236  0.3290  0.1723
 9805SOL    HW130856   0.688   4.125   9.348 -0.1501  0.9422  0.3548
 9805SOL    HW230857   0.755   4.000   9.401 -0.8904  0.3931  0.0134
 9806SOL     OW30858   3.262   4.679  10.276 -0.3585 -0.1939 -0.5928
 9806SOL    HW130859   3.193   4.626  10.316 -0.3487 -1.3708 -2.0382
 9806SOL    HW230860   3.216   4.753  10.238 -0.6023 -0.0644 -0.0528
 9807SOL     OW30861   1.389   7.196   5.647  0.4355  0.1475  1.1152
 9807SOL    HW130862   1.378   7.110   5.605  0.0646  0.1011  1.2979
 9807SOL    HW230863   1.392   7.176   5.741  0.5109  0.3192  1.1497
 9808SOL     OW30864   1.245   4.573   9.149 -0.0524  0.1589 -0.1655
 9808SOL    HW130865   1.247   4.519   9.070  1.8175  0.8229 -0.6007
 9808SOL    HW230866   1.286   4.655   9.124 -0.3388  0.7653  1.2466
 9809SOL     OW30867   3.578   3.464  10.745  0.2713 -0.8539 -0.2521
 9809SOL    HW130868   3.543   3.518  10.815  1.3727  1.0892 -1.1362
 9809SOL    HW230869   3.513   3.395  10.734 -1.2511  0.3326  0.8450
 9810SOL     OW30870   1.944   3.838   7.744  0.8684  0.1214 -0.1654
 9810SOL    HW130871   1.954   3.855   7.838  0.1749 -1.8691  0.3236
 9810SOL    HW230872   2.026   3.794   7.719  0.8656  0.2434 -0.3869
 9811SOL     OW30873   3.478   5.184   7.893 -0.5826  0.2735 -0.7996
 9811SOL    HW130874   3.481   5.101   7.941  1.1452 -0.0113 -1.3305
 9811SOL    HW230875   3.415   5.169   7.823 -1.3657 -0.0941 -0.0295
 9812SOL     OW30876   1.701   6.323   7.232  0.0738  0.1748  0.1337
 9812SOL    HW130877   1.645   6.308   7.309  1.6079  2.7506  1.8810
 9812SOL    HW230878   1.790   6.322   7.266  0.8674  0.4987 -1.7926
 9813SOL     OW30879   3.275   3.267   9.035 -0.1179  0.4306 -0.2926
 9813SOL    HW130880   3.354   3.231   8.996  0.9203  0.1677  1.8959
 9813SOL    HW230881   3.279   3.360   9.017  0.9966  0.5024  0.2385
 9814SOL     OW30882   1.947   3.963   7.984  0.5172 -0.3409 -0.1677
 9814SOL    HW130883   2.008   3.911   8.037 -0.1448 -1.5841 -0.5892
 9814SOL    HW230884   1.995   4.043   7.965  1.1321 -0.2651  1.5082
 9815SOL     OW30885   2.287   4.249   8.136  0.3416 -0.2298 -0.1054
 9815SOL    HW130886   2.329   4.170   8.170 -0.7751 -1.1291 -0.7686
 9815SOL    HW230887   2.360   4.310   8.121  1.4632 -1.8079 -1.4088
 9816SOL     OW30888   3.062   4.547  10.409 -0.6001 -0.3159  0.2270
 9816SOL    HW130889   2.987   4.557  10.351 -0.8449 -1.1598  0.3823
 9816SOL    HW230890   3.039   4.474  10.466  1.8272 -3.2083 -2.1804
 9817SOL     OW30891   1.041   4.382   8.689  0.2822  0.1350 -0.1605
 9817SOL    HW130892   0.964   4.402   8.743  0.3545  0.1205 -0.0525
 9817SOL    HW230893   1.043   4.452   8.623  0.9864  0.9482  0.6899
 9818SOL     OW30894   1.667   5.011   6.951  0.1226 -0.7254 -0.1310
 9818SOL    HW130895   1.613   5.067   7.006  0.9734 -0.4558  0.4530
 9818SOL    HW230896   1.611   4.987   6.877 -0.0334  1.5552 -0.8340
 9819SOL     OW30897   2.857   4.380   9.486  0.1129 -0.6019 -0.6823
 9819SOL    HW130898   2.934   4.390   9.431  1.4363 -1.5619  0.8859
 9819SOL    HW230899   2.845   4.285   9.494  0.3094 -0.5145  1.0712
 9820SOL     OW30900   2.111   3.742   9.750 -0.4158 -0.6889  0.1667
 9820SOL    HW130901   2.188   3.685   9.752  1.8750  2.1597 -0.4084
 9820SOL    HW230902   2.088   3.747   9.657  0.9807  1.1952 -0.1220
 9821SOL     OW30903   1.123   5.373   7.821  0.0542 -0.0256  0.0546
 9821SOL    HW130904   1.138   5.467   7.816  1.6217 -0.3121 -1.6416
 9821SOL    HW230905   1.038   5.360   7.778  0.4603  0.4920 -0.9242
 9822SOL     OW30906   3.743   6.996   9.632 -0.0240  0.2875 -0.1188
 9822SOL    HW130907   3.785   6.922   9.589 -0.1685 -0.4134  0.9197
 9822SOL    HW230908   3.691   6.957   9.702  0.2353  1.4076  0.7172
 9823SOL     OW30909   2.558   4.671   8.596 -0.1390  0.3773 -0.1087
 9823SOL    HW130910   2.465   4.680   8.575 -0.4157  0.0794  0.9255
 9823SOL    HW230911   2.603   4.713   8.523 -1.0947  0.7847 -0.4834
 9824SOL     OW30912   1.985   5.427   8.517 -0.1186  0.4191  0.4752
 9824SOL    HW130913   2.028   5.443   8.601 -0.6449 -0.7062  0.9754
 9824SOL    HW230914   1.911   5.370   8.538 -0.1077 -0.0883 -0.7858
 9825SOL     OW30915   2.224   4.350   7.486  0.3585  0.1103 -0.4306
 9825SOL    HW130916   2.216   4.365   7.391  2.8458  0.7068 -0.6029
 9825SOL    HW230917   2.310   4.384   7.509  0.7938 -2.1172  1.6496
 9826SOL     OW30918   1.504   5.580   8.409 -0.2694  0.7651  0.6082
 9826SOL    HW130919   1.529   5.510   8.469  1.8768  1.4297  0.5923
 9826SOL    HW230920   1.544   5.659   8.447 -1.3814  1.7376 -0.1508
 9827SOL     OW30921   2.411   5.298   9.754 -0.1178 -0.0721  0.6848
 9827SOL    HW130922   2.349   5.331   9.819 -0.6152 -1.1867  0.7968
 9827SOL    HW230923   2.416   5.367   9.688 -2.3533 -0.4038  0.1001
 9828SOL     OW30924   2.853   3.381   9.064  0.4563 -0.5612 -0.4680
 9828SOL    HW130925   2.933   3.369   9.012  0.1750 -0.8736 -0.8369
 9828SOL    HW230926   2.859   3.470   9.097  1.7794 -1.1279  0.9098
 9829SOL     OW30927   2.851   5.714   8.344 -0.5189 -0.0011  0.9210
 9829SOL    HW130928   2.849   5.809   8.332 -0.1107  0.1184  1.7769
 9829SOL    HW230929   2.940   5.689   8.320 -0.6291 -0.1766  0.6878
 9830SOL     OW30930   3.183   4.054   8.402 -0.2628 -0.2657  0.1876
 9830SOL    HW130931   3.277   4.039   8.414 -0.0296  0.6528 -0.4118
 9830SOL    HW230932   3.155   3.984   8.343 -0.1839 -1.1741  1.2025
 9831SOL     OW30933   7.960   3.530   8.486  0.7189 -0.0435  0.3082
 9831SOL    HW130934   7.880   3.478   8.499  0.4480  0.3440  0.2165
 9831SOL    HW230935   7.939   3.615   8.525  0.2815  0.7983 -1.6737
 9832SOL     OW30936   2.494   3.726  10.382 -0.0464 -0.1229 -0.1488
 9832SOL    HW130937   2.520   3.753  10.294  2.1462  0.1426  0.5305
 9832SOL    HW230938   2.500   3.630  10.380 -0.8888 -0.1801 -0.5171
 9833SOL     OW30939   4.037   4.008   6.997  0.0825 -0.0841 -0.3935
 9833SOL    HW130940   4.014   4.062   6.921  1.7947  1.4741  0.1075
 9833SOL    HW230941   4.095   3.941   6.962 -0.6713 -0.5587 -0.7505
 9834SOL     OW30942   2.304   5.829   8.052  0.5833  0.1125 -0.2006
 9834SOL    HW130943   2.214   5.812   8.024  1.1106 -1.2155 -1.1523
 9834SOL    HW230944   2.303   5.814   8.147 -0.0741 -0.4690 -0.2922
 9835SOL     OW30945   1.503   5.865   9.404 -0.1139 -0.1248 -0.1931
 9835SOL    HW130946   1.532   5.857   9.313 -0.9697  0.7825 -0.5643
 9835SOL    HW230947   1.453   5.947   9.406  0.2022  0.0600  1.1782
 9836SOL     OW30948   1.322   4.231  10.027  0.4805  0.1294 -0.0635
 9836SOL    HW130949   1.331   4.136  10.023  0.0737  0.1222 -1.4203
 9836SOL    HW230950   1.343   4.254  10.118  0.0492 -1.2985  0.4166
 9837SOL     OW30951   2.330   3.314  12.308  0.6144 -0.3898  0.4203
 9837SOL    HW130952   2.313   3.330  12.400  0.1817 -1.8485  0.6180
 9837SOL    HW230953   2.303   3.224  12.293  1.6493 -0.5290 -0.8994
 9838SOL     OW30954   3.957   2.777   9.700  0.3555  0.2623  0.3643
 9838SOL    HW130955   3.999   2.691   9.691  0.5357  0.4630 -0.8214
 9838SOL    HW230956   4.030   2.839   9.700  0.1507  0.5077 -0.1852
 9839SOL     OW30957   1.331   4.300   9.757 -0.0389  0.1356 -0.4987
 9839SOL    HW130958   1.390   4.225   9.749 -1.4122 -0.9621 -0.6974
 9839SOL    HW230959   1.310   4.305   9.850 -0.2862 -0.0092 -0.5450
 9840SOL     OW30960   2.896   4.610  10.195 -0.3155 -0.2677 -0.5319
 9840SOL    HW130961   2.823   4.663  10.228 -2.2333 -1.5728 -2.4692
 9840SOL    HW230962   2.930   4.659  10.120 -0.1899 -0.3882 -0.5543
 9841SOL     OW30963   3.069   4.167   9.949  0.2456  0.2497  0.4896
 9841SOL    HW130964   3.164   4.156   9.955  0.5608  2.5455  0.6415
 9841SOL    HW230965   3.058   4.241   9.889 -1.5790 -1.4728 -1.4378
 9842SOL     OW30966   3.933   4.812   9.069  0.0220  0.3773  0.2470
 9842SOL    HW130967   3.841   4.789   9.057  0.4041 -0.2490 -1.9215
 9842SOL    HW230968   3.939   4.903   9.041  0.1366  0.2959  0.0092
 9843SOL     OW30969   2.798   6.684   9.269  0.3586  0.7606  0.3883
 9843SOL    HW130970   2.716   6.675   9.319  0.7570  0.6255  1.0344
 9843SOL    HW230971   2.782   6.757   9.209  0.1375  1.4602  1.2810
 9844SOL     OW30972   1.581   4.844   9.985 -0.5395 -0.9492 -0.7075
 9844SOL    HW130973   1.574   4.821   9.893  0.2907  0.9150 -1.2982
 9844SOL    HW230974   1.595   4.939   9.985 -4.9533 -0.0238  1.4995
 9845SOL     OW30975   3.299   5.428  10.125  0.0462 -0.3986  0.4918
 9845SOL    HW130976   3.372   5.418  10.063 -0.7146  0.4944 -0.5893
 9845SOL    HW230977   3.341   5.456  10.206  0.7811  2.2430 -0.6878
 9846SOL     OW30978   3.247   4.221  11.525 -0.1301  0.5046  0.1354
 9846SOL    HW130979   3.248   4.191  11.616  0.3413 -0.1347 -0.0716
 9846SOL    HW230980   3.286   4.309  11.529  1.2668 -0.1046  0.3649
 9847SOL     OW30981   2.261   4.527  10.630  0.1892  0.0462 -0.2555
 9847SOL    HW130982   2.338   4.560  10.676  1.0793 -0.4188 -1.3501
 9847SOL    HW230983   2.282   4.538  10.537 -2.7158  3.7485 -0.7313
 9848SOL     OW30984   4.972   4.909   0.576 -0.0328  0.2349 -0.1203
 9848SOL    HW130985   4.916   4.870   0.642  1.7831 -2.4008  0.0349
 9848SOL    HW230986   5.008   4.988   0.617  1.1832 -1.4196  2.1880
 9849SOL     OW30987   0.987   3.701  11.021 -0.0044  0.5249 -0.4185
 9849SOL    HW130988   1.074   3.734  10.999 -0.4618  3.0673  1.2017
 9849SOL    HW230989   0.960   3.651  10.944  2.1644  1.1199 -1.6451
 9850SOL     OW30990   3.968   4.377   9.850 -0.5357 -0.1220 -0.0982
 9850SOL    HW130991   3.998   4.389   9.760  1.0441 -0.6310  0.3181
 9850SOL    HW230992   3.878   4.344   9.842 -1.5317  2.6721 -1.3922
 9851SOL     OW30993   2.258   4.279   0.647 -0.2564 -0.4437  0.0059
 9851SOL    HW130994   2.334   4.273   0.590  0.3994  0.4804  0.7455
 9851SOL    HW230995   2.183   4.261   0.590  0.4733 -0.8402 -0.8444
 9852SOL     OW30996   1.118   5.712   9.507  0.4467 -0.0928 -0.3203
 9852SOL    HW130997   1.164   5.771   9.447  0.3274 -1.5633 -1.9207
 9852SOL    HW230998   1.183   5.647   9.532 -0.2070 -1.0639 -1.0595
 9853SOL     OW30999   2.515   4.155  11.427  0.1866  0.3580  0.4334
 9853SOL    HW131000   2.458   4.174  11.353  1.1420 -1.6566 -0.9205
 9853SOL    HW231001   2.482   4.073  11.463  0.6222  0.5560  1.3152
 9854SOL     OW31002   2.448   5.372   9.436  0.5977  0.2257  0.1131
 9854SOL    HW131003   2.513   5.328   9.382 -1.0195  1.6253 -3.2563
 9854SOL    HW231004   2.384   5.303   9.457  0.5996 -0.0978 -0.8965
 9855SOL     OW31005   1.678   5.622   9.878  0.2525 -0.1128  0.5618
 9855SOL    HW131006   1.586   5.639   9.856 -0.0661 -1.2409  0.9556
 9855SOL    HW231007   1.693   5.670   9.959  0.0406  0.1620  0.4372
 9856SOL     OW31008   3.429   2.786  10.885 -0.1649  0.3485  0.5612
 9856SOL    HW131009   3.437   2.842  10.808 -1.1437  0.7943  0.7764
 9856SOL    HW231010   3.361   2.826  10.938  1.3242  0.7572  2.2834
 9857SOL     OW31011   2.552   3.475  10.277 -0.5293 -0.3438  0.1491
 9857SOL    HW131012   2.623   3.410  10.276 -0.6787 -0.5107  0.2788
 9857SOL    HW231013   2.557   3.517  10.191  1.1495  1.1950  0.9209
 9858SOL     OW31014   3.142   5.695   8.463 -0.2515  0.6317 -0.6366
 9858SOL    HW131015   3.176   5.615   8.502  0.3877  0.1223 -2.1578
 9858SOL    HW231016   3.132   5.675   8.370 -0.4455  2.1920 -0.9934
 9859SOL     OW31017   2.193   5.875   9.188  0.0111  0.0314  0.1275
 9859SOL    HW131018   2.237   5.825   9.119  2.8906  0.9605  1.1192
 9859SOL    HW231019   2.119   5.916   9.145 -0.1228 -1.8845 -1.6256
 9860SOL     OW31020   3.759   6.662  10.850 -0.0900 -0.1394 -0.2110
 9860SOL    HW131021   3.772   6.756  10.836  1.8989 -0.2963  0.2376
 9860SOL    HW231022   3.782   6.649  10.942 -0.1113 -1.1030 -0.3383
 9861SOL     OW31023   3.649   6.262  10.171 -0.2556  0.2335  0.1766
 9861SOL    HW131024   3.691   6.188  10.215 -0.0074 -0.6440 -1.4640
 9861SOL    HW231025   3.613   6.314  10.243 -0.3232 -1.3938  1.4012
 9862SOL     OW31026   1.009   3.858   9.676 -0.0052  0.0345 -0.1147
 9862SOL    HW131027   0.977   3.796   9.741 -2.6463 -0.9196 -2.1094
 9862SOL    HW231028   0.955   3.936   9.688 -0.3291 -0.0478 -0.9150
 9863SOL     OW31029   2.852   4.010   9.378 -0.2153 -0.1232  0.0429
 9863SOL    HW131030   2.898   3.940   9.423  0.5644 -0.4965 -1.2865
 9863SOL    HW231031   2.774   3.969   9.342  0.7162 -0.5756 -1.5482
 9864SOL     OW31032   3.131   4.876  10.165 -0.4076  0.0278 -0.1090
 9864SOL    HW131033   3.065   4.912  10.105  0.9129  1.1858 -0.9298
 9864SOL    HW231034   3.171   4.953  10.205  0.3469 -0.6621  0.4910
 9865SOL     OW31035   3.490   3.903  10.525 -0.3041  0.0379  0.5686
 9865SOL    HW131036   3.442   3.848  10.463 -0.4311 -0.6735  1.2845
 9865SOL    HW231037   3.557   3.845  10.561  0.3190  0.6872  0.4750
 9866SOL     OW31038   0.456   6.061   9.562  0.2387  0.5664 -0.1250
 9866SOL    HW131039   0.458   6.142   9.511 -0.2005 -0.2353 -1.4421
 9866SOL    HW231040   0.530   6.010   9.530  0.6646  0.5303  0.8747
 9867SOL     OW31041   4.538   5.161  10.417  0.3985 -0.3292  0.2940
 9867SOL    HW131042   4.616   5.217  10.419 -0.1250  0.3968  0.7056
 9867SOL    HW231043   4.475   5.210  10.363 -0.1237 -0.4325  0.8032
 9868SOL     OW31044   3.739   5.925  12.288 -0.2520 -0.0813 -0.3869
 9868SOL    HW131045   3.753   6.006  12.238  0.1384 -0.2348 -0.5333
 9868SOL    HW231046   3.725   5.858  12.221  1.2773 -0.4790 -0.3456
 9869SOL     OW31047   3.116   4.658  11.586 -0.0868  0.0305 -0.8055
 9869SOL    HW131048   3.077   4.744  11.570  0.3316  0.3135 -0.3036
 9869SOL    HW231049   3.210   4.673  11.582  0.0538  0.0585  1.5268
 9870SOL     OW31050   3.182   5.443   9.333 -0.6357 -0.0281  0.1812
 9870SOL    HW131051   3.178   5.538   9.330  0.3008  0.0043 -0.7596
 9870SOL    HW231052   3.127   5.419   9.408  0.2825  1.3238  1.3516
 9871SOL     OW31053   1.976   3.200   9.931 -0.0526  0.6138  0.1113
 9871SOL    HW131054   1.974   3.295   9.922 -0.3878  0.7399  1.3329
 9871SOL    HW231055   1.983   3.185  10.025 -0.0329 -0.5723 -0.0650
 9872SOL     OW31056   5.265   5.464   9.186 -0.4273  0.3194  0.6138
 9872SOL    HW131057   5.194   5.403   9.208  0.0371 -0.6672 -0.4995
 9872SOL    HW231058   5.259   5.474   9.091  0.1577  1.2019  0.6601
 9873SOL     OW31059   2.427   5.847   9.511 -0.0343 -0.4679  0.1998
 9873SOL    HW131060   2.494   5.900   9.554  0.9794 -1.6492  0.1422
 9873SOL    HW231061   2.366   5.910   9.473  0.0793  0.6275  1.7440
 9874SOL     OW31062   3.774   3.702  12.393 -0.2904  0.4522  0.1240
 9874SOL    HW131063   3.753   3.796  12.393 -1.6822  0.2043 -1.5359
 9874SOL    HW231064   3.724   3.667  12.319  2.7874 -1.0547 -1.4419
 9875SOL     OW31065   3.520   3.645  10.363 -0.0344  0.1274  0.3508
 9875SOL    HW131066   3.520   3.554  10.333 -1.3090 -0.1309  1.0811
 9875SOL    HW231067   3.593   3.685  10.315  0.9686 -1.4217  0.4701
 9876SOL     OW31068   5.621   4.286  11.750 -0.1677  0.5451  0.2624
 9876SOL    HW131069   5.555   4.224  11.780  0.3142 -0.2235 -0.1970
 9876SOL    HW231070   5.689   4.230  11.711  0.0023  1.3918 -0.7052
 9877SOL     OW31071   3.230   5.169  10.223 -0.2127 -0.2631  0.1360
 9877SOL    HW131072   3.311   5.134  10.261 -0.2696 -0.8443 -0.2732
 9877SOL    HW231073   3.256   5.253  10.184  0.3234 -0.7180 -0.5079
 9878SOL     OW31074   1.993   3.800   9.480 -0.3152  0.2061 -0.4026
 9878SOL    HW131075   2.062   3.850   9.438 -0.8017 -0.0176 -1.4984
 9878SOL    HW231076   1.914   3.818   9.429 -1.0072  0.1791  0.6050
 9879SOL     OW31077   1.948   5.903  10.967 -0.3791  0.2520 -0.6942
 9879SOL    HW131078   1.913   5.820  10.998  0.5126  0.2745  0.4389
 9879SOL    HW231079   1.872   5.952  10.936 -1.1460 -0.2516  0.3513
 9880SOL     OW31080   1.470   4.739  10.274 -0.2125  0.5424 -0.3113
 9880SOL    HW131081   1.502   4.650  10.264 -2.1794  0.0145 -2.6384
 9880SOL    HW231082   1.509   4.787  10.201 -0.4004  1.2339  0.0343
 9881SOL     OW31083   3.885   4.657  11.181  0.3198 -0.5303 -0.2181
 9881SOL    HW131084   3.950   4.708  11.230  0.1391 -1.3267  0.8820
 9881SOL    HW231085   3.894   4.688  11.091  1.7623 -0.1488  0.0299
 9882SOL     OW31086   3.998   6.721  11.716 -0.1981 -0.0313  0.3383
 9882SOL    HW131087   3.993   6.668  11.795 -0.4316 -0.4763  0.0266
 9882SOL    HW231088   3.909   6.720  11.681 -0.3740  1.1250  0.6866
 9883SOL     OW31089   3.224   7.147   9.247 -0.0238  0.2172  0.3032
 9883SOL    HW131090   3.235   7.062   9.290  0.2041 -0.0371 -0.2394
 9883SOL    HW231091   3.171   7.128   9.170 -2.1283  1.0078  1.4975
 9884SOL     OW31092   3.019   5.505  10.715 -0.1373  0.4162 -0.4071
 9884SOL    HW131093   2.926   5.523  10.731 -0.2615 -0.5265 -0.0400
 9884SOL    HW231094   3.055   5.487  10.802  0.6572  1.9296 -0.3875
 9885SOL     OW31095   2.106   3.684  11.658  0.5061 -0.5202 -0.5944
 9885SOL    HW131096   2.171   3.660  11.592  0.0569 -0.3930 -1.0861
 9885SOL    HW231097   2.030   3.631  11.637  0.1215  0.0310 -0.6018
 9886SOL     OW31098   2.898   6.884   8.761  0.3492 -0.1258  1.0440
 9886SOL    HW131099   2.921   6.975   8.743  0.3997 -0.0077  1.6838
 9886SOL    HW231100   2.805   6.888   8.783  0.0841 -0.3824  0.0297
 9887SOL     OW31101   2.827   5.145   9.983  0.6891 -1.1836 -0.2192
 9887SOL    HW131102   2.734   5.132   9.965  0.2022  1.0882  0.3272
 9887SOL    HW231103   2.855   5.209   9.918  1.9623 -2.0874 -0.5786
 9888SOL     OW31104   3.971   5.565   8.983 -0.4142 -0.7465  0.3927
 9888SOL    HW131105   3.976   5.488   8.926  1.9053 -1.2862  1.2163
 9888SOL    HW231106   3.888   5.606   8.960 -0.1662 -1.6152 -2.4857
 9889SOL     OW31107   2.371   5.055  10.058 -0.5377  0.0331  0.5965
 9889SOL    HW131108   2.343   4.976  10.011  2.8129 -1.0123  0.0859
 9889SOL    HW231109   2.433   5.098   9.999 -1.1228  2.2618  1.4963
 9890SOL     OW31110   3.688   5.299  10.242 -0.2445 -0.3137 -0.1175
 9890SOL    HW131111   3.607   5.345  10.262 -0.1040  1.4208 -2.9681
 9890SOL    HW231112   3.674   5.264  10.153  2.0005 -0.2151 -0.5566
 9891SOL     OW31113   1.676   3.976  11.567  0.2870 -0.0544 -0.1241
 9891SOL    HW131114   1.657   4.032  11.642  1.1779 -1.2102  1.0181
 9891SOL    HW231115   1.691   4.037  11.495  0.9787  1.1866  1.0071
 9892SOL     OW31116   3.195   5.061   9.510  0.3364  0.4712 -0.1688
 9892SOL    HW131117   3.140   5.134   9.480 -2.1572 -2.1416 -2.6572
 9892SOL    HW231118   3.236   5.028   9.430  0.7666 -1.2717  0.7237
 9893SOL     OW31119   2.150   3.117   9.663  0.3854 -0.6735  0.1954
 9893SOL    HW131120   2.088   3.066   9.715  0.0476 -0.3532  0.1122
 9893SOL    HW231121   2.098   3.189   9.628  0.1537 -1.8248 -2.0256
 9894SOL     OW31122   2.819   7.585   6.427 -0.2112 -0.4125  0.0037
 9894SOL    HW131123   2.788   7.588   6.517 -0.7697 -0.6775 -0.1717
 9894SOL    HW231124   2.854   7.497   6.416  0.7802 -0.0600  0.2494
 9895SOL     OW31125   1.735   3.393  10.132 -0.2057  0.3870 -0.3110
 9895SOL    HW131126   1.743   3.314  10.187 -0.1033  0.0195 -0.8494
 9895SOL    HW231127   1.821   3.435  10.138 -0.0419  0.0882 -0.5858
 9896SOL     OW31128   2.859   5.355   9.770 -0.3899 -0.5334  0.4225
 9896SOL    HW131129   2.918   5.414   9.817  0.2206 -0.6358 -0.1858
 9896SOL    HW231130   2.772   5.389   9.786 -0.0872  0.1664  0.5924
 9897SOL     OW31131   4.072   5.390  10.166  0.1010 -0.1509 -0.2682
 9897SOL    HW131132   4.128   5.452  10.118  1.3811 -0.5579  0.6467
 9897SOL    HW231133   4.064   5.315  10.107  2.1334 -0.8868  0.3220
 9898SOL     OW31134   2.794   4.661   9.919 -0.8359  0.2147  0.6422
 9898SOL    HW131135   2.843   4.740   9.943 -1.3904  0.1992  1.9210
 9898SOL    HW231136   2.763   4.678   9.831 -0.8391  1.3807  0.8475
 9899SOL     OW31137   2.627   4.297  10.784 -0.1656 -0.2790  0.1397
 9899SOL    HW131138   2.608   4.205  10.804  1.6553 -0.6602  0.2980
 9899SOL    HW231139   2.624   4.341  10.869 -3.1117  0.2875 -0.1600
 9900SOL     OW31140   7.608   4.672   8.253  0.0950  0.2551  0.6325
 9900SOL    HW131141   7.677   4.634   8.307  0.2172  1.9670  1.7581
 9900SOL    HW231142   7.654   4.728   8.191 -0.0981 -1.1923 -0.9082
 9901SOL     OW31143   2.913   4.901   9.978  1.0257 -0.6008 -0.2760
 9901SOL    HW131144   2.986   4.925   9.921  1.1051  0.5770  0.2986
 9901SOL    HW231145   2.864   4.983   9.990  0.3914 -1.0729  0.4526
 9902SOL     OW31146   3.261   6.356  10.676  0.1270 -0.4275  0.1227
 9902SOL    HW131147   3.336   6.376  10.620 -0.5609  1.3503 -0.2302
 9902SOL    HW231148   3.190   6.412  10.642 -1.8451 -3.1076 -0.5590
 9903SOL     OW31149   2.797   3.190  11.982 -0.0403  0.2662  0.1568
 9903SOL    HW131150   2.815   3.098  11.965 -2.5816 -0.2656 -0.0821
 9903SOL    HW231151   2.765   3.224  11.899 -1.2297  0.7570  0.7886
 9904SOL     OW31152   2.424   5.171  11.388  0.4677  0.9451  0.1746
 9904SOL    HW131153   2.475   5.152  11.309  0.4370 -1.2915  0.6365
 9904SOL    HW231154   2.485   5.219  11.445  0.7122  1.9391 -0.8741
 9905SOL     OW31155   2.567   5.347  10.140  0.3653  0.1332  0.2711
 9905SOL    HW131156   2.556   5.308  10.226  0.0106  1.0452  0.6532
 9905SOL    HW231157   2.625   5.422  10.154 -0.3175  0.7541 -0.1332
 9906SOL     OW31158   0.911   4.431  10.676  0.3748 -0.2879 -0.1708
 9906SOL    HW131159   0.910   4.406  10.583 -1.4470 -0.1699 -0.2260
 9906SOL    HW231160   0.981   4.378  10.714  1.2237 -0.2701 -1.6227
 9907SOL     OW31161   2.924   4.685   8.835 -0.6576 -0.0628 -0.2013
 9907SOL    HW131162   2.929   4.643   8.921 -0.4698 -1.5579 -0.9046
 9907SOL    HW231163   2.988   4.756   8.840 -0.2034 -0.5075  0.6987
 9908SOL     OW31164   2.104   5.454   8.755  0.2645  0.1021  0.3614
 9908SOL    HW131165   2.166   5.398   8.801  0.5255 -0.2361 -0.3830
 9908SOL    HW231166   2.059   5.503   8.824  1.1210  0.1045  0.9267
 9909SOL     OW31167   3.269   4.216   9.609 -0.3519  0.1957  0.1109
 9909SOL    HW131168   3.201   4.150   9.597 -0.8719  0.7162  0.1499
 9909SOL    HW231169   3.221   4.296   9.632  0.2802  0.5405  0.2553
 9910SOL     OW31170   2.904   5.569  11.765 -0.4368  0.5646 -0.5222
 9910SOL    HW131171   2.952   5.637  11.718 -0.5840  0.2897 -1.0804
 9910SOL    HW231172   2.849   5.617  11.828 -0.5139  0.9602 -0.8875
 9911SOL     OW31173   2.325   4.583  10.347  0.0437 -0.3074 -0.1233
 9911SOL    HW131174   2.234   4.592  10.319  0.0079 -0.9915 -0.2305
 9911SOL    HW231175   2.355   4.674  10.357 -1.3525 -0.0120  2.3041
 9912SOL     OW31176   1.683   4.377  11.190 -0.3906 -0.1874 -0.1068
 9912SOL    HW131177   1.703   4.348  11.101 -0.9412 -4.0431  0.8395
 9912SOL    HW231178   1.588   4.379  11.193 -0.3765  1.8058 -0.0651
 9913SOL     OW31179   3.584   4.518  10.231  0.0614 -0.2258 -0.0090
 9913SOL    HW131180   3.675   4.506  10.206  0.6043 -1.7492  2.4328
 9913SOL    HW231181   3.551   4.430  10.249 -1.2438  0.4522  1.1876
 9914SOL     OW31182   2.840   4.767   8.563 -0.1443  0.4324 -0.7415
 9914SOL    HW131183   2.801   4.739   8.480 -0.4318 -0.4598 -0.3208
 9914SOL    HW231184   2.847   4.862   8.556 -3.8345  0.8868 -0.3091
 9915SOL     OW31185   1.119   3.065  10.376 -0.3885 -0.1937 -0.1686
 9915SOL    HW131186   1.202   3.099  10.408  0.4305 -1.7799 -0.5267
 9915SOL    HW231187   1.053   3.103  10.435  0.4856  1.5468 -0.2358
 9916SOL     OW31188   2.127   4.740  11.275 -0.5043  0.3346  0.5250
 9916SOL    HW131189   2.037   4.709  11.260 -0.6498  1.7257 -2.0754
 9916SOL    HW231190   2.154   4.777  11.191  1.2901  3.0008  2.1126
 9917SOL     OW31191   1.512   4.954  11.080 -0.3946 -0.2734 -0.6967
 9917SOL    HW131192   1.453   5.003  11.024 -2.5994 -0.2728  1.4322
 9917SOL    HW231193   1.456   4.889  11.123  1.2454 -0.6559  1.0367
 9918SOL     OW31194   3.145   3.072   9.513  0.0168  0.2132  0.1243
 9918SOL    HW131195   3.166   3.127   9.589 -0.5607  0.0283  0.4234
 9918SOL    HW231196   3.208   3.099   9.446  2.9314 -1.9725  1.6956
 9919SOL     OW31197   2.442   5.596   9.601 -0.2323 -0.5946  0.0922
 9919SOL    HW131198   2.413   5.539   9.530  0.0296 -0.2503 -0.2980
 9919SOL    HW231199   2.466   5.678   9.558  3.6966 -1.5871 -0.0568
 9920SOL     OW31200   3.895   5.353   8.846 -0.2470  0.2132 -0.0482
 9920SOL    HW131201   3.806   5.332   8.816 -0.3280 -0.7422  0.7690
 9920SOL    HW231202   3.946   5.275   8.824 -0.0148  0.0489  1.0085
 9921SOL     OW31203   2.571   5.315  11.585  0.0794  0.4883 -0.2774
 9921SOL    HW131204   2.582   5.408  11.604  1.0945  0.6760 -1.6174
 9921SOL    HW231205   2.511   5.284  11.653  0.0240  2.0232  0.4324
 9922SOL     OW31206   3.462   6.126   9.989 -0.4384 -0.5367 -0.5192
 9922SOL    HW131207   3.429   6.187   9.923 -0.7216  0.8877  0.8993
 9922SOL    HW231208   3.506   6.182  10.053 -1.4542 -1.7346  1.2776
 9923SOL     OW31209   2.467   3.234   9.226  0.0595  0.5399  0.2419
 9923SOL    HW131210   2.490   3.322   9.256 -0.2589  0.6389  0.1904
 9923SOL    HW231211   2.372   3.229   9.236 -0.0882  0.6671 -1.0101
 9924SOL     OW31212   0.502   4.610   9.454 -0.1540  0.0251 -0.1838
 9924SOL    HW131213   0.493   4.572   9.541 -0.4054 -0.3728 -0.3802
 9924SOL    HW231214   0.412   4.632   9.429  0.1065  2.0554  0.4985
 9925SOL     OW31215   1.134   4.284  10.758 -0.0339 -0.0766 -0.0394
 9925SOL    HW131216   1.211   4.309  10.708  0.3954  0.2904  0.7953
 9925SOL    HW231217   1.148   4.321  10.845 -0.9277 -0.4131  0.2615
 9926SOL     OW31218   1.708   5.495  10.959  0.3630 -0.1516 -0.3801
 9926SOL    HW131219   1.693   5.405  10.931 -0.0894 -0.4969  0.9054
 9926SOL    HW231220   1.641   5.512  11.025 -1.5313  2.1691 -2.6691
 9927SOL     OW31221   3.522   4.308   9.493  0.4349 -0.3733  0.6724
 9927SOL    HW131222   3.571   4.300   9.411 -1.4013 -1.3161 -0.3910
 9927SOL    HW231223   3.443   4.356   9.469  0.7501  1.0475  2.3336
 9928SOL     OW31224   2.833   5.705  10.484  0.0785  0.5053 -0.0387
 9928SOL    HW131225   2.827   5.764  10.560  1.2899 -1.2827  1.5339
 9928SOL    HW231226   2.927   5.699  10.466  0.0684 -1.5622  0.3950
 9929SOL     OW31227   3.512   2.732   9.901  0.0881 -0.2134  0.2743
 9929SOL    HW131228   3.601   2.741   9.934 -0.3866 -1.8202  2.1506
 9929SOL    HW231229   3.518   2.758   9.809  2.6652 -1.0435  0.1261
 9930SOL     OW31230   3.533   6.013   9.328  0.2587 -0.0052  0.1672
 9930SOL    HW131231   3.474   6.013   9.252 -0.6598  0.9415  0.8499
 9930SOL    HW231232   3.490   5.957   9.392  0.6033 -0.1120  0.3064
 9931SOL     OW31233   1.654   3.027   9.391 -0.2492  0.0447 -0.2677
 9931SOL    HW131234   1.674   2.945   9.345 -1.0938  0.4006 -1.3289
 9931SOL    HW231235   1.561   3.042   9.373 -0.9023 -0.2849  2.4000
 9932SOL     OW31236   2.969   4.391  10.874  0.2461  0.2927 -0.1463
 9932SOL    HW131237   2.969   4.409  10.780 -0.2161  1.7221  0.1144
 9932SOL    HW231238   3.062   4.376  10.895  0.1537 -2.2551 -1.1861
 9933SOL     OW31239   4.600   4.800  12.020 -0.1581  0.4634 -0.3446
 9933SOL    HW131240   4.511   4.775  12.047 -0.7527  1.1774 -1.5188
 9933SOL    HW231241   4.619   4.742  11.946  0.1539  0.6327 -0.3974
 9934SOL     OW31242   1.068   3.369  11.266 -0.0502 -0.5442  0.3491
 9934SOL    HW131243   1.150   3.391  11.222  0.0357 -0.8230  0.3646
 9934SOL    HW231244   1.029   3.301  11.211  0.5304 -1.6031  1.2014
 9935SOL     OW31245   3.005   4.363  10.597  0.4780  0.1932 -0.5660
 9935SOL    HW131246   3.078   4.312  10.631  0.7902  0.6712 -0.5057
 9935SOL    HW231247   2.945   4.299  10.560  0.6643 -0.2479 -0.1120
 9936SOL     OW31248   3.362   4.563  10.526 -0.3063 -0.1630 -0.3748
 9936SOL    HW131249   3.356   4.644  10.476 -0.3858  0.9309  1.3045
 9936SOL    HW231250   3.281   4.517  10.505 -1.5522  1.4386  0.6029
 9937SOL     OW31251   1.964   5.883  10.025 -0.2255 -0.4843  0.3139
 9937SOL    HW131252   2.048   5.905  10.065 -0.4590  0.8814  0.1048
 9937SOL    HW231253   1.923   5.968  10.007 -0.8855 -1.0910 -1.2144
 9938SOL     OW31254   1.815   4.832  10.388  0.4348 -0.1075 -0.0235
 9938SOL    HW131255   1.755   4.902  10.364  0.7475  0.1691 -0.0088
 9938SOL    HW231256   1.827   4.781  10.307  0.7308  0.2526 -0.2097
 9939SOL     OW31257   4.304   5.255   9.411  0.1848 -0.5348  0.3272
 9939SOL    HW131258   4.382   5.306   9.433 -0.2413  0.3231 -0.1305
 9939SOL    HW231259   4.329   5.165   9.431  1.5878 -0.3763 -0.5380
 9940SOL     OW31260   2.865   3.246   9.538 -0.9035 -0.0300 -0.2666
 9940SOL    HW131261   2.902   3.290   9.614 -0.3899 -1.4052  0.2956
 9940SOL    HW231262   2.882   3.153   9.552 -2.0488 -0.4474 -1.3810
 9941SOL     OW31263   1.375   5.292  10.144 -0.0574 -0.3632  0.0304
 9941SOL    HW131264   1.421   5.373  10.167 -1.0159  0.0398  0.5996
 9941SOL    HW231265   1.402   5.229  10.211 -1.4086  0.2851  1.2578
 9942SOL     OW31266   2.712   5.891  10.296 -0.4186 -0.4414 -0.3131
 9942SOL    HW131267   2.756   5.825  10.349 -0.0235  0.2452  0.2272
 9942SOL    HW231268   2.765   5.970  10.307 -1.8876  0.4593  0.4878
 9943SOL     OW31269   4.129   4.292  11.819  0.3529 -0.2655 -0.3279
 9943SOL    HW131270   4.127   4.257  11.730  1.4415 -1.5875  0.1425
 9943SOL    HW231271   4.220   4.315  11.834  0.2390 -0.3775  0.5794
 9944SOL     OW31272   4.097   2.991  10.571  0.7362 -0.3285  0.0535
 9944SOL    HW131273   4.182   2.953  10.594  0.4726 -0.8616  0.1432
 9944SOL    HW231274   4.055   2.925  10.516  1.2698  0.8160 -1.8384
 9945SOL     OW31275   1.672   4.359  10.906  0.1252 -0.3950  0.5398
 9945SOL    HW131276   1.623   4.313  10.838  1.5690  0.0951 -0.9086
 9945SOL    HW231277   1.742   4.404  10.858  0.9654  0.2835  2.3260
 9946SOL     OW31278   2.538   6.667   9.917  0.5676  0.1452 -0.6175
 9946SOL    HW131279   2.448   6.644   9.893 -0.2103  0.1501  2.0281
 9946SOL    HW231280   2.544   6.761   9.897 -0.9677  0.7985  1.5996
 9947SOL     OW31281   3.583   4.398   9.256  0.5354 -0.3694  0.4284
 9947SOL    HW131282   3.601   4.414   9.163  0.4528  1.2873  0.6634
 9947SOL    HW231283   3.491   4.420   9.267  0.6306 -0.2245  0.9629
 9948SOL     OW31284   7.471   4.227   8.944 -0.7452  0.9355  0.7508
 9948SOL    HW131285   7.419   4.271   9.010  0.1645  0.8601  1.5458
 9948SOL    HW231286   7.503   4.148   8.988  0.0168  0.9763  0.2850
 9949SOL     OW31287   2.208   4.887  11.643  0.4908  0.2830 -0.4434
 9949SOL    HW131288   2.301   4.867  11.633  0.5003 -0.2654  0.5506
 9949SOL    HW231289   2.195   4.893  11.738 -0.6877 -0.7062 -0.5126
 9950SOL     OW31290   3.323   6.808  10.699  0.0919 -0.0291 -0.2934
 9950SOL    HW131291   3.411   6.770  10.700 -0.2688 -0.8913 -0.5161
 9950SOL    HW231292   3.320   6.862  10.620  0.0626 -0.8611 -0.8618
 9951SOL     OW31293   4.441   3.984  11.802  0.6604  0.9601  0.4279
 9951SOL    HW131294   4.430   4.077  11.824 -1.7011  0.4689  1.6508
 9951SOL    HW231295   4.425   3.938  11.884  2.6767 -0.5472  0.0495
 9952SOL     OW31296   1.442   2.669   9.228  0.3779 -0.0487  0.0712
 9952SOL    HW131297   1.463   2.618   9.149  0.0693  1.1389 -0.8122
 9952SOL    HW231298   1.523   2.716   9.249  0.1121  0.6049 -0.3108
 9953SOL     OW31299   3.855   6.512  11.144  0.1212  0.2919  0.0183
 9953SOL    HW131300   3.913   6.536  11.217  0.0552 -0.3354  0.2831
 9953SOL    HW231301   3.793   6.584  11.138 -1.7269 -0.9386  2.4990
 9954SOL     OW31302   3.306   5.159  11.483 -0.7250 -0.1643  0.5744
 9954SOL    HW131303   3.291   5.181  11.575  0.2024  0.2307  0.6424
 9954SOL    HW231304   3.268   5.231  11.435  0.6349  0.7072  0.7389
 9955SOL     OW31305   2.973   2.824  10.842  0.1266 -0.8571 -0.4815
 9955SOL    HW131306   3.055   2.773  10.841  0.8028  0.1628  0.4330
 9955SOL    HW231307   2.954   2.841  10.750  1.4784 -0.3090 -0.6826
 9956SOL     OW31308   2.756   5.985  12.450  0.4382 -0.0813 -0.2972
 9956SOL    HW131309   2.765   5.895  12.418  0.9536 -0.3795  0.6506
 9956SOL    HW231310   2.773   5.979  12.544 -0.2974  0.8903 -0.0894
 9957SOL     OW31311   2.530   4.427  11.535  0.0290 -0.0719  0.1763
 9957SOL    HW131312   2.552   4.340  11.501 -1.5626 -0.9955  1.4037
 9957SOL    HW231313   2.540   4.485  11.459 -1.8346 -1.7971 -1.5157
 9958SOL     OW31314   2.746   3.496  10.670  0.0523 -0.5054  0.1764
 9958SOL    HW131315   2.741   3.421  10.610  0.4508  0.3077 -0.9192
 9958SOL    HW231316   2.666   3.491  10.722 -0.8861 -0.6130 -1.2183
 9959SOL     OW31317   1.949   3.303   9.646 -0.5627 -0.0398  0.0984
 9959SOL    HW131318   1.916   3.342   9.727 -0.4444  0.8129 -0.2513
 9959SOL    HW231319   1.962   3.378   9.588  0.5861 -0.5050 -0.2640
 9960SOL     OW31320   3.274   4.151  11.128  0.3090 -0.9443  0.2604
 9960SOL    HW131321   3.206   4.187  11.184  1.5895 -0.1139  1.3315
 9960SOL    HW231322   3.271   4.205  11.049  0.5108 -0.1298  0.7987
 9961SOL     OW31323   4.896   1.970  11.201 -0.2426 -0.2580  0.3557
 9961SOL    HW131324   4.970   1.964  11.141 -0.5657 -0.1074 -0.0613
 9961SOL    HW231325   4.915   1.905  11.269 -0.0750 -0.7190 -0.1294
 9962SOL     OW31326   0.764   4.277   9.810  0.1474  0.2085 -0.1359
 9962SOL    HW131327   0.790   4.351   9.865 -2.0361  0.7998  0.1971
 9962SOL    HW231328   0.762   4.202   9.870  0.8729  0.1864 -0.1340
 9963SOL     OW31329   3.130   6.623  10.178  0.0976  0.1039 -0.6412
 9963SOL    HW131330   3.147   6.709  10.138 -0.7891  0.6467  0.1072
 9963SOL    HW231331   3.044   6.598  10.146 -0.5117  0.4252  0.6776
 9964SOL     OW31332   4.008   6.169   9.657  0.2754  0.1528  0.4969
 9964SOL    HW131333   4.018   6.262   9.638 -1.5261  0.9666  3.0097
 9964SOL    HW231334   3.960   6.134   9.582  1.8936  0.9380 -0.9854
 9965SOL     OW31335   3.981   3.944   9.953 -0.2943 -0.1181 -0.1066
 9965SOL    HW131336   4.009   3.977   9.868  2.4049 -1.5897  0.0926
 9965SOL    HW231337   4.004   3.851   9.951  0.3108 -0.0895  2.3595
 9966SOL     OW31338   2.343   2.658  10.931  0.2209 -0.4216  0.2735
 9966SOL    HW131339   2.371   2.732  10.877 -1.5075 -0.9589 -1.4833
 9966SOL    HW231340   2.424   2.617  10.961  1.2058  1.2275 -0.0310
 9967SOL     OW31341   1.976   3.946  11.731  0.4988  0.3505 -0.0189
 9967SOL    HW131342   2.027   3.880  11.685  0.5787  0.1046  0.4143
 9967SOL    HW231343   1.901   3.899  11.766  0.8755  0.3437  0.8286
 9968SOL     OW31344   2.313   5.148   0.589  0.1754  0.3491 -0.0508
 9968SOL    HW131345   2.404   5.157   0.563  0.2242  2.6633  0.6958
 9968SOL    HW231346   2.264   5.198   0.524 -0.3930  0.4926  0.4794
 9969SOL     OW31347   1.337   4.369  10.616 -0.2358 -0.5427 -0.0717
 9969SOL    HW131348   1.316   4.463  10.617 -0.0140 -0.4714  1.9338
 9969SOL    HW231349   1.357   4.350  10.525  2.1213  1.9175 -0.1861
 9970SOL     OW31350   4.925   3.303  10.097  0.4214  0.4088  0.0239
 9970SOL    HW131351   4.965   3.218  10.075  1.1614  0.6145  0.5396
 9970SOL    HW231352   4.849   3.309  10.039  0.3110 -0.6399  0.0266
 9971SOL     OW31353   2.611   4.266   9.865 -0.0052  0.3867 -0.0701
 9971SOL    HW131354   2.630   4.290   9.956  0.1025 -1.7452  0.5206
 9971SOL    HW231355   2.521   4.234   9.866 -0.0044  0.3384 -0.7119
 9972SOL     OW31356   3.583   5.111  11.422  0.4118  0.3607 -0.2862
 9972SOL    HW131357   3.566   5.112  11.328  0.0894  0.3054 -0.2293
 9972SOL    HW231358   3.497   5.123  11.462  0.4250 -0.5072  0.0219
 9973SOL     OW31359   3.402   5.059   9.929  0.0464 -0.2585 -0.3455
 9973SOL    HW131360   3.400   5.117   9.853  0.7426  1.5781  0.9828
 9973SOL    HW231361   3.318   5.074   9.972  1.2153  1.8431  1.4112
 9974SOL     OW31362   3.201   2.988   8.397  0.1452 -0.0691  0.5192
 9974SOL    HW131363   3.254   2.919   8.436 -0.6054 -0.9775 -0.0330
 9974SOL    HW231364   3.176   3.044   8.471  3.9098  1.8997  0.5421
 9975SOL     OW31365   3.346   3.257  11.605 -0.0955 -0.9317 -0.4178
 9975SOL    HW131366   3.405   3.182  11.613  0.2835 -0.5342  0.7131
 9975SOL    HW231367   3.399   3.332  11.631 -0.5644 -0.3021 -1.2309
 9976SOL     OW31368   4.472   5.254  11.358  0.4414 -0.4676 -0.1949
 9976SOL    HW131369   4.496   5.169  11.320  0.3562 -0.0843 -1.1410
 9976SOL    HW231370   4.387   5.239  11.399 -0.2065 -0.5385 -1.5072
 9977SOL     OW31371   2.931   3.744   9.480 -0.1781 -1.0703 -0.2968
 9977SOL    HW131372   2.886   3.704   9.555  0.7084 -0.8617  0.3736
 9977SOL    HW231373   2.994   3.805   9.520  0.6775 -1.3354 -1.1937
 9978SOL     OW31374   3.993   3.838  10.595  0.0501  0.2920  0.1808
 9978SOL    HW131375   3.933   3.778  10.551  0.8382 -1.1135  0.9594
 9978SOL    HW231376   4.064   3.852  10.532  0.4118 -0.4892  0.4046
 9979SOL     OW31377   3.083   0.017   8.939 -0.0659 -0.2727 -0.1000
 9979SOL    HW131378   3.123  -0.067   8.958  1.0582 -0.0659 -1.4040
 9979SOL    HW231379   3.020  -0.001   8.870 -1.7690 -0.4602  1.4159
 9980SOL     OW31380   1.411   3.740  10.842  0.3434  1.5250  0.3360
 9980SOL    HW131381   1.434   3.817  10.791 -1.9273  1.9142 -0.2009
 9980SOL    HW231382   1.472   3.672  10.812 -0.5325  1.8885 -2.5051
 9981SOL     OW31383   1.825   6.657  10.015  0.3187 -0.7012  0.2815
 9981SOL    HW131384   1.888   6.605  10.064 -0.5035 -0.6697  1.4172
 9981SOL    HW231385   1.745   6.655  10.069  0.1812  1.4963  0.2491
 9982SOL     OW31386   3.935   3.064  10.224 -0.4549 -0.4247 -0.0657
 9982SOL    HW131387   4.019   3.022  10.242  0.5761  0.9092 -1.5418
 9982SOL    HW231388   3.874   3.020  10.283  1.4228 -0.8112  1.7216
 9983SOL     OW31389   1.558   4.236  10.695 -0.4112  0.1946  0.0030
 9983SOL    HW131390   1.486   4.297  10.678 -0.5254  0.0467 -0.0434
 9983SOL    HW231391   1.618   4.248  10.622 -0.1183  0.7148  0.3211
 9984SOL     OW31392   1.749   6.789   9.186 -0.2570  0.6155  0.3830
 9984SOL    HW131393   1.689   6.717   9.166 -1.3083  0.4125  3.7968
 9984SOL    HW231394   1.702   6.844   9.248  0.9194  3.7951 -1.3187
 9985SOL     OW31395   2.031   4.894   8.556 -0.1604  0.2703  0.2960
 9985SOL    HW131396   2.060   4.877   8.467 -0.1022  1.0091  0.1736
 9985SOL    HW231397   2.087   4.838   8.610  2.5235  2.6441  0.1853
 9986SOL     OW31398   3.969   3.413  10.287 -0.1882  0.5236 -0.5493
 9986SOL    HW131399   4.016   3.346  10.336 -1.5712  0.4512  0.7705
 9986SOL    HW231400   3.910   3.363  10.230  1.1943  0.6125 -2.1238
 9987SOL     OW31401   1.910   3.188   9.384 -0.8815  0.2968  0.1053
 9987SOL    HW131402   1.906   3.219   9.475 -1.4141  0.6214 -0.0257
 9987SOL    HW231403   1.842   3.120   9.379 -0.3718 -0.2214  0.1353
 9988SOL     OW31404   3.183   5.489  10.932 -0.4927 -0.0433 -0.3641
 9988SOL    HW131405   3.202   5.413  10.987 -0.2601  0.9998  1.0697
 9988SOL    HW231406   3.260   5.498  10.876 -0.4017 -0.6952 -0.3532
 9989SOL     OW31407   3.658   4.739  10.381  0.0129 -0.2572  0.8562
 9989SOL    HW131408   3.640   4.665  10.322 -0.7943 -0.5827  1.4874
 9989SOL    HW231409   3.732   4.783  10.341 -0.0050 -0.9377  0.0211
 9990SOL     OW31410   1.555   4.468  10.299  0.0910 -0.2374 -0.5300
 9990SOL    HW131411   1.479   4.410  10.296  2.5649 -4.1022  1.8059
 9990SOL    HW231412   1.612   4.438  10.228  1.5883 -1.2084  0.9671
 9991SOL     OW31413   4.510   5.092   8.696  0.9815  0.3401  0.0660
 9991SOL    HW131414   4.563   5.089   8.616  0.6557  1.1520 -0.1873
 9991SOL    HW231415   4.478   5.003   8.706  4.4726 -0.9178  1.6642
 9992SOL     OW31416   2.245   4.251  10.705  0.1061  0.2174 -0.1243
 9992SOL    HW131417   2.241   4.345  10.688 -0.6362  0.4320  1.0765
 9992SOL    HW231418   2.154   4.221  10.693 -0.3342  0.2542  2.4415
 9993SOL     OW31419   2.151   3.757  11.249  0.3145  0.0228 -0.4559
 9993SOL    HW131420   2.168   3.671  11.287  1.4891  0.8042  0.8750
 9993SOL    HW231421   2.238   3.796  11.239 -0.0641  0.4317 -2.6285
 9994SOL     OW31422   4.027   5.946   8.804  0.6103  0.0071 -0.3892
 9994SOL    HW131423   4.098   6.010   8.814  0.3203  0.5783 -1.7376
 9994SOL    HW231424   4.064   5.878   8.748  0.6897 -0.6783  0.4714
 9995SOL     OW31425   6.506   5.337  10.309  0.1128  0.2543 -0.2724
 9995SOL    HW131426   6.429   5.379  10.347  0.0563  1.0528 -1.2416
 9995SOL    HW231427   6.557   5.409  10.272 -0.4518 -0.5600 -2.8321
 9996SOL     OW31428   2.053   5.492  10.621 -0.2215 -0.1543 -0.2706
 9996SOL    HW131429   2.112   5.437  10.570  0.6236  1.9769 -1.7662
 9996SOL    HW231430   1.974   5.500  10.567  0.3944  1.5177 -1.0211
 9997SOL     OW31431   4.225   5.569  10.033 -0.3997 -0.4042 -0.0590
 9997SOL    HW131432   4.223   5.580   9.938 -0.2581  0.6717  0.0477
 9997SOL    HW231433   4.315   5.594  10.058 -0.9325  1.0935  0.5247
 9998SOL     OW31434   2.940   3.621   9.236  0.4183  0.3000  0.2652
 9998SOL    HW131435   2.901   3.686   9.177  2.3414 -0.3273 -1.8787
 9998SOL    HW231436   2.927   3.657   9.324  0.0876  2.8589 -0.7406
 9999SOL     OW31437   1.881   3.461   9.867 -0.0025 -0.0380 -0.1048
 9999SOL    HW131438   1.804   3.470   9.924 -1.8489 -0.3565 -2.4197
 9999SOL    HW231439   1.946   3.521   9.905 -1.1838 -0.1018  2.1811
10000SOL     OW31440   4.517   5.388  10.978 -0.4901  0.3548  0.6400
10000SOL    HW131441   4.603   5.360  10.949 -0.0560  0.5774  1.6742
10000SOL    HW231442   4.462   5.385  10.899  0.9993  2.4975 -0.5803
10001SOL     OW31443   2.665   4.764   8.849 -0.5998 -0.2478 -0.2705
10001SOL    HW131444   2.756   4.738   8.839  0.0738  1.0764  1.7558
10001SOL    HW231445   2.628   4.755   8.761  1.7960  0.3265 -1.4308
10002SOL     OW31446   1.786   6.191  11.771  0.2716 -0.1295  0.4245
10002SOL    HW131447   1.691   6.178  11.775 -0.0815  1.7911 -0.4428
10002SOL    HW231448   1.814   6.189  11.863 -0.8780  0.8327  0.8257
10003SOL     OW31449   2.788   5.537  10.834  0.2937 -0.4206  0.1671
10003SOL    HW131450   2.699   5.533  10.800  0.1273 -0.4673  0.6033
10003SOL    HW231451   2.787   5.479  10.910 -0.3455  2.4090  2.5121
10004SOL     OW31452   1.814   3.649   7.256  0.5965 -0.1330 -0.2645
10004SOL    HW131453   1.729   3.608   7.267  0.4269  0.5517  1.2901
10004SOL    HW231454   1.801   3.740   7.284  1.5786  0.2795 -1.0675
10005SOL     OW31455   4.688   5.190  10.846 -0.0878  0.3566  0.0985
10005SOL    HW131456   4.751   5.161  10.780  0.3735  1.2851  0.1075
10005SOL    HW231457   4.603   5.160  10.813  0.2392  0.0226 -0.4550
10006SOL     OW31458   1.425   2.822  10.390  0.0518 -0.5819  0.0411
10006SOL    HW131459   1.427   2.828  10.294 -1.3431  0.2132  0.0316
10006SOL    HW231460   1.516   2.834  10.416  0.5476 -1.4016 -1.1997
10007SOL     OW31461   4.337   4.292   9.856  0.0915  0.4333 -0.0658
10007SOL    HW131462   4.265   4.348   9.828 -1.3173 -0.6544  1.2134
10007SOL    HW231463   4.320   4.208   9.813  0.5569  0.1551  0.2878
10008SOL     OW31464   0.489   4.190  11.865 -0.1225  0.5224  0.2171
10008SOL    HW131465   0.577   4.156  11.884 -0.8642 -2.0017 -0.5769
10008SOL    HW231466   0.498   4.233  11.780  1.0887  3.6814  1.7477
10009SOL     OW31467   3.475   5.479  10.332 -0.6672 -0.0006  0.0930
10009SOL    HW131468   3.544   5.539  10.359  0.1986 -0.4521 -1.0080
10009SOL    HW231469   3.421   5.467  10.410  0.9924 -0.3002  1.2562
10010SOL     OW31470   3.462   4.221   9.845 -0.1179  0.2734 -0.0508
10010SOL    HW131471   3.475   4.192   9.936 -1.9538 -1.1256 -0.1762
10010SOL    HW231472   3.470   4.316   9.850  2.9961  0.0849  0.9521
10011SOL     OW31473   3.310   5.051   0.428  0.0734  0.5329  0.3820
10011SOL    HW131474   3.334   5.114   0.360 -2.3534  0.6921 -0.4194
10011SOL    HW231475   3.303   5.103   0.508  1.1980  0.6773  0.3937
10012SOL     OW31476   1.794   4.012  11.099 -0.2862  0.0108 -0.5021
10012SOL    HW131477   1.738   4.087  11.118 -0.8561 -0.6889  0.7017
10012SOL    HW231478   1.735   3.944  11.067  0.1292 -0.1440 -0.9585
10013SOL     OW31479   3.651   4.355  11.363  0.4871  0.5323  0.2715
10013SOL    HW131480   3.719   4.313  11.416  0.6712  0.9043  0.3325
10013SOL    HW231481   3.661   4.316  11.277  1.4092  1.2687  0.0226
10014SOL     OW31482   2.750   4.457   8.712 -0.2952  0.0809 -0.2223
10014SOL    HW131483   2.696   4.378   8.718 -1.6563  1.0807  3.4463
10014SOL    HW231484   2.690   4.523   8.677 -0.8603  0.6372  1.6672
10015SOL     OW31485   2.302   3.382   9.525  0.4674 -0.0469  0.5391
10015SOL    HW131486   2.308   3.307   9.584 -1.8582 -0.5225  0.2837
10015SOL    HW231487   2.391   3.395   9.493  1.2369 -1.6171  1.8851
10016SOL     OW31488   4.059   4.781   9.983 -0.2150  0.0572 -0.2417
10016SOL    HW131489   3.981   4.753   9.936 -0.2479  0.9442 -0.7396
10016SOL    HW231490   4.112   4.702   9.992 -1.0486 -0.4957 -0.1253
10017SOL     OW31491   2.589   6.096  11.325 -0.6115 -0.1409  0.9475
10017SOL    HW131492   2.531   6.036  11.277 -0.5201 -0.9812  1.8441
10017SOL    HW231493   2.539   6.119  11.404 -0.3176  0.3128  1.0042
10018SOL     OW31494   3.885   5.764  10.861 -0.4259 -0.0154  0.1086
10018SOL    HW131495   3.834   5.845  10.858 -1.0604 -0.4074  0.1116
10018SOL    HW231496   3.961   5.781  10.805 -0.2174  0.8067  0.6391
10019SOL     OW31497   2.666   6.859   9.734 -0.4294  0.0030 -0.4697
10019SOL    HW131498   2.737   6.795   9.728 -0.8020 -0.4862  0.2530
10019SOL    HW231499   2.706   6.936   9.774  0.2482  0.5786 -2.1990
10020SOL     OW31500   4.108   5.214   9.658  0.0847 -0.4411  0.7311
10020SOL    HW131501   4.097   5.129   9.701  0.5909 -0.5987  0.5535
10020SOL    HW231502   4.183   5.254   9.702  0.6019 -0.5986  0.0221
10021SOL     OW31503   2.997   4.730   9.315 -0.4774  0.7352 -0.0829
10021SOL    HW131504   3.052   4.652   9.319  0.5810  1.2412 -2.6984
10021SOL    HW231505   2.908   4.697   9.330  0.0884 -0.7181  0.2790
10022SOL     OW31506   4.258   4.304  10.618 -1.0784 -0.4165  0.3600
10022SOL    HW131507   4.284   4.392  10.590 -2.5294  0.3585  1.3154
10022SOL    HW231508   4.300   4.293  10.704 -0.2825 -0.9860 -0.0868
10023SOL     OW31509   3.535   4.285  12.296  0.4056  0.0949 -0.2236
10023SOL    HW131510   3.626   4.260  12.313  0.3797  0.5965  0.7555
10023SOL    HW231511   3.500   4.216  12.240  1.0060 -0.8186  0.5047
10024SOL     OW31512   0.556   3.780   8.669 -0.0355 -0.5158  0.2874
10024SOL    HW131513   0.615   3.826   8.729  0.2935 -0.2974 -0.1988
10024SOL    HW231514   0.472   3.778   8.715 -0.5949  2.2422 -0.4272
10025SOL     OW31515   2.465   5.089   8.887  0.1861  0.1833 -0.3091
10025SOL    HW131516   2.557   5.063   8.889  0.4247  1.0123 -0.2512
10025SOL    HW231517   2.442   5.089   8.794  0.3827  0.4544 -0.3578
10026SOL     OW31518   5.297   7.702  11.717  0.4111 -0.4430 -0.5146
10026SOL    HW131519   5.222   7.734  11.668  1.7854 -0.6249 -2.8819
10026SOL    HW231520   5.321   7.619  11.674  2.0909 -0.2786  0.0004
10027SOL     OW31521   3.025   4.551  11.369 -0.0716 -0.7525 -0.6225
10027SOL    HW131522   3.085   4.571  11.441  0.8064 -2.6307 -0.7752
10027SOL    HW231523   3.041   4.459  11.349 -3.4730 -1.5405 -0.2577
10028SOL     OW31524   2.884   4.677  10.793 -0.5913 -0.0924  0.3189
10028SOL    HW131525   2.830   4.684  10.872 -0.8810  0.9330  0.0383
10028SOL    HW231526   2.896   4.582  10.781 -0.0668 -0.2580  1.8975
10029SOL     OW31527   1.746   3.396  11.466 -0.0847  0.1471 -0.3577
10029SOL    HW131528   1.828   3.439  11.443 -0.1212 -0.5341 -1.8635
10029SOL    HW231529   1.682   3.429  11.403 -0.9068  0.3894  0.5699
10030SOL     OW31530   2.219   4.601   8.848 -0.4014  0.2000  0.2658
10030SOL    HW131531   2.225   4.692   8.876 -0.6829  0.1384  0.5270
10030SOL    HW231532   2.295   4.559   8.890  0.6879  0.6386 -1.1651
10031SOL     OW31533   3.630   5.047   9.321  0.0173  0.0871 -0.1625
10031SOL    HW131534   3.659   5.011   9.237  0.5090  1.1807 -0.4682
10031SOL    HW231535   3.535   5.059   9.310 -0.0124 -0.2897 -0.3531
10032SOL     OW31536   3.431   4.491   9.882  0.4964  0.0178 -0.3292
10032SOL    HW131537   3.505   4.536   9.843 -0.6347  3.6102  1.2133
10032SOL    HW231538   3.360   4.501   9.818  0.4419 -0.2145 -0.3037
10033SOL     OW31539   5.224   3.803   9.553 -0.2994 -0.0664  0.3042
10033SOL    HW131540   5.248   3.889   9.586  1.3406 -0.0698 -0.7636
10033SOL    HW231541   5.179   3.821   9.470 -0.4911 -0.2207  0.3742
10034SOL     OW31542   2.734   5.517   9.527 -0.2431  0.6279 -1.1054
10034SOL    HW131543   2.640   5.503   9.540 -0.3158  1.2270 -0.9782
10034SOL    HW231544   2.767   5.542   9.613 -0.1301  1.2938 -1.3371
10035SOL     OW31545   3.682   3.717  10.610  0.1564  0.5547 -0.0350
10035SOL    HW131546   3.626   3.642  10.631 -0.4072  1.0045  0.0811
10035SOL    HW231547   3.733   3.688  10.534 -0.4023  0.2196 -0.2874
10036SOL     OW31548   4.144   4.948   9.772 -0.5267 -0.6148 -0.3871
10036SOL    HW131549   4.105   4.901   9.846  0.5142 -1.2388 -0.2176
10036SOL    HW231550   4.238   4.928   9.777 -0.3696 -0.2762 -1.5919
10037SOL     OW31551   2.489   4.456   9.389  0.2054 -0.4960  0.1289
10037SOL    HW131552   2.546   4.429   9.461  0.5744  0.3921  0.1823
10037SOL    HW231553   2.537   4.432   9.310  1.2286  1.3134  0.1555
10038SOL     OW31554   3.482   4.759   9.993  0.1580 -0.0347  0.3363
10038SOL    HW131555   3.452   4.850   9.992 -1.0011 -0.3953 -1.0573
10038SOL    HW231556   3.509   4.742   9.903  0.2911 -1.0974  0.5641
10039SOL     OW31557   4.540   6.282  10.813 -0.4125 -0.5111 -0.0534
10039SOL    HW131558   4.556   6.271  10.907 -1.8600 -0.6149  0.1953
10039SOL    HW231559   4.484   6.359  10.806 -0.1371 -0.3668 -0.8642
10040SOL     OW31560   1.760   5.410   1.185 -0.2396  0.1457 -0.0483
10040SOL    HW131561   1.818   5.471   1.140  0.3392  0.6879  1.3801
10040SOL    HW231562   1.789   5.324   1.155  2.0222  0.3314  1.3236
10041SOL     OW31563   1.869   4.605  11.282 -0.2051 -0.1266  0.1543
10041SOL    HW131564   1.836   4.695  11.281  1.8283  0.6803  0.2015
10041SOL    HW231565   1.805   4.555  11.233 -0.1215  1.8538 -2.1211
10042SOL     OW31566   5.029   4.092  12.113  0.1355 -0.4160 -0.4007
10042SOL    HW131567   5.117   4.117  12.142  0.4059 -0.2998 -1.2884
10042SOL    HW231568   5.040   4.004  12.078 -0.1059 -0.4082 -0.4978
10043SOL     OW31569   2.894   4.093  10.173 -0.2120  0.1761 -0.3744
10043SOL    HW131570   2.927   4.134  10.093  1.7695  0.2529  0.4197
10043SOL    HW231571   2.890   3.999  10.152  1.5956  0.0225 -0.2064
10044SOL     OW31572   3.680   3.659   0.555  0.2874  0.5182 -0.3972
10044SOL    HW131573   3.758   3.683   0.505  0.8802 -0.0847  0.2163
10044SOL    HW231574   3.709   3.655   0.646 -0.6451  1.0488 -0.0605
10045SOL     OW31575   3.098   5.066  10.880 -0.1220 -0.0805 -0.0385
10045SOL    HW131576   3.011   5.100  10.900  0.7011  1.7857  0.6028
10045SOL    HW231577   3.088   4.971  10.882 -2.0447  0.0975  0.4313
10046SOL     OW31578   2.883   3.004   0.091  0.0703 -0.5069 -0.5658
10046SOL    HW131579   2.972   3.039   0.085  0.6507 -1.6992  0.6748
10046SOL    HW231580   2.828   3.082   0.101  1.1857  0.1625  0.6990
10047SOL     OW31581   2.691   3.457   1.178 -0.4842  0.4755  0.6316
10047SOL    HW131582   2.766   3.449   1.237 -0.8251  1.3232  1.2102
10047SOL    HW231583   2.694   3.548   1.148 -1.1830  0.4771  0.5377
10048SOL     OW31584   0.649   5.271   0.843  0.5204  0.0125  0.0608
10048SOL    HW131585   0.625   5.184   0.812  1.2490 -0.6303  1.2053
10048SOL    HW231586   0.566   5.312   0.867 -0.0690  0.5488 -2.6298
10049SOL     OW31587   2.201   3.270   9.299  0.4830 -0.1753 -0.1247
10049SOL    HW131588   2.109   3.251   9.321  0.2000  0.3228 -0.8299
10049SOL    HW231589   2.235   3.314   9.377  0.2310 -0.6845  0.2845
10050SOL     OW31590   3.347   2.560  12.000 -0.4542 -0.3081  0.3217
10050SOL    HW131591   3.266   2.601  12.030 -0.4721  0.0571 -0.2122
10050SOL    HW231592   3.371   2.609  11.921  0.5380 -0.1093  0.7370
10051SOL     OW31593   2.344   5.001   0.184  0.2784  0.3826  0.0949
10051SOL    HW131594   2.369   5.082   0.228  0.7628  0.8643 -1.0409
10051SOL    HW231595   2.289   5.029   0.111 -0.3825 -0.3932  0.2855
10052SOL     OW31596   4.025   4.958   1.158  0.4852  0.4341  0.6514
10052SOL    HW131597   4.013   4.867   1.182  1.4192  0.8532  2.9904
10052SOL    HW231598   3.937   4.989   1.136  0.2381 -1.1144 -0.7780
10053SOL     OW31599   2.777   4.506   1.718 -0.5564  0.1956 -0.3515
10053SOL    HW131600   2.689   4.513   1.681 -0.6921 -0.5290 -0.1719
10053SOL    HW231601   2.826   4.576   1.675 -1.2323  0.6479 -0.4073
10054SOL     OW31602   2.150   3.352  10.899  0.1347 -0.1503  1.2800
10054SOL    HW131603   2.108   3.384  10.979  0.2942  1.0578  0.9003
10054SOL    HW231604   2.205   3.424  10.870 -1.2869  0.1443 -0.9001
10055SOL     OW31605   3.932   4.278  10.662 -0.2567  0.0323  0.3187
10055SOL    HW131606   4.026   4.295  10.657 -0.2688 -0.1180 -0.6001
10055SOL    HW231607   3.925   4.184  10.678 -0.2541 -0.1564 -0.7321
10056SOL     OW31608   1.954   2.685  12.011  0.5461  0.2821 -0.1716
10056SOL    HW131609   1.871   2.732  12.000  0.3350 -0.2008 -0.6751
10056SOL    HW231610   2.015   2.730  11.952  0.2407 -0.3075 -0.9564
10057SOL     OW31611   5.497   4.081  11.003  0.2921  0.4740 -0.7667
10057SOL    HW131612   5.419   4.091  10.948  1.0901  0.6940 -1.8788
10057SOL    HW231613   5.520   4.170  11.029 -0.5886  0.3099  0.6889
10058SOL     OW31614   3.009   4.369   2.434 -0.3738 -0.5657  0.2198
10058SOL    HW131615   2.942   4.310   2.470  0.0666 -1.0488  0.2706
10058SOL    HW231616   2.959   4.434   2.384 -0.8973 -0.7519  0.4871
10059SOL     OW31617   2.770   4.831  10.584  0.5359 -0.3932 -0.6792
10059SOL    HW131618   2.815   4.791  10.658 -1.5689  1.2984  1.6686
10059SOL    HW231619   2.800   4.922  10.583  0.1881 -0.2692 -1.6433
10060SOL     OW31620   3.632   3.622  12.180 -0.1048 -0.1676 -0.3860
10060SOL    HW131621   3.716   3.620  12.134 -0.0772 -0.9910 -0.3209
10060SOL    HW231622   3.568   3.647  12.112  0.2022  0.5842 -0.4054
10061SOL     OW31623   3.200   2.555   0.984  0.3628 -0.6936 -0.3853
10061SOL    HW131624   3.238   2.623   0.929 -0.6140  0.8315  0.7249
10061SOL    HW231625   3.259   2.549   1.059 -0.3829  0.1157  0.2882
10062SOL     OW31626   4.118   4.492  11.027  0.1092 -0.0908  0.7181
10062SOL    HW131627   4.039   4.446  11.054  0.2594  0.1510  1.6103
10062SOL    HW231628   4.087   4.563  10.971 -0.1674 -0.9243 -0.2106
10063SOL     OW31629   3.261   5.085  10.650 -0.4245  0.2824  0.3789
10063SOL    HW131630   3.209   5.035  10.586 -1.4140  0.0900  1.3009
10063SOL    HW231631   3.198   5.106  10.719  1.2283 -1.9943  2.7471
10064SOL     OW31632   4.094   6.117  11.869  0.1118 -0.6918 -0.1315
10064SOL    HW131633   4.168   6.177  11.864 -0.8776  0.5390 -0.4557
10064SOL    HW231634   4.093   6.073  11.784  0.2805 -0.4984 -0.2332
10065SOL     OW31635   4.134   4.176  10.379 -0.4846  0.7561  0.1407
10065SOL    HW131636   4.164   4.213  10.296 -0.9316 -0.7904 -0.7381
10065SOL    HW231637   4.187   4.222  10.445  1.8336  0.1441 -1.1608
10066SOL     OW31638   4.682   2.476  10.282  0.2165  0.1869  0.0660
10066SOL    HW131639   4.590   2.476  10.309 -0.1995  0.7437 -1.2622
10066SOL    HW231640   4.682   2.522  10.198  1.7234  0.2465  0.0799
10067SOL     OW31641   5.259   4.007  10.271 -0.0086 -0.0341 -0.4534
10067SOL    HW131642   5.170   3.976  10.257  0.4007 -1.4991  0.0647
10067SOL    HW231643   5.253   4.102  10.264 -1.2812 -0.2030 -2.2905
10068SOL     OW31644   4.359   3.538  12.439  0.5822 -0.3908 -0.0879
10068SOL    HW131645   4.366   3.517  12.346  0.2604 -1.8067  0.1851
10068SOL    HW231646   4.440   3.504  12.478  0.3554 -0.5190  0.2768
10069SOL     OW31647   2.139   3.665  11.924 -0.7807 -0.4005  0.3511
10069SOL    HW131648   2.131   3.677  11.829 -0.3594 -1.9288  0.0831
10069SOL    HW231649   2.174   3.748  11.956  3.8184 -1.2777 -1.5295
10070SOL     OW31650   3.009   3.845  11.007 -0.2593  0.1386  0.2864
10070SOL    HW131651   2.954   3.789  10.952 -1.3586  0.5185  0.9798
10070SOL    HW231652   3.051   3.784  11.068  1.4964 -0.3763 -1.3443
10071SOL     OW31653   4.077   2.508  10.808  0.3599 -0.3314  0.3219
10071SOL    HW131654   3.997   2.455  10.813  0.1045  0.0802  0.7216
10071SOL    HW231655   4.141   2.452  10.765 -0.8162  0.1464 -2.1854
10072SOL     OW31656   3.377   4.303   0.648 -0.1332  0.0169 -0.0750
10072SOL    HW131657   3.450   4.259   0.690 -0.6698 -0.8412 -0.0211
10072SOL    HW231658   3.302   4.288   0.706 -0.6615 -0.3331 -0.8270
10073SOL     OW31659   3.980   3.144  10.756  0.0760 -0.3956 -0.1732
10073SOL    HW131660   4.025   3.076  10.707  0.4191 -0.2925 -0.0038
10073SOL    HW231661   3.992   3.224  10.704 -0.7235 -0.5489 -0.6099
10074SOL     OW31662   4.199   5.103  10.953 -0.3046 -0.2193  0.1758
10074SOL    HW131663   4.293   5.095  10.936 -0.0912 -0.2782  1.3052
10074SOL    HW231664   4.189   5.190  10.993 -0.7560 -0.1492 -0.0791
10075SOL     OW31665   3.747   5.104  12.136  0.9341  0.2046 -0.8514
10075SOL    HW131666   3.736   5.199  12.132  1.2826  0.2689 -0.3894
10075SOL    HW231667   3.813   5.091  12.204  0.7233 -0.3819 -0.7574
10076SOL     OW31668   3.096   4.915  11.446 -0.0036 -0.0212  0.0822
10076SOL    HW131669   3.166   4.972  11.416  0.4471  0.0082  1.1371
10076SOL    HW231670   3.027   4.924  11.381  0.6699  0.5439 -0.5607
10077SOL     OW31671   3.876   5.546  10.567  0.5974 -0.6092  0.4239
10077SOL    HW131672   3.823   5.481  10.613 -3.2752  0.5214 -2.0229
10077SOL    HW231673   3.882   5.513  10.477  2.0535  0.5155  0.0686
10078SOL     OW31674   2.152   5.628  11.108 -0.0612 -0.6736  0.2790
10078SOL    HW131675   2.174   5.582  11.189 -0.4986 -3.2069 -0.9305
10078SOL    HW231676   2.057   5.627  11.105 -0.0723  0.1202  0.0865
10079SOL     OW31677   2.632   1.887  11.729  0.0545  0.2273 -0.3701
10079SOL    HW131678   2.545   1.900  11.690 -0.3478  0.2629  0.5106
10079SOL    HW231679   2.660   1.975  11.754  1.2140  0.4971 -2.3761
10080SOL     OW31680   3.078   3.593   0.435  0.0254  0.4258 -0.4700
10080SOL    HW131681   3.071   3.608   0.529 -1.0376 -2.0757 -0.0607
10080SOL    HW231682   2.988   3.583   0.405  0.4154 -1.5819 -1.1583
10081SOL     OW31683   2.878   6.192   9.643  0.2323 -0.0037  0.2601
10081SOL    HW131684   2.875   6.287   9.650 -0.1854  0.1222 -1.1951
10081SOL    HW231685   2.834   6.160   9.721  1.7311  0.9482  1.5460
10082SOL     OW31686   5.187   3.295   9.817 -0.1954 -0.3635 -0.2988
10082SOL    HW131687   5.110   3.342   9.786 -0.0086  1.4611  1.7276
10082SOL    HW231688   5.153   3.221   9.867 -0.7884  1.3803  2.0331
10083SOL     OW31689   2.605   3.266   0.262  0.5455 -0.1610  0.7964
10083SOL    HW131690   2.663   3.195   0.290  0.4255 -0.4952  0.2101
10083SOL    HW231691   2.569   3.301   0.344  2.3245  0.7053  1.2594
10084SOL     OW31692   3.925   4.727  11.935  0.2006  0.2115  0.0275
10084SOL    HW131693   3.848   4.700  11.985  1.6949 -1.3972  1.5945
10084SOL    HW231694   3.996   4.675  11.971  2.1128  1.8925 -1.1374
10085SOL     OW31695   2.892   4.081  12.349 -0.0873 -0.3517  0.1399
10085SOL    HW131696   2.916   4.145  12.416  1.5910 -0.8574  0.0511
10085SOL    HW231697   2.883   3.999  12.397 -1.6022 -0.2085  0.1488
10086SOL     OW31698   3.541   4.903  10.705  0.1793  0.2690  0.1381
10086SOL    HW131699   3.632   4.875  10.700  0.0847 -0.0682  0.2800
10086SOL    HW231700   3.545   4.990  10.744  0.5939  1.1400 -1.7318
10087SOL     OW31701   5.108   3.531  12.498 -0.6631  0.1603 -0.2033
10087SOL    HW131702   5.187   3.500  12.542 -1.6579 -0.6794  1.0463
10087SOL    HW231703   5.066   3.452  12.464 -0.9508  0.6084 -0.9151
10088SOL     OW31704   2.619   3.884  11.126  0.6069 -0.0346 -0.7731
10088SOL    HW131705   2.665   3.921  11.051  0.6271  0.1556 -0.6684
10088SOL    HW231706   2.677   3.903  11.201  1.0046 -0.9930 -0.8315
10089SOL     OW31707   2.550   3.421  11.372 -0.1376 -0.3468  0.0204
10089SOL    HW131708   2.482   3.407  11.307  0.9609 -0.3837 -1.1542
10089SOL    HW231709   2.561   3.335  11.414 -0.4109 -0.4746 -0.1652
10090SOL     OW31710   3.454   3.077  12.327  0.0988  0.1450 -0.5258
10090SOL    HW131711   3.542   3.065  12.362  0.4617  0.5049 -1.2781
10090SOL    HW231712   3.396   3.070  12.403  0.7466 -0.4280 -0.0740
10091SOL     OW31713   3.826   1.478  11.848 -0.1312 -0.2601 -0.4901
10091SOL    HW131714   3.852   1.541  11.915  0.1650 -1.0425  0.1386
10091SOL    HW231715   3.743   1.442  11.878  0.4879 -1.3496 -0.0014
10092SOL     OW31716   3.938   3.778  11.323 -1.0467  0.4665  0.1220
10092SOL    HW131717   3.899   3.859  11.291 -2.5322 -1.0735 -2.4074
10092SOL    HW231718   3.862   3.723  11.346 -0.0787 -0.1083  2.2058
10093SOL     OW31719   3.863   5.651  12.439  0.2850  0.5537  0.1778
10093SOL    HW131720   3.936   5.623  12.385  0.9103  0.9290  0.8089
10093SOL    HW231721   3.807   5.573  12.447 -0.5668  0.8441 -2.1243
10094SOL     OW31722   2.728   1.904  12.209 -0.5802 -0.1320  0.6566
10094SOL    HW131723   2.735   1.843  12.136 -0.6985  0.3586  0.2386
10094SOL    HW231724   2.648   1.879  12.254  0.1266 -1.2416  1.3640
10095SOL     OW31725   3.005   6.371   1.030  0.0485 -0.5432 -0.6560
10095SOL    HW131726   2.992   6.304   1.097 -2.6658 -0.2544 -0.7936
10095SOL    HW231727   2.973   6.331   0.949  1.3423 -0.1468 -1.3936
10096SOL     OW31728   4.156   2.652  10.499  0.2924  0.1872  0.0107
10096SOL    HW131729   4.079   2.693  10.461  0.7336  1.1735  0.1374
10096SOL    HW231730   4.124   2.604  10.575 -0.1252  1.1041  0.4280
10097SOL     OW31731   3.899   3.591  12.085  0.0704 -0.5588  0.1485
10097SOL    HW131732   3.938   3.596  12.173  0.5862 -1.4444 -0.0245
10097SOL    HW231733   3.950   3.524  12.040  0.2369  0.3530 -1.0536
10098SOL     OW31734   2.486   5.454  10.785 -0.1351  0.4826  0.5193
10098SOL    HW131735   2.435   5.438  10.864  0.1143  3.3425  1.3398
10098SOL    HW231736   2.454   5.537  10.751  1.3198  0.4299 -1.1396
10099SOL     OW31737   4.754   3.362   9.597  0.3092  0.1662 -0.6130
10099SOL    HW131738   4.719   3.273   9.593 -0.3155  0.4303 -1.4220
10099SOL    HW231739   4.702   3.411   9.533  0.5148  1.1605 -0.0405
10100SOL     OW31740   2.396   4.645  12.060  0.6283  0.6950  0.5678
10100SOL    HW131741   2.469   4.706  12.072 -0.9345  2.6602  0.5923
10100SOL    HW231742   2.337   4.691  12.000 -1.5341  0.0689  2.1358
10101SOL     OW31743   5.885   4.285   0.312 -0.2255 -0.3293 -0.8267
10101SOL    HW131744   5.909   4.207   0.362  1.3163 -0.0840 -1.1529
10101SOL    HW231745   5.805   4.317   0.354  1.3017  0.1826  1.8639
10102SOL     OW31746   4.635   4.357  11.950 -0.5721  0.5916 -0.1307
10102SOL    HW131747   4.700   4.408  11.902  2.0153 -0.6257  1.8946
10102SOL    HW231748   4.582   4.423  11.994 -0.2831  1.5935 -1.2178
10103SOL     OW31749   3.233   5.397  11.342  1.0233  0.1629  0.3917
10103SOL    HW131750   3.156   5.444  11.375  1.2058 -0.1211  1.2508
10103SOL    HW231751   3.200   5.348  11.267  0.2990 -0.1499  0.8984
10104SOL     OW31752   3.137   4.881  10.493  0.7702  0.4526 -0.3493
10104SOL    HW131753   3.229   4.854  10.490  0.4055 -0.8078 -2.7031
10104SOL    HW231754   3.094   4.811  10.543  0.8732  0.2816 -0.4977
10105SOL     OW31755   3.632   2.911  10.129 -0.0312 -0.2682 -0.7509
10105SOL    HW131756   3.635   2.913  10.224  0.2398 -1.1361 -0.7295
10105SOL    HW231757   3.573   2.982  10.105  0.4699  0.4164  0.0239
10106SOL     OW31758   3.764   2.085  11.768  0.5289  0.2882 -0.0702
10106SOL    HW131759   3.799   2.015  11.824 -1.7892 -1.8146 -1.0466
10106SOL    HW231760   3.732   2.151  11.829  1.7769 -0.0094  0.9370
10107SOL     OW31761   3.333   4.040  12.464  0.7571  0.0898 -0.4400
10107SOL    HW131762   3.401   4.036  12.531  0.0324 -0.8621  0.2774
10107SOL    HW231763   3.254   4.066  12.512  0.4537  0.4174 -1.1137
10108SOL     OW31764   3.244   5.277  11.072 -0.4485  0.1623  0.5379
10108SOL    HW131765   3.194   5.217  11.127  2.1861 -0.7976  2.0946
10108SOL    HW231766   3.252   5.231  10.988 -0.8142 -0.3828  0.7961
10109SOL     OW31767   4.286   4.558  10.453  0.3698  0.5392  0.1541
10109SOL    HW131768   4.319   4.608  10.379  1.3097 -1.2771 -0.7240
10109SOL    HW231769   4.204   4.520  10.421  0.4999  0.1961  0.2257
10110SOL     OW31770   1.986   3.433  11.971  0.0977 -0.0830 -0.0761
10110SOL    HW131771   2.025   3.518  11.956 -0.8128  0.2640 -0.5093
10110SOL    HW231772   1.921   3.422  11.902  0.1233 -1.0813  0.0309
10111SOL     OW31773   3.578   4.719   1.295 -0.2679  0.2350  0.5169
10111SOL    HW131774   3.647   4.710   1.361  0.3483  1.5856  0.1059
10111SOL    HW231775   3.504   4.671   1.331 -0.2028  1.5368  2.5909
10112SOL     OW31776   2.619   4.591  11.284  0.1556  0.9283  0.8008
10112SOL    HW131777   2.567   4.597  11.204  1.2602  1.1532  0.0823
10112SOL    HW231778   2.589   4.663  11.338  0.8440  2.0649 -0.2892
10113SOL     OW31779   3.441   4.870  10.959 -0.6287  0.0829  0.3527
10113SOL    HW131780   3.488   4.890  10.877 -0.1183 -0.6447  0.4603
10113SOL    HW231781   3.391   4.791  10.939 -0.5589 -0.0542  0.7223
10114SOL     OW31782   3.411   3.827  12.298  0.0649 -0.5126  0.8557
10114SOL    HW131783   3.484   3.809  12.357 -0.4894 -2.0239  1.1223
10114SOL    HW231784   3.347   3.874  12.352  0.7464  0.6868  0.6583
10115SOL     OW31785   3.968   6.598  12.255 -0.1387  0.0284  0.6221
10115SOL    HW131786   3.882   6.584  12.294  0.0641 -1.6476  0.5447
10115SOL    HW231787   4.026   6.540  12.303  0.5158 -0.4974 -0.7442
10116SOL     OW31788   3.937   3.561   0.377  0.1612  0.4828 -0.2396
10116SOL    HW131789   3.952   3.469   0.398 -2.6572  0.0705  0.4397
10116SOL    HW231790   3.896   3.560   0.291  2.8982  1.4300 -1.6555
10117SOL     OW31791   2.309   6.150   1.832 -0.4171 -0.8708  0.1868
10117SOL    HW131792   2.233   6.115   1.786  0.7583 -0.2733 -2.4100
10117SOL    HW231793   2.364   6.074   1.849 -0.5549 -1.0110  0.0044
10118SOL     OW31794   3.336   3.705   0.970  0.1888 -0.4050  0.0418
10118SOL    HW131795   3.280   3.663   0.905 -0.5395 -1.2079  1.1594
10118SOL    HW231796   3.412   3.647   0.977  0.6198  0.0607 -0.5940
10119SOL     OW31797   4.538   4.078  11.502  0.5710  0.4668 -0.1540
10119SOL    HW131798   4.509   3.988  11.517 -0.4151  0.7359 -0.3554
10119SOL    HW231799   4.629   4.079  11.530  1.1058 -0.9989 -1.7119
10120SOL     OW31800   2.090   4.992  11.419 -0.2828 -0.3474  0.5875
10120SOL    HW131801   2.118   4.968  11.508 -0.3128  0.0894  0.7173
10120SOL    HW231802   2.099   4.911  11.368  0.4529 -0.4165  0.8158
10121SOL     OW31803   2.798   3.814  12.021  0.5741 -0.3307  0.1796
10121SOL    HW131804   2.850   3.754  12.074  0.0049 -0.8019  0.2197
10121SOL    HW231805   2.798   3.775  11.934 -1.2483 -1.3816  0.5792
10122SOL     OW31806   4.162   4.736  12.323 -0.3764  1.1585  0.2923
10122SOL    HW131807   4.075   4.700  12.342 -0.4048  0.8645 -0.3442
10122SOL    HW231808   4.151   4.777  12.237  0.1893  0.8553  0.0726
10123SOL     OW31809   3.382   2.484   0.020 -0.3450 -0.2771  0.1422
10123SOL    HW131810   3.380   2.533   0.102  0.4422  0.6280 -0.3643
10123SOL    HW231811   3.449   2.417   0.033  0.5209  0.5237 -0.1093
10124SOL     OW31812   2.579   1.528  11.961  0.2401 -0.2658  0.4053
10124SOL    HW131813   2.642   1.599  11.946 -1.4804  1.1811 -0.3714
10124SOL    HW231814   2.623   1.470  12.022  1.3796  1.9908  1.8954
10125SOL     OW31815   3.392   3.864  11.577  0.2011  0.8531  0.1431
10125SOL    HW131816   3.447   3.943  11.576  0.9962  0.3316  0.8705
10125SOL    HW231817   3.318   3.885  11.520  0.3919  2.1280  0.3361
10126SOL     OW31818   3.572   3.242   0.437  0.1105 -0.3694  0.2078
10126SOL    HW131819   3.616   3.158   0.422  0.4247  0.1303 -1.9524
10126SOL    HW231820   3.483   3.217   0.462  0.3985 -1.3482  0.3143
10127SOL     OW31821   2.882   2.929  11.943  0.2615 -0.1235  0.5742
10127SOL    HW131822   2.867   2.875  11.866  1.0649  1.5148 -0.8213
10127SOL    HW231823   2.977   2.930  11.953  0.2146  0.4312  1.0166
10128SOL     OW31824   5.133   5.592  10.116 -0.1029 -0.3181  0.5102
10128SOL    HW131825   5.041   5.609  10.138 -0.0310  0.1370  0.4755
10128SOL    HW231826   5.171   5.559  10.197 -0.2945 -0.5003  0.5279
10129SOL     OW31827   4.099   5.967  12.354  0.9481  0.1393  0.2533
10129SOL    HW131828   4.168   5.957  12.420  1.6183  0.0948 -0.4338
10129SOL    HW231829   4.147   5.978  12.272  0.2493  3.3800  0.1283
10130SOL     OW31830   4.825   3.794  11.566 -0.4065  0.9447 -0.3553
10130SOL    HW131831   4.761   3.791  11.638  0.5329  2.7456  0.6161
10130SOL    HW231832   4.808   3.877  11.522  1.9833  2.0531  0.6727
10131SOL     OW31833   2.072   3.329  11.621  0.1529 -0.5035 -0.1516
10131SOL    HW131834   2.062   3.235  11.630  0.0618 -0.6442 -1.5452
10131SOL    HW231835   2.130   3.340  11.545  0.1641  0.5598 -0.0076
10132SOL     OW31836   4.446   3.854  12.045 -0.3407  0.0194 -0.7939
10132SOL    HW131837   4.533   3.885  12.071 -0.6822  2.3248 -2.1136
10132SOL    HW231838   4.449   3.760  12.060  0.9677  0.5065  3.0859
10133SOL     OW31839   0.620   4.087  12.111  0.0033 -0.4002 -0.4495
10133SOL    HW131840   0.629   4.178  12.137  0.6986 -1.3056  2.8910
10133SOL    HW231841   0.680   4.078  12.036  0.2738  1.7427 -0.5540
10134SOL     OW31842   4.466   5.132  11.807  0.0267  0.0847 -0.0958
10134SOL    HW131843   4.456   5.166  11.896 -0.6265 -0.0408 -0.1203
10134SOL    HW231844   4.551   5.167  11.778  0.0847  0.4079  0.4461
10135SOL     OW31845   3.915   2.494   1.131  0.6125  0.1806 -0.1965
10135SOL    HW131846   3.871   2.459   1.054 -2.2036  2.0403  0.4465
10135SOL    HW231847   3.923   2.419   1.190 -0.7381 -0.4427 -0.7768
10136SOL     OW31848   3.900   4.933  12.450  0.0094 -0.2024 -0.5933
10136SOL    HW131849   3.985   4.947  12.491 -0.4386 -0.0121  0.3034
10136SOL    HW231850   3.857   5.019  12.454 -0.3910 -0.3973 -0.6426
10137SOL     OW31851   0.049   3.684   0.976 -0.2015 -0.1512  0.1117
10137SOL    HW131852   0.070   3.777   0.981 -0.5916 -0.1121  1.7850
10137SOL    HW231853  -0.040   3.681   0.941  0.0043  0.0721 -0.4372
10138SOL     OW31854   3.836   3.411  10.817  0.2526 -0.0797 -0.1007
10138SOL    HW131855   3.831   3.490  10.871  0.8693  0.1249 -0.3360
10138SOL    HW231856   3.752   3.408  10.772  0.2243  0.4484 -0.0936
10139SOL     OW31857   3.925   2.571  11.354 -0.1549  0.1857  0.0551
10139SOL    HW131858   3.888   2.560  11.266  1.9310  1.9475 -1.1536
10139SOL    HW231859   4.003   2.517  11.355  0.3312  0.8749  0.4879
10140SOL     OW31860   2.501   5.567   0.461  0.6050  0.1660 -0.2470
10140SOL    HW131861   2.574   5.627   0.449  0.5491  0.1749 -0.5667
10140SOL    HW231862   2.510   5.505   0.389  0.1110  0.3578 -0.4747
10141SOL     OW31863   3.993   4.495  11.382  0.4005 -0.3671  0.2754
10141SOL    HW131864   3.950   4.413  11.408 -0.5592 -0.4269 -1.3764
10141SOL    HW231865   3.955   4.516  11.297  1.5642  1.1409  0.0910
10142SOL     OW31866   4.741   3.872  12.102 -0.1110 -0.4128 -0.2726
10142SOL    HW131867   4.730   3.960  12.139 -0.2211 -0.6471  0.2482
10142SOL    HW231868   4.833   3.870  12.075 -0.3675  0.2316 -1.2571
10143SOL     OW31869   3.687   1.789  10.859  0.9189 -0.2500 -0.2895
10143SOL    HW131870   3.693   1.700  10.894  0.7360 -0.1580 -0.0166
10143SOL    HW231871   3.755   1.794  10.792  0.2806 -0.9209 -1.0207
10144SOL     OW31872   5.311   7.341  12.375 -0.1855 -0.2523 -0.2695
10144SOL    HW131873   5.304   7.367  12.283  0.7827 -0.4148 -0.4066
10144SOL    HW231874   5.251   7.267  12.384 -0.9430  0.3243 -0.5482
10145SOL     OW31875   3.124   5.356  12.002 -0.4402  0.4011  0.2116
10145SOL    HW131876   3.048   5.305  11.974 -0.4085  1.0085 -1.0690
10145SOL    HW231877   3.163   5.305  12.073  0.7441 -2.4727 -2.2720
10146SOL     OW31878   1.476   4.052  12.143 -0.4880 -0.0029 -0.2471
10146SOL    HW131879   1.519   3.993  12.205 -0.7263 -0.3112 -0.3707
10146SOL    HW231880   1.395   4.006  12.119 -0.9205  0.6036  0.0425
10147SOL     OW31881   3.670   4.295   1.423  0.0327 -0.3748  0.1148
10147SOL    HW131882   3.673   4.201   1.405  1.2897 -0.1310 -1.1121
10147SOL    HW231883   3.688   4.337   1.339 -1.4788  1.0128  0.4249
10148SOL     OW31884   5.327   4.074  12.218 -0.1034  0.1093  0.3136
10148SOL    HW131885   5.340   3.983  12.190 -1.6116  0.2439 -1.0197
10148SOL    HW231886   5.260   4.068  12.286 -0.5213  0.2291 -0.0764
10149SOL     OW31887   4.072   3.639  12.290  0.0799  0.4141 -0.4974
10149SOL    HW131888   4.141   3.588  12.247  1.5373  0.7295  1.3187
10149SOL    HW231889   4.110   3.726  12.300  0.2388  0.1248  2.1953
10150SOL     OW31890   1.175   4.030  10.770  0.3387 -0.6648  0.0568
10150SOL    HW131891   1.154   4.124  10.770  1.9628 -0.2782  0.5554
10150SOL    HW231892   1.108   3.991  10.713  0.8663  1.0818 -1.8836
10151SOL     OW31893   4.503   5.339   0.708  0.1073 -0.7176 -0.1102
10151SOL    HW131894   4.558   5.416   0.693 -0.0271 -0.4263  0.8204
10151SOL    HW231895   4.538   5.273   0.648  0.6112 -0.1224 -0.4871
10152SOL     OW31896   4.668   5.056  12.052 -0.0980 -0.2185  0.2524
10152SOL    HW131897   4.631   4.968  12.056 -0.1774 -0.1495  1.4828
10152SOL    HW231898   4.593   5.114  12.061 -0.0914  0.0032 -0.9339
10153SOL     OW31899   2.412   3.731  11.269  0.4782 -0.5060  0.3870
10153SOL    HW131900   2.447   3.774  11.347 -1.5970 -0.2719  1.2503
10153SOL    HW231901   2.467   3.763  11.197  2.4257 -0.7097  1.6946
10154SOL     OW31902   2.262   5.438   9.962 -0.2925 -0.3691 -0.3249
10154SOL    HW131903   2.171   5.465   9.957  0.1852  1.3828 -0.3127
10154SOL    HW231904   2.302   5.499  10.024  0.9792 -0.8296 -0.6527
10155SOL     OW31905   3.189   5.671   1.611  0.2347 -0.1501  0.2919
10155SOL    HW131906   3.112   5.618   1.588  0.1530 -0.2388  0.7587
10155SOL    HW231907   3.215   5.638   1.697  0.9950 -0.3472 -0.0065
10156SOL     OW31908   4.921   4.554   9.890  0.3274  0.3302  0.2419
10156SOL    HW131909   4.837   4.508   9.891 -0.7796  2.2223  0.1696
10156SOL    HW231910   4.960   4.535   9.975 -0.8986  0.6235  0.9045
10157SOL     OW31911   5.501   6.861  11.217 -0.0658 -0.1869 -0.2766
10157SOL    HW131912   5.586   6.859  11.172  1.2391  2.8191  1.7478
10157SOL    HW231913   5.438   6.838  11.149  2.2372 -1.9399 -2.0202
10158SOL     OW31914   3.485   6.492   0.573 -0.0905  0.3920 -0.1713
10158SOL    HW131915   3.457   6.483   0.664 -0.4836  1.5045 -0.1552
10158SOL    HW231916   3.555   6.558   0.576  0.3182 -0.0190 -0.5990
10159SOL     OW31917   3.123   4.715  12.163 -0.1651 -0.1485 -0.0169
10159SOL    HW131918   3.048   4.665  12.195  0.6764 -0.4462  1.6132
10159SOL    HW231919   3.192   4.650  12.151  1.1204  0.5574  2.6699
10160SOL     OW31920   3.727   3.617   0.823 -0.5544  0.0007 -0.3767
10160SOL    HW131921   3.798   3.553   0.819 -0.7563 -0.2451 -0.0252
10160SOL    HW231922   3.749   3.672   0.898 -1.0042 -0.3976  0.0519
10161SOL     OW31923   3.586   1.376   0.330 -0.3371  0.1933  0.0871
10161SOL    HW131924   3.613   1.298   0.282 -0.6705 -0.6725  1.2674
10161SOL    HW231925   3.504   1.352   0.372 -0.9964  1.5374 -0.3717
10162SOL     OW31926   2.270   5.048  11.106 -0.5195  0.3006  0.0970
10162SOL    HW131927   2.289   5.071  11.015  0.0514 -1.3948 -0.2582
10162SOL    HW231928   2.294   5.126  11.156  0.0068  0.9442 -1.1080
10163SOL     OW31929   3.192   3.251  11.341  0.7451 -0.3753  0.4528
10163SOL    HW131930   3.125   3.190  11.374 -0.2070  1.1014  1.3561
10163SOL    HW231931   3.233   3.286  11.420 -1.1835  2.7989  0.2040
10164SOL     OW31932   2.633   4.772  11.534  0.3687 -0.2086  0.0980
10164SOL    HW131933   2.576   4.717  11.588  0.4830 -0.6918 -0.2667
10164SOL    HW231934   2.720   4.735  11.546  0.6427  0.5996  0.7464
10165SOL     OW31935   2.199   2.938   0.616  0.4977 -0.3240 -0.3981
10165SOL    HW131936   2.267   2.898   0.562  1.2156 -1.9274  1.5655
10165SOL    HW231937   2.247   2.979   0.688 -0.5677 -1.5577  1.0776
10166SOL     OW31938   3.609   5.264  10.658  0.2131 -0.1363  0.2081
10166SOL    HW131939   3.575   5.230  10.740  0.4764  0.4054  0.5491
10166SOL    HW231940   3.700   5.286  10.677  0.9206 -1.9435 -0.7959
10167SOL     OW31941   3.018   5.830  11.285 -0.0733 -0.4145 -0.2061
10167SOL    HW131942   3.021   5.764  11.216  1.3254 -1.2803  0.6314
10167SOL    HW231943   3.082   5.896  11.258 -1.1067  0.3871 -0.7906
10168SOL     OW31944   4.202   2.468   0.453 -0.1916  0.1780  0.2204
10168SOL    HW131945   4.221   2.551   0.409 -0.0922 -0.3736 -0.8042
10168SOL    HW231946   4.138   2.491   0.520  0.1589  1.1562  0.2404
10169SOL     OW31947   1.836   5.210  11.735 -0.0568 -0.2706 -0.0574
10169SOL    HW131948   1.902   5.219  11.666  0.5926 -0.4410  0.5254
10169SOL    HW231949   1.847   5.288  11.789 -1.0751  0.2405 -0.5564
10170SOL     OW31950   4.258   4.607   1.584  0.0509  0.0970  0.1023
10170SOL    HW131951   4.268   4.574   1.674 -0.8745  1.4278  0.7202
10170SOL    HW231952   4.267   4.529   1.529 -1.4517 -1.1150  1.4626
10171SOL     OW31953   2.562   5.192  10.980 -0.5690 -0.3150 -0.7024
10171SOL    HW131954   2.479   5.150  10.956 -0.8386  0.4115 -1.0908
10171SOL    HW231955   2.536   5.275  11.019 -0.0711 -0.8005  0.7222
10172SOL     OW31956   1.279   4.907   0.658  0.1528 -0.0424  0.5098
10172SOL    HW131957   1.348   4.921   0.593  0.8450  0.7539  1.3976
10172SOL    HW231958   1.300   4.823   0.698  0.2514 -0.1025  0.3306
10173SOL     OW31959   3.226   5.828  11.877  0.0707 -0.3088 -0.3277
10173SOL    HW131960   3.276   5.746  11.879  1.8462  0.7217 -0.1471
10173SOL    HW231961   3.227   5.858  11.968  1.3555  0.9832 -0.7333
10174SOL     OW31962   3.694   2.967  11.502 -0.3671  0.3964 -0.3187
10174SOL    HW131963   3.603   2.988  11.484 -0.2426  0.9561 -0.3214
10174SOL    HW231964   3.736   3.052  11.519  0.5953  0.3761 -2.3440
10175SOL     OW31965   3.013   5.549  11.353 -0.0559 -0.1417  0.0914
10175SOL    HW131966   3.017   5.561  11.258  0.8807 -0.6007  0.0651
10175SOL    HW231967   3.049   5.631  11.388  3.2049 -1.3867 -0.0396
10176SOL     OW31968   4.733   4.285   0.343  0.9521 -0.1071  0.1671
10176SOL    HW131969   4.768   4.335   0.416  1.3545  0.5383 -0.4541
10176SOL    HW231970   4.806   4.277   0.282  0.2123  0.6937 -0.8569
10177SOL     OW31971   4.494   2.327  11.363  0.2184  0.3033  0.3045
10177SOL    HW131972   4.424   2.282  11.410  0.3030  2.1172  2.2789
10177SOL    HW231973   4.565   2.263  11.359 -1.3941 -1.5230 -1.6080
10178SOL     OW31974   2.704   4.939  12.403 -0.0717  0.2013  0.0085
10178SOL    HW131975   2.717   5.018  12.456  0.0487  0.0715  0.1728
10178SOL    HW231976   2.628   4.895  12.443  1.5222 -1.1889  1.6476
10179SOL     OW31977   3.241   4.207   0.865 -0.6973  0.0645 -0.1124
10179SOL    HW131978   3.265   4.249   0.947  0.6468  1.4572 -1.1662
10179SOL    HW231979   3.284   4.121   0.867  1.7721  1.2068 -0.5333
10180SOL     OW31980   2.930   4.743  12.408  0.1526 -0.1371  0.0598
10180SOL    HW131981   2.916   4.793  12.489  0.6719  0.5604 -0.2687
10180SOL    HW231982   2.846   4.749  12.363  0.2379  0.5482 -0.0227
10181SOL     OW31983   2.596   5.117  12.122  0.1182 -0.2222  0.5464
10181SOL    HW131984   2.510   5.151  12.149 -0.3775 -0.9916  0.0070
10181SOL    HW231985   2.597   5.126  12.027 -0.3588 -2.3302  0.2825
10182SOL     OW31986   4.107   2.822  12.460  0.4272 -0.3624 -0.3194
10182SOL    HW131987   4.042   2.807  12.391  0.2900 -0.5300 -0.1541
10182SOL    HW231988   4.062   2.879  12.523 -0.0417 -1.6004  0.4932
10183SOL     OW31989   3.094   3.755  11.310  0.5616 -0.2427  0.1385
10183SOL    HW131990   3.078   3.712  11.394  2.5032 -0.6284  0.3545
10183SOL    HW231991   3.158   3.824  11.330 -0.1691  0.7301 -0.7585
10184SOL     OW31992   4.301   3.201  11.550  0.1107 -0.3684 -0.4354
10184SOL    HW131993   4.246   3.134  11.509 -0.7353  0.1980 -0.2639
10184SOL    HW231994   4.390   3.166  11.545 -0.3388 -1.6192 -0.1121
10185SOL     OW31995   1.674   4.504   0.435 -0.3077  0.3510  0.1023
10185SOL    HW131996   1.589   4.503   0.392  0.0875  0.8364 -0.7034
10185SOL    HW231997   1.738   4.504   0.364  0.3729  0.0149  0.6953
10186SOL     OW31998   4.901   6.266  11.792 -0.5444  0.0319 -0.2925
10186SOL    HW131999   4.976   6.324  11.807 -0.7392  0.0656  0.5959
10186SOL    HW232000   4.939   6.179  11.789 -0.2594  0.1763 -1.5621
10187SOL     OW32001   1.029   3.864  11.988  0.0589 -0.0524 -0.0527
10187SOL    HW132002   1.041   3.775  11.955  0.0840 -1.1006  2.5286
10187SOL    HW232003   0.935   3.875  11.994  0.0493  0.2414 -0.7153
10188SOL     OW32004   3.340   3.686   0.329  0.0995 -0.4470 -0.0354
10188SOL    HW132005   3.381   3.622   0.387  0.6814  0.6351  0.7858
10188SOL    HW232006   3.288   3.741   0.388 -2.3645 -1.5879 -1.0001
10189SOL     OW32007   2.698   5.473  11.990 -0.4338  0.1931  0.2391
10189SOL    HW132008   2.690   5.407  11.922  1.4322  1.1478 -0.9939
10189SOL    HW232009   2.704   5.423  12.071 -0.3220 -1.0880 -0.5294
10190SOL     OW32010   2.411   5.248   1.327 -0.2661 -0.5002  0.7767
10190SOL    HW132011   2.473   5.271   1.258  1.0330 -1.1294  1.6922
10190SOL    HW232012   2.326   5.276   1.293  0.0757 -2.2470 -1.7887
10191SOL     OW32013   1.109   6.483  11.414 -0.1073 -0.1304 -0.1736
10191SOL    HW132014   1.090   6.415  11.478  0.1678  0.2082  0.2729
10191SOL    HW232015   1.107   6.565  11.465  0.6143  0.0943 -0.4912
10192SOL     OW32016   1.702   6.848   1.049 -0.3120  0.1627 -0.3252
10192SOL    HW132017   1.681   6.755   1.045  0.5115 -0.0329 -0.3959
10192SOL    HW232018   1.768   6.855   1.118 -1.0018  0.8231  0.2746
10193SOL     OW32019   2.979   7.043   0.473  0.7560 -0.0669 -0.2781
10193SOL    HW132020   3.019   7.069   0.391  0.9695  0.9771  0.1493
10193SOL    HW232021   3.036   7.079   0.541 -0.0247  0.0525  0.3313
10194SOL     OW32022   2.346   6.308   0.512 -0.2275 -0.2622  0.1980
10194SOL    HW132023   2.426   6.265   0.541 -0.9594 -2.1884 -0.5079
10194SOL    HW232024   2.354   6.398   0.546  1.4356 -0.8674  1.5730
10195SOL     OW32025   2.739   6.120  12.082  0.0542 -0.0033  0.4096
10195SOL    HW132026   2.825   6.132  12.041  0.0391  0.9342  0.6425
10195SOL    HW232027   2.750   6.154  12.171 -0.3471 -0.5921  0.6865
10196SOL     OW32028   1.556   6.327   1.868  0.0680  0.7925  0.0201
10196SOL    HW132029   1.630   6.276   1.901 -0.4497  0.0503  0.0668
10196SOL    HW232030   1.481   6.267   1.874 -0.6791  1.7551  0.6414
10197SOL     OW32031   1.555   5.640   2.274  0.0620  0.3023 -0.0756
10197SOL    HW132032   1.585   5.552   2.298  1.7413  1.0869  0.8693
10197SOL    HW232033   1.579   5.695   2.348  1.5798  2.0507 -1.7497
10198SOL     OW32034   1.014   4.733   0.247  0.2846  0.1323 -0.1927
10198SOL    HW132035   0.978   4.801   0.304  1.8545 -0.7861  2.0586
10198SOL    HW232036   1.005   4.652   0.298  2.7768 -0.5748 -0.7314
10199SOL     OW32037   2.991   6.630   0.934 -0.0871 -0.1770  0.3159
10199SOL    HW132038   3.012   6.612   0.842  1.7524 -1.4356  0.9263
10199SOL    HW232039   2.988   6.544   0.975 -0.5849  0.3935  1.5099
10200SOL     OW32040   2.695   6.793   2.106  0.1891 -0.5585  0.9046
10200SOL    HW132041   2.641   6.783   2.027  2.9038 -0.0313 -1.1763
10200SOL    HW232042   2.679   6.883   2.134  0.6085 -0.1207 -0.2090
10201SOL     OW32043   3.677   0.935   0.940  0.5885 -0.2004 -0.2386
10201SOL    HW132044   3.725   0.865   0.984  1.2089 -0.5527 -1.4490
10201SOL    HW232045   3.596   0.945   0.991  0.1813 -2.2448 -0.4208
10202SOL     OW32046   2.644   6.261   1.304 -0.2071  0.2232  0.2139
10202SOL    HW132047   2.572   6.276   1.366  0.9255 -1.3625  2.0278
10202SOL    HW232048   2.713   6.320   1.332  0.5967 -1.0584  1.0063
10203SOL     OW32049   0.752   5.952   2.121 -0.1324  0.3923 -0.4889
10203SOL    HW132050   0.727   6.043   2.108  2.5689  1.4327  0.7494
10203SOL    HW232051   0.765   5.945   2.216  1.6348 -0.6847 -0.7741
10204SOL     OW32052   2.611   6.155   1.051  0.2319 -0.1205  0.1765
10204SOL    HW132053   2.525   6.166   1.012 -0.3000 -0.5191  1.2128
10204SOL    HW232054   2.599   6.176   1.143  1.6828  1.8173 -0.0017
10205SOL     OW32055   3.022   0.343   2.729 -0.2220  0.0383  0.2477
10205SOL    HW132056   2.937   0.358   2.769 -0.5559  0.1965 -0.5119
10205SOL    HW232057   3.034   0.248   2.733 -1.6151 -0.2927 -1.9762
10206SOL     OW32058   2.267   5.586  10.363  0.6094 -0.5486  0.0388
10206SOL    HW132059   2.172   5.580  10.348  0.3937  0.3421  0.9208
10206SOL    HW232060   2.289   5.504  10.408  0.4836 -1.2661 -1.1565
10207SOL     OW32061   1.442   6.988   1.938 -0.2373  0.2113  0.0945
10207SOL    HW132062   1.417   7.078   1.957 -0.5295 -0.1323  1.4204
10207SOL    HW232063   1.537   6.990   1.932 -0.1297  0.3379  1.6723
10208SOL     OW32064   1.675   7.460   1.431  0.4903  0.0519  0.6834
10208SOL    HW132065   1.737   7.394   1.462 -1.0534 -0.8971  1.9250
10208SOL    HW232066   1.638   7.422   1.351 -1.0327 -1.1002  1.8540
10209SOL     OW32067   2.316   6.953  11.540  0.3890  0.0647 -0.3313
10209SOL    HW132068   2.262   6.947  11.619  0.8145 -1.0642 -0.1046
10209SOL    HW232069   2.328   6.862  11.512  1.9543  0.2867 -0.5114
10210SOL     OW32070   3.259   4.944   0.979 -0.0369 -0.1352 -0.0844
10210SOL    HW132071   3.189   4.956   0.915  0.7798 -1.2679 -1.2357
10210SOL    HW232072   3.244   4.857   1.015 -0.3439  0.3946  1.1093
10211SOL     OW32073   2.025   5.595   0.875 -0.3652 -0.2573 -0.8619
10211SOL    HW132074   1.941   5.559   0.903 -1.4097  2.1995 -0.6156
10211SOL    HW232075   2.041   5.556   0.789 -1.6473 -0.9209 -0.8175
10212SOL     OW32076   4.035   7.975  11.667 -0.0926  0.3333 -0.2177
10212SOL    HW132077   4.062   7.930  11.747 -0.4391  0.1963 -0.1774
10212SOL    HW232078   3.940   7.979  11.672 -0.1094  0.4364 -0.5643
10213SOL     OW32079   1.165   7.430  10.644  0.4318 -0.4488  0.0648
10213SOL    HW132080   1.092   7.368  10.652  0.6450 -0.7291 -0.1339
10213SOL    HW232081   1.237   7.388  10.691  0.8936 -0.8601 -0.9605
10214SOL     OW32082   3.195   0.321   0.830  0.1992 -0.3507 -0.3423
10214SOL    HW132083   3.171   0.315   0.923  0.1748 -0.6612 -0.3685
10214SOL    HW232084   3.198   0.415   0.812 -0.8540 -0.3050 -0.3105
10215SOL     OW32085   5.205   7.825   0.514  0.7090  0.1147  0.3464
10215SOL    HW132086   5.171   7.738   0.536  2.5437 -1.0395 -1.0516
10215SOL    HW232087   5.290   7.829   0.557  0.9877  0.9170 -0.2607
10216SOL     OW32088   1.561   7.043   0.517 -0.5378  0.1945  0.2801
10216SOL    HW132089   1.479   7.030   0.470 -1.2120  2.5669  0.6771
10216SOL    HW232090   1.566   6.970   0.579 -1.5264 -0.8506 -0.8290
10217SOL     OW32091   1.590   7.555   0.312  0.0089 -0.2917  0.0651
10217SOL    HW132092   1.610   7.632   0.366  2.4869 -0.2171 -0.8382
10217SOL    HW232093   1.551   7.492   0.373 -0.4803  1.0419  1.1741
10218SOL     OW32094   2.912   6.268   2.924  0.1737  0.2311 -0.0710
10218SOL    HW132095   3.004   6.241   2.918 -0.2650 -1.2064 -0.9222
10218SOL    HW232096   2.891   6.261   3.017  0.4543 -1.2290 -0.0870
10219SOL     OW32097   3.276   4.513   0.875  0.5876  0.1724 -0.3515
10219SOL    HW132098   3.185   4.542   0.868  0.1499 -1.1373 -0.2878
10219SOL    HW232099   3.281   4.468   0.959  0.5893 -2.0585 -1.4670
10220SOL     OW32100   1.685   5.970   1.377  0.3248  0.0153  0.4188
10220SOL    HW132101   1.737   5.992   1.454  0.5098 -0.0484  0.3105
10220SOL    HW232102   1.692   5.875   1.370 -1.6072 -0.2912  1.7158
10221SOL     OW32103   4.475   5.075  10.780  0.6706  0.5565  0.6430
10221SOL    HW132104   4.505   4.987  10.754  2.4550  1.5934 -1.0200
10221SOL    HW232105   4.420   5.104  10.707  4.9261  3.1017 -1.9447
10222SOL     OW32106   2.478   6.101   0.682 -0.0869  0.1187 -0.5348
10222SOL    HW132107   2.566   6.068   0.665 -0.2503 -0.5644 -0.0608
10222SOL    HW232108   2.420   6.037   0.641 -0.4231 -0.5611  0.9322
10223SOL     OW32109   2.839   4.621   2.715  0.3538  0.0143  0.0051
10223SOL    HW132110   2.787   4.559   2.766 -0.5381  0.4145 -0.3990
10223SOL    HW232111   2.927   4.615   2.752  0.0991 -0.9191  0.4803
10224SOL     OW32112   1.103   6.561   1.664 -0.8831  0.2303 -0.1099
10224SOL    HW132113   1.087   6.655   1.668 -0.1918  0.3058  2.3045
10224SOL    HW232114   1.195   6.554   1.640 -0.1114  0.3427  2.4772
10225SOL     OW32115   4.399   0.525   1.101 -0.1707  0.2884 -0.4418
10225SOL    HW132116   4.417   0.538   1.194  0.4784  1.3956 -0.7028
10225SOL    HW232117   4.385   0.614   1.067  1.3082  0.0602 -1.7391
10226SOL     OW32118   1.609   4.098  11.812  0.1037  0.3535  0.5063
10226SOL    HW132119   1.516   4.080  11.794 -0.0718 -0.1079  1.7180
10226SOL    HW232120   1.616   4.089  11.907  0.9076  2.7327  0.7352
10227SOL     OW32121   2.795   7.051   1.684 -0.9704 -0.0153 -0.6012
10227SOL    HW132122   2.736   6.992   1.637 -0.0304 -0.3724 -1.3663
10227SOL    HW232123   2.848   6.993   1.739 -3.4049  0.5183  2.5902
10228SOL     OW32124   4.779   6.711   2.361 -0.9726  0.5512  0.0140
10228SOL    HW132125   4.754   6.658   2.437  1.2068 -1.6264 -0.6314
10228SOL    HW232126   4.824   6.649   2.303 -0.2137  2.7044 -1.8405
10229SOL     OW32127   2.510   5.867   1.017 -0.1437 -0.3913  0.2096
10229SOL    HW132128   2.567   5.813   0.964 -0.4826 -0.0285 -0.5322
10229SOL    HW232129   2.564   5.940   1.045  0.0292 -0.5735  0.3500
10230SOL     OW32130   1.866   6.512   1.187  0.0920  0.2479  0.1914
10230SOL    HW132131   1.776   6.542   1.172  0.5225  1.2852 -0.4545
10230SOL    HW232132   1.869   6.493   1.280 -0.7721  0.2992  0.2430
10231SOL     OW32133   2.837   0.324   1.560  0.1735  0.5238 -0.2829
10231SOL    HW132134   2.767   0.347   1.500 -0.3641  0.0810  0.1709
10231SOL    HW232135   2.867   0.408   1.595 -1.4036  0.6311  0.9371
10232SOL     OW32136   2.109   5.848   1.424 -0.1623  0.3081 -0.2632
10232SOL    HW132137   2.149   5.788   1.361  3.2617  0.1490  1.8220
10232SOL    HW232138   2.066   5.790   1.487  0.2827  0.2322 -0.0310
10233SOL     OW32139   1.299   7.284   0.208 -0.2518  0.1100 -0.1879
10233SOL    HW132140   1.334   7.215   0.151  1.0464 -0.1604  0.8976
10233SOL    HW232141   1.210   7.254   0.229 -0.4694 -0.1715 -1.4141
10234SOL     OW32142   2.122   5.709   0.529  0.3103 -0.2394 -0.1448
10234SOL    HW132143   2.054   5.651   0.564  0.0919 -0.1042 -0.3365
10234SOL    HW232144   2.081   5.795   0.527  0.7988  0.0119  0.6000
10235SOL     OW32145   0.934   7.788   1.091  0.2906 -0.1708 -0.2348
10235SOL    HW132146   1.022   7.822   1.107  0.3048 -0.5966  0.6699
10235SOL    HW232147   0.936   7.700   1.128 -0.4367 -0.2909 -0.4673
10236SOL     OW32148   3.370   4.870  12.244  0.1034 -0.4510 -0.8216
10236SOL    HW132149   3.399   4.914  12.164  2.1316 -1.5812 -0.7745
10236SOL    HW232150   3.303   4.928  12.280  0.8207  1.2730 -2.1175
10237SOL     OW32151   2.551   5.129   2.003  0.1285 -0.2038 -0.2844
10237SOL    HW132152   2.552   5.044   2.048 -0.3992  0.1227  0.3655
10237SOL    HW232153   2.495   5.115   1.927  1.1776 -0.8125 -0.9732
10238SOL     OW32154   4.811   7.430   1.231  0.1906  0.0144  0.3461
10238SOL    HW132155   4.777   7.448   1.143  1.6760  1.6138  0.0438
10238SOL    HW232156   4.743   7.377   1.273 -1.6905  1.3173 -0.9117
10239SOL     OW32157   1.475   7.183   1.313  0.0850  0.0295 -0.2693
10239SOL    HW132158   1.388   7.221   1.308  0.2118  0.4343  0.4377
10239SOL    HW232159   1.477   7.137   1.397  0.1972 -0.8957 -0.7650
10240SOL     OW32160   3.407   5.451   0.676 -0.1133  0.1665  0.6051
10240SOL    HW132161   3.494   5.474   0.709  0.0093 -2.7830  2.8191
10240SOL    HW232162   3.347   5.499   0.733 -0.0362  2.0200 -0.7743
10241SOL     OW32163   0.967   6.248   1.336  0.4547  0.3672 -0.2894
10241SOL    HW132164   1.039   6.303   1.365  0.7960  0.9739 -2.1877
10241SOL    HW232165   0.935   6.289   1.255  0.1523 -1.7098 -1.2968
10242SOL     OW32166   3.844   5.479   2.330 -0.9575  0.5644 -0.6705
10242SOL    HW132167   3.919   5.494   2.273 -0.3289  3.0325  0.6372
10242SOL    HW232168   3.789   5.416   2.283  1.6278 -0.9245 -1.9158
10243SOL     OW32169   4.111   6.998   1.126  0.4143  0.3786 -0.3162
10243SOL    HW132170   4.098   7.071   1.065 -0.6563 -0.2639 -0.8912
10243SOL    HW232171   4.068   7.025   1.207 -0.5014  0.1663 -0.7186
10244SOL     OW32172   2.420   5.657   1.392  0.5329 -0.4640 -0.3678
10244SOL    HW132173   2.336   5.613   1.383 -0.2217  1.2065 -1.9218
10244SOL    HW232174   2.477   5.613   1.328  0.9159 -1.6495  0.7422
10245SOL     OW32175   4.498   5.051   0.591 -0.6688  0.2280  0.3645
10245SOL    HW132176   4.438   5.005   0.532 -1.1294 -0.3853  1.2853
10245SOL    HW232177   4.487   5.007   0.675  0.9018  0.2846  0.6179
10246SOL     OW32178   3.284   6.723   0.731  0.5404  0.1614 -0.2421
10246SOL    HW132179   3.299   6.722   0.826  1.2105 -1.0329 -0.3360
10246SOL    HW232180   3.321   6.807   0.702 -0.3375  0.8814  0.6277
10247SOL     OW32181   2.769   6.274   0.828 -0.0756 -0.5774 -0.0631
10247SOL    HW132182   2.703   6.264   0.759  0.1625 -2.2668 -0.0829
10247SOL    HW232183   2.726   6.241   0.907  0.1051  0.1166  0.3335
10248SOL     OW32184   1.115   6.828   1.656  0.1487  0.4102  0.2271
10248SOL    HW132185   1.121   6.923   1.644  0.4073  0.4702  0.7700
10248SOL    HW232186   1.176   6.809   1.727 -1.8194  0.2151  1.9916
10249SOL     OW32187   2.333   6.050  12.382 -0.1023  0.8258 -0.3243
10249SOL    HW132188   2.351   5.977  12.441 -1.6576  1.2900  0.7664
10249SOL    HW232189   2.243   6.038  12.354  0.1997  1.3384 -1.6133
10250SOL     OW32190   1.311   7.686   0.078 -0.0406  0.4060 -0.0479
10250SOL    HW132191   1.397   7.662   0.042 -0.9064  0.6985 -2.4990
10250SOL    HW232192   1.300   7.778   0.054 -1.0953  0.3397  0.1595
10251SOL     OW32193   3.515   6.396   1.203 -0.6259 -0.1506 -0.2231
10251SOL    HW132194   3.430   6.399   1.247  0.4116 -0.4737  1.9456
10251SOL    HW232195   3.519   6.309   1.164 -2.1339  0.6205 -2.2963
10252SOL     OW32196   2.545   5.312   1.102 -0.2489 -0.0687  0.3621
10252SOL    HW132197   2.633   5.307   1.140 -0.5871 -0.6068  1.0979
10252SOL    HW232198   2.556   5.364   1.022  0.7442 -0.1766  0.4186
10253SOL     OW32199   3.531   6.020   1.817  0.4162  0.2397  0.2580
10253SOL    HW132200   3.462   5.955   1.832  1.2466 -0.4230  1.3172
10253SOL    HW232201   3.517   6.049   1.727 -0.1401 -1.2174 -0.1533
10254SOL     OW32202   1.800   6.098  12.290  0.3981  0.4300  0.4125
10254SOL    HW132203   1.744   6.035  12.337 -2.2544  0.5651 -2.2496
10254SOL    HW232204   1.828   6.160  12.358 -1.2218 -0.7156  2.2424
10255SOL     OW32205   2.075   7.638   1.482 -0.1604  0.0417  0.6523
10255SOL    HW132206   1.983   7.664   1.492 -0.6031  0.0912 -2.7052
10255SOL    HW232207   2.124   7.718   1.499 -0.9390  0.7306 -0.2060
10256SOL     OW32208   2.785   5.953   0.220 -0.1705  0.1133  0.0228
10256SOL    HW132209   2.824   5.868   0.242 -0.0379  0.2743  0.4043
10256SOL    HW232210   2.699   5.952   0.262  0.0183  0.3559  0.4125
10257SOL     OW32211   1.845   6.241   1.888  0.0212  0.7321 -0.2124
10257SOL    HW132212   1.855   6.256   1.982 -1.9145 -0.8836  0.3356
10257SOL    HW232213   1.898   6.164   1.870  0.7127  1.2787 -0.5538
10258SOL     OW32214   4.247   4.975   2.232 -0.1594 -0.5867 -0.2226
10258SOL    HW132215   4.183   4.916   2.192 -1.2739  1.0658 -1.0011
10258SOL    HW232216   4.205   5.005   2.312  1.2007 -2.2594  1.1866
10259SOL     OW32217   1.389   4.279   0.893  0.0068 -0.0427 -0.6110
10259SOL    HW132218   1.300   4.269   0.928 -0.7054  1.6811 -1.8236
10259SOL    HW232219   1.406   4.196   0.848 -0.8666 -0.5028 -0.1199
10260SOL     OW32220   2.240   5.606  12.459 -0.3853  0.0415 -0.2232
10260SOL    HW132221   2.300   5.538  12.428 -0.2976 -0.7930  1.6364
10260SOL    HW232222   2.296   5.681  12.479 -0.1731 -0.1679 -0.0317
10261SOL     OW32223   2.593   5.265   2.580 -0.7052 -0.4761  0.4702
10261SOL    HW132224   2.519   5.325   2.582 -0.8684 -0.4578 -2.0789
10261SOL    HW232225   2.564   5.189   2.629 -1.3907  0.5671  1.7258
10262SOL     OW32226   3.417   5.151   1.061 -0.3530 -0.2369  0.1385
10262SOL    HW132227   3.367   5.070   1.046 -1.4418  0.1555  1.4082
10262SOL    HW232228   3.408   5.167   1.155  1.0030  0.6381  0.1446
10263SOL     OW32229   3.911   6.864   0.728 -0.2391  0.0468 -0.5988
10263SOL    HW132230   3.872   6.951   0.727 -0.2953  0.0360  0.1335
10263SOL    HW232231   3.932   6.848   0.820 -1.4519 -1.2508 -0.5103
10264SOL     OW32232   2.252   5.848  10.962  0.0439 -0.6098 -0.3771
10264SOL    HW132233   2.208   5.781  11.014 -0.4489 -0.1692 -0.2153
10264SOL    HW232234   2.324   5.802  10.919  0.4930 -0.9642  0.7287
10265SOL     OW32235   3.865   4.922   0.575  0.3107 -0.0844 -0.3985
10265SOL    HW132236   3.826   4.871   0.646  0.6096 -0.8020 -0.7437
10265SOL    HW232237   3.940   4.966   0.616 -1.3970  2.1642  0.5483
10266SOL     OW32238   4.086   5.955   2.378  0.3457  0.1163 -0.2291
10266SOL    HW132239   4.079   6.015   2.304 -0.5087 -0.4874 -0.6555
10266SOL    HW232240   4.134   5.880   2.344 -0.7740 -0.5285 -0.4260
10267SOL     OW32241   2.063   7.051   1.061 -0.6983 -0.3037  0.3023
10267SOL    HW132242   2.126   7.091   1.120 -0.7126  1.2020 -0.6609
10267SOL    HW232243   1.978   7.066   1.101 -0.6501  0.0338  0.2748
10268SOL     OW32244   3.284   6.239  12.464  0.2222  0.2365 -0.8942
10268SOL    HW132245   3.294   6.223  12.558 -1.3364 -1.9959 -1.0081
10268SOL    HW232246   3.190   6.247  12.451  0.1587 -2.0509 -2.5227
10269SOL     OW32247   4.428   6.307   0.384  0.1383  0.2232 -0.4793
10269SOL    HW132248   4.360   6.374   0.388 -2.2729 -2.0416 -0.6026
10269SOL    HW232249   4.439   6.280   0.476  0.8228  0.5447 -0.4691
10270SOL     OW32250   3.098   5.317   0.811  0.7709  0.0519  0.1219
10270SOL    HW132251   3.146   5.339   0.890  1.1540 -0.2883 -0.0065
10270SOL    HW232252   3.006   5.336   0.831  0.9776  0.8820  0.3096
10271SOL     OW32253   3.126   3.779  11.944  0.4002  0.1354 -0.8045
10271SOL    HW132254   3.182   3.784  12.022  0.2439 -1.7824 -0.5345
10271SOL    HW232255   3.048   3.730  11.973 -0.1039  0.2431 -1.9184
10272SOL     OW32256   1.466   5.065   2.028  0.0658  0.2599 -0.0548
10272SOL    HW132257   1.412   5.095   2.102 -0.5925  0.1731 -0.4890
10272SOL    HW232258   1.490   4.975   2.050 -0.7850 -0.0333 -0.3015
10273SOL     OW32259   2.498   6.563   0.491  0.1691 -0.2661 -0.3506
10273SOL    HW132260   2.580   6.613   0.494 -0.4914  0.9050 -1.2877
10273SOL    HW232261   2.435   6.618   0.536 -0.4429 -0.5217 -0.8833
10274SOL     OW32262   3.201   4.787   1.599 -0.0944 -0.8278  0.0134
10274SOL    HW132263   3.211   4.694   1.583  0.9634 -0.6556 -0.3658
10274SOL    HW232264   3.289   4.819   1.615 -0.6166 -0.1913  1.8785
10275SOL     OW32265   1.881   7.962   1.338 -0.2723 -0.3315 -0.0173
10275SOL    HW132266   1.845   7.965   1.250 -1.6747 -2.7548  0.3903
10275SOL    HW232267   1.821   7.906   1.387  1.0734  0.0308  2.2042
10276SOL     OW32268   3.877   5.960  12.005  0.3526  0.1507 -0.0265
10276SOL    HW132269   3.869   5.906  11.927 -0.0193 -1.8205  1.3143
10276SOL    HW232270   3.955   6.014  11.989  0.5490 -0.5384 -1.5364
10277SOL     OW32271   3.940   6.385   0.621 -0.0275 -0.2478  0.3188
10277SOL    HW132272   3.879   6.445   0.665  0.3679 -0.6089  1.3815
10277SOL    HW232273   3.910   6.384   0.530 -3.6397 -2.7887  1.3010
10278SOL     OW32274   4.047   6.871  12.290 -0.1735 -0.3560 -0.1585
10278SOL    HW132275   4.018   6.790  12.249  0.8641 -0.5317 -0.5814
10278SOL    HW232276   4.137   6.852  12.319 -0.7124 -0.1246  1.8619
10279SOL     OW32277   2.490   5.915   1.847  0.9901  0.6366  0.8201
10279SOL    HW132278   2.574   5.954   1.871  1.1820  1.1597 -0.6230
10279SOL    HW232279   2.507   5.820   1.847  1.8501  0.7696 -0.3520
10280SOL     OW32280   3.805   6.668   0.399  0.0882 -0.1796 -0.1371
10280SOL    HW132281   3.780   6.681   0.490 -2.2176 -0.1814 -0.6981
10280SOL    HW232282   3.793   6.574   0.384  0.7526 -0.2331 -0.3738
10281SOL     OW32283   2.860   6.887   0.717 -0.2431 -0.3842  0.3152
10281SOL    HW132284   2.800   6.814   0.726 -0.9311  0.0338 -0.6484
10281SOL    HW232285   2.918   6.861   0.645  0.3570 -0.5385  0.8527
10282SOL     OW32286   2.960   6.391   0.489  0.2698  0.4256 -0.2300
10282SOL    HW132287   3.020   6.342   0.545  0.3318 -0.2954 -0.8930
10282SOL    HW232288   3.012   6.409   0.410 -0.0786  0.6597 -0.4052
10283SOL     OW32289   1.296   7.027   0.429 -0.0910 -0.4006  0.4653
10283SOL    HW132290   1.212   7.054   0.391  0.1220  2.5680  1.7869
10283SOL    HW232291   1.276   7.007   0.520  0.5036 -0.3745  0.6057
10284SOL     OW32292   2.143   7.532   1.708 -0.4254  0.4311  0.5717
10284SOL    HW132293   2.112   7.559   1.622 -0.9818 -0.5242  0.4630
10284SOL    HW232294   2.124   7.607   1.765 -0.2930  0.9650 -0.0707
10285SOL     OW32295   3.005   6.131   2.235  0.5114  0.7033  0.1302
10285SOL    HW132296   2.926   6.089   2.269  0.4039  1.1537  0.4359
10285SOL    HW232297   3.077   6.090   2.282  0.3648  1.3257  0.9075
10286SOL     OW32298   1.248   6.733   0.387  0.1687  0.1425 -0.2858
10286SOL    HW132299   1.215   6.822   0.372  0.0268 -0.0542 -1.2122
10286SOL    HW232300   1.173   6.687   0.427  0.1731  0.3772 -0.0014
10287SOL     OW32301   3.630   6.176   2.532 -0.1132 -0.6376 -0.1727
10287SOL    HW132302   3.710   6.165   2.584  0.5811 -0.3633 -1.1611
10287SOL    HW232303   3.613   6.089   2.496 -0.6301 -0.8426  0.5364
10288SOL     OW32304   1.328   6.729   1.179 -0.2990 -0.2851  0.3133
10288SOL    HW132305   1.354   6.639   1.200 -1.6038 -0.5140  1.0112
10288SOL    HW232306   1.366   6.781   1.250 -0.1356 -0.3689  0.2892
10289SOL     OW32307   3.283   4.937  11.855 -0.2381 -0.2969  0.9798
10289SOL    HW132308   3.329   4.869  11.806 -1.2427 -3.2240  3.7650
10289SOL    HW232309   3.350   4.975  11.912  0.1615  0.6885 -0.0792
10290SOL     OW32310   1.366   5.311   2.605 -0.4598 -0.1533 -0.3795
10290SOL    HW132311   1.348   5.270   2.690 -1.0846 -1.5743 -1.1729
10290SOL    HW232312   1.455   5.346   2.614 -0.2175 -0.9830  0.5976
10291SOL     OW32313   2.538   5.494   2.317 -0.2329  0.0458  0.2230
10291SOL    HW132314   2.573   5.471   2.403  0.1569 -1.2134 -0.2364
10291SOL    HW232315   2.581   5.432   2.257 -1.2256  0.2491 -0.7311
10292SOL     OW32316   0.735   7.247  12.452  0.6372 -0.2196 -0.3305
10292SOL    HW132317   0.717   7.167  12.403  1.2579 -0.4059 -0.2636
10292SOL    HW232318   0.823   7.274  12.424  0.3254  0.6029 -0.5654
10293SOL     OW32319   1.370   5.278   1.714 -0.4939  0.1057  0.8482
10293SOL    HW132320   1.282   5.243   1.703 -0.7166  0.5463  1.2377
10293SOL    HW232321   1.427   5.200   1.709 -0.7211  0.0351 -1.3782
10294SOL     OW32322   3.667   6.949  12.204 -0.5374  0.2590  1.0685
10294SOL    HW132323   3.584   6.975  12.164  0.2071  0.6751 -0.2912
10294SOL    HW232324   3.721   6.921  12.130  0.5821  0.1169  1.9127
10295SOL     OW32325   1.989   6.086   1.476 -0.3282  0.1472 -0.2274
10295SOL    HW132326   2.035   6.003   1.468  0.9917  0.8343  0.0836
10295SOL    HW232327   2.002   6.129   1.391 -1.7840 -0.3206 -0.7255
10296SOL     OW32328   4.228   5.411   1.844  0.1199 -0.1098 -0.2698
10296SOL    HW132329   4.277   5.415   1.926  0.1770 -0.7019 -0.2681
10296SOL    HW232330   4.242   5.496   1.803 -1.9751  1.1898  1.4995
10297SOL     OW32331   1.137   7.605   0.526  0.2725 -0.6336  0.5169
10297SOL    HW132332   1.162   7.603   0.434 -0.3663 -0.5810  0.3322
10297SOL    HW232333   1.210   7.647   0.571  0.6037 -0.6977  0.0396
10298SOL     OW32334   1.553   5.953   0.863 -0.3008 -0.2372 -0.2550
10298SOL    HW132335   1.464   5.988   0.872 -0.5260 -0.4189 -1.5858
10298SOL    HW232336   1.544   5.860   0.883  0.0043  0.1074  1.6909
10299SOL     OW32337   3.331   4.524   1.922 -0.0958 -0.0483  0.1212
10299SOL    HW132338   3.286   4.457   1.871 -1.3880  0.6252  0.3327
10299SOL    HW232339   3.407   4.548   1.869 -0.7118 -0.2730 -0.8771
10300SOL     OW32340   2.135   7.549   2.672 -0.3536  0.4784 -0.0714
10300SOL    HW132341   2.180   7.623   2.713  0.4422 -0.9194  1.6968
10300SOL    HW232342   2.098   7.585   2.592 -0.2503  2.8658  0.8738
10301SOL     OW32343   2.738   7.567   4.394  0.5405  0.0623  0.0820
10301SOL    HW132344   2.709   7.610   4.313  1.9791 -0.1479 -0.5726
10301SOL    HW232345   2.666   7.506   4.415 -0.1781  0.6343 -0.6244
10302SOL     OW32346   2.375   4.908   2.112  1.1413  0.3324  0.0472
10302SOL    HW132347   2.460   4.864   2.106  0.1742 -1.6726  0.2254
10302SOL    HW232348   2.349   4.897   2.203 -0.3079 -1.1266 -0.4992
10303SOL     OW32349   1.256   7.552   1.392 -0.1210 -0.0301 -0.6262
10303SOL    HW132350   1.293   7.628   1.348 -1.5346  0.2969 -1.3060
10303SOL    HW232351   1.249   7.579   1.484  1.8353 -0.3304 -0.3487
10304SOL     OW32352   3.102   5.437   0.486 -0.2109  0.1020 -0.0882
10304SOL    HW132353   3.109   5.415   0.393 -2.8814  1.4128 -0.6694
10304SOL    HW232354   3.106   5.352   0.530 -2.5890 -0.9545 -1.7080
10305SOL     OW32355   2.889   5.308   2.988  0.3685  0.2008 -0.1346
10305SOL    HW132356   2.818   5.244   2.978  0.0657  0.3965  0.6829
10305SOL    HW232357   2.903   5.314   3.083 -1.0432  2.8909  0.0036
10306SOL     OW32358   0.973   6.078   1.574 -0.1274 -0.3204 -0.2679
10306SOL    HW132359   1.019   6.000   1.544 -1.2635 -0.5388 -1.5471
10306SOL    HW232360   0.995   6.146   1.510 -0.6804 -0.1222 -0.2592
10307SOL     OW32361   3.136   6.433   0.279 -0.3131  0.1380 -0.1439
10307SOL    HW132362   3.127   6.471   0.192 -0.4761  2.1742  0.6962
10307SOL    HW232363   3.217   6.471   0.314 -0.1762 -0.7477  0.5545
10308SOL     OW32364   1.333   5.693   1.563 -0.9278  0.2923 -0.1408
10308SOL    HW132365   1.318   5.779   1.603  0.2016 -0.2400  1.5201
10308SOL    HW232366   1.425   5.674   1.581 -1.2919 -1.4864 -0.0045
10309SOL     OW32367   2.509   5.598  12.104 -0.7073 -0.4471  0.0942
10309SOL    HW132368   2.458   5.618  12.026 -0.2769 -1.9514 -0.5922
10309SOL    HW232369   2.591   5.561  12.071  0.4655  1.0140  1.2083
10310SOL     OW32370   2.204   5.479  12.127 -0.1880  0.0298  0.1612
10310SOL    HW132371   2.292   5.509  12.105  0.0737 -1.0828 -0.3868
10310SOL    HW232372   2.212   5.442  12.214  0.0214 -0.6074 -0.1274
10311SOL     OW32373   3.437   6.828  11.809 -0.5927  0.1533  0.5208
10311SOL    HW132374   3.381   6.795  11.879 -0.6928 -0.5361  0.1228
10311SOL    HW232375   3.406   6.783  11.731  0.8656 -0.6749  0.3803
10312SOL     OW32376   7.830   6.609   1.999  0.2378 -0.3297  0.4058
10312SOL    HW132377   7.805   6.697   2.025  0.4104  0.4380 -1.8435
10312SOL    HW232378   7.749   6.558   2.010  0.0289  0.1627  1.3199
10313SOL     OW32379   3.529   6.988   1.206  0.2756  0.2982  0.0356
10313SOL    HW132380   3.442   7.026   1.216  0.3704  0.0769  2.3146
10313SOL    HW232381   3.529   6.912   1.264  2.4116  1.1080  1.2201
10314SOL     OW32382   2.152   5.640   2.077  0.4699 -0.3624 -0.4598
10314SOL    HW132383   2.203   5.645   2.158  0.8892  0.8826 -0.7723
10314SOL    HW232384   2.203   5.582   2.020  0.4637 -0.7924 -0.0260
10315SOL     OW32385   2.712   6.620   0.746  0.3484  0.6159  0.0913
10315SOL    HW132386   2.680   6.658   0.829  1.3487  2.2761 -0.2348
10315SOL    HW232387   2.792   6.574   0.771 -1.1456 -1.9098  0.5814
10316SOL     OW32388   2.588   5.169   0.559  0.0663 -0.1172 -0.0595
10316SOL    HW132389   2.643   5.122   0.495 -0.7087  0.1863 -0.9802
10316SOL    HW232390   2.631   5.253   0.571  0.4935 -0.3722  0.2173
10317SOL     OW32391   3.174   5.719   2.329  0.0173  0.6501 -0.0079
10317SOL    HW132392   3.181   5.623   2.333 -0.9274  0.5294 -0.9101
10317SOL    HW232393   3.103   5.741   2.389 -1.3145  0.5487 -1.4796
10318SOL     OW32394   1.790   5.777   1.095  0.1594  0.2560  0.2823
10318SOL    HW132395   1.826   5.841   1.034 -0.4486 -0.6833 -1.0890
10318SOL    HW232396   1.775   5.699   1.043 -0.4652 -0.5475  1.6135
10319SOL     OW32397   2.685   4.415   0.768 -0.1805 -0.0454 -0.0837
10319SOL    HW132398   2.757   4.399   0.829 -0.6735 -0.2502  0.4489
10319SOL    HW232399   2.614   4.360   0.800  0.0645 -1.4920 -1.8090
10320SOL     OW32400   3.069   5.134   1.206 -0.3641  0.0343  0.2525
10320SOL    HW132401   3.048   5.065   1.270 -1.4815 -0.4110 -0.5488
10320SOL    HW232402   3.157   5.113   1.177 -0.3551 -0.5454  0.6646
10321SOL     OW32403   2.303   5.270   0.018 -0.6323 -0.7101  0.4015
10321SOL    HW132404   2.374   5.291  -0.043 -0.6543 -2.3816 -0.2543
10321SOL    HW232405   2.337   5.295   0.104  0.2596 -0.3480 -0.0401
10322SOL     OW32406   2.991   6.092   0.858  0.3459  0.1600  0.1277
10322SOL    HW132407   3.071   6.121   0.817  0.5132 -0.4233  0.0241
10322SOL    HW232408   2.922   6.144   0.818  0.7159  0.9732  0.5377
10323SOL     OW32409   1.482   6.040  11.808  1.0217  0.7768  0.1343
10323SOL    HW132410   1.392   6.020  11.783  0.8935 -2.2262  2.4259
10323SOL    HW232411   1.476   6.123  11.855 -0.4243  0.9554 -0.3169
10324SOL     OW32412   2.483   5.995   2.598 -0.4904 -0.0886  0.0004
10324SOL    HW132413   2.537   6.059   2.552  1.1697 -2.2398 -1.2653
10324SOL    HW232414   2.523   5.988   2.685  0.1058 -0.2636 -0.2773
10325SOL     OW32415   3.562   5.348   2.621  0.0083 -0.4381  0.1451
10325SOL    HW132416   3.505   5.274   2.600  1.8682 -1.6348 -1.0209
10325SOL    HW232417   3.622   5.313   2.687  1.4615 -0.2979 -1.0523
10326SOL     OW32418   3.616   6.127   0.846 -0.1221  0.3899  0.0617
10326SOL    HW132419   3.637   6.052   0.789 -0.8875 -1.4353  2.0321
10326SOL    HW232420   3.522   6.141   0.833 -0.1733  0.3697  0.4072
10327SOL     OW32421   1.592   5.957   1.898  0.3263  0.1326 -0.3558
10327SOL    HW132422   1.562   5.869   1.920  1.6523  0.3004  2.7263
10327SOL    HW232423   1.685   5.956   1.921  0.4200  2.2608 -0.4610
10328SOL     OW32424   3.762   5.232  11.799 -0.4310 -0.3909  0.1039
10328SOL    HW132425   3.771   5.222  11.704 -1.0187 -0.7064  0.0754
10328SOL    HW232426   3.797   5.151  11.835  0.4398  0.0238  0.1941
10329SOL     OW32427   0.684   5.868   1.300 -0.3036 -0.2636  0.5329
10329SOL    HW132428   0.693   5.881   1.394 -2.1087 -1.0064  0.8495
10329SOL    HW232429   0.714   5.951   1.262  0.7758 -0.0818  1.7233
10330SOL     OW32430   1.452   6.273   2.445 -0.2261 -1.2569  0.0917
10330SOL    HW132431   1.528   6.286   2.388  1.7263  1.6981  2.9638
10330SOL    HW232432   1.486   6.221   2.518 -1.9222 -2.6692 -0.0557
10331SOL     OW32433   2.796   6.047   2.689  0.0635  0.6926  0.1593
10331SOL    HW132434   2.753   6.020   2.608  1.3477 -0.3128 -0.2260
10331SOL    HW232435   2.792   6.142   2.688 -1.2037  0.6566 -0.3598
10332SOL     OW32436   3.784   6.375   0.877  0.0765  0.6541 -0.1337
10332SOL    HW132437   3.871   6.347   0.904 -1.2708 -0.2988  4.0458
10332SOL    HW232438   3.733   6.294   0.873 -1.2365  1.4062  0.4742
10333SOL     OW32439   2.840   4.456   0.556  0.3406  0.1450 -0.5566
10333SOL    HW132440   2.762   4.479   0.607  1.2808  2.5989 -0.0854
10333SOL    HW232441   2.894   4.406   0.617  0.8321  1.8646  0.5112
10334SOL     OW32442   3.036   4.630   0.983  0.1304  0.2499 -0.0497
10334SOL    HW132443   2.974   4.645   0.912 -0.5109  1.9367  0.8070
10334SOL    HW232444   2.981   4.613   1.060  0.6307  2.3352  0.8464
10335SOL     OW32445   3.773   6.697   0.111 -0.3421 -0.2218  0.0872
10335SOL    HW132446   3.849   6.677   0.056 -0.6082 -0.1620 -0.3098
10335SOL    HW232447   3.802   6.679   0.200  1.0203  2.2957  0.2549
10336SOL     OW32448   4.498   0.082   0.482 -0.4715 -0.1156 -0.3406
10336SOL    HW132449   4.408   0.115   0.479 -0.6897 -0.7474 -0.9455
10336SOL    HW232450   4.495  -0.001   0.434  0.6354  0.3245 -1.2067
10337SOL     OW32451   3.796   0.188   0.791 -0.4311 -0.7095  0.5812
10337SOL    HW132452   3.835   0.274   0.777 -2.0824 -0.0337 -0.1361
10337SOL    HW232453   3.815   0.168   0.883  0.8549 -0.0663  0.4786
10338SOL     OW32454   4.135   0.341   1.316  1.0314  0.3161  0.1775
10338SOL    HW132455   4.119   0.283   1.390  0.4049 -1.4926 -1.2904
10338SOL    HW232456   4.077   0.415   1.331 -3.1537 -2.3808 -0.9804
10339SOL     OW32457   1.863   5.457  10.004  0.1857  0.3117 -0.3938
10339SOL    HW132458   1.851   5.370   9.966 -0.9788 -0.0432  0.6901
10339SOL    HW232459   1.775   5.493  10.009  0.0153 -0.1930  3.0365
10340SOL     OW32460   0.447   7.123   2.820 -0.0556  0.4246 -0.4144
10340SOL    HW132461   0.527   7.099   2.773 -0.0241 -0.3133 -0.0015
10340SOL    HW232462   0.478   7.173   2.896 -0.0024  0.3649 -0.3965
10341SOL     OW32463   1.646   4.404   1.281 -0.1101  0.0596  0.4317
10341SOL    HW132464   1.681   4.409   1.192  0.2635  0.4171  0.5931
10341SOL    HW232465   1.567   4.460   1.279 -0.3827 -0.3304  0.2011
10342SOL     OW32466   3.959   6.557   2.000  0.2016 -0.3120 -0.3861
10342SOL    HW132467   3.989   6.472   2.031  1.1404  0.6137  1.3552
10342SOL    HW232468   3.899   6.588   2.068 -1.6512 -0.3551 -1.8933
10343SOL     OW32469   4.049   4.727   1.413 -0.3802 -0.0211  0.5116
10343SOL    HW132470   4.072   4.649   1.463 -0.6172  0.7312  1.8309
10343SOL    HW232471   4.131   4.756   1.374 -0.2024 -0.6254  0.4208
10344SOL     OW32472   3.706   6.703   1.596  0.1290  0.6430 -0.4282
10344SOL    HW132473   3.742   6.700   1.507 -0.1765 -0.3703 -0.5264
10344SOL    HW232474   3.627   6.756   1.588  0.2672  0.8087 -0.7038
10345SOL     OW32475   5.221   0.164   0.588  0.2978 -0.3934  0.0893
10345SOL    HW132476   5.143   0.214   0.562  0.1250 -0.5195  0.3633
10345SOL    HW232477   5.211   0.080   0.541  0.6846 -0.1070 -0.5230
10346SOL     OW32478   2.735   7.057   2.748  0.2353  0.1516 -0.0254
10346SOL    HW132479   2.680   7.005   2.690 -0.3487  1.2141 -0.4568
10346SOL    HW232480   2.807   7.087   2.692 -1.5111  3.0870 -0.9329
10347SOL     OW32481   2.717   5.760   0.858  0.2847  0.2253 -0.2504
10347SOL    HW132482   2.774   5.709   0.916 -0.0696  0.8729  0.6958
10347SOL    HW232483   2.776   5.812   0.805  0.6058  1.3288  1.1242
10348SOL     OW32484   1.983   7.223   2.024  0.1635 -0.2140 -0.2034
10348SOL    HW132485   2.075   7.247   2.033  0.1654 -0.5735  0.8757
10348SOL    HW232486   1.949   7.225   2.113 -0.6244 -1.0344 -0.4702
10349SOL     OW32487   4.031   5.273   1.732  0.1349  0.0805  0.0680
10349SOL    HW132488   3.966   5.218   1.777 -0.7739 -0.2823 -1.6243
10349SOL    HW232489   4.087   5.305   1.803 -0.4664 -1.4711  1.3259
10350SOL     OW32490   3.619   5.333   0.895  0.1042  0.1768  0.7069
10350SOL    HW132491   3.608   5.379   0.979 -2.7762  2.9655 -0.9568
10350SOL    HW232492   3.540   5.280   0.886  1.0425 -1.2102  0.2918
10351SOL     OW32493   2.952   6.492   1.387 -0.4893 -0.2165  0.4191
10351SOL    HW132494   3.048   6.494   1.381 -0.3775 -2.2772  1.0020
10351SOL    HW232495   2.929   6.583   1.408  1.4872  0.0016  2.0725
10352SOL     OW32496   3.540   5.066   1.809 -0.0685  0.2149 -0.0921
10352SOL    HW132497   3.560   5.151   1.770 -0.9695 -0.0639 -1.2344
10352SOL    HW232498   3.516   5.085   1.899  1.1325  1.0052  0.0656
10353SOL     OW32499   2.066   6.569   0.953  0.1490  0.1792 -1.2521
10353SOL    HW132500   2.036   6.524   1.032  0.0462  0.7166 -0.9772
10353SOL    HW232501   2.161   6.576   0.965  0.1436  0.1846 -1.2114
10354SOL     OW32502   3.750   6.487  12.375  0.0943  0.3076  0.0491
10354SOL    HW132503   3.750   6.420  12.444  1.6481  1.2288  1.0075
10354SOL    HW232504   3.664   6.479  12.334 -0.5106 -0.9409  1.4573
10355SOL     OW32505   1.474   6.815   1.379 -0.1387  0.2469 -0.2392
10355SOL    HW132506   1.441   6.898   1.412  0.0608 -0.4133  1.8076
10355SOL    HW232507   1.551   6.797   1.434 -0.0846 -1.1989 -0.7497
10356SOL     OW32508   2.780   5.865   1.877  0.1002 -0.0439  0.2851
10356SOL    HW132509   2.821   5.883   1.961 -0.3071  1.3460  0.2040
10356SOL    HW232510   2.783   5.769   1.869 -0.9443 -0.3330  2.4289
10357SOL     OW32511   4.158   7.959  12.493 -0.3480 -0.2291  0.2823
10357SOL    HW132512   4.195   8.046  12.509 -0.0458 -0.3186  0.0633
10357SOL    HW232513   4.070   7.964  12.530  0.0375 -0.1639  1.2272
10358SOL     OW32514   2.673   5.119   3.044  0.5675  0.0252  0.4110
10358SOL    HW132515   2.700   5.029   3.062 -2.1236 -0.7298  1.1808
10358SOL    HW232516   2.617   5.113   2.967  0.5992  1.0852  0.2802
10359SOL     OW32517   1.525   5.477   1.836 -0.0370  0.3228  0.3956
10359SOL    HW132518   1.511   5.542   1.766  0.1960 -0.3933 -0.3330
10359SOL    HW232519   1.459   5.410   1.819  0.1558  0.0456  0.7500
10360SOL     OW32520   3.761   7.592  12.500  0.0948 -0.1147  0.1751
10360SOL    HW132521   3.668   7.611  12.513  0.0547  0.6291 -1.0649
10360SOL    HW232522   3.781   7.526  12.566 -0.5226  1.9655  2.6019
10361SOL     OW32523   2.112   5.671  11.671 -0.3515 -0.3456  0.3487
10361SOL    HW132524   2.091   5.711  11.756  0.9026 -0.6815  0.8344
10361SOL    HW232525   2.143   5.745  11.618  2.5559 -0.6443  1.4402
10362SOL     OW32526   1.916   6.922   2.106  0.5296  0.1165 -0.4203
10362SOL    HW132527   1.968   6.983   2.159  1.6995 -0.8283 -0.4423
10362SOL    HW232528   1.959   6.838   2.117  0.7964 -0.1370 -2.8076
10363SOL     OW32529   2.763   5.998   1.285 -0.5681  1.1958 -0.0837
10363SOL    HW132530   2.856   6.003   1.262 -0.0964 -1.0082  1.0133
10363SOL    HW232531   2.731   6.087   1.277  1.4164  1.8636 -1.4034
10364SOL     OW32532   2.726   5.963   0.610  0.3244  0.1558 -0.0608
10364SOL    HW132533   2.810   5.998   0.582  0.5934  0.7796  1.4178
10364SOL    HW232534   2.727   5.871   0.582  0.4353  0.7687 -2.2226
10365SOL     OW32535   3.544   3.755   0.184  0.2001 -0.2486  0.2631
10365SOL    HW132536   3.567   3.765   0.276  2.0517 -1.8278  0.0382
10365SOL    HW232537   3.464   3.703   0.185  2.2182 -3.7194  1.0758
10366SOL     OW32538   2.826   5.896  10.980 -0.3456  0.2273 -0.2991
10366SOL    HW132539   2.801   5.888  11.072  2.3942 -1.1520  0.4382
10366SOL    HW232540   2.903   5.954  10.982  0.5937 -0.9229 -1.5030
10367SOL     OW32541   4.674   6.251   3.334 -0.3151 -0.0446 -0.6017
10367SOL    HW132542   4.748   6.209   3.290 -1.1766 -0.0475 -2.1174
10367SOL    HW232543   4.667   6.337   3.292  0.1265  0.8158  1.0106
10368SOL     OW32544   2.380   7.808   1.186  1.0335 -0.1170  0.0294
10368SOL    HW132545   2.443   7.852   1.129  0.8912  2.2556  1.5423
10368SOL    HW232546   2.304   7.866   1.185 -0.1529 -1.6178  0.2467
10369SOL     OW32547   0.973   7.243   1.892 -0.1183 -0.1585  0.0268
10369SOL    HW132548   0.979   7.179   1.963  3.3009 -1.1850 -1.0318
10369SOL    HW232549   0.879   7.259   1.883 -0.8907 -2.4294  2.5722
10370SOL     OW32550   2.616   6.797   1.235  0.3917  0.6410 -0.4989
10370SOL    HW132551   2.653   6.850   1.306  1.1905  0.0579 -0.4656
10370SOL    HW232552   2.692   6.769   1.185 -0.2471  2.3010 -2.5170
10371SOL     OW32553   2.455   6.695   1.657 -0.6038  0.1738  0.1871
10371SOL    HW132554   2.459   6.618   1.601 -1.0193 -0.3983  0.9287
10371SOL    HW232555   2.361   6.710   1.672 -0.4868 -0.1933  1.4019
10372SOL     OW32556   3.080   5.963   2.535 -0.0302 -0.3651 -0.1392
10372SOL    HW132557   3.017   6.017   2.582  0.1969  0.8998 -1.2128
10372SOL    HW232558   3.164   6.008   2.546  0.4015 -1.1600 -0.0618
10373SOL     OW32559   4.832   5.146  12.252 -0.2639  0.9982 -0.3101
10373SOL    HW132560   4.781   5.110  12.179 -0.8769 -0.6118  0.8546
10373SOL    HW232561   4.915   5.099  12.248  0.3227  2.0444 -0.8832
10374SOL     OW32562   3.119   0.948   0.486  0.0383  0.2875 -0.3156
10374SOL    HW132563   3.137   0.862   0.449 -1.6888  0.1980 -1.0446
10374SOL    HW232564   3.134   1.009   0.414  0.8056  0.5697  0.0687
10375SOL     OW32565   5.719   4.832   1.989  0.8279  0.1070 -0.5134
10375SOL    HW132566   5.782   4.760   1.999  1.5440  0.6496 -0.9882
10375SOL    HW232567   5.640   4.801   2.033  1.8612 -0.0404  1.3651
10376SOL     OW32568   2.104   6.530   3.399  0.1666 -0.3216  0.7209
10376SOL    HW132569   2.111   6.460   3.334  0.8274 -0.4367  0.9101
10376SOL    HW232570   2.094   6.484   3.483 -0.9220 -0.1740  0.6849
10377SOL     OW32571   3.529   5.906   0.015  0.0049 -0.2410 -0.5181
10377SOL    HW132572   3.555   5.941   0.101 -2.1600  0.2814  0.0010
10377SOL    HW232573   3.574   5.962  -0.048 -0.6326  1.2668  0.3059
10378SOL     OW32574   3.409   7.458   1.589  0.2407 -0.6118  0.0286
10378SOL    HW132575   3.448   7.371   1.604  0.2880 -0.3065  1.7727
10378SOL    HW232576   3.484   7.513   1.567  0.4199 -0.6694  0.4830
10379SOL     OW32577   2.505   6.719   2.355  0.0753  0.4513  0.2160
10379SOL    HW132578   2.574   6.654   2.347  0.6477  1.0255  0.3714
10379SOL    HW232579   2.535   6.777   2.425  0.1569  1.5665 -0.7071
10380SOL     OW32580   0.488   7.095  11.792  0.1029  0.3267  0.1539
10380SOL    HW132581   0.576   7.134  11.786 -0.2186  0.9065 -0.8792
10380SOL    HW232582   0.430   7.161  11.756 -0.7844 -0.0371  0.8836
10381SOL     OW32583   4.079   5.850   1.719 -0.3790  0.2256  0.0023
10381SOL    HW132584   4.100   5.942   1.736  0.1314  0.3552 -1.2818
10381SOL    HW232585   4.156   5.815   1.675 -0.7719 -0.7007  0.0278
10382SOL     OW32586   3.407   6.285   4.006  0.1226  0.0214  0.5743
10382SOL    HW132587   3.337   6.336   4.048 -0.1780 -0.0040  0.1023
10382SOL    HW232588   3.378   6.274   3.916 -0.3074 -1.8814  0.9137
10383SOL     OW32589   2.695   5.593  11.613 -0.1034  0.1076  0.2241
10383SOL    HW132590   2.696   5.688  11.619 -0.5537  0.1306  0.0275
10383SOL    HW232591   2.775   5.564  11.656  1.0343  0.6725 -1.3900
10384SOL     OW32592   2.950   6.894   1.311  0.2791  0.2515 -0.5100
10384SOL    HW132593   2.971   6.986   1.330  1.1188  0.3330 -1.6700
10384SOL    HW232594   2.907   6.897   1.225 -0.2444 -0.3898 -0.2791
10385SOL     OW32595   3.450   5.788   1.007 -0.3393 -0.1874  0.1591
10385SOL    HW132596   3.532   5.826   0.976 -0.4478 -0.2572 -0.2220
10385SOL    HW232597   3.475   5.732   1.080 -0.3126  1.5052  1.4945
10386SOL     OW32598   2.061   5.011   0.665 -0.2123 -0.0108 -0.1890
10386SOL    HW132599   2.022   4.948   0.604  0.8230  0.0901 -0.9770
10386SOL    HW232600   2.133   5.051   0.616  1.5504 -0.9265  1.5288
10387SOL     OW32601   2.587   5.503   0.882 -0.0932 -0.3007  0.1791
10387SOL    HW132602   2.501   5.489   0.842 -0.2302  0.0370  0.3524
10387SOL    HW232603   2.599   5.598   0.883 -1.3620 -0.0139  3.5077
10388SOL     OW32604   0.555   5.609   2.210  0.1637 -0.6123 -0.0611
10388SOL    HW132605   0.494   5.548   2.170 -0.1056 -0.5783  0.2891
10388SOL    HW232606   0.600   5.558   2.278  0.0216 -0.4544  0.1544
10389SOL     OW32607   1.672   6.988  12.219  0.2071 -0.1094  0.4474
10389SOL    HW132608   1.687   6.941  12.301  0.8882 -2.1753 -0.7773
10389SOL    HW232609   1.711   7.074  12.233  0.3368 -0.4320  2.2614
10390SOL     OW32610   3.765   5.778  11.850  0.4670  0.1382  0.7271
10390SOL    HW132611   3.804   5.738  11.772  0.3749  0.1387  0.6814
10390SOL    HW232612   3.673   5.790  11.828  0.8760  2.2523 -0.0418
10391SOL     OW32613   1.898   0.045   3.128 -0.2041  0.1572  0.0701
10391SOL    HW132614   1.967   0.089   3.079 -0.0928 -0.5033 -0.3943
10391SOL    HW232615   1.858  -0.014   3.064 -0.9715  0.2886  0.4254
10392SOL     OW32616   0.524   5.648   1.344 -0.0132 -0.3715 -0.6341
10392SOL    HW132617   0.538   5.742   1.351  2.5595 -0.6731 -0.5595
10392SOL    HW232618   0.438   5.633   1.383  0.0315  1.7986  0.4261
10393SOL     OW32619   1.780   5.952   2.496  0.5725  0.3893  0.1894
10393SOL    HW132620   1.769   6.021   2.431  0.2046 -0.8892 -1.1532
10393SOL    HW232621   1.850   5.984   2.554 -0.4272  2.4121  0.3668
10394SOL     OW32622   3.714   5.607   0.265 -0.1229 -0.3836  0.7099
10394SOL    HW132623   3.727   5.689   0.313 -0.8345  0.4892 -0.5309
10394SOL    HW232624   3.637   5.568   0.306 -0.7677  0.3873  0.2564
10395SOL     OW32625   4.044   5.840   0.146  0.7405 -0.4728  0.1396
10395SOL    HW132626   4.133   5.811   0.125  0.5019 -2.5516  1.7605
10395SOL    HW232627   4.057   5.912   0.208  1.3033 -1.4817  1.2191
10396SOL     OW32628   3.226   6.239  11.264  0.2138 -0.0585  0.3987
10396SOL    HW132629   3.263   6.233  11.176 -2.4641  0.0066 -0.8148
10396SOL    HW232630   3.135   6.211  11.254 -0.6618  1.5792  2.8319
10397SOL     OW32631   1.483   7.654   1.579 -0.4412 -0.1334  0.6827
10397SOL    HW132632   1.393   7.645   1.610  0.1073  0.1424  2.4774
10397SOL    HW232633   1.496   7.579   1.521 -2.0692  0.2726 -0.2516
10398SOL     OW32634   2.071   5.832   0.976 -0.6801  0.3983 -0.1245
10398SOL    HW132635   1.997   5.891   0.965 -0.5098  0.5230 -0.6261
10398SOL    HW232636   2.038   5.746   0.950 -1.5357 -0.1693  2.5424
10399SOL     OW32637   1.041   6.774   1.153 -0.7417  0.2464  0.4279
10399SOL    HW132638   1.015   6.797   1.242 -0.0124  1.6291  0.3068
10399SOL    HW232639   1.135   6.760   1.158 -0.5236  1.3319 -0.3046
10400SOL     OW32640   1.450   5.482   3.393 -0.4560  0.2892 -0.2604
10400SOL    HW132641   1.469   5.571   3.422  1.0323 -0.1773  0.3218
10400SOL    HW232642   1.412   5.492   3.306 -1.3497  1.5346  0.2565
10401SOL     OW32643   0.736   6.365   3.609  0.0596 -0.2518  0.6655
10401SOL    HW132644   0.821   6.403   3.632 -0.9011  2.1308  0.5915
10401SOL    HW232645   0.714   6.405   3.525 -1.0654 -0.9626  0.5986
10402SOL     OW32646   0.650   6.887   3.589  0.4690  0.3782  0.2994
10402SOL    HW132647   0.669   6.846   3.673  1.0177  0.5710  0.2717
10402SOL    HW232648   0.733   6.883   3.541  0.1534  0.2455 -0.2420
10403SOL     OW32649   2.884   0.088   1.681  0.5090  0.5931 -0.0806
10403SOL    HW132650   2.846   0.160   1.630 -0.2349  0.2534 -0.0232
10403SOL    HW232651   2.873   0.114   1.772 -0.6222  0.0065 -0.0282
10404SOL     OW32652   2.948   6.915   1.863  0.0837 -0.2918 -0.2329
10404SOL    HW132653   2.920   6.831   1.827 -0.2206 -0.1091 -0.4301
10404SOL    HW232654   2.976   6.895   1.953 -0.6194 -0.4936 -0.0502
10405SOL     OW32655   3.458   6.357   2.724  0.2534 -0.1155  0.3367
10405SOL    HW132656   3.530   6.413   2.754  1.6342 -1.4968 -0.2641
10405SOL    HW232657   3.500   6.275   2.699 -1.7389 -1.6083  1.5604
10406SOL     OW32658   3.235   6.128   0.194 -0.0966 -0.4613 -0.3432
10406SOL    HW132659   3.229   6.044   0.148  0.1644  0.1638 -1.5631
10406SOL    HW232660   3.285   6.109   0.273 -0.4624 -1.5522 -0.3556
10407SOL     OW32661   3.441   6.653   3.900  0.6312  0.3102  0.7616
10407SOL    HW132662   3.392   6.586   3.947 -1.2047  2.5163  2.1900
10407SOL    HW232663   3.528   6.615   3.889 -0.3715 -2.3635  1.2856
10408SOL     OW32664   1.820   5.516   1.853 -0.4672  0.1375  0.1256
10408SOL    HW132665   1.824   5.576   1.928 -0.9509 -2.9244  2.8482
10408SOL    HW232666   1.726   5.496   1.845 -0.3209 -0.2122 -0.7513
10409SOL     OW32667   3.679   6.901   4.664  0.1005 -0.3808 -0.0338
10409SOL    HW132668   3.661   6.814   4.701  0.7613 -0.0973  0.9964
10409SOL    HW232669   3.650   6.895   4.573  0.3729 -1.7716 -0.0525
10410SOL     OW32670   2.689   6.495   3.333  0.2772 -0.0362 -0.7245
10410SOL    HW132671   2.663   6.469   3.422 -2.2616  3.0887 -0.3710
10410SOL    HW232672   2.613   6.474   3.279 -0.3644  2.7974 -1.0795
10411SOL     OW32673   2.219   6.819   1.274 -0.3984 -0.1172 -0.2967
10411SOL    HW132674   2.246   6.881   1.342 -0.1646 -0.4973 -0.0364
10411SOL    HW232675   2.123   6.824   1.273 -0.3954 -0.0094 -0.0295
10412SOL     OW32676   2.098   6.041   3.978 -0.4521 -0.9244  0.3743
10412SOL    HW132677   2.141   6.043   3.893  0.1975 -1.9068  0.6594
10412SOL    HW232678   2.034   5.970   3.972  0.3239 -1.7015  1.0243
10413SOL     OW32679   3.228   5.546   2.688  0.3135  0.4022  0.1311
10413SOL    HW132680   3.152   5.601   2.706  0.1875  0.5530 -0.8290
10413SOL    HW232681   3.217   5.472   2.748 -0.7076  0.3165 -0.1322
10414SOL     OW32682   0.914   5.639   3.139 -0.0448 -0.2771 -0.3868
10414SOL    HW132683   0.831   5.672   3.173 -0.9341 -1.1573 -1.6595
10414SOL    HW232684   0.977   5.657   3.210 -0.9503  1.9298 -0.0575
10415SOL     OW32685   2.242   6.970   1.996  0.1198  0.1089 -0.5448
10415SOL    HW132686   2.234   7.029   2.072 -0.4182  1.0821 -1.3371
10415SOL    HW232687   2.281   6.891   2.032  0.2075  0.6845  0.6916
10416SOL     OW32688   1.953   7.483   3.682 -0.1525 -0.2888 -0.1955
10416SOL    HW132689   1.977   7.497   3.774  0.3758  0.1432 -0.3891
10416SOL    HW232690   1.961   7.389   3.669  0.7641 -0.2496 -0.0491
10417SOL     OW32691   1.381   6.564   2.454  0.4488  0.2219 -0.1560
10417SOL    HW132692   1.426   6.536   2.534  0.2394  0.0661 -0.0916
10417SOL    HW232693   1.348   6.483   2.415  0.8378  0.2632 -0.5778
10418SOL     OW32694   1.410   5.588   3.103 -0.2659  0.1275 -0.1360
10418SOL    HW132695   1.348   5.599   3.030 -1.0012  0.0961  0.4791
10418SOL    HW232696   1.455   5.506   3.083 -1.9436 -1.0035  0.5042
10419SOL     OW32697   2.605   6.281   3.590  0.1196 -0.3599  0.1573
10419SOL    HW132698   2.602   6.186   3.574  1.9557 -0.2180 -1.5167
10419SOL    HW232699   2.680   6.292   3.649  0.5114  0.1084 -0.4167
10420SOL     OW32700   2.777   4.960   2.488  0.3123 -0.2333  0.7370
10420SOL    HW132701   2.796   4.956   2.582 -0.8350  1.4263  1.0953
10420SOL    HW232702   2.742   4.873   2.467  1.8023 -1.0577  1.5285
10421SOL     OW32703   1.866   5.336   1.437 -0.1815  0.0814  0.0886
10421SOL    HW132704   1.832   5.365   1.352  1.3415  2.1770  0.0952
10421SOL    HW232705   1.788   5.330   1.493 -1.1631 -0.9380 -1.3242
10422SOL     OW32706   2.310   7.329   1.065 -0.3656 -0.8762 -0.4124
10422SOL    HW132707   2.265   7.399   1.112  2.6855  0.6362  0.5125
10422SOL    HW232708   2.309   7.255   1.125  2.3498  0.6349  1.7303
10423SOL     OW32709   2.060   5.270   1.699 -0.4798  0.1357 -0.3135
10423SOL    HW132710   2.019   5.277   1.612 -0.0482 -1.2094 -0.6521
10423SOL    HW232711   2.138   5.217   1.684 -0.6973 -0.5914  0.9865
10424SOL     OW32712   4.269   7.635   1.818 -0.1156  0.2797 -0.4587
10424SOL    HW132713   4.300   7.548   1.791  1.4648  0.6251  0.1179
10424SOL    HW232714   4.349   7.687   1.827 -0.9182  1.3732  0.7011
10425SOL     OW32715   1.827   7.884   1.754  0.1185  0.2534 -0.3324
10425SOL    HW132716   1.764   7.951   1.780  0.8513  1.2032 -0.9363
10425SOL    HW232717   1.889   7.930   1.697  2.6077 -0.0742  1.8713
10426SOL     OW32718   1.779   5.956   2.929 -0.4374  0.4965 -0.3960
10426SOL    HW132719   1.716   6.017   2.892 -1.8083 -0.3300  0.4986
10426SOL    HW232720   1.860   5.973   2.881 -1.4252  1.3189 -1.8424
10427SOL     OW32721   2.181   6.792   3.360  0.3588 -0.2162 -0.4445
10427SOL    HW132722   2.274   6.773   3.349  0.4329  0.2183 -0.6110
10427SOL    HW232723   2.140   6.707   3.374  0.7581 -0.4271 -0.5496
10428SOL     OW32724   5.512   7.149   3.491  0.0091  0.3147 -0.4577
10428SOL    HW132725   5.462   7.088   3.437  0.5816 -0.3375 -0.2616
10428SOL    HW232726   5.480   7.236   3.465 -2.2115 -0.1035  0.6583
10429SOL     OW32727   1.600   6.736   2.405  0.0755  0.9010 -0.2525
10429SOL    HW132728   1.639   6.763   2.322 -0.5106  0.2754 -0.7432
10429SOL    HW232729   1.525   6.683   2.380  0.6373 -0.3827  0.6753
10430SOL     OW32730   1.212   6.313   3.369  0.3110 -0.1015 -0.1339
10430SOL    HW132731   1.289   6.365   3.346  0.0477 -0.3426 -1.6745
10430SOL    HW232732   1.144   6.378   3.389  0.7849  0.1110  0.8513
10431SOL     OW32733   2.755   7.509   2.011 -0.0722  0.2445 -0.0666
10431SOL    HW132734   2.782   7.475   1.926  0.7172  0.6593  0.0014
10431SOL    HW232735   2.682   7.568   1.991 -0.5388 -0.4161 -0.3356
10432SOL     OW32736   0.428   0.485   2.863  0.2258 -0.0502 -0.2307
10432SOL    HW132737   0.342   0.516   2.834 -0.4985 -0.6546  1.1710
10432SOL    HW232738   0.473   0.564   2.891  0.3446  0.3400 -1.4763
10433SOL     OW32739   2.264   4.485   5.005 -0.0344 -0.0858  0.1861
10433SOL    HW132740   2.315   4.552   4.961  0.5808  1.4294  2.9620
10433SOL    HW232741   2.327   4.416   5.025 -0.3329 -0.8140 -1.2824
10434SOL     OW32742   3.860   5.773   2.335  0.6255  0.2357  0.1498
10434SOL    HW132743   3.931   5.837   2.334  1.3769 -0.5021  2.0230
10434SOL    HW232744   3.902   5.690   2.358 -0.7733 -0.2686  1.0523
10435SOL     OW32745   1.577   7.338   2.189 -0.0601 -0.0108 -0.3282
10435SOL    HW132746   1.595   7.300   2.103  1.5104  1.0610 -0.5013
10435SOL    HW232747   1.526   7.417   2.170  0.9192  0.6306 -0.3561
10436SOL     OW32748   2.063   6.092   2.819 -0.1293 -0.1912 -0.4544
10436SOL    HW132749   2.033   6.014   2.771 -1.6428 -0.7091  1.2237
10436SOL    HW232750   1.995   6.158   2.801 -0.8928 -0.4968  1.1779
10437SOL     OW32751   4.198   5.858   2.656  0.2310 -0.4226  0.7232
10437SOL    HW132752   4.107   5.845   2.680  0.0644 -0.6354 -0.0059
10437SOL    HW232753   4.243   5.781   2.689 -0.0859 -0.9680 -0.0694
10438SOL     OW32754   1.600   5.841   4.249 -0.6356 -0.4960  0.1066
10438SOL    HW132755   1.606   5.915   4.189 -1.3701  0.2439  0.9088
10438SOL    HW232756   1.671   5.856   4.312  1.3965 -2.2869 -1.5762
10439SOL     OW32757   2.299   5.521   4.093 -0.5141  0.2320  0.3376
10439SOL    HW132758   2.212   5.482   4.094  0.6181 -2.4904 -0.1629
10439SOL    HW232759   2.300   5.577   4.015 -1.4877 -0.5235 -0.2349
10440SOL     OW32760   2.820   7.275   3.564 -0.7147 -0.1774 -0.1641
10440SOL    HW132761   2.895   7.231   3.524  1.4474  1.4415  1.8113
10440SOL    HW232762   2.803   7.226   3.645 -0.5829  0.5168  0.2946
10441SOL     OW32763   3.899   6.691   1.764  0.3523  0.0284  0.3198
10441SOL    HW132764   3.842   6.670   1.690  1.0021 -0.8002  0.0370
10441SOL    HW232765   3.879   6.623   1.829 -0.1715  0.7159  0.8980
10442SOL     OW32766   3.475   3.994   3.634 -0.0042 -0.5941 -0.0845
10442SOL    HW132767   3.387   4.030   3.648  0.7304  1.5883 -0.7092
10442SOL    HW232768   3.477   3.972   3.540  0.2363 -0.2686 -0.1571
10443SOL     OW32769   2.935   7.057   2.585 -0.2605  0.5118 -0.0974
10443SOL    HW132770   2.975   6.970   2.580 -2.1733 -0.4076 -0.0025
10443SOL    HW232771   2.994   7.113   2.533  2.1628 -0.3288  1.5745
10444SOL     OW32772   1.105   7.904   3.146 -0.1701  0.2397  0.2813
10444SOL    HW132773   1.200   7.921   3.147  0.3139 -1.8008 -1.9450
10444SOL    HW232774   1.066   7.991   3.136  1.4624  1.1056  0.9583
10445SOL     OW32775   0.607   6.210   3.235  0.0623  0.1636 -0.4134
10445SOL    HW132776   0.589   6.116   3.234  1.8967 -0.3372  2.0928
10445SOL    HW232777   0.696   6.218   3.201 -0.6822  1.2694 -2.2647
10446SOL     OW32778   1.706   6.109   1.133 -0.1819  0.7049  0.4311
10446SOL    HW132779   1.762   6.053   1.079 -1.9456  0.9262 -1.7473
10446SOL    HW232780   1.673   6.051   1.201  0.6102 -0.0761  0.1714
10447SOL     OW32781   2.780   3.756   2.764 -0.0105  0.3122 -0.4417
10447SOL    HW132782   2.759   3.672   2.722 -0.6739  0.6220 -0.7530
10447SOL    HW232783   2.791   3.735   2.856 -0.3048 -0.1023 -0.4966
10448SOL     OW32784   3.244   6.560   1.885  0.5828 -0.4157 -1.0103
10448SOL    HW132785   3.257   6.641   1.933 -0.1640 -1.0148  0.2573
10448SOL    HW232786   3.312   6.501   1.917 -0.3572 -1.0480 -0.1010
10449SOL     OW32787   1.594   7.154   4.347 -0.1946 -0.4349  0.2021
10449SOL    HW132788   1.553   7.160   4.261 -2.7974 -2.2656  1.1813
10449SOL    HW232789   1.632   7.240   4.362 -0.7770  0.3270 -2.2198
10450SOL     OW32790   2.487   7.031   0.620  0.2279  0.4994  0.5288
10450SOL    HW132791   2.561   7.021   0.560 -1.1116  0.6744 -1.2366
10450SOL    HW232792   2.520   7.085   0.691  2.3001 -0.9612  0.7587
10451SOL     OW32793   1.878   5.255   1.901 -0.0503 -0.2619  0.2890
10451SOL    HW132794   1.960   5.235   1.856  1.3743 -0.2347  2.7044
10451SOL    HW232795   1.870   5.351   1.894  0.0100 -0.2833 -0.1030
10452SOL     OW32796   2.256   5.978   2.263  0.4380  0.3004 -0.6277
10452SOL    HW132797   2.245   6.008   2.353 -1.1139 -0.3832 -0.5735
10452SOL    HW232798   2.293   5.890   2.271 -0.2354  0.0158 -0.6437
10453SOL     OW32799   3.947   5.774   2.739 -0.7591  0.3503  0.9034
10453SOL    HW132800   3.869   5.788   2.793 -0.3259  3.2465  0.9223
10453SOL    HW232801   3.916   5.716   2.669 -1.8229 -1.8938  3.0754
10454SOL     OW32802   0.620   7.450   4.328 -0.1136  0.2972  0.5725
10454SOL    HW132803   0.708   7.467   4.362  0.4897  0.4343 -0.9830
10454SOL    HW232804   0.593   7.533   4.289 -0.4133 -0.0911 -0.0672
10455SOL     OW32805   3.043   6.534   3.219  0.2972 -0.1719 -0.5300
10455SOL    HW132806   3.001   6.552   3.303  1.6044  1.2585 -0.1630
10455SOL    HW232807   2.991   6.584   3.155  2.0517  2.6292  0.0825
10456SOL     OW32808   1.222   7.248   3.111 -0.0143  0.3383  0.2678
10456SOL    HW132809   1.208   7.245   3.206 -0.2466 -3.2301  0.2816
10456SOL    HW232810   1.312   7.217   3.099 -0.3883 -0.4502 -0.6708
10457SOL     OW32811   2.290   7.249   0.794 -0.1283 -0.3197  0.2042
10457SOL    HW132812   2.283   7.271   0.887 -0.5165  0.1912  0.0629
10457SOL    HW232813   2.383   7.233   0.779 -0.1071 -0.7122  0.7466
10458SOL     OW32814   2.470   4.869   4.554 -0.3980 -0.1300  0.7979
10458SOL    HW132815   2.562   4.851   4.538 -0.1869  1.3071  0.1737
10458SOL    HW232816   2.425   4.788   4.533  0.6425 -0.5792  0.2288
10459SOL     OW32817   3.556   6.476   0.164 -0.4659 -0.7518 -0.0622
10459SOL    HW132818   3.485   6.521   0.210 -0.9874 -1.3245 -0.2936
10459SOL    HW232819   3.619   6.545   0.143  0.3357 -0.6157  2.4808
10460SOL     OW32820   1.424   7.605   2.231 -0.0086 -0.2294 -0.2938
10460SOL    HW132821   1.419   7.691   2.189 -0.5903  0.0347  0.2940
10460SOL    HW232822   1.338   7.565   2.215  0.0488 -0.4558 -0.0480
10461SOL     OW32823   4.549   4.649   2.351 -0.1078  0.4059  0.0774
10461SOL    HW132824   4.528   4.674   2.261  2.2196 -0.1418 -0.6868
10461SOL    HW232825   4.643   4.634   2.350 -0.1844 -0.5905  2.3867
10462SOL     OW32826   1.938   0.518   1.931  0.0338  0.5109  0.5968
10462SOL    HW132827   1.978   0.553   2.011 -1.5290  2.3629  0.6510
10462SOL    HW232828   1.978   0.568   1.860 -0.4400  0.6927  0.4548
10463SOL     OW32829   2.830   6.068   3.565  0.0674 -0.3105  0.2029
10463SOL    HW132830   2.757   6.060   3.503  0.6756 -0.1342 -0.5548
10463SOL    HW232831   2.788   6.078   3.650 -0.7992  0.0879 -0.2552
10464SOL     OW32832   0.277   5.894   0.243  0.3967 -0.4649  0.0967
10464SOL    HW132833   0.220   5.920   0.171 -0.1187  0.0179  0.6687
10464SOL    HW232834   0.331   5.972   0.260  1.5313 -1.0556 -0.7194
10465SOL     OW32835   2.322   5.116   3.747  0.0514 -0.1495  0.4787
10465SOL    HW132836   2.316   5.136   3.841  2.2421  0.5438  0.5241
10465SOL    HW232837   2.296   5.024   3.741  0.9360 -0.5322  1.9349
10466SOL     OW32838   1.708   6.433   0.578  0.0960  0.2908  0.0601
10466SOL    HW132839   1.793   6.428   0.533 -1.1275 -0.0297 -2.4011
10466SOL    HW232840   1.725   6.396   0.664  2.6947  1.2300  0.0627
10467SOL     OW32841   1.867   6.205   4.919  0.9576 -0.5896  0.3611
10467SOL    HW132842   1.926   6.237   4.988  0.3035  0.0197  0.6587
10467SOL    HW232843   1.920   6.205   4.840  1.1371  0.7741  0.4568
10468SOL     OW32844   0.075   1.049   3.343  0.1734  0.1807  0.3928
10468SOL    HW132845   0.096   1.054   3.249  1.4286  1.7167  0.7227
10468SOL    HW232846   0.062   1.139   3.370  2.3317  0.0262  2.2293
10469SOL     OW32847   2.717   5.447   4.230  0.6356 -0.3067  0.1452
10469SOL    HW132848   2.632   5.419   4.264  1.5416 -0.1105  2.7692
10469SOL    HW232849   2.743   5.375   4.171 -1.0003 -0.6927 -0.1739
10470SOL     OW32850   3.451   7.046   2.942 -0.2340 -0.1827 -0.4743
10470SOL    HW132851   3.394   7.048   2.865 -0.5295  0.6916 -0.2548
10470SOL    HW232852   3.457   7.138   2.969 -1.5669 -0.6420  1.5923
10471SOL     OW32853   2.426   5.620   4.817 -0.0334 -0.1960  0.2111
10471SOL    HW132854   2.409   5.641   4.725 -1.4955  2.1212  0.9206
10471SOL    HW232855   2.435   5.525   4.819  2.4820 -0.1689 -2.6545
10472SOL     OW32856   2.895   4.905   2.754 -0.5459 -0.0138 -0.0190
10472SOL    HW132857   2.900   4.909   2.850  1.0608  0.4705 -0.0861
10472SOL    HW232858   2.864   4.817   2.735 -0.1466 -0.3794  0.9447
10473SOL     OW32859   3.434   5.508   1.263  0.1905 -0.4121 -0.2343
10473SOL    HW132860   3.480   5.591   1.281  0.2228 -0.6937  1.0544
10473SOL    HW232861   3.419   5.470   1.350 -0.5151 -1.3910 -0.7766
10474SOL     OW32862   0.555   6.146   2.450  0.2134  0.1822 -0.8390
10474SOL    HW132863   0.555   6.195   2.532 -0.6619 -1.6127  0.3158
10474SOL    HW232864   0.644   6.112   2.441 -0.1294 -1.1602  0.4186
10475SOL     OW32865   2.462   6.341   1.735  0.5731  0.7796  0.2139
10475SOL    HW132866   2.411   6.262   1.753 -0.4671  1.5189  0.6544
10475SOL    HW232867   2.519   6.352   1.811 -0.1655  1.1115  0.7309
10476SOL     OW32868   2.531   6.791   3.001  0.2130 -0.1011 -0.0541
10476SOL    HW132869   2.468   6.776   2.930  0.1215  1.2767 -0.2847
10476SOL    HW232870   2.579   6.869   2.974  0.2667  0.3704  1.3383
10477SOL     OW32871   2.797   6.651   4.781  0.8539 -0.5574 -0.4314
10477SOL    HW132872   2.705   6.644   4.807  0.6674  2.6068  0.1964
10477SOL    HW232873   2.797   6.629   4.688 -0.6343 -0.1926 -0.5500
10478SOL     OW32874   1.525   5.868   0.422 -0.9210 -0.2512  0.0745
10478SOL    HW132875   1.498   5.855   0.331  0.8774 -0.9584 -0.4005
10478SOL    HW232876   1.605   5.920   0.415 -0.8297 -0.2217  1.2614
10479SOL     OW32877   4.245   7.327   1.328  0.1852 -0.6690  0.2904
10479SOL    HW132878   4.213   7.411   1.359  1.3899 -0.1614  0.1791
10479SOL    HW232879   4.169   7.269   1.335 -0.1757 -0.0337  2.0717
10480SOL     OW32880   0.968   6.667   0.497  0.1588 -0.8079  0.1256
10480SOL    HW132881   0.944   6.574   0.488 -1.1006 -0.5790  0.8561
10480SOL    HW232882   0.943   6.706   0.413 -0.7570 -0.8474  0.3737
10481SOL     OW32883   1.180   6.728   2.329  0.3895  0.3538  0.0779
10481SOL    HW132884   1.249   6.663   2.340  0.2203  0.0688 -0.5166
10481SOL    HW232885   1.116   6.707   2.398 -0.1257 -0.7152 -0.7020
10482SOL     OW32886   2.676   5.295   3.828 -0.5521 -0.5254  0.1746
10482SOL    HW132887   2.747   5.268   3.770 -0.0598  1.0202  0.0258
10482SOL    HW232888   2.686   5.240   3.905  1.5160  0.4162  0.6384
10483SOL     OW32889   3.873   6.456   3.179 -0.4231  0.3837 -0.5116
10483SOL    HW132890   3.779   6.469   3.167 -0.6936  0.7491  1.5879
10483SOL    HW232891   3.889   6.368   3.145 -2.1185 -0.8497  1.6039
10484SOL     OW32892   1.197   6.419   2.712  0.2028 -0.7414  0.8197
10484SOL    HW132893   1.147   6.393   2.635  0.8335  0.6204 -0.1110
10484SOL    HW232894   1.215   6.512   2.697  3.5974 -1.2684  0.6983
10485SOL     OW32895   2.598   0.207   2.884 -0.1035 -0.3479  0.4023
10485SOL    HW132896   2.642   0.292   2.891  1.1795 -0.9312 -0.2786
10485SOL    HW232897   2.608   0.167   2.971 -2.3237  0.8990  1.3230
10486SOL     OW32898   2.535   5.757   3.156 -0.1557  0.1392  0.3196
10486SOL    HW132899   2.570   5.837   3.195 -0.8643 -0.3577  2.0582
10486SOL    HW232900   2.446   5.780   3.129 -0.3105 -0.0197  0.6905
10487SOL     OW32901   3.387   7.045   2.663 -0.1028  0.4784 -0.7277
10487SOL    HW132902   3.370   6.951   2.672 -1.5257  0.8108  0.4067
10487SOL    HW232903   3.330   7.073   2.591 -0.2966  0.6107 -0.5258
10488SOL     OW32904   4.393   7.161   0.457  0.6693  0.1196  0.4525
10488SOL    HW132905   4.306   7.138   0.490  0.3714  0.0408 -0.3603
10488SOL    HW232906   4.448   7.087   0.482  0.1621 -0.5557 -0.3513
10489SOL     OW32907   0.368   6.776   4.225  0.1620 -0.0559 -0.1925
10489SOL    HW132908   0.444   6.733   4.185  1.5183 -0.1423  2.2853
10489SOL    HW232909   0.302   6.706   4.231  1.5678 -1.3204  1.7817
10490SOL     OW32910   4.483   5.797   2.197 -0.4165  0.6087 -0.5384
10490SOL    HW132911   4.565   5.845   2.186 -0.3683  0.7938  0.4704
10490SOL    HW232912   4.491   5.758   2.284 -1.1541  0.1386 -0.6773
10491SOL     OW32913   2.139   6.166   3.472 -0.5025  0.0333 -0.1723
10491SOL    HW132914   2.141   6.101   3.401 -1.6606 -0.9390  0.6382
10491SOL    HW232915   2.050   6.202   3.468  0.0449  1.4002 -0.4399
10492SOL     OW32916   4.497   6.453   2.043 -0.2506  0.5457 -0.2856
10492SOL    HW132917   4.567   6.406   2.088 -1.2370  0.1404  0.8811
10492SOL    HW232918   4.492   6.412   1.956  0.3964  0.0177 -0.0751
10493SOL     OW32919   3.208   6.593   2.829  0.2955 -0.8194  0.1900
10493SOL    HW132920   3.270   6.521   2.815  0.2901 -0.8277  0.2082
10493SOL    HW232921   3.122   6.554   2.815  0.3543 -0.5127 -1.0719
10494SOL     OW32922   2.206   1.681   4.437 -0.1243  0.6156 -0.4843
10494SOL    HW132923   2.268   1.666   4.509  1.7082  0.8901 -1.9145
10494SOL    HW232924   2.129   1.720   4.478 -0.1964 -1.6078  1.6586
10495SOL     OW32925   3.203   0.300   2.494 -0.3433  0.2817 -0.3056
10495SOL    HW132926   3.155   0.303   2.577  0.8010  1.2514  0.3620
10495SOL    HW232927   3.292   0.274   2.519 -0.1402 -0.0205 -1.3142
10496SOL     OW32928   5.493   6.554   4.397 -0.2365  0.2618  0.2038
10496SOL    HW132929   5.421   6.605   4.361  0.4517  1.4439  0.4680
10496SOL    HW232930   5.566   6.570   4.339 -0.0399 -0.5668  0.2017
10497SOL     OW32931   2.065   4.401   5.398  0.0768 -0.4060  0.0768
10497SOL    HW132932   2.037   4.450   5.475 -3.1402  0.4094 -1.4525
10497SOL    HW232933   2.052   4.310   5.422  1.9851 -0.3824  1.4511
10498SOL     OW32934   2.581   0.219   3.210  0.1714 -0.5356  0.1253
10498SOL    HW132935   2.664   0.258   3.182  1.9868 -2.7070  2.1109
10498SOL    HW232936   2.522   0.293   3.218  1.4536  0.9630 -2.6289
10499SOL     OW32937   2.745   7.715   1.183  0.1709 -0.5340  0.5976
10499SOL    HW132938   2.823   7.699   1.237  1.1159 -1.4225 -0.9805
10499SOL    HW232939   2.696   7.633   1.187 -0.8820  0.1151  1.8227
10500SOL     OW32940   0.815   5.967   3.350  0.2286  0.4713  0.2012
10500SOL    HW132941   0.785   5.877   3.335 -1.7889  1.2506 -0.9587
10500SOL    HW232942   0.844   5.968   3.441  0.4427 -1.3736  0.1989
10501SOL     OW32943   2.258   6.120   2.507 -0.4324 -0.4546  0.2117
10501SOL    HW132944   2.316   6.063   2.557 -1.1802 -0.2713  1.3298
10501SOL    HW232945   2.267   6.206   2.550  1.0825  0.4524 -1.7600
10502SOL     OW32946   3.459   6.587   4.203 -0.5336 -0.3648 -0.8046
10502SOL    HW132947   3.386   6.553   4.151 -1.2541  0.6432 -0.4863
10502SOL    HW232948   3.504   6.509   4.235 -2.7365 -1.0961  0.7855
10503SOL     OW32949   7.801   6.159   1.572  0.4583 -0.1933 -0.4236
10503SOL    HW132950   7.808   6.214   1.494  0.0624  1.6038  0.7619
10503SOL    HW232951   7.874   6.098   1.564  1.2766  0.8746 -1.5102
10504SOL     OW32952   2.299   7.961   4.519  0.5943 -0.5408  0.2442
10504SOL    HW132953   2.392   7.939   4.513  1.0095  0.8614  1.0744
10504SOL    HW232954   2.297   8.046   4.562 -1.0631 -0.2924 -0.2512
10505SOL     OW32955   2.959   6.487   2.774  0.7170  0.3832 -0.2666
10505SOL    HW132956   2.939   6.414   2.832  1.6229 -0.6289 -1.1806
10505SOL    HW232957   2.977   6.446   2.689 -1.4387  1.8605 -1.5385
10506SOL     OW32958   2.172   0.829   4.562  0.0668  0.6647  0.2186
10506SOL    HW132959   2.158   0.737   4.540 -1.6004  0.9670 -0.1321
10506SOL    HW232960   2.174   0.831   4.658 -0.6110  0.3312  0.2488
10507SOL     OW32961   2.628   4.830   1.990  0.6288 -0.7500  0.1952
10507SOL    HW132962   2.629   4.820   1.895 -0.7257  2.9087 -0.3637
10507SOL    HW232963   2.719   4.849   2.013  0.4880  2.0628 -1.0632
10508SOL     OW32964   3.029   6.446   1.718 -0.0192 -0.3108 -0.5754
10508SOL    HW132965   3.093   6.507   1.756  0.1434  0.5227 -2.0980
10508SOL    HW232966   3.079   6.397   1.653 -0.5959 -0.7414 -0.7022
10509SOL     OW32967   1.625   7.744   3.470  0.1787 -0.7992 -0.0645
10509SOL    HW132968   1.593   7.819   3.521  1.0995 -0.9437  0.7471
10509SOL    HW232969   1.719   7.742   3.486  0.1653 -2.1487 -0.0531
10510SOL     OW32970   3.097   6.855   2.509  0.3962 -0.2074 -0.1602
10510SOL    HW132971   3.167   6.916   2.485  0.8756 -1.3380 -1.7489
10510SOL    HW232972   3.123   6.772   2.471 -1.5459 -0.7938 -0.3080
10511SOL     OW32973   3.816   4.112   3.230 -0.0833 -0.6995  0.1417
10511SOL    HW132974   3.875   4.094   3.304  0.0844  0.2788  0.2621
10511SOL    HW232975   3.760   4.035   3.225 -0.5063 -0.5242  1.6972
10512SOL     OW32976   0.290   4.699   4.599  0.4914  0.3227  0.1728
10512SOL    HW132977   0.289   4.794   4.589  0.8250  0.2905 -0.1563
10512SOL    HW232978   0.296   4.686   4.694 -0.3000  0.6218  0.2764
10513SOL     OW32979   1.331   6.948   2.277 -0.4178 -0.9798 -0.2625
10513SOL    HW132980   1.267   6.879   2.294  0.3753 -1.3759  1.3084
10513SOL    HW232981   1.379   6.919   2.199 -1.5270 -1.1079 -0.9207
10514SOL     OW32982   2.457   7.300   1.882  0.1207  0.0510  0.6954
10514SOL    HW132983   2.492   7.219   1.917  2.9206  0.5746 -0.6406
10514SOL    HW232984   2.391   7.327   1.945  0.4517 -2.2641  2.1383
10515SOL     OW32985   4.080   3.758   2.695  0.2835  0.1357  0.0164
10515SOL    HW132986   4.046   3.734   2.781 -0.7339  0.5403 -0.2577
10515SOL    HW232987   4.172   3.780   2.711 -0.1923  1.3967  1.2286
10516SOL     OW32988   1.462   4.160   4.280  0.6511  0.0882  0.2925
10516SOL    HW132989   1.432   4.073   4.307  0.2848  0.6057  1.6684
10516SOL    HW232990   1.429   4.170   4.191 -0.4563 -0.6629  0.5941
10517SOL     OW32991   2.365   5.586   3.797  0.3765 -0.3407 -0.3370
10517SOL    HW132992   2.303   5.521   3.765 -0.3580  1.1738 -2.1729
10517SOL    HW232993   2.445   5.569   3.746 -0.4236  1.3379 -2.2430
10518SOL     OW32994   3.202   6.240   2.856  0.5697 -0.2517 -0.1380
10518SOL    HW132995   3.261   6.281   2.792  1.3705  1.2353  1.4830
10518SOL    HW232996   3.239   6.153   2.870  0.0618 -0.8271 -2.0645
10519SOL     OW32997   3.675   6.490   3.993 -0.0361 -0.1129  0.6140
10519SOL    HW132998   3.736   6.444   3.935 -1.8599 -0.3174 -1.2152
10519SOL    HW232999   3.720   6.572   4.014  0.8824 -0.2456 -0.7118
10520SOL     OW33000   0.488   6.758   2.674 -0.3738 -0.6399  0.1278
10520SOL    HW133001   0.425   6.779   2.744 -0.4411 -0.2427 -0.0498
10520SOL    HW233002   0.535   6.840   2.659 -0.2279 -0.7756 -0.1625
10521SOL     OW33003   3.141   0.587   1.100  0.4447  0.0658 -0.4685
10521SOL    HW133004   3.184   0.661   1.143  1.9606 -0.6885 -0.6485
10521SOL    HW233005   3.058   0.623   1.068  1.4085  1.8377 -1.0769
10522SOL     OW33006   2.581   6.815   1.856  0.0773  0.4928  0.3443
10522SOL    HW133007   2.522   6.771   1.796 -0.3535  0.3763  0.8440
10522SOL    HW233008   2.667   6.778   1.837 -0.1562  0.0080  0.2203
10523SOL     OW33009   2.974   7.262   4.099  0.3647  0.7324 -0.6313
10523SOL    HW133010   2.998   7.259   4.007 -1.2553  0.9756 -1.1004
10523SOL    HW233011   3.052   7.231   4.146  0.8374 -0.4636 -2.1354
10524SOL     OW33012   3.453   0.537   0.411 -0.1819  0.6863  0.2160
10524SOL    HW133013   3.448   0.462   0.470 -0.2716 -0.2079 -0.8956
10524SOL    HW233014   3.362   0.554   0.387 -0.0155 -0.1002 -1.0424
10525SOL     OW33015   1.854   7.110   3.062 -0.1688  0.2055  0.3754
10525SOL    HW133016   1.849   7.099   2.967  1.0345  0.9587  0.2133
10525SOL    HW233017   1.828   7.024   3.097 -0.9048  0.0053 -0.6103
10526SOL     OW33018   2.547   4.137   1.888 -0.0668  0.0605  0.5814
10526SOL    HW133019   2.585   4.224   1.900  1.5429 -0.1777 -2.1242
10526SOL    HW233020   2.609   4.077   1.929  0.1518  0.0089  0.1792
10527SOL     OW33021   5.100   6.397   2.853  0.3589  0.8775 -0.3268
10527SOL    HW133022   5.152   6.329   2.810 -1.6811  0.0412 -1.6151
10527SOL    HW233023   5.085   6.462   2.784 -1.5654  0.3308 -0.4746
10528SOL     OW33024   2.124   7.205   2.470  0.0709  0.5737  0.1778
10528SOL    HW133025   2.198   7.239   2.520  0.1848 -0.2239  0.5709
10528SOL    HW233026   2.053   7.267   2.486  0.1783  0.4576  1.1480
10529SOL     OW33027   0.999   7.250   1.487 -0.1576 -0.3227  0.5095
10529SOL    HW133028   0.971   7.325   1.435 -0.3493  0.1617  1.3089
10529SOL    HW233029   0.926   7.188   1.480  0.1396 -0.5924 -0.4220
10530SOL     OW33030   2.492   6.028   4.635 -0.3044 -0.2855  0.1895
10530SOL    HW133031   2.486   6.070   4.720 -0.3969 -3.2783  1.7901
10530SOL    HW233032   2.570   5.973   4.641 -0.0493 -0.2356 -1.8577
10531SOL     OW33033   4.766   6.440   3.864 -0.3165  0.0428  0.2326
10531SOL    HW133034   4.785   6.382   3.938 -0.1048  1.0828  1.0256
10531SOL    HW233035   4.678   6.416   3.836 -0.4601 -0.2653  0.9278
10532SOL     OW33036   3.858   4.292   2.781  0.0606  0.0086 -0.2927
10532SOL    HW133037   3.895   4.231   2.845  0.4226  0.3459 -0.1722
10532SOL    HW233038   3.844   4.239   2.703 -1.2460 -0.6243  0.3323
10533SOL     OW33039   1.161   6.325   0.634  0.4454 -0.5075  0.3793
10533SOL    HW133040   1.226   6.357   0.697  1.1081 -0.8150 -0.1329
10533SOL    HW233041   1.212   6.307   0.555  0.0307 -2.3377  0.4737
10534SOL     OW33042   2.388   7.801   3.271 -0.6038 -0.1220  0.3690
10534SOL    HW133043   2.388   7.711   3.302 -0.7018 -0.6601 -1.1263
10534SOL    HW233044   2.388   7.794   3.176  2.5815  1.4213  0.1121
10535SOL     OW33045   1.307   6.201   1.250 -0.0314 -0.0315 -0.0308
10535SOL    HW133046   1.290   6.138   1.180 -0.7493 -0.1137  0.2131
10535SOL    HW233047   1.277   6.158   1.330 -0.7530  0.7002  0.1087
10536SOL     OW33048   2.202   7.093   3.837  0.1516  0.3625 -0.1480
10536SOL    HW133049   2.262   7.123   3.905 -0.0272 -1.4670  0.8842
10536SOL    HW233050   2.132   7.048   3.884 -1.4167  1.3753 -1.4017
10537SOL     OW33051   7.582   6.281   3.482  0.6512  0.3838 -0.5024
10537SOL    HW133052   7.667   6.284   3.525  0.5414 -0.7001 -0.1857
10537SOL    HW233053   7.533   6.214   3.530 -0.5118  1.2252 -0.4434
10538SOL     OW33054   1.362   4.883   4.294 -0.0176 -0.4042  0.3281
10538SOL    HW133055   1.339   4.972   4.268  0.3272 -0.0713  1.1320
10538SOL    HW233056   1.377   4.837   4.212 -0.7169  0.1392 -0.1088
10539SOL     OW33057   3.059   6.125   3.481  0.1522 -0.0629 -0.5284
10539SOL    HW133058   2.980   6.092   3.524  0.5577 -0.7836 -0.3104
10539SOL    HW233059   3.087   6.052   3.425  2.5175 -1.1942  1.8779
10540SOL     OW33060   4.650   5.811   3.452  0.2564  0.3287 -0.2127
10540SOL    HW133061   4.624   5.900   3.475  1.4602  1.0144 -1.3730
10540SOL    HW233062   4.731   5.822   3.401 -0.2368 -1.3447 -1.4385
10541SOL     OW33063   2.359   6.055   3.267 -0.6400  0.1191  0.0560
10541SOL    HW133064   2.384   6.063   3.175  1.4335 -1.2413  0.4440
10541SOL    HW233065   2.272   6.013   3.264 -0.0585 -1.0958 -1.2748
10542SOL     OW33066   2.568   0.274   5.019  0.1483 -0.4667 -0.4037
10542SOL    HW133067   2.607   0.208   5.075  0.0521 -1.2434 -1.2358
10542SOL    HW233068   2.636   0.341   5.009  0.5357 -0.8321 -0.2246
10543SOL     OW33069   2.954   6.296   4.320  0.1477  0.0045  0.5344
10543SOL    HW133070   3.021   6.351   4.280 -1.5122  1.0058 -1.0185
10543SOL    HW233071   2.991   6.272   4.405  1.8636  1.6871  0.3441
10544SOL     OW33072   2.071   5.164   3.548 -0.0735  0.3027 -0.0068
10544SOL    HW133073   2.074   5.108   3.469 -0.2153 -0.1888  0.3294
10544SOL    HW233074   2.146   5.135   3.600 -0.6449 -0.1889  0.5696
10545SOL     OW33075   3.015   5.414   4.196 -0.5154  0.2275 -0.3169
10545SOL    HW133076   2.939   5.366   4.229 -0.0723  0.0741  0.4872
10545SOL    HW233077   2.982   5.458   4.117 -1.4716  0.2683  0.0859
10546SOL     OW33078   1.830   5.408   4.379  0.4752  0.2838 -0.2876
10546SOL    HW133079   1.864   5.477   4.436 -1.3862  0.9830  0.0270
10546SOL    HW233080   1.767   5.452   4.322 -0.6320 -1.1174 -0.1916
10547SOL     OW33081   3.818   6.538   3.454  0.1292  0.0764 -0.1203
10547SOL    HW133082   3.870   6.533   3.374  0.6443  1.0323  0.1418
10547SOL    HW233083   3.865   6.600   3.509 -0.1738 -0.6154  0.9578
10548SOL     OW33084   3.835   3.851   2.253 -0.5082 -0.6759  0.2235
10548SOL    HW133085   3.855   3.880   2.342 -0.9601 -1.8028  0.7103
10548SOL    HW233086   3.756   3.901   2.229  0.3046  0.5272 -0.0309
10549SOL     OW33087   3.070   6.256   3.746  0.0722  0.3345 -0.4121
10549SOL    HW133088   3.063   6.351   3.743  0.5405  0.4749  1.5315
10549SOL    HW233089   3.049   6.227   3.657  2.0326  2.3704 -1.6538
10550SOL     OW33090   2.540   4.943   4.855  0.3432 -0.2278 -0.2488
10550SOL    HW133091   2.556   4.919   4.764  0.1546  0.2384 -0.4087
10550SOL    HW233092   2.515   4.861   4.897  3.3818 -1.1037  0.1017
10551SOL     OW33093   2.531   6.489   4.623 -0.0532  0.1056  0.0582
10551SOL    HW133094   2.575   6.408   4.649  0.4733  0.3353 -0.1065
10551SOL    HW233095   2.532   6.543   4.702  0.2180  0.2230 -0.0253
10552SOL     OW33096   5.157   6.108   3.007 -0.1061 -0.1238 -0.2939
10552SOL    HW133097   5.130   6.170   3.074 -0.9931 -0.5280 -0.2653
10552SOL    HW233098   5.211   6.160   2.946 -0.4864  0.5684 -0.0446
10553SOL     OW33099   1.114   7.528  12.437 -0.7026  0.2678 -0.3295
10553SOL    HW133100   1.085   7.605  12.485  0.9427  0.3427  0.6220
10553SOL    HW233101   1.208   7.540  12.426 -0.5495 -1.2066 -0.9146
10554SOL     OW33102   2.054   5.918   4.413 -0.1213 -0.2606  0.3987
10554SOL    HW133103   2.102   5.846   4.372  0.5906  0.4333 -0.0252
10554SOL    HW233104   2.110   5.946   4.486  0.7748  1.3636 -0.8398
10555SOL     OW33105   2.964   4.926   4.546 -0.3477  0.3781  0.2261
10555SOL    HW133106   3.048   4.883   4.530 -0.7593 -0.4507  0.2307
10555SOL    HW233107   2.977   5.016   4.516  0.2024 -0.0316 -0.8256
10556SOL     OW33108   2.652   6.980   4.854  0.7305  0.2313  0.4502
10556SOL    HW133109   2.625   6.992   4.762 -0.5977 -2.4180  0.3907
10556SOL    HW233110   2.593   6.911   4.887  0.6654  1.6098  3.5456
10557SOL     OW33111   1.660   6.897   2.196  0.4756  0.0087 -0.1631
10557SOL    HW133112   1.625   6.817   2.157  0.6455 -0.1673  0.0460
10557SOL    HW233113   1.744   6.910   2.152  0.6597 -0.1804  0.1271
10558SOL     OW33114   1.470   7.218   4.610 -0.0812  0.0243  0.5951
10558SOL    HW133115   1.516   7.140   4.640 -1.1410 -1.2945 -1.0738
10558SOL    HW233116   1.440   7.197   4.522 -0.3002  2.3750  0.0246
10559SOL     OW33117   3.095   5.515   3.423 -0.3481  0.6667  1.0088
10559SOL    HW133118   3.098   5.522   3.518 -0.6174  0.3190  1.0447
10559SOL    HW233119   3.132   5.429   3.404 -0.2066  0.7754  0.7939
10560SOL     OW33120   0.443   6.623   3.428 -0.2046  0.6088  0.0517
10560SOL    HW133121   0.489   6.577   3.498  1.6609 -1.9492 -2.6241
10560SOL    HW233122   0.379   6.559   3.396  0.5844  0.7667 -2.0086
10561SOL     OW33123   2.688   0.066   1.244 -0.2356 -0.5212 -0.7244
10561SOL    HW133124   2.645   0.019   1.172 -0.5036  0.8197 -1.4747
10561SOL    HW233125   2.766   0.104   1.204  0.0319 -0.4257 -0.1082
10562SOL     OW33126   3.184   6.067   3.131  0.6447  0.1623  0.2616
10562SOL    HW133127   3.265   6.026   3.160  2.1788  1.6718 -1.5942
10562SOL    HW233128   3.192   6.158   3.160  0.0808  0.5589 -0.7733
10563SOL     OW33129   1.388   7.277   1.985  0.0955  0.1978  0.0613
10563SOL    HW133130   1.354   7.313   1.903  0.3677 -0.8495 -0.5330
10563SOL    HW233131   1.321   7.300   2.050 -1.3331 -0.9901 -0.9101
10564SOL     OW33132   1.889   1.581   1.971 -0.0659 -0.4247  0.1798
10564SOL    HW133133   1.950   1.622   2.031  0.8848 -0.7490 -0.5283
10564SOL    HW233134   1.917   1.610   1.884  0.0218 -1.7466 -0.2684
10565SOL     OW33135   1.257   6.779   4.034 -0.0950  0.4222  0.2034
10565SOL    HW133136   1.345   6.794   4.068  0.2613  0.2932 -0.6627
10565SOL    HW233137   1.236   6.689   4.062 -0.6218  1.0121  1.8373
10566SOL     OW33138   0.252   7.290   2.627  0.2275 -0.2137  0.8265
10566SOL    HW133139   0.316   7.358   2.607 -0.0268  0.1872  1.3315
10566SOL    HW233140   0.208   7.322   2.706 -1.5113  0.1769 -0.2341
10567SOL     OW33141   2.315   5.797   0.830  0.3850 -0.2616  0.3708
10567SOL    HW133142   2.228   5.810   0.868  1.1298 -0.4466  2.2524
10567SOL    HW233143   2.375   5.802   0.905  2.2807  2.4131 -1.1399
10568SOL     OW33144   1.325   7.388   3.521 -0.1082  0.5168 -0.0211
10568SOL    HW133145   1.259   7.326   3.553  1.3614 -1.0372  0.1198
10568SOL    HW233146   1.293   7.473   3.551 -3.2292  0.1792 -1.8978
10569SOL     OW33147   1.438   0.525   2.580  0.2645  0.3851  0.0485
10569SOL    HW133148   1.442   0.445   2.527  1.7907  0.6712 -0.2998
10569SOL    HW233149   1.346   0.531   2.606  0.0546 -1.3151 -0.1715
10570SOL     OW33150   3.561   5.472   1.804 -0.3880  0.0739 -0.2160
10570SOL    HW133151   3.626   5.527   1.848 -0.2733 -0.4786  0.3119
10570SOL    HW233152   3.542   5.519   1.723  0.8746  0.1073 -0.5099
10571SOL     OW33153   1.314   6.422   2.152 -0.2813  0.1667 -0.6654
10571SOL    HW133154   1.260   6.396   2.078  1.3514 -1.5749 -1.3119
10571SOL    HW233155   1.272   6.382   2.228 -1.2897  0.9518 -0.7984
10572SOL     OW33156   2.456   6.032   3.017 -0.2602  0.2965 -0.2681
10572SOL    HW133157   2.513   6.107   3.034  0.1729 -0.0223 -0.2755
10572SOL    HW233158   2.481   6.003   2.929 -1.1246  0.7493 -0.6709
10573SOL     OW33159   3.265   5.866   4.572  0.8390  0.1080 -0.0194
10573SOL    HW133160   3.290   5.775   4.588  0.9736  0.3462  1.1704
10573SOL    HW233161   3.338   5.918   4.607  0.6510  0.6809 -0.4672
10574SOL     OW33162   2.845   5.193   1.087  0.4492  0.5942  0.0087
10574SOL    HW133163   2.935   5.183   1.117  0.5291  0.3729 -0.3021
10574SOL    HW233164   2.852   5.233   1.000  0.3436 -1.0162 -0.7873
10575SOL     OW33165   4.452   6.054   4.409  0.4616  0.2231  0.5716
10575SOL    HW133166   4.482   6.144   4.416  1.1687 -0.0094  0.6820
10575SOL    HW233167   4.476   6.014   4.493 -2.2550  0.5966  1.6099
10576SOL     OW33168   1.693   5.418   2.331 -0.5563 -0.8569 -0.2894
10576SOL    HW133169   1.749   5.362   2.277  0.5476  0.9503 -1.1253
10576SOL    HW233170   1.731   5.414   2.418 -1.3720 -2.5035  0.0410
10577SOL     OW33171   2.236   7.885   1.458  0.7737 -0.2497 -0.5305
10577SOL    HW133172   2.327   7.916   1.450  0.3810  0.5276 -2.6474
10577SOL    HW233173   2.205   7.879   1.367 -1.3288 -0.3916  0.1521
10578SOL     OW33174   2.781   7.077   3.856  0.5565  0.3428 -0.3457
10578SOL    HW133175   2.695   7.054   3.822  1.1564  0.2549 -1.8731
10578SOL    HW233176   2.804   7.005   3.915 -0.5692  0.5726  0.3907
10579SOL     OW33177   2.863   7.471   3.223 -0.0659 -0.1604  0.4479
10579SOL    HW133178   2.848   7.560   3.194 -1.7238 -0.4911  0.2061
10579SOL    HW233179   2.917   7.432   3.154  0.7824  0.6740  0.6261
10580SOL     OW33180   2.252   6.587   5.043  0.3236 -0.8943  0.0336
10580SOL    HW133181   2.321   6.646   5.011 -1.6704  1.8801  0.5463
10580SOL    HW233182   2.244   6.608   5.136 -1.5601 -0.7978 -0.1283
10581SOL     OW33183   3.469   7.309   2.613  0.1371  0.0553  0.1740
10581SOL    HW133184   3.532   7.271   2.552  2.6663 -0.0691  2.6482
10581SOL    HW233185   3.431   7.233   2.658 -1.2958  0.1741 -0.7619
10582SOL     OW33186   1.452   6.297   4.018  0.4505  0.1891 -0.2319
10582SOL    HW133187   1.374   6.246   4.042  0.3918  1.0856  1.6408
10582SOL    HW233188   1.419   6.386   4.004  1.1998  0.7534  1.3702
10583SOL     OW33189   1.258   5.443   3.723  0.0099 -0.2997  0.0262
10583SOL    HW133190   1.256   5.467   3.816 -1.4559  0.6435 -0.2164
10583SOL    HW233191   1.199   5.505   3.681  2.2599  0.6385 -1.8983
10584SOL     OW33192   2.170   6.426   1.874  0.0960  0.3531  0.0216
10584SOL    HW133193   2.258   6.413   1.840 -0.2109  0.5483 -0.8783
10584SOL    HW233194   2.165   6.370   1.952 -0.5150 -3.5785 -2.5412
10585SOL     OW33195   1.433   6.662   2.133 -0.0989 -0.2397 -0.2815
10585SOL    HW133196   1.432   6.669   2.037 -1.9200  0.0222 -0.2876
10585SOL    HW233197   1.384   6.582   2.151 -0.8939  0.3935  0.4450
10586SOL     OW33198   4.359   5.954   3.424 -0.5642 -0.0470  0.1173
10586SOL    HW133199   4.349   5.877   3.368 -0.9166 -0.2115  0.3974
10586SOL    HW233200   4.277   5.958   3.473  0.0188 -0.3277  1.1426
10587SOL     OW33201   1.644   5.589   4.289 -0.3425  0.7642 -0.2138
10587SOL    HW133202   1.558   5.560   4.318 -0.3813 -0.8351 -1.7496
10587SOL    HW233203   1.631   5.677   4.256 -1.4566  0.4284 -0.6935
10588SOL     OW33204   1.281   4.629   0.820  0.3521  0.6784 -0.1678
10588SOL    HW133205   1.286   4.608   0.727 -1.3378  0.4575 -0.2297
10588SOL    HW233206   1.188   4.631   0.840  0.6838 -0.7183  1.8556
10589SOL     OW33207   3.681   5.957   1.428 -0.3712 -0.6320  1.0909
10589SOL    HW133208   3.750   6.013   1.393 -1.5296 -0.4938 -1.0996
10589SOL    HW233209   3.624   6.017   1.477 -0.6904 -0.1492  0.1584
10590SOL     OW33210   3.435   7.500   6.363 -0.2809 -0.4853 -0.4765
10590SOL    HW133211   3.347   7.524   6.390  0.0998 -0.7061  1.0165
10590SOL    HW233212   3.465   7.437   6.428  2.0976  1.8175  0.9023
10591SOL     OW33213   3.750   6.450   2.475  0.3267  0.5092 -0.3706
10591SOL    HW133214   3.696   6.376   2.501 -0.9831  1.5303 -0.0953
10591SOL    HW233215   3.833   6.437   2.521 -0.2380 -0.2563  0.4544
10592SOL     OW33216   1.458   7.621   3.094 -0.4351  0.5910 -0.7587
10592SOL    HW133217   1.478   7.597   3.185  1.0041  1.0597 -0.9267
10592SOL    HW233218   1.369   7.589   3.080 -0.8621  0.9102  0.9589
10593SOL     OW33219   2.963   6.827   5.178  0.4217 -0.3823  0.1345
10593SOL    HW133220   2.971   6.895   5.245  1.3146 -0.8090  0.4707
10593SOL    HW233221   2.900   6.764   5.215  0.0796 -0.0681  0.0941
10594SOL     OW33222   1.998   7.646   3.052  0.0397 -0.1635  0.0971
10594SOL    HW133223   1.960   7.609   3.132  0.3808 -0.7236  0.0016
10594SOL    HW233224   1.923   7.674   3.000 -0.1818  1.6383  1.2621
10595SOL     OW33225   2.970   6.831   4.635 -0.5604  0.6667  0.2832
10595SOL    HW133226   2.911   6.776   4.686 -0.1226  0.5146  0.6338
10595SOL    HW233227   3.023   6.877   4.700  1.0051 -0.6235 -0.0081
10596SOL     OW33228   2.012   4.320   4.488  0.3698 -0.2565 -0.6475
10596SOL    HW133229   1.949   4.253   4.513  1.2398 -1.6660 -2.0207
10596SOL    HW233230   2.067   4.332   4.565  0.8470 -1.9220 -0.7041
10597SOL     OW33231   2.184   6.215   2.086  0.1823 -0.0656 -0.1222
10597SOL    HW133232   2.181   6.169   2.003  1.6689 -0.2402 -0.1143
10597SOL    HW233233   2.200   6.147   2.152  0.2121  0.1978  0.1481
10598SOL     OW33234   2.165   0.022   2.964 -0.0898 -0.1676  0.6190
10598SOL    HW133235   2.088   0.055   2.917 -0.4544  2.6714  2.9435
10598SOL    HW233236   2.238   0.034   2.902 -0.7838  1.9822  0.1258
10599SOL     OW33237   1.279   7.029   4.403  0.2777  0.1774  0.4822
10599SOL    HW133238   1.306   6.958   4.462 -1.2441  0.3403  1.4367
10599SOL    HW233239   1.188   7.008   4.382  0.7316  0.1760 -1.7895
10600SOL     OW33240   0.985   0.137   3.114 -0.1707  0.0206 -0.5192
10600SOL    HW133241   0.985   0.160   3.021  0.4672  1.3322 -0.2170
10600SOL    HW233242   0.896   0.158   3.143  0.4109  2.4037 -0.2286
10601SOL     OW33243   2.970   5.786   3.291  0.3720  0.4614 -0.5983
10601SOL    HW133244   3.026   5.803   3.366 -1.6897  0.3646  1.0371
10601SOL    HW233245   2.938   5.696   3.304 -0.3801  0.6017 -1.3393
10602SOL     OW33246   2.340   6.353   2.967 -0.1425 -0.2066  0.4904
10602SOL    HW133247   2.350   6.288   2.897  0.2806 -0.3153  0.6485
10602SOL    HW233248   2.261   6.401   2.944  0.1763 -0.0161 -0.2460
10603SOL     OW33249   1.718   1.356   1.501 -0.2633 -0.1289  0.0375
10603SOL    HW133250   1.763   1.329   1.581 -0.6507  0.2617  0.3982
10603SOL    HW233251   1.731   1.451   1.497 -2.3207  0.2519  1.0009
10604SOL     OW33252   2.299   0.272   1.445  0.0472  0.3058 -0.2007
10604SOL    HW133253   2.272   0.360   1.472  0.5126 -0.1015  1.7431
10604SOL    HW233254   2.363   0.245   1.511  0.0900 -1.4065 -0.8915
10605SOL     OW33255   3.292   5.680   0.815  0.2992 -1.1017  0.0951
10605SOL    HW133256   3.345   5.693   0.893 -2.0504 -0.5349  1.6952
10605SOL    HW233257   3.271   5.769   0.786 -1.0897 -1.2785  0.4813
10606SOL     OW33258   0.929   4.794   3.926 -0.6604 -0.9251  0.1043
10606SOL    HW133259   1.013   4.824   3.959 -0.8937 -1.9292  1.7325
10606SOL    HW233260   0.895   4.868   3.876  0.4452  0.0975  0.8206
10607SOL     OW33261   3.754   5.311   3.073 -0.4502  0.0413 -0.1553
10607SOL    HW133262   3.775   5.393   3.119 -0.4362  0.1525 -0.3603
10607SOL    HW233263   3.729   5.250   3.143  1.4785 -0.3997  0.2122
10608SOL     OW33264   2.558   7.078   1.973  0.1414  0.5349 -0.3665
10608SOL    HW133265   2.623   7.072   2.043  0.7738  1.0466 -0.8813
10608SOL    HW233266   2.531   6.988   1.956 -1.3100  0.5282  1.6834
10609SOL     OW33267   0.977   5.471   4.250  0.0826 -0.7299 -0.2615
10609SOL    HW133268   0.885   5.489   4.231 -0.0177  0.1477  0.9347
10609SOL    HW233269   1.018   5.557   4.259  0.7108 -1.0946  0.5627
10610SOL     OW33270   1.963   3.024   4.303 -0.1188  0.6575 -0.2850
10610SOL    HW133271   1.932   3.017   4.213  2.8940 -0.1590 -1.3819
10610SOL    HW233272   2.052   2.988   4.301  0.1830  0.8984  2.9671
10611SOL     OW33273   2.572   6.821   3.564 -0.0008 -0.2706  0.0739
10611SOL    HW133274   2.584   6.828   3.469  0.5876  2.7854  0.2654
10611SOL    HW233275   2.518   6.743   3.576 -0.9595 -0.1773 -2.8560
10612SOL     OW33276   1.381   7.769   5.170 -0.0641 -0.2097 -0.0453
10612SOL    HW133277   1.296   7.808   5.187  0.6018  1.0106  0.6094
10612SOL    HW233278   1.415   7.747   5.257 -0.8358 -3.2852 -0.4008
10613SOL     OW33279   2.831   7.062   4.533  0.1422 -0.2119 -0.0024
10613SOL    HW133280   2.880   6.981   4.546  2.6288  0.8755 -1.8687
10613SOL    HW233281   2.895   7.131   4.545 -1.3527  1.3900 -0.8476
10614SOL     OW33282   1.891   6.818   2.877 -0.3008  0.0871  0.2571
10614SOL    HW133283   1.814   6.796   2.825 -0.9165  0.5609  0.9432
10614SOL    HW233284   1.913   6.907   2.852 -0.4568  0.2328  0.6366
10615SOL     OW33285   1.632   5.715   1.659  0.1357 -0.7237 -0.0788
10615SOL    HW133286   1.659   5.705   1.568 -0.6016 -0.1481 -0.3705
10615SOL    HW233287   1.621   5.810   1.671 -1.2964 -0.8933  0.1404
10616SOL     OW33288   6.913   0.109   5.993 -0.0125  0.4247  0.4240
10616SOL    HW133289   6.956   0.181   5.947 -1.8937  1.6853  0.5352
10616SOL    HW233290   6.880   0.149   6.074  0.9481 -1.1421  1.6342
10617SOL     OW33291   1.861   5.691   5.945  0.4288  0.1676 -0.3733
10617SOL    HW133292   1.938   5.717   5.994 -0.5313  0.0021  1.2840
10617SOL    HW233293   1.832   5.771   5.901  0.3373  0.7406  0.7003
10618SOL     OW33294   2.754   6.568   2.544 -0.0005  0.6158 -0.1140
10618SOL    HW133295   2.787   6.616   2.469 -1.1256  1.1349 -0.2995
10618SOL    HW233296   2.821   6.502   2.563  0.2555  0.4194 -1.6209
10619SOL     OW33297   1.872   6.885   3.304 -0.3518  0.0722 -0.4376
10619SOL    HW133298   1.965   6.873   3.323 -0.2167 -1.3241 -1.8216
10619SOL    HW233299   1.833   6.907   3.389  0.7798 -2.2250  0.7528
10620SOL     OW33300   3.242   7.133   4.093  0.1625  0.2662  0.3505
10620SOL    HW133301   3.331   7.150   4.062  0.8520  0.9074  2.5311
10620SOL    HW233302   3.195   7.102   4.015  1.9188  1.2029 -1.1597
10621SOL     OW33303   2.550   7.413   5.739  0.1261 -0.4519 -0.9832
10621SOL    HW133304   2.557   7.334   5.685  0.6215 -0.5552 -0.7777
10621SOL    HW233305   2.628   7.465   5.715  1.0078 -1.0394  0.4770
10622SOL     OW33306   2.040   6.593   3.980  0.2810 -0.0179  0.3894
10622SOL    HW133307   1.968   6.640   4.023 -0.1186 -0.1741 -0.0940
10622SOL    HW233308   2.068   6.529   4.045 -0.9013 -0.8418  0.1293
10623SOL     OW33309   2.282   5.957   5.823 -0.3109  0.7821  0.2203
10623SOL    HW133310   2.234   5.928   5.745 -0.2856  1.6717 -0.1494
10623SOL    HW233311   2.218   5.953   5.894 -0.7043  1.1662 -0.1054
10624SOL     OW33312   0.774   6.232   4.268 -0.2619 -0.1576 -0.0904
10624SOL    HW133313   0.754   6.139   4.255 -0.4592 -0.0653 -0.4468
10624SOL    HW233314   0.734   6.253   4.353 -2.1516  0.1462 -1.0076
10625SOL     OW33315   3.731   7.729   4.242 -0.2290  0.1371  0.0081
10625SOL    HW133316   3.645   7.703   4.209 -0.6678  1.7857 -0.2205
10625SOL    HW233317   3.746   7.816   4.206  1.9479 -0.4489 -0.6746
10626SOL     OW33318   2.044   6.764   5.328 -0.6821 -0.2185  0.0048
10626SOL    HW133319   1.989   6.843   5.324  0.3160  0.4548 -1.6174
10626SOL    HW233320   1.992   6.696   5.286 -0.4784  0.3163 -1.1577
10627SOL     OW33321   2.504   5.245   4.356 -0.2411 -0.4689 -0.1139
10627SOL    HW133322   2.438   5.177   4.340  0.4795 -1.5873  1.3745
10627SOL    HW233323   2.588   5.199   4.351  0.2477  0.1987  1.3593
10628SOL     OW33324   2.990   5.412   5.132 -0.1820 -0.5268 -0.1089
10628SOL    HW133325   3.079   5.406   5.165  0.0540 -2.1148 -0.9301
10628SOL    HW233326   2.971   5.506   5.129  1.2232 -0.2001  0.6617
10629SOL     OW33327   2.918   7.352   2.170  0.2291 -0.7736  0.1957
10629SOL    HW133328   2.978   7.343   2.096 -0.5223  0.1315 -0.5436
10629SOL    HW233329   2.857   7.420   2.143 -0.3773 -0.8043  1.4459
10630SOL     OW33330   4.692   7.201   3.631 -0.2290  0.3508  0.6421
10630SOL    HW133331   4.630   7.264   3.594 -1.8001 -1.4840  0.0103
10630SOL    HW233332   4.676   7.120   3.584  1.4545 -0.6650  1.7008
10631SOL     OW33333   2.915   7.118   6.928  0.3205 -0.4268 -0.6344
10631SOL    HW133334   2.864   7.042   6.899 -0.2814 -0.1277 -0.3657
10631SOL    HW233335   2.972   7.083   6.997  0.4604 -0.7539 -0.9105
10632SOL     OW33336   2.096   6.468   1.599  0.0186  0.4510  0.2830
10632SOL    HW133337   2.117   6.398   1.538  1.0320 -0.3253  1.4829
10632SOL    HW233338   2.109   6.430   1.686  0.0719  1.9595  0.9726
10633SOL     OW33339   1.251   6.774   2.748 -0.0719  0.0698 -0.0238
10633SOL    HW133340   1.180   6.739   2.693 -1.1412  1.7335  0.2273
10633SOL    HW233341   1.301   6.829   2.688  0.5129 -0.4304  0.0022
10634SOL     OW33342   4.555   5.875   2.839 -0.5047 -0.1038  0.3967
10634SOL    HW133343   4.532   5.938   2.771 -1.4834 -0.9017 -0.0350
10634SOL    HW233344   4.482   5.879   2.901  1.0976  1.7490  2.2714
10635SOL     OW33345   3.488   0.409   4.176 -0.0843  0.1297 -0.0082
10635SOL    HW133346   3.480   0.496   4.137 -0.9225 -0.7400 -1.9044
10635SOL    HW233347   3.416   0.359   4.138  1.1634 -1.7670 -0.0419
10636SOL     OW33348   3.190   5.685   5.971  0.0837  0.0799 -0.3982
10636SOL    HW133349   3.234   5.673   5.888 -0.8676  1.6304 -1.1785
10636SOL    HW233350   3.101   5.653   5.956 -0.2854  0.9853 -0.2011
10637SOL     OW33351   2.090   4.440   4.808  0.2550  0.2310 -0.5290
10637SOL    HW133352   2.151   4.470   4.875 -1.5981  0.4687  1.1389
10637SOL    HW233353   2.028   4.513   4.798 -0.4889 -0.4826 -1.2493
10638SOL     OW33354   2.638   4.543   5.293  0.5926  0.6084  0.0204
10638SOL    HW133355   2.717   4.490   5.304  0.1240  0.0197  0.6538
10638SOL    HW233356   2.650   4.617   5.353 -0.5769 -0.9799  2.3762
10639SOL     OW33357   2.469   5.938   6.807 -0.5107  0.1830 -0.3663
10639SOL    HW133358   2.450   6.022   6.763  1.3546  1.2865  0.7879
10639SOL    HW233359   2.427   5.946   6.892  0.6484  0.4856  0.2011
10640SOL     OW33360   1.553   7.151   5.058 -0.9565  0.2242  0.3299
10640SOL    HW133361   1.623   7.209   5.088 -0.1481  0.8777 -2.4703
10640SOL    HW233362   1.593   7.063   5.059  0.1780  0.6392 -1.6397
10641SOL     OW33363   4.128   7.456   4.330 -0.5283 -0.1599 -0.4731
10641SOL    HW133364   4.183   7.423   4.259  0.0354 -1.1923  0.4220
10641SOL    HW233365   4.044   7.475   4.288 -0.3990 -1.3358 -1.3170
10642SOL     OW33366   5.356   6.612   3.625  0.4376  0.2930  0.2429
10642SOL    HW133367   5.282   6.601   3.565  1.0037 -1.3270 -0.2159
10642SOL    HW233368   5.402   6.528   3.621  3.1240  1.6906 -0.5797
10643SOL     OW33369   2.681   5.495   5.034 -0.1955 -0.0668  0.0204
10643SOL    HW133370   2.641   5.473   5.118  2.2653 -0.6693  1.1335
10643SOL    HW233371   2.665   5.589   5.024 -2.3813 -0.3856  0.0442
10644SOL     OW33372   2.657   7.782   5.626  0.3646  0.3455 -0.4060
10644SOL    HW133373   2.608   7.797   5.545  1.6216  1.4053 -0.9941
10644SOL    HW233374   2.699   7.865   5.645  2.5051 -0.7017 -0.3081
10645SOL     OW33375   1.650   7.327   5.675 -0.1305 -0.0893  0.4528
10645SOL    HW133376   1.729   7.308   5.625  0.0300  1.6775 -0.0684
10645SOL    HW233377   1.578   7.295   5.619  0.1603 -0.2756  0.1846
10646SOL     OW33378   3.114   5.443   4.607  0.0681 -0.1345 -0.0781
10646SOL    HW133379   3.087   5.422   4.696  0.4410  1.5366  0.4556
10646SOL    HW233380   3.055   5.513   4.580 -0.3003 -0.8862 -1.3117
10647SOL     OW33381   3.911   0.757   2.121 -0.5033 -0.2514  0.3883
10647SOL    HW133382   3.927   0.785   2.211 -1.3164  0.3965  0.3460
10647SOL    HW233383   3.878   0.668   2.129 -0.6052 -0.1836  0.7325
10648SOL     OW33384   3.246   4.939   5.480 -0.4183 -0.1127 -0.2913
10648SOL    HW133385   3.299   4.958   5.403 -1.3033  1.8966 -0.4594
10648SOL    HW233386   3.235   4.844   5.478 -1.4212 -0.0556 -3.3405
10649SOL     OW33387   2.099   7.692   4.316 -0.2642  0.2737 -0.7029
10649SOL    HW133388   2.089   7.698   4.411  1.6265  2.2276 -0.5319
10649SOL    HW233389   2.157   7.617   4.302  0.2246  0.5573 -0.2253
10650SOL     OW33390   3.260   5.302   4.290  0.2539  0.3115 -0.3197
10650SOL    HW133391   3.246   5.267   4.202 -0.2976  1.3473 -0.6677
10650SOL    HW233392   3.188   5.364   4.302  0.7805  0.7682  0.5485
10651SOL     OW33393   3.757   6.050   4.936 -0.7051 -0.0192  0.1658
10651SOL    HW133394   3.672   6.032   4.975 -1.2353  0.1681 -0.8794
10651SOL    HW233395   3.740   6.057   4.842  0.4625  0.0191 -0.0604
10652SOL     OW33396   4.028   6.440   3.739  0.5350  0.2295  0.1005
10652SOL    HW133397   4.106   6.476   3.782  1.0671 -2.2749  1.4522
10652SOL    HW233398   3.988   6.515   3.696  3.3905  1.7412 -0.2218
10653SOL     OW33399   1.260   4.320   5.104  0.0092  0.0129 -0.0076
10653SOL    HW133400   1.179   4.323   5.053 -0.4187  0.2818  0.6683
10653SOL    HW233401   1.245   4.382   5.176  0.2946 -0.9022  0.8776
10654SOL     OW33402   1.527   6.982   5.984 -0.2936 -0.9260 -0.2359
10654SOL    HW133403   1.587   6.943   5.922 -0.6941  0.0882 -1.3123
10654SOL    HW233404   1.582   7.036   6.040 -0.1872  0.2048 -1.3794
10655SOL     OW33405   2.751   6.655   4.053  0.3328  0.4400 -0.4953
10655SOL    HW133406   2.668   6.642   4.007 -0.0300 -2.4998  0.7676
10655SOL    HW233407   2.797   6.572   4.042  2.1362  1.2269  0.7221
10656SOL     OW33408   5.052   5.472   6.323 -0.0174 -0.5507  0.2719
10656SOL    HW133409   5.056   5.510   6.411  0.0066 -1.0607  0.4922
10656SOL    HW233410   4.958   5.471   6.302 -0.1445 -1.7026  0.8539
10657SOL     OW33411   2.928   6.916   3.529 -0.7655 -1.0167 -0.3993
10657SOL    HW133412   2.933   6.870   3.613 -1.8804  0.5772  0.6218
10657SOL    HW233413   2.868   6.864   3.476 -1.3692 -1.1894  0.4304
10658SOL     OW33414   3.392   6.941   4.619  0.5655  0.0482 -0.0311
10658SOL    HW133415   3.338   6.954   4.697 -1.3456 -1.2561 -1.0330
10658SOL    HW233416   3.443   6.862   4.638 -0.7941 -0.9802 -0.4987
10659SOL     OW33417   2.440   0.491   5.402  0.0289 -0.9304 -0.1166
10659SOL    HW133418   2.412   0.478   5.312 -1.1499  1.5883 -0.1803
10659SOL    HW233419   2.523   0.536   5.396 -0.3403 -0.2145  0.0300
10660SOL     OW33420   1.970   6.884   5.941  0.1068 -0.2390 -0.4740
10660SOL    HW133421   1.981   6.939   6.018  0.1299 -0.5347 -0.2643
10660SOL    HW233422   2.056   6.846   5.926 -0.7738 -3.7511  2.0682
10661SOL     OW33423   3.367   6.173   4.656  0.1925 -0.3676  0.1218
10661SOL    HW133424   3.398   6.120   4.730 -0.1633  0.1794  0.6755
10661SOL    HW233425   3.283   6.208   4.685 -0.1124 -0.4197 -0.6831
10662SOL     OW33426   3.735   7.978   4.156 -0.1316  0.0437  0.3502
10662SOL    HW133427   3.698   7.941   4.076  1.0925 -1.4892  0.4449
10662SOL    HW233428   3.690   8.062   4.167 -2.9341 -1.2888  0.0168
10663SOL     OW33429   2.773   4.945   5.296  0.1207  0.4623  0.1454
10663SOL    HW133430   2.727   4.899   5.226  1.9265  2.3841 -2.5148
10663SOL    HW233431   2.770   5.037   5.269  2.0947  1.1097  1.8942
10664SOL     OW33432   1.511   6.227   5.183  0.5753  0.0228 -0.4399
10664SOL    HW133433   1.542   6.289   5.248 -0.2862  0.7152 -0.6614
10664SOL    HW233434   1.532   6.141   5.219  0.1600  0.3902  0.7324
10665SOL     OW33435   1.354   6.563   5.460  0.6040  0.6003 -0.3165
10665SOL    HW133436   1.439   6.574   5.416  0.8689  0.4347  0.1465
10665SOL    HW233437   1.335   6.470   5.453  0.4889  0.6283 -0.3678
10666SOL     OW33438   3.773   0.754   4.167  0.1519  0.2730  0.6100
10666SOL    HW133439   3.829   0.679   4.187 -0.4172 -0.7083 -1.2958
10666SOL    HW233440   3.699   0.745   4.226  0.0239 -0.7555  0.3140
10667SOL     OW33441   3.483   7.331   6.578 -0.6007 -0.0711  0.1124
10667SOL    HW133442   3.563   7.337   6.630  0.6723  1.1665 -1.8778
10667SOL    HW233443   3.463   7.237   6.576  2.0306 -0.6780 -1.0662
10668SOL     OW33444   3.894   5.180   3.308 -0.5524  0.2919  0.1094
10668SOL    HW133445   3.838   5.105   3.292 -0.2570 -0.0325  0.5724
10668SOL    HW233446   3.916   5.174   3.401  1.0557 -0.1469 -0.2748
10669SOL     OW33447   2.660   6.673   4.309  0.1879  0.2227  0.5361
10669SOL    HW133448   2.621   6.602   4.259  1.5618 -0.1946  0.0029
10669SOL    HW233449   2.739   6.696   4.260  0.1607  1.6088  1.1064
10670SOL     OW33450   3.105   4.669   4.060 -0.0889 -0.3417 -0.1472
10670SOL    HW133451   3.173   4.680   4.126 -2.2113  0.2007  2.1250
10670SOL    HW233452   3.109   4.577   4.036  0.7728 -0.5488  0.7204
10671SOL     OW33453   3.744   6.873   6.920  0.3574  0.3669  0.3431
10671SOL    HW133454   3.735   6.967   6.936  0.1883  0.2557  0.9250
10671SOL    HW233455   3.659   6.836   6.945 -0.1627  0.2549 -1.4812
10672SOL     OW33456   2.375   5.622   4.527  0.2034  0.4386 -0.2119
10672SOL    HW133457   2.289   5.582   4.542 -0.3386  1.2632 -1.0070
10672SOL    HW233458   2.355   5.703   4.480  1.2803  1.4870  1.0500
10673SOL     OW33459   1.674   7.411   4.359 -0.4072 -0.2775 -0.2373
10673SOL    HW133460   1.737   7.462   4.309 -0.2522 -0.1388  0.0968
10673SOL    HW233461   1.614   7.477   4.396 -1.7638 -0.5034 -1.9222
10674SOL     OW33462   2.876   6.421   4.007 -0.2148 -0.1312 -0.0306
10674SOL    HW133463   2.969   6.431   4.027 -0.3734  0.1770  0.6048
10674SOL    HW233464   2.859   6.328   4.017  0.1832 -0.3079 -0.9032
10675SOL     OW33465   4.343   5.778   4.228 -0.1622 -0.2762  0.2404
10675SOL    HW133466   4.309   5.828   4.153 -0.2563 -0.3130  0.2580
10675SOL    HW233467   4.437   5.797   4.228 -0.3299  0.6354  0.7906
10676SOL     OW33468   3.960   6.214   5.658  0.1930 -0.0128  0.1056
10676SOL    HW133469   4.013   6.134   5.658 -0.8810 -0.7449  0.5152
10676SOL    HW233470   4.001   6.271   5.723  0.3580 -0.6604  0.5763
10677SOL     OW33471   3.368   7.801   5.309 -0.2468 -0.2488 -0.2580
10677SOL    HW133472   3.328   7.826   5.392 -1.6129 -0.9688 -0.6835
10677SOL    HW233473   3.347   7.874   5.250  0.3018  0.0345 -0.1065
10678SOL     OW33474   3.670   7.085   2.737  0.0515  0.3055  0.2758
10678SOL    HW133475   3.646   7.105   2.828  1.1940  0.4455  0.5626
10678SOL    HW233476   3.588   7.060   2.696 -0.1960 -2.0748  1.9664
10679SOL     OW33477   3.515   7.140   3.653  0.0500 -0.6052  0.0078
10679SOL    HW133478   3.574   7.208   3.683  1.8806 -1.3942 -1.5667
10679SOL    HW233479   3.525   7.069   3.716 -0.5428 -0.0856  0.6930
10680SOL     OW33480   2.591   6.380   4.952 -0.2972  0.3175 -0.0791
10680SOL    HW133481   2.555   6.468   4.961  1.3204  0.8535  1.8512
10680SOL    HW233482   2.667   6.379   5.010  1.6893 -1.3464 -2.4928
10681SOL     OW33483   1.707   5.163   4.313  0.4292 -0.3076 -0.0462
10681SOL    HW133484   1.642   5.127   4.374  1.7195 -1.0986  0.9123
10681SOL    HW233485   1.741   5.241   4.356 -0.4225  0.5616 -0.9042
10682SOL     OW33486   3.420   6.807   3.480 -0.6075  0.2244  0.3066
10682SOL    HW133487   3.427   6.712   3.477  0.2065  0.2956 -1.2610
10682SOL    HW233488   3.391   6.831   3.392  0.2119  1.4794  0.3562
10683SOL     OW33489   1.710   6.063   3.446 -0.1423 -0.5243  0.2725
10683SOL    HW133490   1.748   6.013   3.374 -1.0763 -1.6249  0.5127
10683SOL    HW233491   1.665   6.136   3.404 -1.0230 -1.3775 -0.3324
10684SOL     OW33492   3.548   5.804   3.755  0.1783 -0.0383 -0.3315
10684SOL    HW133493   3.531   5.818   3.848 -1.3291  0.5313 -0.6692
10684SOL    HW233494   3.609   5.730   3.752  1.0710  0.5948  1.1382
10685SOL     OW33495   1.430   5.244   4.790  0.4642  0.0353  0.7460
10685SOL    HW133496   1.510   5.201   4.821  0.1982 -0.2653  1.0145
10685SOL    HW233497   1.399   5.189   4.719 -1.0487 -1.4425  2.4499
10686SOL     OW33498   2.410   0.079   4.054 -0.4194 -0.4974 -0.4473
10686SOL    HW133499   2.434  -0.010   4.082  0.3135  0.4210  2.1632
10686SOL    HW233500   2.323   0.093   4.092 -0.5731 -0.1211 -0.9266
10687SOL     OW33501   2.973   6.974   6.678 -0.1919 -0.1391  0.1175
10687SOL    HW133502   2.940   7.064   6.680 -0.8040 -0.2217 -2.4887
10687SOL    HW233503   3.052   6.979   6.623  0.1181 -1.0929  0.4595
10688SOL     OW33504   1.464   0.167   2.876 -0.3067  0.1807  0.2163
10688SOL    HW133505   1.492   0.255   2.851 -1.4674  0.8505  1.2029
10688SOL    HW233506   1.509   0.149   2.959 -1.2008  0.4438  0.7650
10689SOL     OW33507   2.274   5.650   2.849  0.2545  0.8344  0.1649
10689SOL    HW133508   2.256   5.738   2.883 -1.6999  1.2007 -1.5684
10689SOL    HW233509   2.268   5.660   2.754 -0.3858 -1.2487 -0.0623
10690SOL     OW33510   4.108   5.599   4.463  0.6343  0.3502  0.4085
10690SOL    HW133511   4.042   5.645   4.515  2.7351  2.6061  1.2861
10690SOL    HW233512   4.149   5.668   4.411  1.2131 -1.2568 -1.3823
10691SOL     OW33513   1.855   6.210   2.678  0.0457 -0.6475  0.1681
10691SOL    HW133514   1.897   6.226   2.593 -0.7093 -0.1749 -0.1255
10691SOL    HW233515   1.824   6.297   2.706 -0.7609 -0.9866  0.3607
10692SOL     OW33516   3.241   4.717   5.199 -0.0238  0.1583  0.3290
10692SOL    HW133517   3.241   4.629   5.162  1.3267  1.1515 -2.3178
10692SOL    HW233518   3.203   4.707   5.287 -1.4240 -2.7483 -0.4940
10693SOL     OW33519   2.082   5.881   4.863 -0.1703 -0.0429  1.3867
10693SOL    HW133520   2.116   5.958   4.908  3.0030 -1.0814  1.0418
10693SOL    HW233521   2.097   5.809   4.924  0.3996 -0.8918  0.2836
10694SOL     OW33522   4.767   7.149   4.566  0.3711  0.3044 -0.2873
10694SOL    HW133523   4.727   7.234   4.584 -0.3331 -0.2973  1.1303
10694SOL    HW233524   4.801   7.157   4.477  0.6218  2.1833 -0.0687
10695SOL     OW33525   2.413   5.702   6.654  0.1155 -0.1044  0.0603
10695SOL    HW133526   2.410   5.626   6.712 -0.7346 -0.7092 -0.7487
10695SOL    HW233527   2.463   5.767   6.703 -1.0272 -0.3912  1.7236
10696SOL     OW33528   2.931   6.154   4.059 -0.4115 -0.3452 -0.1632
10696SOL    HW133529   3.019   6.140   4.026  0.5101  1.3943  1.3815
10696SOL    HW233530   2.944   6.182   4.150 -2.5687 -0.1793  0.1406
10697SOL     OW33531   3.729   5.594   3.834  0.2396  0.2143  0.4185
10697SOL    HW133532   3.655   5.572   3.891  0.5931 -1.2927  0.3335
10697SOL    HW233533   3.794   5.526   3.851  1.7726  1.6882  0.7291
10698SOL     OW33534   3.779   6.981   2.498 -0.6440  0.1948 -0.1930
10698SOL    HW133535   3.777   7.021   2.585  1.3468 -1.2586  0.5958
10698SOL    HW233536   3.690   6.993   2.464 -1.0813  2.0339  1.4327
10699SOL     OW33537   2.917   7.516   3.849  0.3675 -0.4168 -0.1754
10699SOL    HW133538   2.940   7.549   3.762  1.3641 -1.4664 -0.3469
10699SOL    HW233539   2.970   7.437   3.859 -0.8084 -1.1227  0.8097
10700SOL     OW33540   1.716   6.845   5.867 -0.3510  0.4373 -0.5273
10700SOL    HW133541   1.741   6.774   5.808 -1.3988 -1.5996  1.3426
10700SOL    HW233542   1.795   6.864   5.917 -0.5202 -0.7898  0.2546
10701SOL     OW33543   2.276   6.401   4.810 -0.0222  0.2511 -0.5359
10701SOL    HW133544   2.250   6.330   4.869  1.2647  1.1321  1.1965
10701SOL    HW233545   2.326   6.461   4.865  2.6376  0.3749 -2.8317
10702SOL     OW33546   5.029   0.993   5.498  0.3802 -0.7146  0.0706
10702SOL    HW133547   5.010   0.906   5.534  1.2560 -0.4689  1.1843
10702SOL    HW233548   4.970   1.051   5.545  0.8985 -0.5046  0.4644
10703SOL     OW33549   4.218   7.181   5.812 -0.0763  0.2094  0.1517
10703SOL    HW133550   4.124   7.170   5.827 -0.2649  1.6691  0.1910
10703SOL    HW233551   4.250   7.220   5.894  0.1834  1.5173 -0.5409
10704SOL     OW33552   2.276   5.906   5.464  0.5261 -0.3696 -0.3580
10704SOL    HW133553   2.258   5.937   5.376 -1.3316  0.6723  0.3346
10704SOL    HW233554   2.191   5.878   5.498  0.9128  0.6328  1.5958
10705SOL     OW33555   3.352   6.178   5.217 -0.0353 -0.0713  0.0113
10705SOL    HW133556   3.272   6.167   5.167 -0.1661  2.6966 -0.5066
10705SOL    HW233557   3.328   6.155   5.307 -1.6001  1.2797 -0.0249
10706SOL     OW33558   2.977   5.897   4.726  0.2122  0.6648  0.0236
10706SOL    HW133559   2.890   5.862   4.707  0.4947 -0.0285 -0.0308
10706SOL    HW233560   3.032   5.819   4.736  0.9321  1.1001 -0.4567
10707SOL     OW33561   2.903   6.305   4.606 -0.1291 -0.3021 -0.1161
10707SOL    HW133562   2.889   6.394   4.572  1.0972  0.4151  1.1333
10707SOL    HW233563   2.837   6.252   4.562 -1.1588  1.3017 -0.5987
10708SOL     OW33564   2.328   7.485   2.380 -0.6826  0.7433 -0.1217
10708SOL    HW133565   2.335   7.432   2.460 -0.0947  2.1181  0.7927
10708SOL    HW233566   2.356   7.427   2.310 -0.7235 -0.3576  0.7420
10709SOL     OW33567   2.223   5.140   5.062  0.7080  0.6086  0.0038
10709SOL    HW133568   2.145   5.131   5.008  0.7958 -0.3316  0.0211
10709SOL    HW233569   2.198   5.107   5.148  0.9078  1.0146  0.2245
10710SOL     OW33570   4.157   6.415   5.140 -0.3537  0.2161 -0.4281
10710SOL    HW133571   4.204   6.481   5.191  1.2805 -0.9296 -0.3923
10710SOL    HW233572   4.159   6.336   5.195 -0.5449 -0.4176 -1.3002
10711SOL     OW33573   2.741   7.133   4.154  0.0252  0.3664 -0.4696
10711SOL    HW133574   2.811   7.196   4.139 -0.7118  1.8477  1.8028
10711SOL    HW233575   2.787   7.049   4.164  1.1953  0.8260 -1.6531
10712SOL     OW33576   2.766   7.058   2.127  0.5073 -0.0421 -0.1442
10712SOL    HW133577   2.847   7.052   2.077  0.6124 -2.5005  0.2280
10712SOL    HW233578   2.788   7.024   2.214 -1.0226 -1.2952 -0.2067
10713SOL     OW33579   3.021   4.837   3.881 -0.4747  0.3165 -0.4127
10713SOL    HW133580   3.058   4.776   3.945 -1.3448  0.1012 -0.0985
10713SOL    HW233581   3.014   4.920   3.929  3.5814  1.6059 -1.7077
10714SOL     OW33582   2.098   6.873   4.512 -0.9775  0.2525 -0.1535
10714SOL    HW133583   2.054   6.796   4.547  0.4495 -0.0477  1.0787
10714SOL    HW233584   2.191   6.851   4.513 -0.7241  0.8417 -2.7367
10715SOL     OW33585   2.209   0.198   3.689 -0.0600 -0.7290 -0.2168
10715SOL    HW133586   2.225   0.271   3.748  1.7884  0.2200 -1.8106
10715SOL    HW233587   2.127   0.220   3.646  0.3591  0.3093 -0.5116
10716SOL     OW33588   1.999   7.080   4.333  0.2503  0.6151 -0.0195
10716SOL    HW133589   1.941   7.029   4.277  2.3041 -1.0624 -0.7403
10716SOL    HW233590   2.045   7.015   4.386  1.6387  1.8482  0.3587
10717SOL     OW33591   3.473   7.754   4.705 -0.7062  0.0204  0.2325
10717SOL    HW133592   3.515   7.771   4.621 -0.8671  0.4839  0.2459
10717SOL    HW233593   3.441   7.664   4.697  0.6521 -0.5003  0.3880
10718SOL     OW33594   1.847   0.325   5.159  0.7096  0.1155 -0.3108
10718SOL    HW133595   1.753   0.336   5.147  0.7725 -0.4597 -1.4829
10718SOL    HW233596   1.855   0.274   5.240 -0.0115 -0.1595 -0.4019
10719SOL     OW33597   3.435   7.424   5.074  0.0225 -0.4212 -0.2330
10719SOL    HW133598   3.490   7.444   5.149 -0.0082  0.8864 -0.5333
10719SOL    HW233599   3.479   7.351   5.030  0.9809 -0.0430  0.0742
10720SOL     OW33600   4.826   6.008   5.037 -0.0625 -0.0347  0.2670
10720SOL    HW133601   4.776   6.042   4.964 -1.0526 -1.4842  0.2305
10720SOL    HW233602   4.908   6.058   5.035 -0.9096  1.3842 -0.5342
10721SOL     OW33603   3.166   5.701   4.850 -0.6572  0.3563 -0.5152
10721SOL    HW133604   3.261   5.702   4.861 -0.6502  1.3634 -0.6310
10721SOL    HW233605   3.138   5.622   4.897  0.3864 -0.8633 -1.8228
10722SOL     OW33606   2.330   6.418   4.378 -0.7040  0.5044  0.5525
10722SOL    HW133607   2.416   6.438   4.416 -0.2064  0.8921 -0.7352
10722SOL    HW233608   2.348   6.357   4.307 -1.6260 -0.2415  0.9458
10723SOL     OW33609   3.458   1.731   4.965 -0.1424  0.6706 -0.3118
10723SOL    HW133610   3.432   1.649   5.007 -0.4078  0.9770  0.1307
10723SOL    HW233611   3.513   1.704   4.892 -1.0816  0.0471 -0.8069
10724SOL     OW33612   3.448   6.664   5.605 -0.1978  0.5004  0.1952
10724SOL    HW133613   3.451   6.634   5.696 -1.2065 -0.4972 -0.0810
10724SOL    HW233614   3.479   6.589   5.554 -3.6072 -0.5313 -0.5861
10725SOL     OW33615   2.477   3.982   4.121 -0.1582 -0.4874 -0.4849
10725SOL    HW133616   2.511   3.950   4.037 -1.9746 -0.3810 -1.3127
10725SOL    HW233617   2.517   4.068   4.133  0.2282 -0.5667 -1.1877
10726SOL     OW33618   1.650   7.590   6.303  0.1201 -0.0955  0.1607
10726SOL    HW133619   1.561   7.599   6.338 -0.0731 -0.4226 -0.2402
10726SOL    HW233620   1.639   7.598   6.208  0.6147  0.6096  0.1503
10727SOL     OW33621   2.556   5.890   5.526 -0.4494  0.0712 -0.2314
10727SOL    HW133622   2.569   5.858   5.616  1.2211  0.9092 -0.1414
10727SOL    HW233623   2.464   5.870   5.507 -0.4759 -1.3627  1.1523
10728SOL     OW33624   2.968   4.775   5.382 -0.2927  0.0834  0.2837
10728SOL    HW133625   2.907   4.842   5.352 -0.8498  0.3925  1.9969
10728SOL    HW233626   3.040   4.823   5.422  0.3852 -0.3136 -0.4277
10729SOL     OW33627   2.123   5.137   4.189 -0.0886  0.2624  0.3904
10729SOL    HW133628   2.049   5.077   4.192  0.5197 -0.4696  1.6773
10729SOL    HW233629   2.184   5.102   4.254 -0.2337  2.9273  2.1213
10730SOL     OW33630   3.363   5.980   2.812 -0.2979 -0.0357 -0.2149
10730SOL    HW133631   3.457   5.971   2.828 -0.1864  0.5336 -0.5339
10730SOL    HW233632   3.326   5.898   2.844  0.3480 -0.4127 -0.4018
10731SOL     OW33633   3.402   6.996   5.153  0.2624  0.1656  0.5887
10731SOL    HW133634   3.455   7.028   5.227  1.3126 -1.2345  0.4708
10731SOL    HW233635   3.371   6.910   5.181 -1.2959  0.6096  0.3120
10732SOL     OW33636   1.914   0.222   5.771  0.4937  0.3826  0.5983
10732SOL    HW133637   1.918   0.128   5.756  0.7410  0.4693  0.0974
10732SOL    HW233638   1.984   0.258   5.717 -0.7218  1.0159 -0.6502
10733SOL     OW33639   4.561   7.570   5.270 -0.0566  0.1302  0.1728
10733SOL    HW133640   4.588   7.481   5.292 -0.0985  0.4207  1.4582
10733SOL    HW233641   4.622   7.626   5.318 -1.4759  0.7910  1.2642
10734SOL     OW33642   0.481   0.025   4.515 -0.7712 -0.6555  0.0029
10734SOL    HW133643   0.530  -0.032   4.574 -1.5097 -2.7387 -1.2930
10734SOL    HW233644   0.398  -0.020   4.501 -2.3596  1.8286  0.5952
10735SOL     OW33645   4.140   6.766   5.083 -0.2391 -0.6023  0.0713
10735SOL    HW133646   4.203   6.718   5.137 -1.0451 -2.6195 -0.6660
10735SOL    HW233647   4.195   6.818   5.024  0.8049 -2.5023 -0.7284
10736SOL     OW33648   2.896   5.622   4.623 -0.0231  0.0655 -0.2555
10736SOL    HW133649   2.893   5.646   4.716  0.9104 -0.2770 -0.1289
10736SOL    HW233650   2.804   5.618   4.597 -0.3155 -0.3488  0.7882
10737SOL     OW33651   1.630   6.343   4.936 -0.0024  0.2420 -0.0410
10737SOL    HW133652   1.711   6.292   4.937  0.5627  1.1172 -0.5718
10737SOL    HW233653   1.584   6.315   5.016  0.8524 -0.2013  0.3114
10738SOL     OW33654   2.481   5.059   5.939  0.4640 -0.1817  0.6085
10738SOL    HW133655   2.460   5.128   6.003 -0.2004 -1.2942  1.6252
10738SOL    HW233656   2.572   5.037   5.957  0.3708 -0.2785  0.9679
10739SOL     OW33657   3.722   6.876   5.691  0.2319 -0.1670  0.2937
10739SOL    HW133658   3.704   6.791   5.731  0.0183 -0.4451 -0.3684
10739SOL    HW233659   3.804   6.863   5.643  0.4059  0.1158  0.5103
10740SOL     OW33660   4.227   5.745   7.514  0.2257 -0.1090  0.2971
10740SOL    HW133661   4.264   5.680   7.574  1.1497  0.3774  0.2631
10740SOL    HW233662   4.266   5.724   7.429  1.3891  1.1569  0.4978
10741SOL     OW33663   4.662   6.607   4.199 -0.0309  0.1574 -0.3369
10741SOL    HW133664   4.642   6.701   4.194  2.1617  0.7458  0.5580
10741SOL    HW233665   4.748   6.599   4.156  1.2652 -0.8656  2.2045
10742SOL     OW33666   1.888   3.879   3.530  0.0464 -0.6733  0.0154
10742SOL    HW133667   1.879   3.848   3.440 -2.2672 -0.9197  0.2618
10742SOL    HW233668   1.809   3.931   3.545  1.1319  0.6501  1.4273
10743SOL     OW33669   1.266   6.415   5.927 -0.2775  0.2403  0.3767
10743SOL    HW133670   1.300   6.409   6.016 -0.7455  0.7089  0.5958
10743SOL    HW233671   1.342   6.436   5.873  0.1067 -0.5788  0.5826
10744SOL     OW33672   3.383   6.759   6.231  0.4142 -0.0108  0.4449
10744SOL    HW133673   3.434   6.778   6.309  2.3668  0.4809 -0.8721
10744SOL    HW233674   3.387   6.663   6.222  0.0105 -0.0855  1.0518
10745SOL     OW33675   3.033   6.527   5.946  0.1798  0.4196 -0.2358
10745SOL    HW133676   3.056   6.569   6.029  1.2315 -2.6965  1.2177
10745SOL    HW233677   2.938   6.522   5.947  0.1819  0.2765  0.9076
10746SOL     OW33678   1.217   5.549   4.920  0.2829 -0.4443 -0.1252
10746SOL    HW133679   1.125   5.571   4.935 -0.4527 -2.0519 -1.8527
10746SOL    HW233680   1.234   5.477   4.981  0.9112  0.8772  1.3144
10747SOL     OW33681   1.261   6.854   5.242 -0.3175  0.2665 -0.4980
10747SOL    HW133682   1.293   6.838   5.153  0.2068  1.5382 -0.5598
10747SOL    HW233683   1.245   6.948   5.245  1.8618  0.6653  1.4209
10748SOL     OW33684   3.282   6.063   5.467  0.0053  0.1386 -0.4628
10748SOL    HW133685   3.214   6.050   5.534 -0.8096  0.2736 -1.2509
10748SOL    HW233686   3.357   6.012   5.499 -0.5591 -0.2377  0.2858
10749SOL     OW33687   1.998   7.226   3.292  0.3420 -0.4930 -0.5590
10749SOL    HW133688   2.085   7.205   3.258  1.1371  0.4140  0.8185
10749SOL    HW233689   1.939   7.167   3.245  1.5804 -0.5019 -2.1746
10750SOL     OW33690   1.886   6.525   4.334  0.4819  0.1021 -0.4370
10750SOL    HW133691   1.967   6.484   4.303 -0.2268 -0.0632 -2.1748
10750SOL    HW233692   1.817   6.463   4.309 -0.2201  0.3289  0.8538
10751SOL     OW33693   3.665   6.504   6.406  0.0186  0.0850 -0.2039
10751SOL    HW133694   3.701   6.418   6.426  0.4522 -0.0008 -1.2945
10751SOL    HW233695   3.636   6.538   6.491  1.8332 -0.2282  0.5969
10752SOL     OW33696   1.073   4.122   4.528 -0.4368  0.5066  0.1333
10752SOL    HW133697   0.981   4.149   4.537 -0.8604 -1.2422  1.4219
10752SOL    HW233698   1.074   4.066   4.451 -0.6125 -0.1117  0.5783
10753SOL     OW33699   1.632   0.678   4.691  0.6173  0.6364  0.0752
10753SOL    HW133700   1.549   0.721   4.713  0.9771  1.3945 -0.0146
10753SOL    HW233701   1.698   0.724   4.744  1.1308  0.8088 -0.6952
10754SOL     OW33702   3.099   6.075   4.524  0.4819 -0.1759 -0.1614
10754SOL    HW133703   3.131   5.989   4.554  0.8488 -0.4853 -1.3935
10754SOL    HW233704   3.061   6.114   4.603  0.1406 -1.5421  0.3957
10755SOL     OW33705   1.264   4.306   4.589 -0.0316 -0.1805  0.1895
10755SOL    HW133706   1.290   4.296   4.680  0.0753 -1.2060  0.0493
10755SOL    HW233707   1.201   4.236   4.573 -1.2196  0.8942 -0.1159
10756SOL     OW33708   0.976   6.612   4.621 -0.3137 -0.0001 -0.2458
10756SOL    HW133709   0.986   6.567   4.705  1.4055  1.3408  0.3120
10756SOL    HW233710   0.928   6.692   4.642  0.3029  0.4407 -0.4950
10757SOL     OW33711   1.284   5.496   3.990  0.4400  0.0279 -0.1513
10757SOL    HW133712   1.269   5.456   4.076 -0.4695 -0.6054 -0.5888
10757SOL    HW233713   1.305   5.587   4.009 -0.2958  0.0258  0.7222
10758SOL     OW33714   2.665   7.808   3.796 -0.4656  0.6175  0.1190
10758SOL    HW133715   2.588   7.771   3.752 -0.5518  1.4434 -0.4459
10758SOL    HW233716   2.725   7.828   3.725  0.1808  0.1993  0.5419
10759SOL     OW33717   4.372   6.197   5.158  0.5627  0.1914 -0.1703
10759SOL    HW133718   4.302   6.210   5.222 -0.4731  1.0844 -1.4286
10759SOL    HW233719   4.452   6.191   5.210 -0.4339 -0.8080  1.3057
10760SOL     OW33720   7.555   6.141   4.337 -0.1286 -0.0249 -0.1903
10760SOL    HW133721   7.556   6.047   4.356 -0.5551  0.0260  0.1256
10760SOL    HW233722   7.508   6.179   4.411 -1.4585  0.2425 -1.1334
10761SOL     OW33723   3.694   0.409   5.913 -0.1162  0.5515 -0.1609
10761SOL    HW133724   3.706   0.499   5.944  0.8709  0.5043 -0.3638
10761SOL    HW233725   3.709   0.355   5.991 -0.0701  0.5357 -0.1808
10762SOL     OW33726   3.421   0.261   4.941  0.1591 -0.4390 -0.4911
10762SOL    HW133727   3.509   0.287   4.913  0.3297 -1.1727 -0.6381
10762SOL    HW233728   3.432   0.237   5.033 -0.4196  2.0725  0.3113
10763SOL     OW33729   2.702   0.023   2.695  0.0396 -0.8387 -0.0397
10763SOL    HW133730   2.659   0.038   2.611  0.6299 -2.7262 -0.7329
10763SOL    HW233731   2.653   0.077   2.757 -1.0364 -0.1693 -1.4040
10764SOL     OW33732   2.063   1.201   6.122  0.0551  0.1587  0.1802
10764SOL    HW133733   2.099   1.279   6.080 -0.3141  0.6705  0.8055
10764SOL    HW233734   2.068   1.133   6.054 -1.2182  1.1446 -0.9517
10765SOL     OW33735   3.328   4.535   3.413  0.1588 -0.3874 -0.0684
10765SOL    HW133736   3.330   4.450   3.458 -1.2147 -0.0222  0.7313
10765SOL    HW233737   3.416   4.570   3.426 -0.1461 -0.3214  2.3402
10766SOL     OW33738   1.088   6.758   7.148  0.4067  0.0046  0.0019
10766SOL    HW133739   1.090   6.708   7.229  1.2997 -1.7018 -1.0278
10766SOL    HW233740   1.002   6.740   7.110  0.6921 -0.6985 -0.3218
10767SOL     OW33741   1.553   7.784   4.585 -0.4100  0.0292  0.3530
10767SOL    HW133742   1.511   7.707   4.548 -1.8991  0.2068  1.5679
10767SOL    HW233743   1.605   7.751   4.659  2.4415 -0.3063 -1.6226
10768SOL     OW33744   3.610   7.434   3.504  0.2228  0.5727 -0.2815
10768SOL    HW133745   3.634   7.350   3.466  0.4779  0.3150  0.4297
10768SOL    HW233746   3.589   7.414   3.595  0.2127  1.2713 -0.1241
10769SOL     OW33747   4.463   5.520   6.433 -0.3404  0.0076  0.0104
10769SOL    HW133748   4.530   5.452   6.437 -0.1064  0.0953 -1.8920
10769SOL    HW233749   4.381   5.472   6.428 -0.1249 -0.2270 -2.3663
10770SOL     OW33750   2.362   6.382   5.355  0.4090  0.2285 -0.1431
10770SOL    HW133751   2.435   6.443   5.353  0.3915  0.3281  1.2138
10770SOL    HW233752   2.391   6.308   5.301  1.8974 -0.1233  1.0473
10771SOL     OW33753   3.307   0.005   5.140  0.0250  0.0779 -0.2169
10771SOL    HW133754   3.326  -0.022   5.050  3.2180  0.5489  0.1795
10771SOL    HW233755   3.311   0.100   5.138 -0.1468  0.1019  0.3684
10772SOL     OW33756   2.494   5.244   6.157  0.1959 -0.1413 -0.2618
10772SOL    HW133757   2.579   5.278   6.128 -0.8196  1.1199 -1.9080
10772SOL    HW233758   2.511   5.210   6.245  2.4698 -0.2253 -0.6641
10773SOL     OW33759   2.803   7.554   3.573  0.6444 -0.3394  0.5822
10773SOL    HW133760   2.805   7.461   3.552  1.3385  0.0123 -1.1120
10773SOL    HW233761   2.750   7.594   3.503  3.5577  0.9780 -1.0876
10774SOL     OW33762   3.202   6.309   3.302 -0.6157 -0.3820 -0.6188
10774SOL    HW133763   3.137   6.371   3.270  0.2408  0.8613 -0.0285
10774SOL    HW233764   3.158   6.265   3.376 -0.6767  0.7190  0.0196
10775SOL     OW33765   3.112   5.900   6.162 -0.3834 -0.3114  0.2765
10775SOL    HW133766   3.070   5.976   6.123  1.4891  0.4611 -0.2998
10775SOL    HW233767   3.128   5.841   6.089 -0.5719 -0.6676  0.5169
10776SOL     OW33768   3.402   7.674   4.318 -0.2917  0.7992  0.0845
10776SOL    HW133769   3.355   7.633   4.390 -0.3490  0.4869 -0.1283
10776SOL    HW233770   3.363   7.636   4.239  1.8798 -1.2467 -0.0827
10777SOL     OW33771   0.721   7.069   5.039  0.2325 -0.6548  0.4919
10777SOL    HW133772   0.656   7.116   4.985  1.7242 -0.8286 -1.5828
10777SOL    HW233773   0.779   7.138   5.071 -0.1783 -0.6409  1.2194
10778SOL     OW33774   3.340   6.108   6.199  0.7084 -0.1535  0.2813
10778SOL    HW133775   3.307   6.018   6.207 -1.2641  0.3439 -1.3476
10778SOL    HW233776   3.267   6.163   6.223  1.3594  1.0301 -0.3462
10779SOL     OW33777   3.446   7.767   3.984 -0.3317 -0.0808  0.1071
10779SOL    HW133778   3.499   7.841   3.954 -1.6455  1.2741  0.9958
10779SOL    HW233779   3.510   7.697   3.998  1.3428  1.6543  1.7168
10780SOL     OW33780   4.121   6.696   4.033  0.1296  0.0285 -0.1530
10780SOL    HW133781   4.170   6.657   4.106  0.0966 -0.7679 -0.5439
10780SOL    HW233782   4.164   6.661   3.955 -0.8863 -0.4728 -0.5029
10781SOL     OW33783   1.242   7.230   4.740  0.2168  0.1164  0.7378
10781SOL    HW133784   1.317   7.228   4.681  0.1820  0.0507  0.6954
10781SOL    HW233785   1.260   7.301   4.801  1.5441 -1.4537  2.3075
10782SOL     OW33786   3.153   0.604   5.274  0.1941  0.2829 -0.4458
10782SOL    HW133787   3.182   0.623   5.185 -1.3065  1.2301 -0.7708
10782SOL    HW233788   3.163   0.687   5.321 -1.2567  0.4541 -0.3951
10783SOL     OW33789   3.289   5.623   5.426  0.1417  0.3039 -0.2306
10783SOL    HW133790   3.325   5.609   5.339  1.6113  2.3574  0.0028
10783SOL    HW233791   3.283   5.535   5.463  3.2952 -0.3131 -0.9444
10784SOL     OW33792   1.038   5.988   2.859 -0.3360 -0.5604  0.6152
10784SOL    HW133793   1.124   6.028   2.850 -0.2698 -0.7610  0.3361
10784SOL    HW233794   1.021   5.988   2.953  0.0324 -0.6616  0.6814
10785SOL     OW33795   3.345   7.573   5.640 -0.2695  0.4087  0.4856
10785SOL    HW133796   3.432   7.541   5.617  0.2935  0.9438  1.7191
10785SOL    HW233797   3.347   7.666   5.618 -0.4519  0.4706  0.7231
10786SOL     OW33798   1.392   5.273   3.042  0.6461  0.3331 -0.0264
10786SOL    HW133799   1.472   5.274   3.095  0.6302 -1.3649  0.0774
10786SOL    HW233800   1.323   5.247   3.103  0.1095  1.2157 -0.2468
10787SOL     OW33801   3.131   5.626   3.997  0.4945  0.2126  0.7234
10787SOL    HW133802   3.133   5.716   4.030 -1.1920  0.6407 -0.2692
10787SOL    HW233803   3.102   5.634   3.906  0.4683 -1.3293  0.5735
10788SOL     OW33804   0.990   6.130   3.568  0.4901  0.0681 -0.1472
10788SOL    HW133805   1.046   6.080   3.627  1.2473  1.2971  0.2203
10788SOL    HW233806   0.995   6.220   3.601 -0.2667  0.5140 -1.1970
10789SOL     OW33807   3.380   1.504   5.085 -0.3460 -0.5466  0.5653
10789SOL    HW133808   3.361   1.440   5.016  1.2069  0.1472 -0.5860
10789SOL    HW233809   3.295   1.531   5.118 -1.1076 -1.3501 -0.6753
10790SOL     OW33810   2.822   6.354   5.102 -0.2056 -0.6934  0.0289
10790SOL    HW133811   2.862   6.391   5.181 -0.4881 -0.1319 -0.0868
10790SOL    HW233812   2.814   6.260   5.121 -1.5499 -0.3724  1.2464
10791SOL     OW33813   3.672   1.806   4.223 -0.2720 -0.2193  0.3021
10791SOL    HW133814   3.607   1.757   4.173 -1.7659  0.9929  0.9836
10791SOL    HW233815   3.623   1.878   4.262  0.9397 -0.7546  3.0451
10792SOL     OW33816   0.647   6.125   5.468  0.0593  0.1565  0.0933
10792SOL    HW133817   0.569   6.083   5.506 -0.9970  0.5343 -1.5620
10792SOL    HW233818   0.664   6.200   5.526 -2.2816  1.4788 -0.7848
10793SOL     OW33819   3.547   6.549   6.666 -0.2461  0.2814 -0.3230
10793SOL    HW133820   3.488   6.606   6.716  0.5589 -0.6613  1.8267
10793SOL    HW233821   3.495   6.470   6.650 -0.5572  0.6459 -1.1434
10794SOL     OW33822   2.105   5.919   3.288  0.6786 -0.1951  0.1323
10794SOL    HW133823   2.016   5.940   3.260  1.2895  4.5912  0.9681
10794SOL    HW233824   2.093   5.876   3.373 -0.8383  0.7931  0.4547
10795SOL     OW33825   1.082   5.352   5.192 -0.0971  0.3628 -0.1884
10795SOL    HW133826   1.128   5.352   5.108  0.6336 -1.3895  0.1643
10795SOL    HW233827   1.150   5.332   5.257 -1.2166 -1.7673  0.4141
10796SOL     OW33828   4.395   5.312   4.170 -0.6667  0.7444 -0.0828
10796SOL    HW133829   4.402   5.237   4.229  0.8394  1.7239  1.0607
10796SOL    HW233830   4.462   5.373   4.201  1.5416  0.5686 -3.8991
10797SOL     OW33831   1.593   5.332   5.468  0.1293  0.2646  0.1790
10797SOL    HW133832   1.591   5.331   5.563 -0.8841  1.0451  0.1818
10797SOL    HW233833   1.549   5.413   5.444 -1.0222 -0.6634 -0.9805
10798SOL     OW33834   2.381   0.359   3.453 -0.3969  0.1453  0.2948
10798SOL    HW133835   2.407   0.380   3.363  0.1106  1.7349  0.7834
10798SOL    HW233836   2.329   0.434   3.481  1.1786  0.6873  2.0030
10799SOL     OW33837   2.471   6.110   5.269  0.2827  0.1310  0.2801
10799SOL    HW133838   2.565   6.125   5.263  0.5095 -0.9356  1.0657
10799SOL    HW233839   2.461   6.034   5.326 -0.9967 -0.5363 -0.7563
10800SOL     OW33840   2.130   6.440   4.213  0.0519  0.4311 -1.0582
10800SOL    HW133841   2.200   6.430   4.278  1.6934 -0.0222 -2.8007
10800SOL    HW233842   2.099   6.351   4.197  0.3290  0.4284 -1.5917
10801SOL     OW33843   3.793   5.831   1.661 -0.0005 -0.4327 -0.4244
10801SOL    HW133844   3.765   5.893   1.593  0.3873  1.8030  1.3072
10801SOL    HW233845   3.888   5.841   1.666 -0.1714  0.9455  1.6546
10802SOL     OW33846   3.476   7.708   3.493  0.0631 -0.0229  0.0006
10802SOL    HW133847   3.510   7.618   3.500  0.7807  0.2247 -0.2499
10802SOL    HW233848   3.395   7.706   3.544  0.4935 -0.6049  0.6927
10803SOL     OW33849   2.771   0.016   5.647  0.2116  0.6572  0.4571
10803SOL    HW133850   2.759   0.103   5.610  2.5864  0.3199 -1.3239
10803SOL    HW233851   2.782   0.031   5.741 -3.2793  1.8044  0.8335
10804SOL     OW33852   1.275   6.291   5.481  0.3219  0.0810 -0.1477
10804SOL    HW133853   1.332   6.246   5.544 -1.2622 -2.2596 -0.2264
10804SOL    HW233854   1.265   6.228   5.409  1.4425  2.3642 -2.4568
10805SOL     OW33855   2.364   5.639   5.487  0.1079  0.1336  0.0381
10805SOL    HW133856   2.325   5.724   5.467  0.3751 -0.0641 -1.4322
10805SOL    HW233857   2.293   5.589   5.527 -0.3415  0.7203 -0.0190
10806SOL     OW33858   4.156   5.375   5.427  0.5810 -0.2988 -0.4276
10806SOL    HW133859   4.181   5.376   5.519  1.1642 -1.2671 -0.5569
10806SOL    HW233860   4.236   5.399   5.380  1.2320 -2.8525 -0.8160
10807SOL     OW33861   0.138   6.556   3.474  0.0631  0.6013  0.7573
10807SOL    HW133862   0.072   6.508   3.524  0.5472  0.8050  1.6098
10807SOL    HW233863   0.172   6.622   3.535  1.2717  0.2990  0.4490
10808SOL     OW33864   3.292   0.069   3.510  0.2612 -0.4275  0.0735
10808SOL    HW133865   3.322   0.005   3.444  0.2775 -2.1485  1.6645
10808SOL    HW233866   3.340   0.045   3.589 -0.7959  0.6957  1.0785
10809SOL     OW33867   7.685   3.716   6.129  0.0815  0.1364  0.1052
10809SOL    HW133868   7.656   3.807   6.124 -0.1926 -0.0060 -1.4098
10809SOL    HW233869   7.620   3.667   6.079  0.7512 -0.7529  0.0686
10810SOL     OW33870   2.328   7.395   4.076  0.7075  0.4396  0.4735
10810SOL    HW133871   2.329   7.305   4.044 -0.2564  0.3774  0.6026
10810SOL    HW233872   2.372   7.445   4.007  0.5614 -0.0120  0.0472
10811SOL     OW33873   3.719   7.205   4.568 -0.3900  0.0349  0.0832
10811SOL    HW133874   3.677   7.123   4.593  1.3242 -0.3477  1.9030
10811SOL    HW233875   3.687   7.269   4.632 -1.1677  0.6692 -0.8999
10812SOL     OW33876   3.316   5.546   5.036  0.6087  0.1883  0.4617
10812SOL    HW133877   3.380   5.606   5.073  1.3677 -0.2823 -0.0519
10812SOL    HW233878   3.342   5.460   5.069  0.1994  0.0024  0.3040
10813SOL     OW33879   2.551   6.837   5.183  0.0455  0.4820  0.4219
10813SOL    HW133880   2.630   6.788   5.205 -0.4630 -0.2155  0.7154
10813SOL    HW233881   2.526   6.805   5.096 -0.5237 -0.0907  0.7937
10814SOL     OW33882   4.345   6.976   5.081  0.1571  0.2036 -0.4611
10814SOL    HW133883   4.266   7.008   5.037  0.8586  1.3758 -0.9317
10814SOL    HW233884   4.318   6.962   5.172 -1.3876 -2.4988 -1.2209
10815SOL     OW33885   1.417   2.927   4.789  0.1167 -0.6210  0.5428
10815SOL    HW133886   1.342   2.983   4.768 -0.4994 -1.3161  0.8478
10815SOL    HW233887   1.491   2.967   4.742 -0.5657 -0.2682 -0.2569
10816SOL     OW33888   4.577   6.348   2.597  0.0615  0.1360 -0.1526
10816SOL    HW133889   4.586   6.336   2.503  1.4399 -0.5911  0.0410
10816SOL    HW233890   4.556   6.261   2.630  0.9430  0.1026  0.3437
10817SOL     OW33891   5.075   6.615   5.289  0.1365  0.0740 -0.0297
10817SOL    HW133892   5.148   6.655   5.243  0.4182  1.2399  1.3748
10817SOL    HW233893   5.107   6.527   5.312  1.2436  0.6825  0.8594
10818SOL     OW33894   2.188   5.921   5.225 -0.5128  0.3344 -0.1614
10818SOL    HW133895   2.199   6.007   5.185 -0.9557 -0.2707 -1.6472
10818SOL    HW233896   2.240   5.862   5.169  1.6096 -0.0882  2.0644
10819SOL     OW33897   2.894   6.692   3.070 -0.4001  0.2606 -0.0814
10819SOL    HW133898   2.862   6.777   3.040  0.8188  0.2673 -1.4698
10819SOL    HW233899   2.831   6.629   3.035 -1.6226  0.5860  1.4255
10820SOL     OW33900   3.720   6.659   5.126 -0.2693 -0.1318  0.6331
10820SOL    HW133901   3.689   6.573   5.152  0.0814 -0.9363 -1.3931
10820SOL    HW233902   3.778   6.642   5.052 -0.6042  1.8831 -0.1649
10821SOL     OW33903   1.154   4.825   5.318  0.3020 -0.1613 -0.0115
10821SOL    HW133904   1.147   4.920   5.312  1.0958 -0.1585 -1.3556
10821SOL    HW233905   1.064   4.793   5.310  0.2412  0.3999 -2.1348
10822SOL     OW33906   1.327   0.325   6.299  0.2577 -0.1506 -0.0845
10822SOL    HW133907   1.363   0.413   6.292  2.4772 -1.0296 -0.6782
10822SOL    HW233908   1.352   0.283   6.216 -3.3403 -0.5005 -1.1426
10823SOL     OW33909   1.379   7.088   6.506  0.2164  0.2773 -0.2145
10823SOL    HW133910   1.343   7.068   6.593 -0.8771 -0.0542 -0.7256
10823SOL    HW233911   1.472   7.102   6.521 -0.1055  1.1166  1.1654
10824SOL     OW33912   3.473   0.257   5.793 -0.1894  0.1657 -0.3537
10824SOL    HW133913   3.542   0.309   5.833 -0.0948  0.1205 -0.4587
10824SOL    HW233914   3.392   0.291   5.832  0.0045 -1.0092  1.1581
10825SOL     OW33915   1.621   7.688   6.027 -0.3188 -0.4257  0.4733
10825SOL    HW133916   1.662   7.770   5.999  2.1663 -1.6787  0.2617
10825SOL    HW233917   1.640   7.626   5.957 -2.7045 -1.0981  0.3360
10826SOL     OW33918   4.123   6.852   6.438  0.1902  0.2980 -0.3370
10826SOL    HW133919   4.064   6.796   6.388  1.7347 -1.7897  0.0288
10826SOL    HW233920   4.211   6.826   6.410  1.0054  2.2587  0.1996
10827SOL     OW33921   3.249   6.781   7.076  0.5078  0.7573 -1.1432
10827SOL    HW133922   3.235   6.686   7.079 -1.5234  1.0500 -0.1018
10827SOL    HW233923   3.318   6.797   7.140 -0.3710  0.1471 -0.0102
10828SOL     OW33924   1.696   5.997   8.030 -0.4447  0.0993 -0.2548
10828SOL    HW133925   1.669   6.063   7.966  0.3063 -0.5377 -1.2500
10828SOL    HW233926   1.634   5.925   8.017  1.0473 -0.9620 -1.8651
10829SOL     OW33927   4.035   7.036   6.990 -0.1935  0.0164  0.3354
10829SOL    HW133928   4.022   7.085   7.071 -0.0575  1.2780 -0.3841
10829SOL    HW233929   3.946   7.009   6.964 -0.3783  0.6865  0.2562
10830SOL     OW33930   2.866   6.712   7.778  0.1367  0.2875  0.2654
10830SOL    HW133931   2.961   6.720   7.769 -0.1184  1.6570 -1.7835
10830SOL    HW233932   2.832   6.797   7.752 -1.6977 -0.4583  0.0823
10831SOL     OW33933   3.057   6.009   6.582  0.2939  0.3459 -0.3420
10831SOL    HW133934   3.074   6.010   6.677  0.2743 -0.8586 -0.3077
10831SOL    HW233935   2.977   6.060   6.572  0.7259  1.1504  0.1961
10832SOL     OW33936   1.872   6.581   5.258  0.0028  0.2232  0.5798
10832SOL    HW133937   1.934   6.516   5.292 -2.2574 -1.8583  0.9871
10832SOL    HW233938   1.848   6.549   5.171  0.4212  1.7043 -0.1124
10833SOL     OW33939   3.254   5.886   6.414  0.6576 -0.1559 -0.3094
10833SOL    HW133940   3.172   5.898   6.462  0.6205 -1.7811  0.1129
10833SOL    HW233941   3.227   5.879   6.323  0.5781  1.5474 -0.4348
10834SOL     OW33942   4.588   5.971   6.128 -0.0603  0.0308  0.4254
10834SOL    HW133943   4.589   5.911   6.053  0.8419  0.0689  0.4014
10834SOL    HW233944   4.519   5.936   6.185 -0.9263  0.1433 -0.5247
10835SOL     OW33945   0.775   7.780   5.785  0.4600 -0.0914 -0.4705
10835SOL    HW133946   0.704   7.727   5.822 -1.9913  1.7654 -2.1203
10835SOL    HW233947   0.778   7.857   5.842  0.2844  0.3757 -1.0820
10836SOL     OW33948   3.874   7.607   7.064 -0.4435  0.6352 -0.3222
10836SOL    HW133949   3.893   7.696   7.034 -1.4946  0.6800 -0.8955
10836SOL    HW233950   3.909   7.604   7.153 -1.5778  2.0565  0.2166
10837SOL     OW33951   0.815   1.226   5.702 -0.4700  0.1057 -0.4729
10837SOL    HW133952   0.725   1.199   5.720 -1.1683  0.0952 -3.4363
10837SOL    HW233953   0.816   1.319   5.721 -1.0897  0.0994 -0.3718
10838SOL     OW33954   2.134   4.680   6.072  0.0649  0.3895 -0.8593
10838SOL    HW133955   2.039   4.680   6.088  0.1070  2.7761 -0.2358
10838SOL    HW233956   2.152   4.592   6.039 -2.3171 -0.2288 -0.7484
10839SOL     OW33957   2.533   6.856   6.970 -0.0520  0.2320  0.6240
10839SOL    HW133958   2.609   6.856   6.913 -1.1788  2.1124 -1.0058
10839SOL    HW233959   2.551   6.923   7.035  0.1929 -0.1843  0.9879
10840SOL     OW33960   2.769   5.654   6.227  0.6441 -0.1286 -0.5591
10840SOL    HW133961   2.693   5.632   6.281  0.6351  2.1062  0.4415
10840SOL    HW233962   2.733   5.662   6.138  0.4848 -2.8333 -0.8265
10841SOL     OW33963   2.726   6.588   5.857  0.1984  0.5681  0.4760
10841SOL    HW133964   2.669   6.522   5.896 -0.0941  0.4855 -0.0840
10841SOL    HW233965   2.700   6.670   5.899 -1.0069  0.6940 -0.4528
10842SOL     OW33966   1.788   6.587   5.728 -0.0051 -0.0716  0.1327
10842SOL    HW133967   1.845   6.552   5.660  0.1205 -0.9750  0.6967
10842SOL    HW233968   1.839   6.577   5.809 -0.3696  0.4966  0.4353
10843SOL     OW33969   3.763   0.180   6.128 -0.0445  0.5789 -0.6108
10843SOL    HW133970   3.786   0.229   6.206  0.0531 -1.3089  0.6123
10843SOL    HW233971   3.846   0.144   6.097 -0.3488 -0.3430 -0.3777
10844SOL     OW33972   1.877   7.578   5.491 -0.2728 -0.5232 -0.0730
10844SOL    HW133973   1.930   7.626   5.428 -2.2833 -0.3895 -1.7658
10844SOL    HW233974   1.908   7.488   5.484 -0.1756 -0.4328 -0.9539
10845SOL     OW33975   4.218   1.487   6.321 -0.2904  0.2296 -0.4444
10845SOL    HW133976   4.124   1.485   6.339 -0.1177 -0.5954  0.4550
10845SOL    HW233977   4.258   1.447   6.398  0.8923  1.6033 -0.3016
10846SOL     OW33978   3.606   5.587   4.884 -0.6893  0.0913  0.1131
10846SOL    HW133979   3.700   5.574   4.900 -0.8882  0.5597  1.7712
10846SOL    HW233980   3.563   5.530   4.947 -1.5297  0.4036 -0.1671
10847SOL     OW33981   1.179   7.244   6.384 -0.2342 -0.4688  0.0174
10847SOL    HW133982   1.137   7.311   6.436  0.5379 -0.4384  0.6256
10847SOL    HW233983   1.253   7.215   6.437 -0.6856 -1.9689 -0.1279
10848SOL     OW33984   2.175   6.767   7.620 -0.2583  0.6885  0.4728
10848SOL    HW133985   2.092   6.791   7.661 -1.3874 -0.9782 -0.6902
10848SOL    HW233986   2.160   6.783   7.526  0.2859 -0.7534  0.1214
10849SOL     OW33987   2.902   6.211   5.453  0.5065 -0.4623  0.1683
10849SOL    HW133988   2.853   6.273   5.507 -0.4857  0.1203 -1.3430
10849SOL    HW233989   2.981   6.259   5.428  1.4579 -1.0641  1.7959
10850SOL     OW33990   3.186   5.163   8.357 -0.2455  0.9368 -0.8775
10850SOL    HW133991   3.197   5.213   8.276 -1.2113  0.8726 -1.0691
10850SOL    HW233992   3.159   5.228   8.422  0.8118  1.0347 -0.5249
10851SOL     OW33993   1.779   7.920   5.946 -0.1632  0.3774 -0.0213
10851SOL    HW133994   1.864   7.876   5.951  0.8344  2.1027 -0.7343
10851SOL    HW233995   1.778   7.979   6.021  0.6458  2.5412 -1.5936
10852SOL     OW33996   3.533   5.744   5.503  0.6799 -0.2147  0.3504
10852SOL    HW133997   3.448   5.701   5.498  0.9257 -0.6979  0.2633
10852SOL    HW233998   3.595   5.673   5.517  1.2054 -0.0078 -0.7688
10853SOL     OW33999   5.424   6.941   7.299 -0.1040  0.2421  0.4147
10853SOL    HW134000   5.454   7.022   7.257 -2.8168  1.0715 -0.1268
10853SOL    HW234001   5.501   6.884   7.298  0.9904  1.5905 -2.2392
10854SOL     OW34002   1.381   5.180   8.792  0.1577  0.6054  0.2688
10854SOL    HW134003   1.457   5.146   8.839 -1.4597 -0.5330  2.1723
10854SOL    HW234004   1.372   5.123   8.716 -0.0147 -0.5944  1.1684
10855SOL     OW34005   3.158   5.880   4.059 -0.9957 -0.4037  0.0366
10855SOL    HW134006   3.164   5.944   3.988 -3.2506 -0.7988 -0.6017
10855SOL    HW234007   3.170   5.930   4.139 -1.6395  0.6475 -0.5079
10856SOL     OW34008   3.370   7.776   5.893 -0.0941 -0.5176  0.2559
10856SOL    HW134009   3.438   7.844   5.888  0.2154 -0.7076  1.5720
10856SOL    HW234010   3.292   7.818   5.856 -0.4346  1.2702  2.7055
10857SOL     OW34011   4.676   6.241   6.083  0.0799  0.2577  0.1177
10857SOL    HW134012   4.637   6.157   6.107  0.6431  0.0512  0.3398
10857SOL    HW234013   4.744   6.255   6.150  0.3057  0.6612 -0.1942
10858SOL     OW34014   1.371   4.889   7.412 -0.1519 -0.3272 -0.1050
10858SOL    HW134015   1.420   4.966   7.440 -1.1399  0.4953 -0.5770
10858SOL    HW234016   1.414   4.861   7.332 -0.5735  0.5227 -0.6397
10859SOL     OW34017   3.940   0.931   6.016 -0.7046 -0.1572  0.1707
10859SOL    HW134018   3.951   0.861   6.080  0.1685 -0.5433 -0.3870
10859SOL    HW234019   4.028   0.951   5.987 -0.9254  1.2744  0.4042
10860SOL     OW34020   1.774   5.056   8.257 -0.1200 -0.5468  0.2027
10860SOL    HW134021   1.797   5.006   8.179 -1.9511  0.2276 -0.8987
10860SOL    HW234022   1.820   5.139   8.248 -0.8999 -0.1700 -0.4645
10861SOL     OW34023   4.308   7.213   5.560  0.2023  0.0920  0.1464
10861SOL    HW134024   4.259   7.220   5.642 -1.6650 -0.5310 -0.8637
10861SOL    HW234025   4.241   7.213   5.492  1.6208 -0.8480 -1.3152
10862SOL     OW34026   3.590   6.199   6.044  0.3338  0.1864  0.2153
10862SOL    HW134027   3.586   6.108   6.014  4.1040 -0.9353  2.4541
10862SOL    HW234028   3.532   6.201   6.120  0.2700 -0.3712  0.1869
10863SOL     OW34029   2.216   5.613   7.602 -0.2948 -0.3320  0.1507
10863SOL    HW134030   2.210   5.708   7.599  0.6997 -0.2552  0.3220
10863SOL    HW234031   2.300   5.595   7.645 -0.3526 -1.2842 -0.0993
10864SOL     OW34032   2.685   4.979   6.790 -0.1006  0.1587  0.5105
10864SOL    HW134033   2.722   5.046   6.848  0.1343  1.1631 -0.7448
10864SOL    HW234034   2.742   4.980   6.713 -0.8475 -0.5905 -0.0695
10865SOL     OW34035   3.026   6.791   7.543  0.4497  0.4918 -0.2110
10865SOL    HW134036   2.953   6.849   7.567 -0.2639 -0.2185 -0.6051
10865SOL    HW234037   2.991   6.738   7.471  1.3484  0.1008 -0.3662
10866SOL     OW34038   1.956   5.691   6.456  0.4423 -0.0207 -0.4443
10866SOL    HW134039   1.950   5.661   6.547  1.0269  2.1718  0.3712
10866SOL    HW234040   2.043   5.662   6.428  0.3744 -0.4589 -0.2216
10867SOL     OW34041   2.602   6.022   7.170  0.3022 -0.4992  0.2918
10867SOL    HW134042   2.572   6.053   7.084  0.3594  0.2209  0.5225
10867SOL    HW234043   2.693   6.052   7.174 -0.0293  0.4687  1.0596
10868SOL     OW34044   5.317   7.105   8.266  0.0476 -0.0082  0.3125
10868SOL    HW134045   5.371   7.055   8.204  0.4836  0.4076  0.3583
10868SOL    HW234046   5.228   7.096   8.232  0.3390  0.6152 -0.6471
10869SOL     OW34047   4.723   0.423   5.760  0.2062 -0.5430 -0.0547
10869SOL    HW134048   4.677   0.355   5.710 -0.4119 -0.5120  0.4683
10869SOL    HW234049   4.814   0.414   5.733  0.8715 -4.0155  2.6448
10870SOL     OW34050   2.785   5.223   6.916 -0.2386  0.3018 -0.0420
10870SOL    HW134051   2.856   5.279   6.945  0.0703  0.1660 -0.5209
10870SOL    HW234052   2.732   5.278   6.858 -0.3778  0.3226  0.1016
10871SOL     OW34053   2.198   4.867   5.861  0.2591  0.2942  0.0776
10871SOL    HW134054   2.143   4.827   5.929  0.1253  0.5426  0.1181
10871SOL    HW234055   2.284   4.874   5.901  0.1826  0.4306  0.2218
10872SOL     OW34056   3.837   6.086   7.098 -0.5228  0.1741  0.5620
10872SOL    HW134057   3.884   6.078   7.015 -1.6238  1.7564 -0.2739
10872SOL    HW234058   3.805   5.998   7.116  1.0556 -0.5257  0.1457
10873SOL     OW34059   5.101   7.713   3.988  0.3306  0.1214 -0.2177
10873SOL    HW134060   5.061   7.626   3.990  2.0164 -0.6987 -0.2450
10873SOL    HW234061   5.063   7.759   4.063  1.0634 -1.4425  1.1868
10874SOL     OW34062   4.395   0.302   6.883  0.1862  0.2660 -0.0614
10874SOL    HW134063   4.475   0.346   6.910  1.0384 -1.9220  1.2541
10874SOL    HW234064   4.342   0.296   6.963  1.2190 -3.2178  0.5199
10875SOL     OW34065   2.260   5.297   6.047  0.2600 -0.4009  0.0463
10875SOL    HW134066   2.336   5.277   6.102  0.4322  1.1593  0.4298
10875SOL    HW234067   2.194   5.234   6.073  0.7348 -0.4351  1.2216
10876SOL     OW34068   2.544   5.888   5.827  0.4475 -0.7638 -0.0035
10876SOL    HW134069   2.458   5.930   5.827 -0.0342 -1.6408  1.6788
10876SOL    HW234070   2.526   5.797   5.850  1.8125 -1.0250  0.1403
10877SOL     OW34071   2.512   0.252   7.387 -0.0576  0.0038 -0.3232
10877SOL    HW134072   2.574   0.307   7.339 -0.1883  1.3830  1.0001
10877SOL    HW234073   2.441   0.312   7.411 -0.6726 -0.9623  0.3487
10878SOL     OW34074   4.489   6.771   4.781  0.2805  0.7212 -0.2969
10878SOL    HW134075   4.498   6.783   4.875 -1.9699  1.3515 -0.1022
10878SOL    HW234076   4.518   6.681   4.765 -1.8578 -0.3945  1.4684
10879SOL     OW34077   0.426   4.053   7.451  0.3426 -0.4921  0.0512
10879SOL    HW134078   0.358   4.119   7.442 -0.5142 -1.3077  0.3284
10879SOL    HW234079   0.466   4.069   7.536  2.9080  2.1390 -1.4588
10880SOL     OW34080   3.155   7.103   4.823 -0.0712  0.0068 -0.5159
10880SOL    HW134081   3.064   7.080   4.842  0.5893 -0.6730  2.2013
10880SOL    HW234082   3.203   7.021   4.835  1.3251  1.0641  1.6610
10881SOL     OW34083   3.022   5.984   5.580  0.4729  0.0808 -0.3322
10881SOL    HW134084   2.956   5.948   5.640 -0.5593 -0.8024 -1.9156
10881SOL    HW234085   2.976   6.053   5.533  1.6409  1.6451  0.6977
10882SOL     OW34086   4.371   5.139   5.059  0.3861 -0.2719 -0.1188
10882SOL    HW134087   4.329   5.223   5.043  0.0014 -0.2316  1.0028
10882SOL    HW234088   4.302   5.074   5.042  1.3510 -0.5914 -3.4971
10883SOL     OW34089   1.423   7.415   6.363  0.3286 -0.1453  0.1329
10883SOL    HW134090   1.519   7.414   6.362  0.3499  0.7082 -0.7984
10883SOL    HW234091   1.398   7.359   6.289  0.0661 -1.2645  1.0329
10884SOL     OW34092   1.999   6.634   6.258 -0.1142  0.1507  0.1432
10884SOL    HW134093   1.941   6.572   6.302 -2.2072  0.3302 -2.1464
10884SOL    HW234094   2.077   6.583   6.238 -0.1357 -0.5952  1.7602
10885SOL     OW34095   2.967   7.348   6.430  0.8824 -0.4354  0.0777
10885SOL    HW134096   2.960   7.278   6.365 -0.6179 -0.1027 -0.1673
10885SOL    HW234097   2.967   7.303   6.514 -0.3022 -0.7566 -0.0686
10886SOL     OW34098   2.451   5.922   6.432  0.1254  0.5762 -0.3090
10886SOL    HW134099   2.481   5.845   6.481 -3.1176  0.7656  2.3087
10886SOL    HW234100   2.465   5.995   6.492  3.9961  2.4840 -3.0715
10887SOL     OW34101   1.295   4.350   5.549  0.0563 -0.0198  0.1981
10887SOL    HW134102   1.275   4.444   5.550 -1.0354 -0.1915 -1.4405
10887SOL    HW234103   1.385   4.344   5.581 -0.5567  1.3552  2.4103
10888SOL     OW34104   2.302   7.103   6.662 -0.4097 -0.4128  0.2112
10888SOL    HW134105   2.226   7.081   6.716 -1.0478 -0.1861 -0.5717
10888SOL    HW234106   2.267   7.111   6.573  0.3410  0.7018 -0.0094
10889SOL     OW34107   4.441   0.562   7.846 -0.0732  0.0398  0.3425
10889SOL    HW134108   4.440   0.472   7.813 -1.9531 -0.3300  1.2840
10889SOL    HW234109   4.524   0.569   7.894 -0.1486 -1.3878  0.7399
10890SOL     OW34110   2.840   5.752   6.483  0.1864 -0.0485  0.5521
10890SOL    HW134111   2.801   5.766   6.397  0.3484 -0.6056  0.3822
10890SOL    HW234112   2.926   5.795   6.478 -0.2344  0.8310  0.7919
10891SOL     OW34113   2.522   0.136   6.174  0.2563 -0.7653  0.2404
10891SOL    HW134114   2.486   0.209   6.223 -0.5540 -0.2052 -1.1224
10891SOL    HW234115   2.508   0.159   6.082 -0.0343 -2.6398 -0.2332
10892SOL     OW34116   3.415   0.306   6.678 -0.6681 -0.0007 -0.4235
10892SOL    HW134117   3.330   0.266   6.661 -0.8004  0.2653 -0.3805
10892SOL    HW234118   3.431   0.363   6.603 -0.5788  0.0343 -0.3781
10893SOL     OW34119   3.071   4.262   6.613 -0.2451  0.4588 -0.0558
10893SOL    HW134120   3.148   4.319   6.612 -1.3028  1.9769  0.8552
10893SOL    HW234121   3.106   4.174   6.600  1.3361  1.3937 -2.7780
10894SOL     OW34122   2.617   5.819   4.314  0.5477 -0.0799 -0.0076
10894SOL    HW134123   2.666   5.793   4.236  1.3860  0.4130  0.3438
10894SOL    HW234124   2.570   5.898   4.287 -0.0824 -0.5609 -0.3491
10895SOL     OW34125   2.647   5.219   4.981  0.6660  0.2230 -0.3819
10895SOL    HW134126   2.667   5.313   4.982  0.1609  0.3483 -1.1111
10895SOL    HW234127   2.695   5.185   4.906  0.6609 -0.0596 -0.2584
10896SOL     OW34128   3.886   5.306   7.357  0.9756  0.0453 -0.1190
10896SOL    HW134129   3.831   5.373   7.398 -1.3176 -2.1419  0.6353
10896SOL    HW234130   3.882   5.327   7.263 -1.2551 -0.0192 -0.1010
10897SOL     OW34131   2.364   5.483   6.824 -0.1122  0.3462 -0.3282
10897SOL    HW134132   2.359   5.517   6.913  0.6239 -1.7537  0.5959
10897SOL    HW234133   2.285   5.429   6.814  0.1739 -0.0215 -0.6508
10898SOL     OW34134   3.543   7.233   6.128  0.3270  0.1919 -0.3833
10898SOL    HW134135   3.465   7.184   6.155 -0.7286  1.9697 -0.0121
10898SOL    HW234136   3.518   7.273   6.045 -0.5950  3.6276  1.3508
10899SOL     OW34137   2.798   6.674   7.020 -0.3737  0.4181  0.3038
10899SOL    HW134138   2.726   6.611   7.018 -0.0796  0.0861  0.0765
10899SOL    HW234139   2.782   6.731   6.944  1.5821 -1.9009 -2.0427
10900SOL     OW34140   4.279   7.152   4.717 -0.1603 -0.5510  0.3008
10900SOL    HW134141   4.305   7.124   4.629 -0.6954 -2.2034  0.6361
10900SOL    HW234142   4.360   7.150   4.768  0.1958  0.6409 -0.1920
10901SOL     OW34143   1.922   6.028   6.633  0.0098  0.3425  0.6464
10901SOL    HW134144   1.989   5.968   6.598  0.4184  0.7779  0.6699
10901SOL    HW234145   1.839   5.985   6.613  0.2863 -0.0705  0.3556
10902SOL     OW34146   0.973   4.439   5.864  0.0606  0.5791 -0.6031
10902SOL    HW134147   1.057   4.437   5.911 -1.4413  0.7241  2.3183
10902SOL    HW234148   0.953   4.347   5.848  0.6626  0.5340 -1.1497
10903SOL     OW34149   2.007   5.980   7.366 -0.3638  0.1632  0.0425
10903SOL    HW134150   2.097   5.997   7.394  0.0050  0.1873 -1.1185
10903SOL    HW234151   2.001   6.021   7.280 -1.2415 -0.5435 -0.2407
10904SOL     OW34152   3.874   5.135   6.537 -0.3121  0.3195  0.1564
10904SOL    HW134153   3.927   5.147   6.616  2.1332 -0.9127 -1.1753
10904SOL    HW234154   3.884   5.042   6.516 -3.3437 -0.0397 -0.0072
10905SOL     OW34155   2.454   4.622   6.004 -0.2359  0.0463  0.0097
10905SOL    HW134156   2.464   4.646   5.912 -0.2741  0.9023  0.2259
10905SOL    HW234157   2.382   4.559   6.004  0.7126 -1.0816 -0.7195
10906SOL     OW34158   4.139   6.321   6.851 -0.5047  0.2439 -0.3879
10906SOL    HW134159   4.175   6.232   6.846 -1.0850 -0.0689  0.7023
10906SOL    HW234160   4.044   6.308   6.849 -0.6170  0.7465  0.7271
10907SOL     OW34161   4.102   6.581   6.355 -0.0462  0.2345  0.4804
10907SOL    HW134162   4.090   6.543   6.442 -0.4406  0.7483  0.6540
10907SOL    HW234163   4.190   6.620   6.357 -0.4728  1.2002  1.0203
10908SOL     OW34164   4.938   7.550   7.393 -0.2380  0.1517  0.5594
10908SOL    HW134165   4.955   7.509   7.478 -1.8046  0.9652  1.3280
10908SOL    HW234166   4.884   7.627   7.415  0.0205  0.8465 -1.1044
10909SOL     OW34167   2.645   7.360   6.650  0.0363 -0.1590 -0.5918
10909SOL    HW134168   2.568   7.320   6.610  0.4882 -1.6370 -0.0186
10909SOL    HW234169   2.616   7.449   6.673 -1.2410 -0.4208 -1.1204
10910SOL     OW34170   2.177   6.087   5.015  0.1894 -1.0862 -0.1888
10910SOL    HW134171   2.269   6.109   5.001 -0.1864  1.0217  0.2730
10910SOL    HW234172   2.138   6.168   5.047 -1.0692 -2.8674  3.3428
10911SOL     OW34173   3.537   5.869   7.643  0.6188 -0.7654 -0.4367
10911SOL    HW134174   3.516   5.932   7.712  1.9874 -0.6833 -0.0685
10911SOL    HW234175   3.463   5.807   7.644 -0.2650  0.2583 -0.1454
10912SOL     OW34176   3.808   6.371   6.086  0.1161 -0.2499 -0.1176
10912SOL    HW134177   3.731   6.322   6.057  0.2209  0.6481 -2.0559
10912SOL    HW234178   3.784   6.463   6.075  1.0699  0.0669  0.3545
10913SOL     OW34179   3.620   7.790   7.687 -0.0168 -0.6953  0.0012
10913SOL    HW134180   3.646   7.706   7.650 -1.3072 -0.6630 -1.0555
10913SOL    HW234181   3.585   7.839   7.613  1.5598  1.1669  0.4193
10914SOL     OW34182   3.295   7.096   6.089  0.1483  0.1323 -0.1211
10914SOL    HW134183   3.360   7.058   6.031  0.7259  0.1593  0.4988
10914SOL    HW234184   3.242   7.022   6.119  0.0672  0.0739 -0.4120
10915SOL     OW34185   6.631   6.940   7.537 -0.0354 -0.1644 -0.3127
10915SOL    HW134186   6.564   6.930   7.604  0.0818 -0.4218 -0.2293
10915SOL    HW234187   6.584   6.935   7.454 -0.3758  1.5704 -0.2595
10916SOL     OW34188   3.939   7.011   6.589  0.5042  0.2207  0.5493
10916SOL    HW134189   3.998   6.973   6.524 -0.1255 -0.4979  0.3712
10916SOL    HW234190   3.995   7.065   6.644  0.8648  1.8881 -1.3517
10917SOL     OW34191   2.832   7.727   7.066  0.5994  0.1322 -0.2733
10917SOL    HW134192   2.744   7.752   7.037  1.6900  1.5168 -2.7309
10917SOL    HW234193   2.861   7.662   7.003  2.0452  1.1958 -0.7793
10918SOL     OW34194   2.368   6.246   6.109  0.2587 -0.4420 -0.0557
10918SOL    HW134195   2.310   6.316   6.080  0.8103 -0.3024 -0.8637
10918SOL    HW234196   2.357   6.243   6.204  0.4784  0.9591  0.0368
10919SOL     OW34197   2.409   5.093   5.647  0.1991  0.1585 -0.4816
10919SOL    HW134198   2.454   5.026   5.594  1.0011  0.1218  0.2115
10919SOL    HW234199   2.438   5.075   5.737 -2.7538 -1.1125  0.3424
10920SOL     OW34200   2.749   5.948   6.801  0.4085 -0.3887  0.4328
10920SOL    HW134201   2.656   5.928   6.803  0.8311 -2.5507  0.4312
10920SOL    HW234202   2.763   5.986   6.714 -0.4741  0.0362  0.4681
10921SOL     OW34203   1.750   7.341   6.381 -0.0044 -0.3753  0.5125
10921SOL    HW134204   1.723   7.428   6.352 -0.8965 -0.6217  0.5658
10921SOL    HW234205   1.727   7.284   6.307  1.2182 -0.4870  0.1846
10922SOL     OW34206   2.791   6.883   6.095 -0.1977 -0.3184  0.0335
10922SOL    HW134207   2.803   6.789   6.110 -1.6036 -0.6351 -0.6572
10922SOL    HW234208   2.702   6.890   6.059  0.9079  0.9827 -2.6875
10923SOL     OW34209   0.989   5.994   7.211 -0.2894 -0.2098 -0.1538
10923SOL    HW134210   0.966   5.903   7.226 -1.1987  0.2252  1.4040
10923SOL    HW234211   1.073   5.992   7.165 -1.0970 -1.8282 -1.6346
10924SOL     OW34212   2.926   6.388   6.488 -0.0641 -0.5124  0.3212
10924SOL    HW134213   2.897   6.298   6.498 -0.1852 -0.3686  1.5211
10924SOL    HW234214   2.845   6.440   6.491 -0.0311 -0.3776 -0.7633
10925SOL     OW34215   4.239   6.021   7.393 -0.5151 -0.6613  0.5443
10925SOL    HW134216   4.160   6.011   7.340  0.5590 -0.3316 -1.1787
10925SOL    HW234217   4.260   5.932   7.421  1.0631 -1.5535 -2.9259
10926SOL     OW34218   3.733   6.223   4.397  0.0256  0.2335 -0.4584
10926SOL    HW134219   3.824   6.245   4.380  0.0506  1.3478  0.9264
10926SOL    HW234220   3.683   6.279   4.338  0.2029  1.1910  0.2770
10927SOL     OW34221   1.745   6.797   7.095 -0.0278  0.5617  0.0681
10927SOL    HW134222   1.720   6.717   7.050 -3.4824  1.0986  0.7903
10927SOL    HW234223   1.800   6.767   7.168 -2.0791 -1.3471  0.9453
10928SOL     OW34224   4.946   5.360   7.221  0.2257 -0.3464 -0.0213
10928SOL    HW134225   5.041   5.371   7.229  0.2723 -0.4374 -0.4481
10928SOL    HW234226   4.911   5.394   7.304  0.5186  1.1231 -0.4743
10929SOL     OW34227   1.279   3.704   6.782  0.1237 -0.0302  0.1403
10929SOL    HW134228   1.311   3.748   6.861  0.4179 -0.3887  0.2238
10929SOL    HW234229   1.213   3.764   6.746 -0.5175 -0.1865  1.0366
10930SOL     OW34230   2.484   6.758   7.212 -0.0527  0.4217 -0.3880
10930SOL    HW134231   2.491   6.793   7.124  0.3566  1.5814  0.0923
10930SOL    HW234232   2.505   6.831   7.269  1.1664 -0.6861  0.6444
10931SOL     OW34233   2.978   7.066   5.981 -0.1017  0.4588  0.4588
10931SOL    HW134234   2.902   7.017   6.013 -0.7183 -0.4695 -2.1267
10931SOL    HW234235   3.043   6.998   5.961  0.2281  0.9668 -0.2289
10932SOL     OW34236   2.262   6.500   6.011 -0.5026 -0.0942 -0.7825
10932SOL    HW134237   2.255   6.503   6.106  2.5909  0.5222 -0.4727
10932SOL    HW234238   2.248   6.590   5.983 -1.7332 -0.3315 -0.9788
10933SOL     OW34239   2.734   6.886   6.778 -0.0281  0.8185 -0.2977
10933SOL    HW134240   2.816   6.908   6.735 -0.0652  0.9397 -0.3081
10933SOL    HW234241   2.666   6.910   6.714 -0.0558  0.3585 -0.4410
10934SOL     OW34242   1.628   6.750   6.323  0.4054  0.1196 -0.5050
10934SOL    HW134243   1.667   6.687   6.384  0.5008 -0.0306 -0.7181
10934SOL    HW234244   1.613   6.699   6.243 -1.8582 -0.3190  0.1186
10935SOL     OW34245   2.332   6.738   6.434  0.1362  0.2354  0.6256
10935SOL    HW134246   2.289   6.818   6.463 -0.7073 -0.5624  1.6616
10935SOL    HW234247   2.396   6.767   6.369 -1.7772  1.5067 -0.8320
10936SOL     OW34248   2.138   4.480   8.605  0.1064 -0.4248  0.5545
10936SOL    HW134249   2.205   4.543   8.633  1.4590 -1.3764 -0.3661
10936SOL    HW234250   2.065   4.493   8.665  0.5994  1.5765  0.7702
10937SOL     OW34251   1.685   5.415   7.098 -0.0168 -0.2349 -0.4301
10937SOL    HW134252   1.624   5.341   7.109 -0.1482  0.1631  2.3241
10937SOL    HW234253   1.771   5.374   7.090 -0.1867 -0.7159  0.1321
10938SOL     OW34254   3.037   5.321   5.759 -0.1384 -0.2881  0.3092
10938SOL    HW134255   3.011   5.229   5.752  0.8651 -0.4946 -1.2990
10938SOL    HW234256   3.117   5.327   5.706  1.7742  0.7918  3.0716
10939SOL     OW34257   3.364   5.473   6.715  0.1680 -0.7497 -0.2464
10939SOL    HW134258   3.300   5.402   6.726 -0.4311 -0.1202  0.4369
10939SOL    HW234259   3.445   5.428   6.691 -0.5512 -1.5630 -1.2828
10940SOL     OW34260   3.884   6.243   6.788  0.1572  0.0542 -0.1859
10940SOL    HW134261   3.867   6.215   6.697  0.5110 -0.2657 -0.1577
10940SOL    HW234262   3.844   6.330   6.794 -0.6877 -0.3013 -0.3744
10941SOL     OW34263   4.573   6.489   7.457  0.1494 -0.5612 -0.0868
10941SOL    HW134264   4.522   6.569   7.472 -0.6973 -0.4882 -2.8363
10941SOL    HW234265   4.639   6.489   7.527 -0.4450  1.9978  0.5804
10942SOL     OW34266   2.338   6.496   8.385  0.2328 -0.2220  0.5763
10942SOL    HW134267   2.316   6.423   8.443 -0.0729 -1.1169 -0.6450
10942SOL    HW234268   2.394   6.458   8.318 -0.9945  0.3599 -0.8273
10943SOL     OW34269   3.276   5.264   5.166 -0.4249 -0.7410 -0.4405
10943SOL    HW134270   3.246   5.220   5.245  1.5732 -1.9051 -0.2609
10943SOL    HW234271   3.248   5.206   5.094 -0.6230 -0.6255 -0.4581
10944SOL     OW34272   3.222   6.825   5.402  0.8573  0.5086 -0.1245
10944SOL    HW134273   3.213   6.784   5.488  1.6813  1.1473  0.2753
10944SOL    HW234274   3.156   6.894   5.402  0.5804  0.2498 -0.1737
10945SOL     OW34275   3.601   7.674   5.242  0.0193  0.3974  0.1721
10945SOL    HW134276   3.588   7.716   5.157  0.5872 -0.3301 -0.2916
10945SOL    HW234277   3.529   7.707   5.296 -0.6057  0.5466 -0.7153
10946SOL     OW34278   2.077   5.786   6.041 -0.0789  0.2757  0.0129
10946SOL    HW134279   2.019   5.824   6.108  0.4231  1.1647 -0.0371
10946SOL    HW234280   2.162   5.779   6.085 -0.0218 -0.2421 -0.1753
10947SOL     OW34281   2.125   6.078   6.301 -0.6551 -0.0927  0.3439
10947SOL    HW134282   2.041   6.080   6.255 -1.1154 -0.0208  1.1730
10947SOL    HW234283   2.155   5.987   6.291 -1.0982 -0.2605  0.5173
10948SOL     OW34284   2.254   6.296   7.043  0.3572 -0.0531 -0.9830
10948SOL    HW134285   2.211   6.211   7.045  1.0961 -0.4484  1.3850
10948SOL    HW234286   2.183   6.360   7.052  0.0152 -0.5901  0.4014
10949SOL     OW34287   3.081   6.126   7.930 -0.1207 -0.0854  0.4309
10949SOL    HW134288   3.144   6.142   7.859  0.5569 -0.0321  1.0346
10949SOL    HW234289   3.034   6.209   7.940  0.3584  0.1673  0.6019
10950SOL     OW34290   1.611   6.277   6.185 -0.0674 -0.4252 -0.1889
10950SOL    HW134291   1.570   6.205   6.232  0.7011 -0.9520 -0.3078
10950SOL    HW234292   1.538   6.332   6.157 -0.4994  0.6568  2.7593
10951SOL     OW34293   0.692   5.950   4.200  0.7004 -0.2279 -0.6628
10951SOL    HW134294   0.648   5.970   4.283  1.6041  2.6447 -0.7696
10951SOL    HW234295   0.620   5.937   4.138  0.0055 -0.0581  0.0853
10952SOL     OW34296   3.772   7.918   6.858  0.5469 -0.4192 -0.6826
10952SOL    HW134297   3.785   8.012   6.870  0.1142 -0.5267  0.8717
10952SOL    HW234298   3.834   7.877   6.919  0.3207 -1.1225 -0.9139
10953SOL     OW34299   2.335   5.125   6.912 -0.5029 -0.0290  0.3234
10953SOL    HW134300   2.303   5.208   6.949  0.5246  0.0242  1.1194
10953SOL    HW234301   2.294   5.057   6.966  1.3070  0.0553  1.8902
10954SOL     OW34302   3.053   5.985   8.468 -0.2599 -0.4268  0.6308
10954SOL    HW134303   3.114   5.921   8.432  1.3897  1.2138  0.3352
10954SOL    HW234304   3.013   5.942   8.543  0.2248 -2.0366 -0.0038
10955SOL     OW34305   3.155   6.617   7.849 -0.5200  0.6288  0.4673
10955SOL    HW134306   3.184   6.529   7.825 -2.0608 -0.0683  1.0423
10955SOL    HW234307   3.232   6.672   7.833  0.3742 -0.7485 -0.2312
10956SOL     OW34308   3.321   6.556   6.438 -0.3849 -0.0342 -0.2915
10956SOL    HW134309   3.359   6.544   6.351  0.0376  2.6600 -0.5644
10956SOL    HW234310   3.227   6.562   6.422 -0.5204 -1.7210 -0.2508
10957SOL     OW34311   3.083   5.340   6.927  0.2842  0.6242 -0.2652
10957SOL    HW134312   3.155   5.317   6.985 -1.6542 -0.4582  1.8762
10957SOL    HW234313   3.106   5.300   6.843  2.1418  0.3446  0.3366
10958SOL     OW34314   4.375   5.493   6.144 -0.4969 -0.0035 -0.6890
10958SOL    HW134315   4.429   5.417   6.121  0.3226 -0.0346  1.1797
10958SOL    HW234316   4.431   5.545   6.201 -1.6443  1.1762 -0.6073
10959SOL     OW34317   2.415   0.745   7.379  0.1682 -0.5272 -0.4954
10959SOL    HW134318   2.347   0.772   7.318 -0.2419 -0.5962 -0.0719
10959SOL    HW234319   2.496   0.784   7.345 -0.5831  2.4913  0.8847
10960SOL     OW34320   2.874   6.068   7.175  0.3104 -0.1126  0.4145
10960SOL    HW134321   2.944   6.004   7.163  1.2529  0.5806  1.9697
10960SOL    HW234322   2.893   6.136   7.110 -0.6305 -1.2817 -1.1659
10961SOL     OW34323   4.203   6.657   9.082  0.0709  0.0626 -0.1146
10961SOL    HW134324   4.213   6.569   9.117  0.8293 -0.0383 -0.5676
10961SOL    HW234325   4.292   6.692   9.079 -0.4263  1.8383  2.5583
10962SOL     OW34326   3.380   5.602   6.387 -0.2547  0.0742  0.3304
10962SOL    HW134327   3.423   5.534   6.335 -0.1580 -0.4885  1.1439
10962SOL    HW234328   3.369   5.675   6.325 -0.8057 -0.8437 -0.6844
10963SOL     OW34329   1.285   6.554   6.959 -0.2597 -0.3221  0.3165
10963SOL    HW134330   1.305   6.472   6.915  0.4121 -0.5222  0.9687
10963SOL    HW234331   1.337   6.551   7.040 -0.5277  0.5682  0.5343
10964SOL     OW34332   4.550   6.289   7.081  0.4011  0.3898 -0.2598
10964SOL    HW134333   4.458   6.263   7.071  0.5192 -0.3057  0.4182
10964SOL    HW234334   4.596   6.207   7.099  0.8599  0.9635  1.3351
10965SOL     OW34335   4.021   7.738   4.046  0.2889  0.3332  0.1353
10965SOL    HW134336   4.086   7.766   4.110  0.5148  2.9932 -1.1219
10965SOL    HW234337   3.945   7.794   4.062 -0.5539 -0.6171 -0.3928
10966SOL     OW34338   3.780   2.091   8.650  0.2162 -0.2699 -0.7811
10966SOL    HW134339   3.849   2.027   8.631 -0.2356 -0.4131 -1.9965
10966SOL    HW234340   3.806   2.169   8.601  0.2317  0.1455 -0.1211
10967SOL     OW34341   1.806   1.177   7.103 -0.3354  0.1582 -0.1515
10967SOL    HW134342   1.899   1.154   7.093 -0.6220 -1.0461 -0.2465
10967SOL    HW234343   1.778   1.130   7.181 -1.3433 -1.1360 -1.2456
10968SOL     OW34344   1.906   5.888   5.284  0.3426 -0.3257  1.1102
10968SOL    HW134345   1.924   5.803   5.242 -0.9506  0.2253 -0.6689
10968SOL    HW234346   1.988   5.935   5.278  0.4443 -0.6113 -0.0307
10969SOL     OW34347   2.305   0.820   6.728  0.1722 -0.4733  0.6768
10969SOL    HW134348   2.322   0.752   6.793  1.6895 -1.0815 -0.3098
10969SOL    HW234349   2.275   0.772   6.651  1.7950 -0.1219 -0.2145
10970SOL     OW34350   2.665   5.340   6.485 -0.1505 -0.3292 -0.1908
10970SOL    HW134351   2.754   5.355   6.450  0.8593 -1.8701  1.5533
10970SOL    HW234352   2.648   5.248   6.468 -0.9830 -0.2991  0.4624
10971SOL     OW34353   3.047   7.829   6.530 -0.3581  0.0459  0.0812
10971SOL    HW134354   3.105   7.795   6.598 -0.6265 -0.1892  0.1907
10971SOL    HW234355   3.099   7.825   6.450  0.4906  1.6892  0.5024
10972SOL     OW34356   3.229   7.746   7.295  0.1124 -0.2632 -0.6539
10972SOL    HW134357   3.175   7.774   7.221 -1.1329  0.9289  0.6421
10972SOL    HW234358   3.175   7.763   7.372  1.4620 -1.2361  0.5606
10973SOL     OW34359   4.287   5.218   5.894  0.1844 -0.0988  0.6751
10973SOL    HW134360   4.320   5.161   5.823 -2.6909  0.3268 -1.1651
10973SOL    HW234361   4.233   5.160   5.948 -0.2646  0.2265  0.5833
10974SOL     OW34362   2.605   6.549   5.497  0.2159  0.7807  0.2412
10974SOL    HW134363   2.546   6.522   5.567 -0.1310  1.8576  0.3906
10974SOL    HW234364   2.684   6.578   5.542  0.2131  0.9260  0.1534
10975SOL     OW34365   3.599   7.281   4.810 -0.1870  0.1886  0.0882
10975SOL    HW134366   3.609   7.193   4.848  0.5283  0.6826  1.1046
10975SOL    HW234367   3.504   7.294   4.806 -0.3031 -0.0491  1.3760
10976SOL     OW34368   2.454   7.596   7.500  0.1491 -0.2547  0.3613
10976SOL    HW134369   2.541   7.556   7.492  0.3574  0.4611 -1.4986
10976SOL    HW234370   2.459   7.648   7.580  1.6519  0.2337 -0.0132
10977SOL     OW34371   3.361   5.652   7.670 -0.4941 -0.0262 -0.0954
10977SOL    HW134372   3.307   5.680   7.744  0.2475  0.3018  0.3390
10977SOL    HW234373   3.306   5.591   7.621 -1.3414  0.4933  0.1877
10978SOL     OW34374   3.885   0.456   5.022  0.2284  0.2297  0.1572
10978SOL    HW134375   3.916   0.546   5.028  1.4720 -0.2738  2.0023
10978SOL    HW234376   3.961   0.407   4.990 -0.1293 -0.3071  0.1188
10979SOL     OW34377   1.248   5.524   6.525  0.5649  0.2727  0.9700
10979SOL    HW134378   1.326   5.476   6.495  1.0147  1.3977  0.3107
10979SOL    HW234379   1.229   5.586   6.455  0.1897  1.2832  1.9417
10980SOL     OW34380   3.800   5.992   5.347  0.1184  0.1553 -0.5285
10980SOL    HW134381   3.765   6.075   5.377 -1.1347 -0.4811 -0.1561
10980SOL    HW234382   3.723   5.943   5.318  0.6186 -1.4499  0.6938
10981SOL     OW34383   3.275   2.228   4.417  0.2674 -0.4815 -0.4902
10981SOL    HW134384   3.276   2.177   4.497  2.9463 -0.3010 -0.2943
10981SOL    HW234385   3.338   2.299   4.433 -0.1798  0.3832 -2.2485
10982SOL     OW34386   2.766   6.917   7.595 -0.1083 -0.2055 -0.5813
10982SOL    HW134387   2.696   6.852   7.589 -1.7790  1.4317  0.0537
10982SOL    HW234388   2.727   6.998   7.562  0.4606  1.4811  2.4870
10983SOL     OW34389   3.097   7.907   5.794 -0.5434 -0.4357 -0.9518
10983SOL    HW134390   3.026   7.848   5.819 -0.1277 -1.2751 -1.6859
10983SOL    HW234391   3.137   7.933   5.877 -0.8386 -1.0623 -0.6052
10984SOL     OW34392   4.183   5.392   7.262 -0.2670 -0.1325  0.0777
10984SOL    HW134393   4.207   5.418   7.351  1.1595 -1.1541  0.0301
10984SOL    HW234394   4.088   5.400   7.260 -0.5743 -1.9200  2.3455
10985SOL     OW34395   3.298   5.097   7.367 -0.0993 -0.2409 -0.5396
10985SOL    HW134396   3.206   5.080   7.388  0.0387 -0.3556 -0.0287
10985SOL    HW234397   3.325   5.021   7.315 -1.0271  0.9895 -3.0188
10986SOL     OW34398   2.092   7.005   6.800  0.4923 -0.1255  0.1637
10986SOL    HW134399   2.025   6.957   6.751 -0.3227  0.4618  0.6787
10986SOL    HW234400   2.112   6.948   6.875 -1.3075  0.7733  1.4092
10987SOL     OW34401   2.634   7.146   7.763 -0.2946 -0.0554 -0.0705
10987SOL    HW134402   2.728   7.128   7.775  0.0978  0.9473 -1.3079
10987SOL    HW234403   2.626   7.164   7.669 -1.6449  0.3534  0.1096
10988SOL     OW34404   3.717   5.468   6.638  0.2602 -0.0504 -1.1381
10988SOL    HW134405   3.642   5.411   6.620  0.5800 -0.2699 -1.8117
10988SOL    HW234406   3.793   5.419   6.606  0.8271 -0.3029  0.5264
10989SOL     OW34407   3.222   5.314   7.176 -0.3259 -0.1621  0.4230
10989SOL    HW134408   3.268   5.397   7.164 -1.4737  0.4896  0.3510
10989SOL    HW234409   3.290   5.252   7.203  1.4800 -0.3646 -3.7046
10990SOL     OW34410   3.384   6.054   6.713 -0.0116  0.9833 -0.5800
10990SOL    HW134411   3.455   6.040   6.651 -1.2405  0.5714 -1.9469
10990SOL    HW234412   3.364   6.147   6.707  1.3043  1.4001  0.8573
10991SOL     OW34413   4.775   6.286   7.369 -0.7938 -0.6801 -0.1413
10991SOL    HW134414   4.796   6.263   7.460 -0.1210  0.1685 -0.0788
10991SOL    HW234415   4.723   6.366   7.376  0.2447  0.0373 -0.5621
10992SOL     OW34416   3.342   7.869   4.901  0.2934 -0.4389  0.1214
10992SOL    HW134417   3.388   7.853   4.819  0.9796  1.1897  0.1672
10992SOL    HW234418   3.314   7.782   4.930  2.3707 -1.3479 -0.4632
10993SOL     OW34419   3.209   0.070   4.823 -0.0321  0.4331 -0.1093
10993SOL    HW134420   3.282   0.015   4.850 -1.5285 -1.5646  0.0843
10993SOL    HW234421   3.142   0.009   4.794 -1.4859  2.2093 -0.6974
10994SOL     OW34422   1.396   6.346   8.029  0.1218 -0.1971 -0.3152
10994SOL    HW134423   1.443   6.292   7.965 -0.2541 -0.1856 -0.6075
10994SOL    HW234424   1.325   6.289   8.060 -1.0121  0.5059 -1.5078
10995SOL     OW34425   4.070   0.279   3.778 -0.9521  0.0949  0.0533
10995SOL    HW134426   4.115   0.357   3.809 -1.0425 -0.0975  0.6827
10995SOL    HW234427   4.136   0.209   3.785 -1.3051 -0.1707  0.9002
10996SOL     OW34428   3.923   7.130   7.217 -0.7143 -0.8245 -0.1925
10996SOL    HW134429   3.880   7.213   7.192 -1.4824 -0.4840  2.0451
10996SOL    HW234430   3.997   7.157   7.271 -0.7243 -1.5983  0.2108
10997SOL     OW34431   3.578   5.451   7.692  0.1996 -0.0571  0.6463
10997SOL    HW134432   3.488   5.484   7.687  0.3189  0.4912  1.8609
10997SOL    HW234433   3.616   5.476   7.607 -0.7268 -0.1236  0.1910
10998SOL     OW34434   2.567   7.403   7.187 -0.1355 -0.4596  0.6808
10998SOL    HW134435   2.647   7.381   7.140  0.1401 -0.2738  1.0621
10998SOL    HW234436   2.595   7.461   7.258 -0.8754  1.3636 -0.4470
10999SOL     OW34437   4.183   6.587   6.902  0.1905 -0.6291 -0.2766
10999SOL    HW134438   4.140   6.612   6.820  0.0385 -1.4230 -0.4516
10999SOL    HW234439   4.160   6.494   6.913 -1.5962 -0.0252  1.7654
11000SOL     OW34440   3.519   5.273   6.576  0.6179 -0.3626 -0.0182
11000SOL    HW134441   3.471   5.219   6.513 -0.8447  0.5702  0.2570
11000SOL    HW234442   3.555   5.210   6.638 -0.9010 -1.0736  0.1931
11001SOL     OW34443   1.249   5.936   6.995  0.3448 -0.2043 -0.1038
11001SOL    HW134444   1.209   5.855   7.026 -0.7922  0.2153 -0.4331
11001SOL    HW234445   1.335   5.910   6.963 -0.0432 -1.3010 -0.2892
11002SOL     OW34446   3.473   5.690   8.472 -0.2831  0.6917  0.1823
11002SOL    HW134447   3.431   5.616   8.514  1.4390 -0.0389  0.6961
11002SOL    HW234448   3.451   5.681   8.379 -1.7206  0.6942  0.4991
11003SOL     OW34449   3.173   6.846   6.094 -0.1893  0.2463 -0.6497
11003SOL    HW134450   3.114   6.771   6.107 -0.3946  0.3953 -0.7155
11003SOL    HW234451   3.253   6.822   6.140  0.1835 -0.5304 -1.6675
11004SOL     OW34452   4.629   7.846   6.091  0.3667  0.3501  0.2802
11004SOL    HW134453   4.570   7.827   6.165 -1.1578 -0.8149 -1.1565
11004SOL    HW234454   4.693   7.775   6.092 -0.3892 -0.3556 -0.2126
11005SOL     OW34455   2.579   7.601   6.293  0.3641 -0.0844 -0.8299
11005SOL    HW134456   2.591   7.690   6.261 -0.9392  0.3813 -0.1275
11005SOL    HW234457   2.661   7.579   6.337  0.8599  0.5869 -1.4028
11006SOL     OW34458   2.725   5.864   4.563  0.9502  0.0626 -0.0403
11006SOL    HW134459   2.698   5.820   4.482  0.3406 -1.4335  0.9440
11006SOL    HW234460   2.799   5.919   4.536  0.9534 -0.6239 -1.5584
11007SOL     OW34461   3.579   7.466   5.555  0.2283  0.5895 -0.1459
11007SOL    HW134462   3.629   7.435   5.479  0.2294 -0.4807  0.2701
11007SOL    HW234463   3.630   7.436   5.630 -0.0741  1.1402  0.2810
11008SOL     OW34464   1.977   6.292  10.171 -0.3762 -1.1057 -0.5142
11008SOL    HW134465   2.053   6.235  10.185 -1.0586 -2.2872 -1.3525
11008SOL    HW234466   1.998   6.341  10.092 -0.0218 -0.6099 -0.1131
11009SOL     OW34467   7.191   7.542   6.203  0.3269  0.6078 -0.5800
11009SOL    HW134468   7.263   7.599   6.177  0.6297  0.5932  0.2189
11009SOL    HW234469   7.203   7.462   6.151 -0.2131  1.3236 -1.8499
11010SOL     OW34470   3.437   6.203   8.100 -0.3750  0.2415  0.3154
11010SOL    HW134471   3.434   6.159   8.016 -0.5295  0.0250  0.4334
11010SOL    HW234472   3.504   6.271   8.090  0.3428 -0.4563  0.3462
11011SOL     OW34473   1.508   4.452   7.211  0.5207  0.7049  0.8785
11011SOL    HW134474   1.427   4.454   7.263  0.2879 -0.3472  0.5913
11011SOL    HW234475   1.561   4.384   7.252 -0.3425 -1.3306 -1.1676
11012SOL     OW34476   1.672   5.654   6.131 -0.3805  0.3559  0.2790
11012SOL    HW134477   1.736   5.641   6.061 -0.8189 -2.4828  0.3142
11012SOL    HW234478   1.592   5.682   6.085 -0.0209  0.8121 -0.0805
11013SOL     OW34479   5.725   7.628   6.609  0.2719  0.3541  0.2986
11013SOL    HW134480   5.745   7.707   6.559 -1.6729  1.0958  0.5980
11013SOL    HW234481   5.707   7.561   6.543  0.3595  0.5991  0.0269
11014SOL     OW34482   3.421   7.121   7.048  0.1461 -0.6551 -0.0908
11014SOL    HW134483   3.386   7.055   7.107  1.6398 -3.3649 -2.0404
11014SOL    HW234484   3.515   7.123   7.066  0.7424 -1.9600 -2.5959
11015SOL     OW34485   2.657   0.983   5.227  0.4828  0.1653  0.1231
11015SOL    HW134486   2.685   0.930   5.152  0.1145 -2.6416  1.8146
11015SOL    HW234487   2.705   1.066   5.217  0.6279 -0.1719 -3.0150
11016SOL     OW34488   3.972   7.138   5.899 -0.3466 -0.5391 -0.1041
11016SOL    HW134489   4.001   7.077   5.968  2.9043  1.4781  0.5351
11016SOL    HW234490   3.944   7.216   5.946 -1.6532 -0.4479 -0.9967
11017SOL     OW34491   3.268   5.160   5.648  0.4496 -0.9434  0.5689
11017SOL    HW134492   3.230   5.131   5.732 -0.6413  0.4353  0.5853
11017SOL    HW234493   3.251   5.087   5.589 -0.1042 -1.3376  1.1856
11018SOL     OW34494   3.060   6.639   6.219  0.1859 -0.8024  0.6115
11018SOL    HW134495   3.091   6.665   6.306 -2.0885 -1.8928  1.8419
11018SOL    HW234496   2.965   6.632   6.229 -0.2836  0.1183 -2.2913
11019SOL     OW34497   3.775   0.558   9.317 -0.1003 -0.1374  0.7546
11019SOL    HW134498   3.718   0.481   9.310 -1.0575  0.6024  0.0906
11019SOL    HW234499   3.759   0.590   9.406 -0.6426 -0.0067  0.6163
11020SOL     OW34500   3.722   6.924   6.004  0.1195  0.0567  0.4903
11020SOL    HW134501   3.766   6.954   6.083  0.4482 -0.9651  0.7152
11020SOL    HW234502   3.790   6.925   5.936 -0.8429  4.0347 -0.7032
11021SOL     OW34503   1.512   5.946   6.951 -0.2733  0.2049 -0.3737
11021SOL    HW134504   1.601   5.926   6.981  0.2206 -0.0479 -1.9007
11021SOL    HW234505   1.487   6.024   7.001 -0.6679 -1.7512  2.7698
11022SOL     OW34506   3.620   6.891   8.205  0.1290 -0.1332 -0.3602
11022SOL    HW134507   3.550   6.952   8.180 -0.8970 -1.5984 -1.2537
11022SOL    HW234508   3.682   6.944   8.255 -2.5318  0.9011  2.1634
11023SOL     OW34509   2.805   6.653   6.288  0.5282 -0.2129  0.0792
11023SOL    HW134510   2.766   6.577   6.331 -1.8925 -0.0165 -1.5948
11023SOL    HW234511   2.777   6.728   6.340 -1.7345 -0.0511 -1.2305
11024SOL     OW34512   2.223   7.517   5.407 -0.0450 -0.0113  0.4601
11024SOL    HW134513   2.285   7.447   5.387 -0.9465 -0.5941 -0.3804
11024SOL    HW234514   2.240   7.539   5.499 -0.4605 -2.0561  1.0704
11025SOL     OW34515   1.722   5.850   6.547 -0.0280  0.6829 -0.4306
11025SOL    HW134516   1.792   5.799   6.507 -1.2043 -3.3070  2.0992
11025SOL    HW234517   1.650   5.846   6.483  0.2923  0.1594 -0.7629
11026SOL     OW34518   1.863   6.366   8.378 -0.4408 -0.3896 -0.5081
11026SOL    HW134519   1.881   6.432   8.444 -1.2333 -0.3213 -0.3471
11026SOL    HW234520   1.805   6.303   8.421  0.9600 -1.6459 -0.4101
11027SOL     OW34521   1.585   3.140   9.742 -0.1651  0.4485  0.7608
11027SOL    HW134522   1.587   3.229   9.779 -0.3611  0.3600  0.9896
11027SOL    HW234523   1.664   3.098   9.777  0.1732  0.6763  0.2830
11028SOL     OW34524   2.792   6.548   7.968  0.0381 -0.0454  0.3412
11028SOL    HW134525   2.808   6.611   7.898  0.5513 -0.4943  0.0505
11028SOL    HW234526   2.805   6.599   8.049 -0.3158  0.4113  0.1123
11029SOL     OW34527   3.395   7.718   8.121 -0.0073  0.4584  0.4383
11029SOL    HW134528   3.327   7.743   8.059  1.1173  4.0544  0.4244
11029SOL    HW234529   3.447   7.652   8.075 -0.2123  1.7556 -1.7993
11030SOL     OW34530   3.510   4.158  10.361  0.0080  0.3922  0.7448
11030SOL    HW134531   3.494   4.080  10.414 -0.9359  0.9938  1.3692
11030SOL    HW234532   3.579   4.206  10.407  1.7325 -0.7909 -0.4496
11031SOL     OW34533   3.211   5.796   7.852 -0.7809 -0.2063  0.1194
11031SOL    HW134534   3.191   5.840   7.934  1.4891  0.1341  0.5539
11031SOL    HW234535   3.131   5.805   7.800 -1.8399  0.6522  1.7992
11032SOL     OW34536   2.223   6.583  10.371  0.1618 -0.0897  0.4465
11032SOL    HW134537   2.283   6.622  10.307 -0.3137  0.3519  0.2656
11032SOL    HW234538   2.137   6.619  10.349 -0.3108 -1.3188  0.2097
11033SOL     OW34539   1.464   7.835   9.223 -0.1302 -0.1454  0.4025
11033SOL    HW134540   1.381   7.800   9.254 -0.4693 -0.9535 -1.2867
11033SOL    HW234541   1.515   7.757   9.198  0.4376  0.4138 -0.2221
11034SOL     OW34542   3.665   7.637   7.282 -0.3239  0.3311  0.5783
11034SOL    HW134543   3.611   7.671   7.210 -1.0136 -1.1403  0.3650
11034SOL    HW234544   3.607   7.638   7.358  0.1181  1.0208  0.9101
11035SOL     OW34545   3.374   6.075  10.462 -0.2160  0.4847  0.3849
11035SOL    HW134546   3.406   6.164  10.476 -2.1265  1.3483 -0.3715
11035SOL    HW234547   3.381   6.062  10.368 -1.6473  0.5606  0.2516
11036SOL     OW34548   3.096   0.010   8.045 -0.1337  0.3055 -0.1707
11036SOL    HW134549   3.174   0.046   8.088  0.5057 -1.8439  0.5928
11036SOL    HW234550   3.024   0.037   8.102  0.2724  0.6553  0.1932
11037SOL     OW34551   1.638   7.198   8.765 -0.4373  0.8904 -0.1003
11037SOL    HW134552   1.679   7.125   8.718  1.0284  0.9561  1.0042
11037SOL    HW234553   1.549   7.201   8.731 -0.2635 -0.8493 -0.8190
11038SOL     OW34554   1.557   4.751   9.720  0.5711 -0.7321  0.2403
11038SOL    HW134555   1.600   4.734   9.636 -1.4407 -0.2935 -0.9492
11038SOL    HW234556   1.526   4.666   9.749  0.6607 -0.7795  0.1966
11039SOL     OW34557   2.592   5.376   8.956 -0.4414 -0.1394  0.1339
11039SOL    HW134558   2.668   5.341   9.002  1.3057  1.4373 -1.3536
11039SOL    HW234559   2.584   5.322   8.877  1.4033  1.7298 -1.4640
11040SOL     OW34560   2.199   7.011   7.817 -0.1374  0.7886 -0.2825
11040SOL    HW134561   2.171   7.056   7.897 -0.9263  0.5099 -0.3972
11040SOL    HW234562   2.281   6.968   7.842 -1.5939 -1.3681  1.1553
11041SOL     OW34563   2.201   7.661   7.991  0.1524  0.1448 -0.3006
11041SOL    HW134564   2.121   7.706   8.016  0.2004  0.5291 -0.8280
11041SOL    HW234565   2.250   7.725   7.940  0.1700 -0.5395 -1.1763
11042SOL     OW34566   1.311   7.333   8.260 -0.5838 -0.0057 -0.1185
11042SOL    HW134567   1.256   7.317   8.336 -1.5514  0.2041 -0.7578
11042SOL    HW234568   1.315   7.429   8.253  0.8276  0.0162  0.5882
11043SOL     OW34569   2.455   6.919   7.844  0.1732 -0.0609  0.0767
11043SOL    HW134570   2.495   6.930   7.931 -0.0227  1.8597 -0.0227
11043SOL    HW234571   2.495   6.988   7.791 -0.6663 -0.3769 -0.9955
11044SOL     OW34572   2.617   0.654   9.293  0.2333  0.4421  0.3037
11044SOL    HW134573   2.701   0.620   9.262 -0.1889  0.8154 -1.3814
11044SOL    HW234574   2.630   0.748   9.304 -0.6453  1.0659 -2.8653
11045SOL     OW34575   2.983   7.212   7.463  0.3964 -0.4257 -0.0225
11045SOL    HW134576   2.939   7.155   7.527  2.0257 -2.0649 -0.2609
11045SOL    HW234577   3.058   7.247   7.511  0.7487 -0.4125 -0.5782
11046SOL     OW34578   4.276   6.123   8.572 -0.6031  0.2512  0.0877
11046SOL    HW134579   4.314   6.125   8.484 -1.3870 -0.2270 -0.2794
11046SOL    HW234580   4.184   6.146   8.559 -1.0967 -1.3122  0.5585
11047SOL     OW34581   2.813   6.889   8.035  0.2093  0.0611  0.0284
11047SOL    HW134582   2.792   6.797   8.051 -0.6499  0.1176 -0.7096
11047SOL    HW234583   2.733   6.936   8.057  1.0906  0.8060  1.7814
11048SOL     OW34584   4.258   7.712   7.151  0.3108 -0.5248  0.0232
11048SOL    HW134585   4.173   7.683   7.185  0.3856 -0.8495 -0.0642
11048SOL    HW234586   4.253   7.808   7.153 -0.4911 -0.5216 -1.0502
11049SOL     OW34587   2.569   7.429   8.582 -0.4120 -0.3428  0.2064
11049SOL    HW134588   2.475   7.443   8.592 -0.6880 -2.1493  0.3964
11049SOL    HW234589   2.590   7.468   8.497 -1.3164  0.0964  0.1700
11050SOL     OW34590   3.990   5.934   6.887 -0.3246  0.1375  0.4876
11050SOL    HW134591   4.037   6.004   6.843 -0.0861  0.8740  1.8617
11050SOL    HW234592   4.054   5.863   6.895 -0.4842 -0.1618 -0.6502
11051SOL     OW34593   3.669   0.185   9.411  0.5687  0.1284  0.5416
11051SOL    HW134594   3.625   0.269   9.423  1.4053  0.3544  2.2715
11051SOL    HW234595   3.600   0.120   9.424  0.2523  0.5174  0.8367
11052SOL     OW34596   0.508   6.426   9.807 -0.0178  0.9505 -0.2382
11052SOL    HW134597   0.455   6.346   9.810  0.1641  0.8396  0.1206
11052SOL    HW234598   0.456   6.487   9.755  0.4926  0.1320 -1.7988
11053SOL     OW34599   3.570   0.321  11.478 -0.2183  0.0629  0.4987
11053SOL    HW134600   3.637   0.268  11.435  0.2622  1.6160 -0.7976
11053SOL    HW234601   3.487   0.286  11.446  0.0753 -0.1502 -0.0358
11054SOL     OW34602   1.768   6.880   7.479  0.2675 -0.1452 -0.1618
11054SOL    HW134603   1.673   6.882   7.469  0.0916 -1.3009  1.0268
11054SOL    HW234604   1.798   6.818   7.413  0.1119 -0.3665 -0.0268
11055SOL     OW34605   3.023   5.418   7.880 -0.2801 -0.0152 -0.4690
11055SOL    HW134606   2.993   5.503   7.914 -0.6247 -0.2084 -0.2848
11055SOL    HW234607   3.114   5.434   7.854 -0.6893  0.7312 -1.5374
11056SOL     OW34608   1.294   6.907   8.448  0.0975 -0.2073  0.4875
11056SOL    HW134609   1.372   6.949   8.412  0.7802 -0.4548  1.6412
11056SOL    HW234610   1.322   6.873   8.533 -0.7622 -1.9452  0.1202
11057SOL     OW34611   4.522   7.246   5.820 -0.0860 -0.4183  0.3560
11057SOL    HW134612   4.470   7.181   5.773  1.5624 -1.2167 -0.4578
11057SOL    HW234613   4.502   7.329   5.777 -0.8664 -0.6688  0.2231
11058SOL     OW34614   1.970   7.148   7.738  0.1425 -0.8015 -0.1038
11058SOL    HW134615   1.912   7.134   7.813  0.7409 -0.3557  0.4495
11058SOL    HW234616   2.059   7.142   7.775  0.4378 -0.3357 -0.7263
11059SOL     OW34617   2.106   0.645   9.567 -0.0231 -0.0970 -0.4889
11059SOL    HW134618   2.061   0.676   9.489  0.3611  0.6751 -0.4128
11059SOL    HW234619   2.195   0.627   9.539  0.1276  0.2185 -0.2285
11060SOL     OW34620   4.754   6.737   9.329 -0.1054  0.0433  0.1065
11060SOL    HW134621   4.665   6.703   9.331 -1.5566  3.3796 -0.5858
11060SOL    HW234622   4.792   6.702   9.248 -0.7597 -1.4216  0.4171
11061SOL     OW34623   5.359   6.335   7.602  0.1530 -0.8510  0.0347
11061SOL    HW134624   5.272   6.372   7.617  0.8558  0.5446  0.7328
11061SOL    HW234625   5.356   6.305   7.511 -0.9000 -0.4221 -0.0876
11062SOL     OW34626   3.505   7.152   8.279  0.0018 -0.0242  0.5351
11062SOL    HW134627   3.484   7.139   8.371  0.0065 -0.4927  0.4711
11062SOL    HW234628   3.569   7.224   8.279 -0.6930  0.6022  0.8194
11063SOL     OW34629   4.074   5.347   8.172  0.0903 -0.1807 -0.1458
11063SOL    HW134630   4.032   5.288   8.109  0.1304 -0.0674 -0.2779
11063SOL    HW234631   4.038   5.321   8.256 -0.5789  0.2104 -0.3076
11064SOL     OW34632   2.941   0.301   7.442 -0.3227  0.4632 -0.5763
11064SOL    HW134633   3.025   0.257   7.429 -0.1015  0.8544 -0.4852
11064SOL    HW234634   2.932   0.309   7.537 -0.5808  0.1953 -0.5781
11065SOL     OW34635   3.172   6.558   8.642  0.5988  0.3582 -0.1781
11065SOL    HW134636   3.179   6.501   8.719 -0.0770 -1.6476 -1.4982
11065SOL    HW234637   3.078   6.574   8.632  0.4487 -1.0350 -1.6026
11066SOL     OW34638   4.527   5.035   7.760  0.7260 -0.1249  0.2669
11066SOL    HW134639   4.542   5.100   7.692 -1.3537 -0.1121 -0.2475
11066SOL    HW234640   4.490   4.959   7.714 -1.9221  0.3365  1.4193
11067SOL     OW34641   2.099   5.752   9.600 -0.5622  0.1895 -0.2106
11067SOL    HW134642   2.124   5.727   9.511  0.1381 -0.2560  0.1044
11067SOL    HW234643   2.050   5.676   9.633  2.3688 -1.2936  1.0827
11068SOL     OW34644   2.879   4.858   7.936  0.2242 -0.1005  0.6621
11068SOL    HW134645   2.884   4.952   7.954 -3.6468  0.4761 -0.2943
11068SOL    HW234646   2.881   4.852   7.840 -0.8038 -0.8614  0.6755
11069SOL     OW34647   2.916   5.648   7.982 -0.4776  0.0805  0.3081
11069SOL    HW134648   2.896   5.736   7.948  0.5104 -0.1935 -1.1075
11069SOL    HW234649   2.844   5.628   8.041 -0.9959  1.6345  0.2544
11070SOL     OW34650   1.418   7.482   7.523 -0.0863  0.3718 -0.2007
11070SOL    HW134651   1.350   7.489   7.590  1.4937 -0.0564  1.5292
11070SOL    HW234652   1.485   7.426   7.562  0.1147 -1.4355 -2.8662
11071SOL     OW34653   2.774   7.455  11.370 -0.1619 -0.0700 -0.2649
11071SOL    HW134654   2.815   7.419  11.291 -1.0984 -1.4753 -0.1582
11071SOL    HW234655   2.712   7.387  11.398 -1.7438  1.4922  0.2125
11072SOL     OW34656   1.923   7.603   8.395 -0.0707 -0.7259  0.5659
11072SOL    HW134657   1.987   7.584   8.326 -0.1438  1.1500 -0.0804
11072SOL    HW234658   1.953   7.553   8.470  2.7397  0.7404  0.5631
11073SOL     OW34659   2.904   5.108   9.414 -0.1324  0.2120  0.4673
11073SOL    HW134660   2.902   5.070   9.326 -1.4617 -0.2031  0.6489
11073SOL    HW234661   2.879   5.036   9.472  1.2924  0.3143  1.2786
11074SOL     OW34662   2.916   7.518   6.880  0.2215 -0.1955 -0.3011
11074SOL    HW134663   2.863   7.558   6.811  1.3988  4.0384  0.8813
11074SOL    HW234664   2.997   7.493   6.836 -1.0973 -2.9471 -1.3635
11075SOL     OW34665   1.270   5.731   7.622 -0.0322  0.4895  0.6214
11075SOL    HW134666   1.323   5.655   7.599 -0.8927  0.3961 -1.2004
11075SOL    HW234667   1.333   5.801   7.638  0.6996 -0.1028  0.3744
11076SOL     OW34668   2.044   6.628   5.582  0.2634  0.9321  0.6047
11076SOL    HW134669   2.020   6.660   5.495  0.7468  0.7076  0.3876
11076SOL    HW234670   2.118   6.682   5.607  0.6987  0.3907  0.4948
11077SOL     OW34671   0.831   7.257   8.901 -0.0768  0.1378 -0.2653
11077SOL    HW134672   0.755   7.314   8.911 -0.7118 -0.9215  1.4963
11077SOL    HW234673   0.803   7.188   8.841 -1.0343 -0.9703  1.3653
11078SOL     OW34674   3.529   5.999   8.980 -0.7775 -0.5666 -0.4301
11078SOL    HW134675   3.543   6.081   9.028  0.2418  1.3024 -3.6175
11078SOL    HW234676   3.597   5.941   9.013 -1.4442 -0.1661  1.8251
11079SOL     OW34677   2.066   7.379   9.971  0.3550  0.1262 -0.0599
11079SOL    HW134678   2.026   7.437   9.906 -0.2150 -0.2248 -0.0223
11079SOL    HW234679   2.000   7.370  10.039 -0.0818 -1.5904 -0.6723
11080SOL     OW34680   4.972   7.407   7.672 -0.0539 -0.2078 -0.2853
11080SOL    HW134681   4.905   7.347   7.705  0.9237 -0.8690  0.5419
11080SOL    HW234682   5.055   7.366   7.696  0.6651  0.4692 -1.5212
11081SOL     OW34683   3.303   5.408   7.859 -0.0686 -0.0476  0.1110
11081SOL    HW134684   3.379   5.435   7.911 -0.7201  1.5652  0.2820
11081SOL    HW234685   3.338   5.343   7.798  0.8790 -1.4529  2.0181
11082SOL     OW34686   2.556   7.002   8.099 -0.3323  0.6244 -0.3446
11082SOL    HW134687   2.509   6.993   8.182  0.1690  0.4979 -0.0746
11082SOL    HW234688   2.538   7.092   8.071 -1.6222  0.2544 -0.7865
11083SOL     OW34689   3.816   6.424   8.766  0.5789 -0.3407  0.0393
11083SOL    HW134690   3.817   6.361   8.838 -0.2887  0.2085  0.5527
11083SOL    HW234691   3.880   6.490   8.791  0.4603 -0.2830  0.1958
11084SOL     OW34692   2.865   5.280   8.963  0.3519  0.3463  0.3856
11084SOL    HW134693   2.933   5.213   8.968 -0.6550 -0.6235  1.3715
11084SOL    HW234694   2.897   5.350   9.020  0.2952 -0.3220  1.2461
11085SOL     OW34695   4.009   6.888   7.256  0.7397 -0.0693  0.2978
11085SOL    HW134696   3.975   6.977   7.247 -1.7439 -0.9265  0.4993
11085SOL    HW234697   3.991   6.846   7.172  3.2278 -0.0360 -0.3269
11086SOL     OW34698   1.596   7.820   7.633  0.2688  0.0372 -0.5761
11086SOL    HW134699   1.635   7.771   7.560  1.7977  0.2703  0.0349
11086SOL    HW234700   1.522   7.867   7.594  0.3250 -0.7667 -1.7107
11087SOL     OW34701   2.025   7.226   7.280 -0.0439 -0.6991  0.6121
11087SOL    HW134702   1.934   7.253   7.265 -0.3685 -2.3241 -0.6075
11087SOL    HW234703   2.055   7.284   7.351 -2.6320 -1.3489  2.4099
11088SOL     OW34704   1.110   6.185   8.791 -0.3489 -0.4376  0.1943
11088SOL    HW134705   1.053   6.166   8.717 -1.8440 -1.0063  1.4313
11088SOL    HW234706   1.055   6.234   8.852  1.4427  1.8450  0.0948
11089SOL     OW34707   2.087   6.385   9.934 -0.2883 -0.1957  0.2828
11089SOL    HW134708   2.139   6.464   9.938 -0.1065 -0.1748 -1.6216
11089SOL    HW234709   2.151   6.313   9.934 -0.3516 -0.2540  0.0496
11090SOL     OW34710   3.553   7.594   9.523  0.3749  0.0810 -0.2594
11090SOL    HW134711   3.645   7.575   9.536  0.6676  0.0684 -2.0993
11090SOL    HW234712   3.525   7.636   9.605  1.8206 -0.5290  0.5733
11091SOL     OW34713   2.288   5.754   8.320 -0.3590  0.5035  0.1930
11091SOL    HW134714   2.224   5.704   8.370 -0.0811  2.5041  2.7645
11091SOL    HW234715   2.277   5.844   8.350  3.0506  1.0822  0.1306
11092SOL     OW34716   1.862   4.050   8.833  0.1191 -0.4032 -0.7650
11092SOL    HW134717   1.925   3.996   8.881  0.2231  0.6805  0.3651
11092SOL    HW234718   1.788   3.991   8.817  1.1625 -1.5418 -1.6443
11093SOL     OW34719   1.782   0.361  10.102 -0.0403 -0.5937  0.1821
11093SOL    HW134720   1.735   0.334  10.023 -0.9566  0.8238  0.1982
11093SOL    HW234721   1.714   0.372  10.168  0.2023  1.6861  0.1585
11094SOL     OW34722   3.457   7.044  10.104 -0.4908  0.2312  0.0097
11094SOL    HW134723   3.506   7.125  10.093  0.9154 -0.6378 -0.3506
11094SOL    HW234724   3.480   6.991  10.028 -2.5100  0.0159 -0.5067
11095SOL     OW34725   1.307   6.901   9.670 -0.6093  0.2189 -0.5590
11095SOL    HW134726   1.262   6.825   9.633  0.8171 -0.5113 -0.8599
11095SOL    HW234727   1.238   6.952   9.711 -1.5259 -1.6034  0.2880
11096SOL     OW34728   2.247   5.727   8.885  0.3882 -0.0466  0.1803
11096SOL    HW134729   2.296   5.650   8.912  0.2961  0.4415  1.8366
11096SOL    HW234730   2.157   5.710   8.914  0.2450  0.4225  0.0187
11097SOL     OW34731   2.567   5.277   8.704 -0.0466 -0.6631 -0.3377
11097SOL    HW134732   2.582   5.201   8.648 -0.4537 -0.2799 -0.9765
11097SOL    HW234733   2.500   5.328   8.658  1.1747  0.7589 -0.5998
11098SOL     OW34734   4.320   7.017   6.730 -0.7014 -0.3959 -0.1011
11098SOL    HW134735   4.259   6.976   6.791 -1.9371  1.5388  0.0693
11098SOL    HW234736   4.271   7.091   6.693  0.8565 -0.0287 -1.5679
11099SOL     OW34737   3.281   5.813   6.765 -0.2572 -0.2681 -0.0796
11099SOL    HW134738   3.193   5.818   6.801  0.6295  0.4916  2.1566
11099SOL    HW234739   3.299   5.902   6.735 -0.0441 -0.2858 -0.0036
11100SOL     OW34740   4.594   6.024   8.380 -0.0961 -0.4475  0.4391
11100SOL    HW134741   4.581   6.047   8.288  1.5856 -1.6626 -0.1346
11100SOL    HW234742   4.586   6.108   8.426  2.0409  0.7198 -1.1499
11101SOL     OW34743   3.687   4.319  11.091  0.2017  0.2120 -0.9154
11101SOL    HW134744   3.768   4.269  11.100  0.2683 -0.0310 -2.5313
11101SOL    HW234745   3.696   4.362  11.006 -0.7791  1.2828 -0.4914
11102SOL     OW34746   4.116   7.310   7.847  0.5857 -0.4176 -0.1103
11102SOL    HW134747   4.208   7.302   7.870  0.5640 -1.4101 -0.3545
11102SOL    HW234748   4.069   7.262   7.915  0.1803  0.6725  0.4106
11103SOL     OW34749   2.510   7.144   8.375  0.3286 -0.0216  0.2958
11103SOL    HW134750   2.570   7.213   8.346  2.1698 -3.0247 -4.1047
11103SOL    HW234751   2.560   7.092   8.438 -0.1476  1.0906  1.6439
11104SOL     OW34752   2.694   0.608   5.559  0.2453  0.2989 -0.3240
11104SOL    HW134753   2.734   0.688   5.593  0.6108 -0.3504  0.8288
11104SOL    HW234754   2.751   0.582   5.486 -0.5627  1.7180 -1.5325
11105SOL     OW34755   3.017   5.597   6.900  0.2750 -0.8909 -0.3253
11105SOL    HW134756   3.037   5.507   6.925  0.7237 -0.4279  1.0887
11105SOL    HW234757   2.972   5.590   6.816 -1.1174 -2.5535  0.4987
11106SOL     OW34758   3.644   7.490   9.054 -0.3147 -0.2582 -0.7948
11106SOL    HW134759   3.697   7.566   9.032 -0.4832  0.1602  0.1910
11106SOL    HW234760   3.700   7.415   9.033  0.5733  0.1736 -0.0549
11107SOL     OW34761   2.309   6.727   9.474 -0.4738 -0.5853  0.0769
11107SOL    HW134762   2.222   6.717   9.433 -0.5170  1.4054 -0.4225
11107SOL    HW234763   2.293   6.783   9.549  0.7655  2.5005 -1.7947
11108SOL     OW34764   3.213   4.948   8.543  0.3804  0.6538 -0.2745
11108SOL    HW134765   3.220   4.873   8.485 -0.0450  1.4776 -1.4132
11108SOL    HW234766   3.171   5.016   8.491 -0.7905  1.1635  1.2413
11109SOL     OW34767   3.122   6.247   8.495 -0.4994 -0.5799  0.3117
11109SOL    HW134768   3.103   6.155   8.475  0.9108 -0.3017 -3.0271
11109SOL    HW234769   3.036   6.286   8.512 -1.3174 -2.1901  0.0607
11110SOL     OW34770   3.615   5.445   9.250  0.2098 -0.4970 -0.5334
11110SOL    HW134771   3.676   5.389   9.202 -1.1052 -0.7496 -2.0135
11110SOL    HW234772   3.530   5.400   9.240 -0.1792 -0.3575  1.7522
11111SOL     OW34773   1.606   5.165   8.961 -0.1334  0.1947  0.2296
11111SOL    HW134774   1.645   5.080   8.942 -2.6637 -0.8171 -0.9196
11111SOL    HW234775   1.676   5.228   8.947  1.4363 -1.5815 -0.2710
11112SOL     OW34776   4.107   7.072  11.034 -0.0580 -0.0351 -0.8668
11112SOL    HW134777   4.130   7.099  10.945  0.5759  2.4417 -0.0263
11112SOL    HW234778   4.181   7.100  11.087  0.0050 -2.3145  0.3778
11113SOL     OW34779   2.839   0.682   7.007 -0.0943  0.2001  0.3974
11113SOL    HW134780   2.893   0.718   7.077  1.4817  0.4604 -0.8746
11113SOL    HW234781   2.864   0.589   7.003 -1.5503 -0.2735  1.3511
11114SOL     OW34782   3.186   5.807   9.051 -0.2766 -0.1268 -0.3425
11114SOL    HW134783   3.176   5.901   9.032  1.2874 -0.2436 -1.9597
11114SOL    HW234784   3.239   5.773   8.979 -1.0107 -2.3325  0.0763
11115SOL     OW34785   2.908   7.808   4.904 -0.0684 -0.5279  0.3189
11115SOL    HW134786   2.940   7.814   4.994 -1.7178 -0.1965  0.9256
11115SOL    HW234787   2.864   7.723   4.899 -1.5503  0.1946  0.4102
11116SOL     OW34788   4.719   7.302   6.979 -0.5314  0.0346  0.0121
11116SOL    HW134789   4.768   7.286   7.060  0.6250  0.4259 -0.5882
11116SOL    HW234790   4.667   7.381   6.998 -1.3227 -0.6622  0.8155
11117SOL     OW34791   6.054   7.385   9.556  0.3491  0.2084 -0.3415
11117SOL    HW134792   6.126   7.402   9.495  0.8382  0.8097  0.3900
11117SOL    HW234793   5.987   7.343   9.502  0.4048  1.5496 -1.5199
11118SOL     OW34794   3.001   7.509   9.816 -0.0948 -0.5712 -0.2144
11118SOL    HW134795   2.948   7.432   9.795 -0.8542 -0.8573  2.4572
11118SOL    HW234796   2.987   7.524   9.909  1.1158  2.0142 -0.3496
11119SOL     OW34797   3.644   7.808   8.280 -0.3918 -0.1372 -0.1903
11119SOL    HW134798   3.554   7.805   8.245 -1.0580  0.0993  1.3966
11119SOL    HW234799   3.647   7.888   8.331  0.2601 -0.8489  0.9346
11120SOL     OW34800   3.491   6.538   8.411  0.2737  0.4840  0.1664
11120SOL    HW134801   3.580   6.524   8.380  0.2279  1.5306 -0.4834
11120SOL    HW234802   3.459   6.614   8.361 -1.5056 -0.7649 -0.6887
11121SOL     OW34803   5.572   5.248   7.362  0.1686  0.5837 -1.0525
11121SOL    HW134804   5.589   5.219   7.272  1.0793 -1.4887 -0.2639
11121SOL    HW234805   5.494   5.198   7.388  0.7408  0.1126 -0.2325
11122SOL     OW34806   2.007   5.499   7.757  0.1515 -0.1513 -0.6067
11122SOL    HW134807   2.065   5.518   7.684 -0.1652 -0.0158 -0.8249
11122SOL    HW234808   1.976   5.585   7.786  0.9123 -0.1388  0.2130
11123SOL     OW34809   2.914   6.663   8.593 -0.0898 -0.1768  0.1201
11123SOL    HW134810   2.892   6.711   8.513 -1.4326 -1.7327 -0.4836
11123SOL    HW234811   2.917   6.731   8.661 -0.5647  0.9438 -0.9432
11124SOL     OW34812   4.512   6.504   7.997 -0.1660 -0.6546  0.2860
11124SOL    HW134813   4.475   6.581   7.952 -2.9516 -2.0962 -0.1052
11124SOL    HW234814   4.573   6.541   8.061 -0.2785  1.7716 -0.8699
11125SOL     OW34815   2.082   5.382   9.741 -0.5906 -0.2676  0.1348
11125SOL    HW134816   2.028   5.461   9.736  0.6285  0.6059  0.4892
11125SOL    HW234817   2.157   5.407   9.795  1.0496 -0.9428 -1.6947
11126SOL     OW34818   5.194   6.298   7.843  0.0126 -0.2768 -0.2621
11126SOL    HW134819   5.170   6.384   7.809 -0.1941 -0.5783 -0.8916
11126SOL    HW234820   5.124   6.276   7.904 -0.9418 -0.8261 -1.5321
11127SOL     OW34821   2.078   6.269   9.420  0.2103 -0.1334 -0.5039
11127SOL    HW134822   2.101   6.244   9.510 -0.5136 -0.8748 -0.5073
11127SOL    HW234823   1.994   6.226   9.405  0.6297 -0.5451 -1.7636
11128SOL     OW34824   1.786   6.587   7.705 -0.0658 -0.6487  0.4199
11128SOL    HW134825   1.795   6.537   7.787  0.4004  0.0254  0.7869
11128SOL    HW234826   1.814   6.676   7.728  0.8918 -0.6539 -0.6923
11129SOL     OW34827   2.673   5.812   9.363 -0.1149 -0.0158  0.1323
11129SOL    HW134828   2.713   5.775   9.442  0.7279 -0.5392 -0.5214
11129SOL    HW234829   2.585   5.773   9.360  0.8502 -2.2705 -0.6986
11130SOL     OW34830   3.110   5.671   8.182  0.0930  0.7517 -0.0722
11130SOL    HW134831   3.057   5.636   8.111  0.7139  2.1601 -1.2762
11130SOL    HW234832   3.121   5.764   8.161  0.1906  1.2468  1.9430
11131SOL     OW34833   3.307   6.772   7.519 -0.0963  0.2525 -0.2575
11131SOL    HW134834   3.364   6.782   7.595 -0.8241 -0.6684  0.4304
11131SOL    HW234835   3.225   6.813   7.545 -0.0922  0.6576 -0.8612
11132SOL     OW34836   3.897   5.794   6.466  0.7618  0.1643  0.2432
11132SOL    HW134837   3.843   5.777   6.544  1.0596 -1.2004  0.1692
11132SOL    HW234838   3.943   5.875   6.487  2.0372 -0.9735  2.1927
11133SOL     OW34839   1.395   0.318   9.640  0.4687  0.3891  0.0053
11133SOL    HW134840   1.444   0.236   9.644  0.6868  0.5287  0.1546
11133SOL    HW234841   1.317   0.296   9.588  0.1085 -0.1236  0.7421
11134SOL     OW34842   2.818   4.988   9.173 -0.3048 -0.0502 -0.0438
11134SOL    HW134843   2.906   4.954   9.160 -0.2292  0.8621 -2.3722
11134SOL    HW234844   2.762   4.911   9.181  0.6260 -0.6322  1.1580
11135SOL     OW34845   2.790   7.483  10.599 -0.6106  0.6386 -0.6172
11135SOL    HW134846   2.866   7.431  10.627 -0.3651 -0.2966 -2.8168
11135SOL    HW234847   2.809   7.572  10.630  0.1585 -0.0543  1.0436
11136SOL     OW34848   3.252   5.264   8.122 -0.2088  0.6883  0.5647
11136SOL    HW134849   3.305   5.344   8.121 -1.1965  1.3663  1.2430
11136SOL    HW234850   3.195   5.272   8.045  0.3473  0.1749  0.0919
11137SOL     OW34851   2.662   5.532   9.839  0.5333 -0.1177  0.4299
11137SOL    HW134852   2.568   5.526   9.850  0.1738  1.2679 -1.3356
11137SOL    HW234853   2.693   5.574   9.919 -0.6367  1.1466  0.2693
11138SOL     OW34854   2.180   4.898   9.239 -0.3239 -0.1098 -0.4027
11138SOL    HW134855   2.103   4.891   9.181  0.3235  1.7799 -1.5993
11138SOL    HW234856   2.233   4.968   9.200  1.7961 -1.0307  0.6589
11139SOL     OW34857   3.817   7.509   9.299  0.4580  0.0460  0.1545
11139SOL    HW134858   3.726   7.494   9.274  0.7975 -0.0620 -1.1150
11139SOL    HW234859   3.833   7.601   9.278  0.7961 -0.0873 -0.2022
11140SOL     OW34860   2.241   5.280   7.135 -0.0662  0.5963  0.4498
11140SOL    HW134861   2.287   5.362   7.119 -0.3450  0.8099  0.7350
11140SOL    HW234862   2.192   5.295   7.216 -1.9847  0.9395 -0.7293
11141SOL     OW34863   1.924   6.501   7.963 -0.0255  0.3474 -0.0930
11141SOL    HW134864   1.997   6.479   7.905 -1.9452 -1.4133 -2.0275
11141SOL    HW234865   1.958   6.487   8.051  2.1231  0.2204 -0.8670
11142SOL     OW34866   1.656   6.266   9.873  0.1115 -0.0966  0.9701
11142SOL    HW134867   1.696   6.351   9.856 -0.6334  0.0350 -0.2532
11142SOL    HW234868   1.570   6.286   9.911  0.2642 -0.3254  1.4462
11143SOL     OW34869   1.715   7.944   7.853  0.0850 -0.5613  0.5356
11143SOL    HW134870   1.789   7.988   7.812 -2.0852  2.8134 -0.2054
11143SOL    HW234871   1.669   7.902   7.780  0.2266 -0.9626  0.6789
11144SOL     OW34872   3.468   6.343  10.473  0.1372 -0.2392  0.5660
11144SOL    HW134873   3.399   6.387  10.424 -0.3802 -0.1513  1.3464
11144SOL    HW234874   3.521   6.414  10.509  0.8001 -0.3130 -0.2558
11145SOL     OW34875   2.271   4.265   9.495  0.3150  0.1853 -0.0968
11145SOL    HW134876   2.241   4.178   9.523  2.2255 -0.4150  0.2032
11145SOL    HW234877   2.349   4.248   9.442  0.0779  1.6738 -0.9916
11146SOL     OW34878   2.907   6.394   7.256 -0.0958  0.2292 -0.0039
11146SOL    HW134879   2.905   6.350   7.171  1.3348 -0.4898  0.3013
11146SOL    HW234880   2.880   6.484   7.238 -1.4339 -0.3241 -0.9246
11147SOL     OW34881   2.540   5.970   9.943 -0.3091 -0.6470  0.1280
11147SOL    HW134882   2.618   5.927   9.979 -0.3017 -1.4875 -0.8395
11147SOL    HW234883   2.493   5.900   9.897 -1.2332  0.0154  0.0300
11148SOL     OW34884   4.109   6.501   7.869  0.0419 -0.0462 -0.2419
11148SOL    HW134885   4.077   6.445   7.798 -0.2729  1.4061 -1.2699
11148SOL    HW234886   4.039   6.498   7.934  0.0735 -0.9144 -0.2255
11149SOL     OW34887   3.058   6.394   9.931  0.5459  0.0046  0.0548
11149SOL    HW134888   3.033   6.483   9.958  0.4505 -0.5021  1.7701
11149SOL    HW234889   3.044   6.393   9.836 -0.6885  1.4274  0.1781
11150SOL     OW34890   2.768   6.174   7.403  0.0793 -0.3852 -0.3261
11150SOL    HW134891   2.806   6.127   7.329  0.0191  1.3199 -1.4880
11150SOL    HW234892   2.826   6.250   7.416 -1.4654  0.8690 -0.4797
11151SOL     OW34893   3.911   6.160   6.241 -0.5379  0.1078  0.0063
11151SOL    HW134894   3.866   6.223   6.185  0.2768  1.3786  0.7247
11151SOL    HW234895   4.002   6.191   6.242 -0.2770 -0.6624  0.9616
11152SOL     OW34896   3.853   5.185   9.432  0.5365  0.3995 -0.1548
11152SOL    HW134897   3.775   5.146   9.392  0.9951  0.5947 -1.2823
11152SOL    HW234898   3.819   5.246   9.497 -0.2572  0.5329 -0.6878
11153SOL     OW34899   2.383   6.032   9.296  0.2363  0.7815  0.2463
11153SOL    HW134900   2.378   6.091   9.221 -0.5877  0.6012  0.1454
11153SOL    HW234901   2.316   5.965   9.279  0.1373  0.6554  1.0631
11154SOL     OW34902   1.755   6.652   8.620  0.2218 -0.0436  0.6993
11154SOL    HW134903   1.832   6.675   8.672  0.0466 -0.1324  1.0014
11154SOL    HW234904   1.736   6.732   8.570 -1.0732  0.9381  2.5988
11155SOL     OW34905   2.752   6.985   9.370 -0.2124  0.0450  0.0321
11155SOL    HW134906   2.696   6.909   9.354  0.2075 -0.2273 -0.1623
11155SOL    HW234907   2.840   6.948   9.382  0.0141  0.5060 -0.1665
11156SOL     OW34908   3.906   6.440   8.052  0.0916  0.7791 -0.7357
11156SOL    HW134909   3.872   6.354   8.077  0.0933  0.7161 -0.9468
11156SOL    HW234910   3.833   6.483   8.009 -0.3560  1.4308  0.6095
11157SOL     OW34911   1.252   4.927   6.928  0.3084 -0.0308  0.4693
11157SOL    HW134912   1.315   4.921   6.856  0.4155  0.9256  0.4758
11157SOL    HW234913   1.271   5.011   6.970  0.3297 -0.6288  1.7030
11158SOL     OW34914   2.124   7.393   6.999  0.1446 -0.6467 -0.2056
11158SOL    HW134915   2.075   7.357   7.074 -1.4401 -1.1160 -1.4062
11158SOL    HW234916   2.118   7.487   7.010 -0.5779 -0.7050 -0.0300
11159SOL     OW34917   3.221   7.477   8.221 -0.0218 -0.1749 -0.3250
11159SOL    HW134918   3.241   7.536   8.294  0.2720  0.8602 -1.2114
11159SOL    HW234919   3.169   7.530   8.161 -1.3038 -1.3799 -0.3231
11160SOL     OW34920   3.707   6.528   7.894 -0.4293 -0.6674  0.1688
11160SOL    HW134921   3.739   6.460   7.834 -1.4771 -1.4254  0.4296
11160SOL    HW234922   3.692   6.604   7.838 -2.9954 -1.8633 -0.9051
11161SOL     OW34923   1.691   6.185   8.468  0.3470 -0.1499 -0.1702
11161SOL    HW134924   1.643   6.135   8.533  1.5655 -1.0049  0.1020
11161SOL    HW234925   1.648   6.165   8.385 -0.6869  0.2909  0.2496
11162SOL     OW34926   1.620   7.273  10.645 -0.0173 -0.1467  0.2529
11162SOL    HW134927   1.701   7.235  10.679 -0.0747  0.5935  1.2458
11162SOL    HW234928   1.582   7.203  10.592  1.4946 -0.3538 -0.6220
11163SOL     OW34929   1.916   0.511   9.743 -0.1387 -0.4446  0.1512
11163SOL    HW134930   1.980   0.548   9.682  1.0856  0.1238  1.7132
11163SOL    HW234931   1.902   0.580   9.808 -0.8897 -1.2832  0.9069
11164SOL     OW34932   3.033   5.266   7.622 -0.5143  0.3117  0.1609
11164SOL    HW134933   2.947   5.306   7.612 -0.5001  0.3106  0.0342
11164SOL    HW234934   3.028   5.185   7.570 -1.0611 -0.6473  1.6574
11165SOL     OW34935   4.210   5.700   8.944 -0.0262  0.7022  0.0825
11165SOL    HW134936   4.206   5.721   8.850 -0.7340  2.2817  0.4272
11165SOL    HW234937   4.138   5.638   8.957 -0.2920  0.9154 -0.3211
11166SOL     OW34938   3.182   7.014  10.478  0.5687 -0.3083  0.3491
11166SOL    HW134939   3.121   7.068  10.427 -0.5284 -1.5155  0.3468
11166SOL    HW234940   3.186   7.057  10.563 -1.3038 -0.8990  0.7793
11167SOL     OW34941   0.798   6.001   8.829  0.0362  0.5298 -0.4798
11167SOL    HW134942   0.833   5.961   8.909  1.5043  2.1940 -0.2284
11167SOL    HW234943   0.703   5.994   8.838  0.1982 -0.2719  0.8925
11168SOL     OW34944   4.408   1.083  10.948  0.2320 -0.0894 -0.5073
11168SOL    HW134945   4.331   1.093  11.004  1.5197 -0.3907  1.4134
11168SOL    HW234946   4.376   1.031  10.874 -1.1209 -1.5065  0.9626
11169SOL     OW34947   1.923   6.863   6.650  0.0339 -0.0939  0.1018
11169SOL    HW134948   1.888   6.775   6.662 -0.0075 -0.1663 -0.5187
11169SOL    HW234949   1.851   6.921   6.675 -0.0701 -0.2377  0.1406
11170SOL     OW34950   2.038   5.139   9.606 -0.6117 -0.1987 -0.1041
11170SOL    HW134951   2.110   5.130   9.544 -0.2036 -0.3909  0.3950
11170SOL    HW234952   2.052   5.225   9.646  1.3628 -1.5848  2.4886
11171SOL     OW34953   2.681   5.765   7.815 -0.7615  0.1435 -0.2643
11171SOL    HW134954   2.700   5.703   7.745  0.6665 -0.3196  0.4946
11171SOL    HW234955   2.715   5.848   7.784 -1.0043  0.1523 -0.5123
11172SOL     OW34956   2.399   6.291   8.597  0.5086 -0.3823  0.2300
11172SOL    HW134957   2.307   6.280   8.573  0.3759  0.3713  0.3752
11172SOL    HW234958   2.427   6.204   8.626 -0.1147 -0.6479  0.0447
11173SOL     OW34959   3.211   7.669   9.880 -0.0502  0.3507  0.3537
11173SOL    HW134960   3.132   7.618   9.862  0.2417 -0.4859  1.2930
11173SOL    HW234961   3.193   7.713   9.963  0.8482 -0.7281  1.1576
11174SOL     OW34962   2.074   0.182   6.541  0.1224  0.4358  0.0264
11174SOL    HW134963   2.127   0.177   6.461 -2.3623  2.1728 -1.9062
11174SOL    HW234964   2.097   0.267   6.579  0.3930  0.1732  0.4445
11175SOL     OW34965   1.455   7.717   8.465 -0.0469 -0.2212  0.4265
11175SOL    HW134966   1.455   7.640   8.522 -0.8345  0.2806  1.1297
11175SOL    HW234967   1.546   7.746   8.465  0.4197 -1.5970 -0.4864
11176SOL     OW34968   1.966   7.842   9.969 -0.6968  0.4710 -0.4125
11176SOL    HW134969   2.060   7.832   9.957 -0.8048 -1.8270  0.1618
11176SOL    HW234970   1.931   7.855   9.881  0.1409  1.6435 -0.5990
11177SOL     OW34971   5.846   6.257   6.857 -0.1531 -0.1213  0.4947
11177SOL    HW134972   5.890   6.207   6.925  0.7624 -0.7493 -0.5205
11177SOL    HW234973   5.892   6.232   6.776  0.1033  2.0769 -0.0960
11178SOL     OW34974   5.629   6.505   8.997 -0.2661  0.6605 -0.5576
11178SOL    HW134975   5.582   6.424   8.978 -0.7846  0.6983  0.4862
11178SOL    HW234976   5.612   6.561   8.920 -1.5579  0.4960 -0.4163
11179SOL     OW34977   2.136   0.476   8.917 -0.0588 -0.1841 -0.0517
11179SOL    HW134978   2.138   0.507   8.826  0.6335  0.0585  0.0326
11179SOL    HW234979   2.115   0.554   8.968  3.2485  0.6425  0.3059
11180SOL     OW34980   3.507   6.438   7.407  0.3741  0.5485 -0.2255
11180SOL    HW134981   3.533   6.385   7.332  1.8967 -0.8891  1.2424
11180SOL    HW234982   3.581   6.496   7.422  0.4568  0.2203  0.6829
11181SOL     OW34983   2.909   7.770   8.750  0.5315 -0.4554 -0.2348
11181SOL    HW134984   2.830   7.723   8.721  0.9973 -0.2650 -1.9282
11181SOL    HW234985   2.974   7.750   8.682  1.4992  0.5961  0.3618
11182SOL     OW34986   3.808   7.164   7.539  0.0804 -0.5284 -0.2091
11182SOL    HW134987   3.890   7.180   7.586 -0.3314  0.2006  0.2820
11182SOL    HW234988   3.744   7.219   7.584 -0.5649 -0.6764 -0.9313
11183SOL     OW34989   4.207   0.111   8.007  0.3383 -0.1897  0.0354
11183SOL    HW134990   4.174   0.025   8.035 -1.8113  0.1951 -1.0964
11183SOL    HW234991   4.301   0.098   7.998  0.4395 -1.6996  2.3681
11184SOL     OW34992   4.837   5.279   8.802  0.2602  0.4002 -0.2772
11184SOL    HW134993   4.902   5.250   8.738  1.7985  1.9007  0.5038
11184SOL    HW234994   4.798   5.357   8.762  0.6878  0.9037  0.2715
11185SOL     OW34995   2.361   5.504   9.009 -0.2712 -0.1896  0.1282
11185SOL    HW134996   2.296   5.433   9.005  0.3328 -0.7941  0.7267
11185SOL    HW234997   2.445   5.459   9.004  0.1249  0.4650  0.7582
11186SOL     OW34998   2.285   6.615   7.336 -0.2110  0.1086 -0.6627
11186SOL    HW134999   2.368   6.660   7.319  1.5008 -1.3207  2.9047
11186SOL    HW235000   2.219   6.684   7.329  1.4819  1.7290 -1.6776
11187SOL     OW35001   3.181   5.854   9.531  0.3860 -0.3686 -0.0049
11187SOL    HW135002   3.173   5.789   9.461 -1.1343  0.0304 -0.2566
11187SOL    HW235003   3.275   5.864   9.545  0.7612 -0.3230 -2.1362
11188SOL     OW35004   2.083   4.278  10.016 -0.0750 -0.1589  0.2584
11188SOL    HW135005   2.148   4.305   9.951 -1.4598  1.2288 -0.6413
11188SOL    HW235006   2.118   4.310  10.099  0.8464 -0.2992 -0.0667
11189SOL     OW35007   3.861   6.456   7.680 -0.0776  0.5175  0.3690
11189SOL    HW135008   3.904   6.371   7.669  0.5012  0.7001  1.1582
11189SOL    HW235009   3.890   6.506   7.603 -0.9478 -0.1955 -0.4520
11190SOL     OW35010   1.803   7.212   7.006  0.5369  0.1633  0.3426
11190SOL    HW135011   1.761   7.127   7.019  1.4846 -0.2253  0.9463
11190SOL    HW235012   1.783   7.235   6.915  1.9113 -1.6385 -0.4639
11191SOL     OW35013   4.461   6.662   6.860  0.6078  0.2312  0.0474
11191SOL    HW135014   4.500   6.603   6.924 -0.2562 -1.8039 -1.2058
11191SOL    HW235015   4.372   6.676   6.891  0.9393  1.3522  0.5894
11192SOL     OW35016   2.902   6.713   7.279 -0.5616  0.0647  0.4524
11192SOL    HW135017   2.855   6.702   7.196 -1.9163  0.9391  1.0805
11192SOL    HW235018   2.944   6.799   7.272  0.4395 -0.4208  0.1723
11193SOL     OW35019   3.018   6.030   7.538  0.0067 -0.2067 -0.2554
11193SOL    HW135020   3.006   5.967   7.467 -0.8103  0.1916 -0.4838
11193SOL    HW235021   3.010   6.116   7.495  0.7361  0.0583  0.1150
11194SOL     OW35022   3.428   6.708   8.174 -0.0587 -0.0752 -0.0132
11194SOL    HW135023   3.518   6.740   8.171 -0.4221  0.9588 -0.1459
11194SOL    HW235024   3.433   6.620   8.136  0.9781 -0.2525  0.4842
11195SOL     OW35025   1.652   7.306   6.783 -0.4191 -0.3073  0.4174
11195SOL    HW135026   1.590   7.280   6.852 -2.7111  0.9938 -1.0187
11195SOL    HW235027   1.651   7.402   6.785  1.2421 -0.2607  0.0488
11196SOL     OW35028   0.922   6.598   8.951 -0.0379  0.5413 -0.3103
11196SOL    HW135029   0.943   6.636   8.866 -1.8343 -0.7195 -1.3915
11196SOL    HW235030   1.003   6.554   8.979  0.9659  2.1009 -0.6911
11197SOL     OW35031   2.801   4.774   9.650 -0.5808 -0.0889 -0.4413
11197SOL    HW135032   2.775   4.758   9.560 -0.3544  2.0291 -0.9370
11197SOL    HW235033   2.744   4.844   9.680 -0.2020 -0.2994  0.8439
11198SOL     OW35034   2.560   4.788   7.622 -0.2015 -0.6497  0.0273
11198SOL    HW135035   2.517   4.850   7.563 -1.0296  0.8936  2.1346
11198SOL    HW235036   2.576   4.711   7.568 -2.4832  0.0136 -1.7477
11199SOL     OW35037   2.934   4.476   7.371  0.2455  0.4629 -0.3699
11199SOL    HW135038   2.938   4.429   7.454 -0.9509  0.9829  0.0132
11199SOL    HW235039   3.017   4.458   7.329  1.1479  0.6801  1.2172
11200SOL     OW35040   2.864   6.489   9.679  0.0155  0.1790  0.1852
11200SOL    HW135041   2.884   6.580   9.698  0.4641  0.5909 -1.9967
11200SOL    HW235042   2.815   6.491   9.596  2.0630 -1.6427 -1.2071
11201SOL     OW35043   1.193   5.730   7.142 -0.8203 -0.3770 -0.2771
11201SOL    HW135044   1.111   5.739   7.191 -1.6105 -0.5844 -1.5182
11201SOL    HW235045   1.247   5.672   7.195 -1.4323 -0.1489  0.6166
11202SOL     OW35046   4.709   6.796   7.848  0.3456 -0.3162  0.4099
11202SOL    HW135047   4.761   6.807   7.768  2.4647  1.5907  1.8983
11202SOL    HW235048   4.739   6.713   7.884  0.6311 -0.3620  0.0764
11203SOL     OW35049   4.445   0.438   9.441 -0.3985  0.0111 -0.2600
11203SOL    HW135050   4.483   0.370   9.386  0.5592  0.3692 -0.0546
11203SOL    HW235051   4.465   0.520   9.395 -0.5258  0.2386  0.0825
11204SOL     OW35052   2.873   6.375  10.476 -0.2847 -0.2119 -0.4024
11204SOL    HW135053   2.835   6.443  10.420 -0.3347  1.2355  1.2896
11204SOL    HW235054   2.961   6.406  10.496 -1.4055  1.1489  3.0550
11205SOL     OW35055   2.702   4.707   9.132 -0.2638  0.1861  0.2890
11205SOL    HW135056   2.770   4.653   9.174 -0.8427  0.8351  2.1472
11205SOL    HW235057   2.709   4.685   9.039  1.6332 -0.7174  0.5824
11206SOL     OW35058   3.400   6.928  10.352 -0.3689  0.1022  1.1149
11206SOL    HW135059   3.381   6.930  10.258  0.1116 -0.9700  0.9874
11206SOL    HW235060   3.334   6.986  10.391 -2.4625 -1.6654  0.4147
11207SOL     OW35061   3.991   7.779   9.268 -0.0761  0.3130 -0.2599
11207SOL    HW135062   3.992   7.835   9.346 -1.4431 -0.3895  0.3030
11207SOL    HW235063   4.032   7.697   9.297  0.9114  0.6180 -0.7662
11208SOL     OW35064   3.937   0.828   8.600  0.5125 -0.4819 -0.2154
11208SOL    HW135065   3.864   0.860   8.547 -1.3479 -3.3330  0.4345
11208SOL    HW235066   4.011   0.883   8.573 -1.3945  1.2779 -2.2938
11209SOL     OW35067   3.805   6.188   8.160  0.3040 -0.0970 -0.0156
11209SOL    HW135068   3.867   6.152   8.096  0.4831  0.4549 -0.1553
11209SOL    HW235069   3.861   6.230   8.226  0.0913  0.1557  0.0037
11210SOL     OW35070   3.778   6.989   7.931  0.5079  0.0519  0.3940
11210SOL    HW135071   3.854   7.044   7.911  0.4710 -0.2662 -0.7183
11210SOL    HW235072   3.797   6.953   8.018  0.7247  1.4672  0.9492
11211SOL     OW35073   2.753   5.902   8.688  0.2717 -0.0492 -0.5204
11211SOL    HW135074   2.706   5.919   8.607 -1.9383 -0.1999  0.6640
11211SOL    HW235075   2.799   5.984   8.706 -0.7366  0.6376 -0.9718
11212SOL     OW35076   4.497   6.488   8.322  0.0053 -0.1489  0.6250
11212SOL    HW135077   4.526   6.396   8.317 -0.5617 -0.2670 -1.1563
11212SOL    HW235078   4.401   6.483   8.315  0.0214  0.6043 -0.3759
11213SOL     OW35079   1.953   6.310   6.483 -0.0787  0.1176  0.0387
11213SOL    HW135080   2.033   6.343   6.523  0.4603  0.3148 -1.1500
11213SOL    HW235081   1.936   6.227   6.526  0.0936  0.6399  1.1423
11214SOL     OW35082   3.979   7.359   8.564  0.1094  0.2244  0.3469
11214SOL    HW135083   4.028   7.344   8.484  0.6227 -1.2021  0.9013
11214SOL    HW235084   4.025   7.431   8.607  0.4220  0.3265 -0.1498
11215SOL     OW35085   2.880   6.379   8.511  0.2919  0.7607  0.0697
11215SOL    HW135086   2.837   6.385   8.426 -0.9071  0.3736  0.6288
11215SOL    HW235087   2.880   6.468   8.545 -3.1998  0.3530  1.5160
11216SOL     OW35088   5.848   6.588   7.853 -0.1307 -0.4496  0.0217
11216SOL    HW135089   5.797   6.645   7.910  0.1188 -0.1318 -0.0669
11216SOL    HW235090   5.797   6.508   7.846 -0.3426 -0.3455  0.3873
11217SOL     OW35091   3.761   7.387  11.317  0.1702 -0.4580 -0.1527
11217SOL    HW135092   3.792   7.477  11.316  1.6035 -0.9427 -0.6511
11217SOL    HW235093   3.784   7.352  11.231 -2.2580 -0.7138 -0.7807
11218SOL     OW35094   1.677   0.494  10.508  0.3994 -0.3005 -1.0521
11218SOL    HW135095   1.589   0.469  10.536  0.6828  1.2978  1.6543
11218SOL    HW235096   1.672   0.495  10.412 -2.7097  0.2888 -1.0157
11219SOL     OW35097   2.758   7.810   7.799 -0.4542 -0.0315 -0.1293
11219SOL    HW135098   2.815   7.885   7.783 -0.3729 -0.1377 -0.3473
11219SOL    HW235099   2.802   7.737   7.754 -1.0455  0.0047 -0.7833
11220SOL     OW35100   2.426   6.745   8.841 -0.2166 -0.6852 -0.5889
11220SOL    HW135101   2.384   6.669   8.801 -0.2154 -0.7671 -0.4318
11220SOL    HW235102   2.354   6.803   8.865 -0.1806 -0.1641 -1.6533
11221SOL     OW35103   3.455   5.926   9.592  0.1437  0.0020  0.0758
11221SOL    HW135104   3.408   6.006   9.613  0.5034 -0.0182  0.9948
11221SOL    HW235105   3.437   5.867   9.665 -1.2870 -1.2956 -1.2668
11222SOL     OW35106   3.056   6.626   9.151 -0.2637 -0.6498  0.2715
11222SOL    HW135107   3.057   6.682   9.074  1.1763 -0.3036  0.5182
11222SOL    HW235108   2.974   6.648   9.196  0.2333  1.2608  0.3444
11223SOL     OW35109   2.857   5.236   8.703  0.3147 -0.2500  0.1567
11223SOL    HW135110   2.854   5.237   8.799 -0.4385  0.9496  0.1425
11223SOL    HW235111   2.765   5.245   8.676  0.4266 -1.4404 -0.6923
11224SOL     OW35112   0.035   6.606   9.538  0.2112  0.0331  0.0619
11224SOL    HW135113  -0.054   6.627   9.565  0.2048 -1.2101  1.1131
11224SOL    HW235114   0.086   6.684   9.560 -0.6856  1.0067 -1.1388
11225SOL     OW35115   1.342   0.650   7.935  0.1134 -0.8671  0.5693
11225SOL    HW135116   1.409   0.699   7.886 -0.4861  0.7401  1.3016
11225SOL    HW235117   1.376   0.560   7.937 -0.0128 -1.1607 -3.0947
11226SOL     OW35118   3.260   7.380   7.919  0.0958 -0.1737 -0.2268
11226SOL    HW135119   3.171   7.365   7.950  0.0748  1.2279  0.4441
11226SOL    HW235120   3.316   7.351   7.991  0.0729  1.9471  0.7192
11227SOL     OW35121   2.846   4.740   7.658 -0.2686 -0.3575  0.0099
11227SOL    HW135122   2.899   4.776   7.587 -1.4553  0.5988 -0.4342
11227SOL    HW235123   2.759   4.779   7.645 -0.6915 -0.7072  1.5851
11228SOL     OW35124   3.726   7.171   6.950 -0.1649  0.0086  0.3840
11228SOL    HW135125   3.742   7.241   7.013  1.6943  1.4363 -1.5294
11228SOL    HW235126   3.693   7.215   6.872 -0.8016 -1.4933 -0.2440
11229SOL     OW35127   4.106   0.772  10.651 -0.1030  0.1477 -0.2641
11229SOL    HW135128   4.085   0.688  10.694  0.5457  0.4549  0.6858
11229SOL    HW235129   4.063   0.838  10.706  0.5303  0.5356 -0.2351
11230SOL     OW35130   2.754   4.808  10.307 -0.1969  0.5059 -0.2750
11230SOL    HW135131   2.797   4.891  10.289  0.3580  0.0770 -0.9726
11230SOL    HW235132   2.757   4.799  10.402  1.2882  0.4774 -0.3012
11231SOL     OW35133   3.969   6.207   7.571 -0.2429 -0.0605 -0.3292
11231SOL    HW135134   3.880   6.172   7.570 -0.1747 -0.5117  1.9643
11231SOL    HW235135   4.023   6.133   7.600  0.7365  0.4891 -0.6896
11232SOL     OW35136   4.987   6.422   6.511  0.0691 -0.0628  0.0437
11232SOL    HW135137   4.967   6.464   6.428 -1.3942 -0.6015  0.1051
11232SOL    HW235138   5.056   6.358   6.490  0.4804  0.5651 -0.5324
11233SOL     OW35139   2.149   6.767   8.895  0.4052  0.5980 -0.5541
11233SOL    HW135140   2.132   6.673   8.904  0.4130  0.4101 -2.1876
11233SOL    HW235141   2.082   6.809   8.949 -1.1137 -0.3230 -1.6331
11234SOL     OW35142   4.454   7.195   9.739  0.0431  0.0025 -0.1389
11234SOL    HW135143   4.457   7.128   9.808 -0.2869 -1.1420 -1.1989
11234SOL    HW235144   4.497   7.154   9.664 -0.1043  1.0195 -0.7999
11235SOL     OW35145   1.685   4.194  11.410  0.0389 -0.5124 -0.1151
11235SOL    HW135146   1.694   4.248  11.332  0.6693  0.2924  0.5089
11235SOL    HW235147   1.715   4.249  11.482  0.3757 -1.5678  0.5788
11236SOL     OW35148   1.553   6.592   9.360 -0.2519 -0.1773 -0.2243
11236SOL    HW135149   1.550   6.539   9.440  0.1554 -0.8579 -0.6465
11236SOL    HW235150   1.585   6.532   9.293  0.4469  0.6652 -0.6757
11237SOL     OW35151   1.020   5.618  10.373  0.5470 -0.6386  0.0826
11237SOL    HW135152   1.001   5.565  10.296 -0.7927 -0.1467  0.0415
11237SOL    HW235153   1.114   5.635  10.368  0.4304 -0.2860 -1.6578
11238SOL     OW35154   2.337   6.686  10.127  0.2739  0.1163 -0.1246
11238SOL    HW135155   2.387   6.732  10.060  0.1750 -0.1045 -0.3530
11238SOL    HW235156   2.266   6.643  10.079  1.5160 -1.9411 -0.2291
11239SOL     OW35157   3.469   7.986  11.498  0.4197  0.2693  0.4483
11239SOL    HW135158   3.496   8.066  11.454  1.7707 -1.1122 -1.4208
11239SOL    HW235159   3.377   7.999  11.518  0.4892  2.0958 -0.2348
11240SOL     OW35160   3.148   7.496   9.551 -0.1958  0.3033 -1.0563
11240SOL    HW135161   3.103   7.506   9.634 -0.5368 -0.4051 -1.1459
11240SOL    HW235162   3.172   7.585   9.525 -1.9691  0.7753 -1.2414
11241SOL     OW35163   4.373   7.057   9.143  0.1667  0.5783  0.2853
11241SOL    HW135164   4.338   6.991   9.203 -0.9037  0.5089 -0.3879
11241SOL    HW235165   4.466   7.036   9.136 -0.0846 -0.6691  0.3503
11242SOL     OW35166   2.709   6.712  11.536 -0.5004  0.8746  0.5627
11242SOL    HW135167   2.702   6.736  11.628  2.6861  1.7153  0.7046
11242SOL    HW235168   2.702   6.795  11.488 -1.7416  0.4895  0.0260
11243SOL     OW35169   2.489   5.666  11.076  0.1063  0.1234  0.1780
11243SOL    HW135170   2.481   5.713  10.993 -0.8296  2.1697  1.3622
11243SOL    HW235171   2.457   5.727  11.142 -0.1190 -1.7960  1.9657
11244SOL     OW35172   4.708   7.601  10.697  0.2292 -0.6276  0.3831
11244SOL    HW135173   4.727   7.544  10.772 -0.6637 -0.7216  0.5433
11244SOL    HW235174   4.672   7.542  10.631 -2.0446 -0.0734  1.0577
11245SOL     OW35175   2.371   6.333  12.407 -0.0563 -0.0001 -0.6340
11245SOL    HW135176   2.441   6.394  12.385 -0.1048  0.4326  0.3712
11245SOL    HW235177   2.417   6.255  12.438 -0.0089  0.4212  0.3859
11246SOL     OW35178   1.895   6.840   9.494 -0.1891  0.6497 -0.7124
11246SOL    HW135179   1.804   6.846   9.465 -0.4043  3.3376  0.2616
11246SOL    HW235180   1.890   6.839   9.589  0.7883  0.4218 -0.6510
11247SOL     OW35181   5.621   7.962  10.002 -0.5190 -0.6320 -0.3729
11247SOL    HW135182   5.527   7.945  10.006 -0.6177 -0.0490 -0.1606
11247SOL    HW235183   5.635   8.036  10.061  0.1146 -0.8959 -0.1852
11248SOL     OW35184   2.200   6.176  11.190 -0.7018  0.5815 -0.5117
11248SOL    HW135185   2.250   6.156  11.111  1.9770  0.7419  1.0473
11248SOL    HW235186   2.133   6.108  11.193  1.5535 -1.8184 -0.9364
11249SOL     OW35187   2.703   5.684   9.091  0.5436  0.1516 -0.2903
11249SOL    HW135188   2.688   5.737   9.169  1.6635 -1.1802  0.8796
11249SOL    HW235189   2.693   5.594   9.121  3.4800 -0.5177 -1.0449
11250SOL     OW35190   1.707   0.916   9.486 -0.2041  0.3792 -0.4575
11250SOL    HW135191   1.676   1.005   9.474  1.1028  0.9860  0.4146
11250SOL    HW235192   1.629   0.861   9.477 -1.0909  1.6329 -0.6139
11251SOL     OW35193   3.179   6.083   9.049  0.2429 -0.1504 -0.0753
11251SOL    HW135194   3.235   6.134   8.992  0.0156 -0.7749 -0.8727
11251SOL    HW235195   3.147   6.146   9.114 -1.5363  1.1874 -2.1239
11252SOL     OW35196   1.530   1.103   9.300  0.2265 -0.1562 -0.6315
11252SOL    HW135197   1.615   1.146   9.305  0.1369 -0.0912  0.9738
11252SOL    HW235198   1.479   1.142   9.372 -0.7074 -1.1198 -0.7440
11253SOL     OW35199   1.606   7.509  10.483  0.1535  0.1153 -0.4632
11253SOL    HW135200   1.667   7.567  10.528  1.0071  0.3863 -1.9023
11253SOL    HW235201   1.590   7.437  10.545  1.6193  0.2463  0.1044
11254SOL     OW35202   5.065   7.423  12.061  0.3528 -0.6978 -0.7534
11254SOL    HW135203   5.159   7.411  12.045  0.4602 -1.2070  0.2049
11254SOL    HW235204   5.039   7.492  11.999  1.4541 -0.2187 -0.7100
11255SOL     OW35205   3.035   0.985  10.955 -0.1380  0.4605 -0.4226
11255SOL    HW135206   3.049   0.937  10.874 -1.0535  0.2316 -0.4609
11255SOL    HW235207   2.942   1.007  10.954 -0.3720 -0.3347  0.9717
11256SOL     OW35208   3.220   5.736  10.681  0.1348  0.6938 -0.1717
11256SOL    HW135209   3.237   5.642  10.692 -0.9998  0.2688 -1.7780
11256SOL    HW235210   3.126   5.742  10.666  0.3678  1.9518 -1.3345
11257SOL     OW35211   2.629   6.740  10.569  0.2042  0.0812 -0.1451
11257SOL    HW135212   2.557   6.802  10.562 -0.5739 -0.7442  0.3531
11257SOL    HW235213   2.590   6.655  10.548  1.0807 -0.3427 -0.1007
11258SOL     OW35214   4.538   6.002   9.879  0.0906  0.3021  0.0167
11258SOL    HW135215   4.521   6.092   9.908 -0.6999  0.8577 -1.9753
11258SOL    HW235216   4.630   6.003   9.852  0.5625  0.0307  1.5551
11259SOL     OW35217   2.227   5.896  10.150 -0.2374 -0.1880  0.4022
11259SOL    HW135218   2.255   5.823  10.095  1.9601 -0.8115  2.1937
11259SOL    HW235219   2.297   5.905  10.215 -1.0229  2.7601  0.9698
11260SOL     OW35220   2.810   7.489  11.782  0.1256  0.1084 -0.0464
11260SOL    HW135221   2.891   7.481  11.832 -0.2765  1.4604  0.8819
11260SOL    HW235222   2.837   7.525  11.697  0.6238 -0.6123 -0.1958
11261SOL     OW35223   3.074   6.502   6.692 -0.0887  0.0383  0.5805
11261SOL    HW135224   3.045   6.466   6.608 -2.0316  1.7628  0.4339
11261SOL    HW235225   3.009   6.472   6.755  1.6359 -1.6835  1.6766
11262SOL     OW35226   2.128   7.254   9.370 -0.4332 -0.3079 -0.2852
11262SOL    HW135227   2.118   7.185   9.304  2.3713  0.4908 -1.7199
11262SOL    HW235228   2.126   7.208   9.454  0.8407 -2.1064 -1.1753
11263SOL     OW35229   2.583   7.207   9.956  0.0120  0.2975 -0.1330
11263SOL    HW135230   2.538   7.277   9.909  0.0507 -0.5365 -1.4739
11263SOL    HW235231   2.654   7.181   9.897  0.2644 -0.5703  0.5367
11264SOL     OW35232   4.065   5.893   0.651 -0.3942  0.4973  0.0178
11264SOL    HW135233   4.112   5.828   0.598 -1.3922  0.8870 -1.3995
11264SOL    HW235234   4.100   5.977   0.623 -1.9039  0.7977 -1.1067
11265SOL     OW35235   4.227   6.479  10.210  0.5232 -0.1898 -0.2892
11265SOL    HW135236   4.280   6.555  10.186  0.3537 -0.0399 -0.1881
11265SOL    HW235237   4.286   6.425  10.262  1.0787 -0.7973 -1.5004
11266SOL     OW35238   1.655   6.033  10.672  0.5378 -0.0760  0.4717
11266SOL    HW135239   1.645   5.946  10.633  1.6042 -1.1364  2.4581
11266SOL    HW235240   1.590   6.086  10.626  1.1264 -1.4158 -2.1188
11267SOL     OW35241   4.523   7.114  10.331  0.0599 -0.3693  0.2175
11267SOL    HW135242   4.570   7.104  10.414  2.5531  0.2444 -1.0029
11267SOL    HW235243   4.584   7.081  10.265 -1.2744  0.4408 -1.5067
11268SOL     OW35244   2.782   5.084  10.282 -0.0407  0.2842 -0.6148
11268SOL    HW135245   2.797   5.098  10.189 -1.2026  0.6591 -0.7532
11268SOL    HW235246   2.867   5.104  10.323  0.3889  0.4273 -1.5507
11269SOL     OW35247   1.875   5.654  11.099  0.1345 -0.4351  0.2078
11269SOL    HW135248   1.851   5.592  11.031  1.5363 -1.7397  0.8461
11269SOL    HW235249   1.836   5.618  11.179  0.0726  0.0661  0.4057
11270SOL     OW35250   3.073   5.751  10.392  0.1500  0.3995  0.7104
11270SOL    HW135251   3.135   5.690  10.432  2.0035  1.6305 -0.1702
11270SOL    HW235252   3.112   5.837  10.405 -1.6572  1.2821  0.5644
11271SOL     OW35253   6.355   0.253  10.853 -0.0190 -0.2116 -0.8136
11271SOL    HW135254   6.281   0.301  10.890 -0.9777 -1.0260 -1.6158
11271SOL    HW235255   6.409   0.231  10.929 -1.4100 -0.9522  0.0158
11272SOL     OW35256   0.489   6.703   8.215 -0.0437 -0.8292  0.1538
11272SOL    HW135257   0.445   6.656   8.286 -1.5277  0.3099  0.0283
11272SOL    HW235258   0.439   6.784   8.205  1.9073  0.3787 -0.2349
11273SOL     OW35259   3.071   5.157  11.238 -0.4659  0.4116  0.2152
11273SOL    HW135260   3.075   5.067  11.206  1.4328  0.9284 -1.1838
11273SOL    HW235261   2.987   5.163  11.284 -0.8147 -1.9366 -0.0031
11274SOL     OW35262   3.056   6.435   8.872  0.4376 -0.4804  0.6895
11274SOL    HW135263   3.031   6.343   8.868 -0.7276 -0.3602  3.3570
11274SOL    HW235264   2.974   6.482   8.886  0.7950  1.2032 -2.1013
11275SOL     OW35265   1.688   6.521   9.806 -0.3409 -0.1431  0.2317
11275SOL    HW135266   1.712   6.555   9.892  2.1203  0.5460 -0.6651
11275SOL    HW235267   1.660   6.598   9.757 -2.0257 -0.5768  0.4486
11276SOL     OW35268   3.450   4.060  12.147  0.1783 -0.3232  0.1307
11276SOL    HW135269   3.446   3.975  12.191 -1.1442  0.1762  1.0339
11276SOL    HW235270   3.361   4.076  12.117  1.0736 -0.7648 -3.0941
11277SOL     OW35271   2.451   6.420  11.821 -0.0837  0.0530  0.0402
11277SOL    HW135272   2.540   6.397  11.846 -0.6542 -1.3491  0.9208
11277SOL    HW235273   2.454   6.514  11.805  1.5088  0.0599  0.2329
11278SOL     OW35274   3.445   5.207  12.468 -0.1171  0.0321 -0.9344
11278SOL    HW135275   3.414   5.291  12.435  1.0744  1.4400  1.3103
11278SOL    HW235276   3.532   5.196  12.429  1.2838  1.6861  1.5071
11279SOL     OW35277   3.892   7.857  10.150  0.0035 -0.4213 -0.1478
11279SOL    HW135278   3.961   7.795  10.125 -0.6891 -1.7805  1.1708
11279SOL    HW235279   3.917   7.887  10.238 -0.5039 -0.0695 -0.1178
11280SOL     OW35280   2.006   5.576   8.957 -0.0891 -0.6028  0.0824
11280SOL    HW135281   1.965   5.661   8.972 -0.6893 -0.4874 -1.8571
11280SOL    HW235282   1.988   5.526   9.036 -0.2562  0.8613  1.0082
11281SOL     OW35283   2.137   7.179  12.053 -0.4286 -0.2784 -0.7442
11281SOL    HW135284   2.201   7.241  12.088 -0.2799 -0.6388 -0.3749
11281SOL    HW235285   2.186   7.130  11.987 -0.5762  0.0687 -1.1154
11282SOL     OW35286   3.378   5.861   9.938 -0.4418 -0.5216  0.4177
11282SOL    HW135287   3.403   5.953   9.950 -1.2441 -0.1933 -0.3196
11282SOL    HW235288   3.453   5.812   9.971  0.2615  0.4111  0.2623
11283SOL     OW35289   4.684   6.942  11.401 -0.0057 -0.3836  0.1578
11283SOL    HW135290   4.613   6.893  11.442 -0.6366  0.6430  0.3520
11283SOL    HW235291   4.685   7.026  11.449  0.1309  0.3107 -1.0231
11284SOL     OW35292   5.004   7.842  10.636  0.1716 -0.5561 -0.1713
11284SOL    HW135293   4.979   7.854  10.544  0.9969  0.8890 -0.2389
11284SOL    HW235294   5.079   7.901  10.648 -0.6053  0.0964  1.7147
11285SOL     OW35295   3.481   5.813  10.526  0.3306  0.1996 -0.0147
11285SOL    HW135296   3.413   5.776  10.582 -0.5925  0.3633 -0.9949
11285SOL    HW235297   3.446   5.897  10.498  0.5321 -0.0965 -1.2330
11286SOL     OW35298   3.273   0.986  11.534  0.1881 -0.3156  0.4644
11286SOL    HW135299   3.315   1.061  11.493  0.1870 -1.2567 -1.3586
11286SOL    HW235300   3.323   0.970  11.614  1.0270  0.7799  0.1723
11287SOL     OW35301   0.904   7.701  11.493  0.2622  0.4084 -0.6640
11287SOL    HW135302   0.854   7.639  11.439  1.3958  0.4769 -1.8299
11287SOL    HW235303   0.854   7.707  11.574 -0.0976 -1.7253 -0.6665
11288SOL     OW35304   2.299   5.989  10.673  0.1963  0.3381 -0.0052
11288SOL    HW135305   2.337   5.911  10.632  0.0537 -0.3692  1.1573
11288SOL    HW235306   2.336   6.063  10.623  1.3186 -0.4221 -0.3357
11289SOL     OW35307   2.577   5.681  12.473  0.1809 -0.0591  0.1791
11289SOL    HW135308   2.651   5.687  12.412  1.1655 -0.8442  1.2526
11289SOL    HW235309   2.568   5.587  12.489 -1.3176 -0.0093 -0.2211
11290SOL     OW35310   3.827   0.155   9.120  0.4227  0.1185  0.3260
11290SOL    HW135311   3.737   0.171   9.148  0.6325  0.7173  0.6714
11290SOL    HW235312   3.859   0.088   9.180 -0.0895 -0.8030 -0.3970
11291SOL     OW35313   3.128   6.479   9.414 -0.3701 -0.1229 -0.1471
11291SOL    HW135314   3.146   6.542   9.345  0.7490  0.0055  0.2389
11291SOL    HW235315   3.080   6.408   9.371  1.0058 -0.4248 -1.2409
11292SOL     OW35316   3.018   0.031  10.873 -0.5469 -0.2962  0.5565
11292SOL    HW135317   3.028   0.078  10.790 -1.1690 -0.4360  0.3991
11292SOL    HW235318   3.103   0.041  10.917 -0.2975 -0.0136  0.0125
11293SOL     OW35319   1.360   0.441   9.244 -0.1829  0.6102  0.0609
11293SOL    HW135320   1.349   0.402   9.158 -0.4831 -0.7999  0.7126
11293SOL    HW235321   1.441   0.492   9.237  1.2124 -1.5594 -0.3503
11294SOL     OW35322   1.634   5.121  10.035 -0.3408 -0.0052 -0.2560
11294SOL    HW135323   1.703   5.150   9.976  0.4258  0.4373  0.8042
11294SOL    HW235324   1.564   5.185  10.024  0.4056  0.9440  0.3802
11295SOL     OW35325   3.541   7.973   9.479  0.1082 -0.3058 -0.5622
11295SOL    HW135326   3.588   7.958   9.560  1.1278  1.6592 -0.7389
11295SOL    HW235327   3.449   7.958   9.501  0.4281 -0.3651  0.7885
11296SOL     OW35328   2.930   7.726   8.203  0.3169 -0.2020 -0.2309
11296SOL    HW135329   2.888   7.812   8.206 -2.8841 -1.6272  0.0305
11296SOL    HW235330   2.998   7.735   8.136 -2.4159  1.5829 -3.0591
11297SOL     OW35331   4.301   5.856   9.517  0.2723 -0.0486  0.6446
11297SOL    HW135332   4.228   5.851   9.455  0.1004  0.3180  0.8163
11297SOL    HW235333   4.265   5.823   9.599 -0.0196  1.1256  1.0124
11298SOL     OW35334   2.352   1.029  10.759  0.2107 -0.0005  0.3039
11298SOL    HW135335   2.383   1.088  10.690  0.2433  0.5331  0.7623
11298SOL    HW235336   2.423   1.028  10.823 -0.2293  0.2935  0.7994
11299SOL     OW35337   3.885   7.833  10.545 -0.0766  0.9030  0.7795
11299SOL    HW135338   3.964   7.781  10.560 -0.4138 -0.0641 -0.6461
11299SOL    HW235339   3.910   7.894  10.475 -0.7059  0.2661 -0.0235
11300SOL     OW35340   2.406   5.622   9.249  0.1590  0.3782 -0.9503
11300SOL    HW135341   2.397   5.611   9.154 -2.4002 -1.0633 -0.6209
11300SOL    HW235342   2.438   5.537   9.280  1.8251  1.1094 -0.5486
11301SOL     OW35343   2.745   5.331  12.222 -0.1597 -0.0354 -0.2212
11301SOL    HW135344   2.718   5.255  12.170 -0.8011  0.0582 -0.0405
11301SOL    HW235345   2.749   5.299  12.312  0.5499 -0.0965 -0.2727
11302SOL     OW35346   4.523   4.258  10.261  0.2298  0.0826 -0.4566
11302SOL    HW135347   4.473   4.178  10.251 -1.4422  1.1886 -1.4389
11302SOL    HW235348   4.560   4.253  10.349 -0.4796 -1.3885 -0.2200
11303SOL     OW35349   0.431   4.224  10.687  0.0319  0.4535  0.1173
11303SOL    HW135350   0.517   4.196  10.654 -0.0420  0.4720 -0.0907
11303SOL    HW235351   0.434   4.204  10.780 -0.0771 -0.4043 -0.0569
11304SOL     OW35352   2.205   7.732  10.671 -0.2806 -0.4655  0.0112
11304SOL    HW135353   2.246   7.710  10.588 -0.6641 -2.6805  0.3433
11304SOL    HW235354   2.125   7.779  10.647  0.3172  0.1560 -0.7941
11305SOL     OW35355   2.218   6.146   9.926 -0.3042 -0.0722 -0.0452
11305SOL    HW135356   2.313   6.134   9.922 -0.4654 -1.1909 -2.4640
11305SOL    HW235357   2.183   6.060   9.902 -1.9594  0.2384  1.1258
11306SOL     OW35358   2.139   7.404  11.549  0.3652 -0.6300  0.4133
11306SOL    HW135359   2.196   7.381  11.622 -0.8529 -2.4305  0.8457
11306SOL    HW235360   2.197   7.400  11.472  1.0702 -1.3228  0.9620
11307SOL     OW35361   2.747   5.550  11.149  0.0921  0.1085  0.2596
11307SOL    HW135362   2.817   5.605  11.185 -0.1208  1.1725 -0.8911
11307SOL    HW235363   2.682   5.611  11.117 -0.9382 -0.8603  0.4367
11308SOL     OW35364   1.028   4.896   9.592 -0.4814  0.2796 -0.3396
11308SOL    HW135365   1.042   4.835   9.519  0.0549  1.3579 -1.1752
11308SOL    HW235366   1.065   4.851   9.668  1.6703  0.3081 -1.2927
11309SOL     OW35367   4.157   7.222  10.414 -0.1716  0.6006 -0.4924
11309SOL    HW135368   4.104   7.208  10.493 -0.9164  1.4532 -0.8217
11309SOL    HW235369   4.137   7.312  10.389  1.5212  0.9697 -0.5772
11310SOL     OW35370   2.537   4.866  10.724  0.2104 -0.5339 -0.1172
11310SOL    HW135371   2.622   4.877  10.680 -0.2309 -1.2655 -1.1948
11310SOL    HW235372   2.545   4.783  10.772  0.3802 -0.1855  0.4680
11311SOL     OW35373   2.350   5.101   9.171  0.4056  1.3156  0.0066
11311SOL    HW135374   2.439   5.129   9.147  0.6997  0.8096  0.4897
11311SOL    HW235375   2.322   5.165   9.237 -0.7789  3.3019 -2.2510
11312SOL     OW35376   2.897   6.094  10.329 -0.0543  0.8725 -0.4658
11312SOL    HW135377   2.874   6.178  10.368 -1.1017  0.3046  0.1867
11312SOL    HW235378   2.965   6.059  10.387  0.1662  1.1293 -0.5671
11313SOL     OW35379   5.045   0.876   9.366  0.4438 -0.1393 -0.3504
11313SOL    HW135380   5.112   0.872   9.297  1.7572 -2.9326  0.9183
11313SOL    HW235381   5.058   0.795   9.416 -3.0043 -0.0997  0.8316
11314SOL     OW35382   3.209   5.705   9.309  0.0666 -0.4301  0.1862
11314SOL    HW135383   3.175   5.738   9.226  0.7661  0.5211  0.2733
11314SOL    HW235384   3.302   5.690   9.294 -0.2017 -2.3929  0.1500
11315SOL     OW35385   3.747   6.762  10.072 -0.0252  0.2416 -0.6045
11315SOL    HW135386   3.692   6.788   9.998 -1.4287  0.4045  0.4632
11315SOL    HW235387   3.768   6.843  10.118 -1.9079 -0.1079  1.0094
11316SOL     OW35388   1.883   5.595   9.701  0.3867  0.4749  0.2609
11316SOL    HW135389   1.821   5.641   9.644  0.4960  1.7192  1.1059
11316SOL    HW235390   1.833   5.580   9.782  0.6576 -0.0440  0.3295
11317SOL     OW35391   2.200   5.427  11.719 -0.2811  0.3167 -0.3276
11317SOL    HW135392   2.173   5.517  11.703  0.3364  0.7323  0.8684
11317SOL    HW235393   2.166   5.378  11.644 -0.5468  1.5492 -1.0380
11318SOL     OW35394   3.306   6.227  10.991 -0.2007  0.2674 -0.3125
11318SOL    HW135395   3.248   6.166  10.946 -0.3086  0.8713 -1.0084
11318SOL    HW235396   3.331   6.290  10.924  0.1579  0.8085  0.3201
11319SOL     OW35397   1.892   4.036  10.397 -1.0142  0.1558 -0.6739
11319SOL    HW135398   1.834   3.997  10.463 -0.4491 -0.2659 -0.4242
11319SOL    HW235399   1.894   3.972  10.326  2.0183 -1.6102  0.8398
11320SOL     OW35400   2.887   4.168  10.453 -0.2565 -0.2977 -0.1591
11320SOL    HW135401   2.911   4.144  10.363 -2.0718 -1.3017 -0.4241
11320SOL    HW235402   2.903   4.088  10.503  2.3136  0.7042  0.8292
11321SOL     OW35403   3.153   0.197   9.486 -0.2911 -0.0173 -0.4821
11321SOL    HW135404   3.142   0.182   9.392  2.4505  1.2783 -1.1298
11321SOL    HW235405   3.078   0.155   9.527 -2.8364  1.3270 -3.3918
11322SOL     OW35406   3.488   6.572   9.265 -0.0806  0.0379  0.0966
11322SOL    HW135407   3.473   6.478   9.256  0.7375 -0.0533 -0.3857
11322SOL    HW235408   3.434   6.611   9.195  0.8382 -0.1925 -0.7575
11323SOL     OW35409   2.262   6.462   9.307  0.3935 -0.2990 -0.1122
11323SOL    HW135410   2.197   6.403   9.345  0.2502 -0.5047 -0.6701
11323SOL    HW235411   2.219   6.548   9.308  0.6855 -0.1455  0.9051
11324SOL     OW35412   3.429   7.562  11.300 -0.3490 -0.0647 -0.0764
11324SOL    HW135413   3.516   7.564  11.260  0.4537 -1.5021  1.4642
11324SOL    HW235414   3.387   7.643  11.271  1.6624  0.8877 -0.4957
11325SOL     OW35415   2.797   6.153   8.674 -0.0418 -0.2187 -0.0784
11325SOL    HW135416   2.782   6.239   8.635 -1.4123 -0.1950  0.4490
11325SOL    HW235417   2.831   6.172   8.762  2.3054 -0.2678 -0.9105
11326SOL     OW35418   2.171   4.353   9.209 -0.1771 -0.0187  0.0960
11326SOL    HW135419   2.088   4.322   9.244  0.3229  0.0265  1.3525
11326SOL    HW235420   2.225   4.372   9.286  0.5513  1.1895 -0.6655
11327SOL     OW35421   5.611   0.902  10.869  0.8168  1.3063 -0.1014
11327SOL    HW135422   5.604   0.808  10.858  2.3611  1.1430  0.0988
11327SOL    HW235423   5.551   0.939  10.804  0.7535  0.2100 -0.6764
11328SOL     OW35424   3.550   6.530  10.158 -0.1139 -0.2557 -0.3232
11328SOL    HW135425   3.485   6.552  10.225  0.3145 -0.0791  0.0415
11328SOL    HW235426   3.502   6.536  10.075 -0.6490 -0.4731 -0.0351
11329SOL     OW35427   5.387   6.207  11.451 -0.2420 -0.0150  0.1214
11329SOL    HW135428   5.363   6.209  11.359  1.0978 -0.7027 -0.2599
11329SOL    HW235429   5.330   6.272  11.492 -0.7436  0.4060 -1.2112
11330SOL     OW35430   4.508   7.460  10.480 -0.4761  0.6946 -0.2232
11330SOL    HW135431   4.584   7.413  10.447  0.9678  2.3143  0.6340
11330SOL    HW235432   4.491   7.421  10.566  0.2425  1.2063  0.1600
11331SOL     OW35433   1.746   6.727  10.519  0.0977  0.0615  0.6403
11331SOL    HW135434   1.788   6.647  10.488  1.1804  1.2571 -1.1929
11331SOL    HW235435   1.666   6.734  10.466 -0.4041 -0.1797  1.3477
11332SOL     OW35436   1.663   5.051  10.312 -0.3025 -0.1999  0.4803
11332SOL    HW135437   1.639   5.072  10.222 -1.2099 -2.1173  0.2081
11332SOL    HW235438   1.602   5.102  10.366  0.3191  1.0437  0.0456
11333SOL     OW35439   3.676   6.676   0.644 -0.6345 -0.2522 -0.3278
11333SOL    HW135440   3.725   6.758   0.642  0.8553 -1.1266 -1.2908
11333SOL    HW235441   3.650   6.666   0.736  2.0060 -0.3046  0.4748
11334SOL     OW35442   1.578   5.370   9.614 -0.2038  0.1201  0.3259
11334SOL    HW135443   1.611   5.312   9.546 -0.2904 -0.5668  0.8561
11334SOL    HW235444   1.631   5.449   9.607 -0.2302  0.0662 -0.5431
11335SOL     OW35445   1.151   6.329  10.330 -0.1952 -0.6244  0.0652
11335SOL    HW135446   1.148   6.235  10.346 -0.4100 -0.7376 -0.6304
11335SOL    HW235447   1.212   6.362  10.397 -0.3582 -1.2078  0.5123
11336SOL     OW35448   2.410   4.619   9.756  0.2368 -0.7045  0.0946
11336SOL    HW135449   2.488   4.579   9.717  0.9273 -0.3260  1.0422
11336SOL    HW235450   2.337   4.566   9.724  0.8985 -1.1949 -0.6422
11337SOL     OW35451   1.476   7.768  11.290  0.0038  0.0840  0.1738
11337SOL    HW135452   1.528   7.848  11.293  1.5878 -0.8929 -0.0812
11337SOL    HW235453   1.407   7.782  11.355  0.9611  1.1653  1.0080
11338SOL     OW35454   4.416   6.528  12.349 -0.1075  0.1819  0.3001
11338SOL    HW135455   4.386   6.448  12.304 -0.1519  0.9182 -1.0313
11338SOL    HW235456   4.449   6.497  12.433  1.1166 -1.4345 -0.7075
11339SOL     OW35457   1.477   6.124  10.210 -0.1199  0.2905 -0.2554
11339SOL    HW135458   1.534   6.062  10.165  1.0111  0.9836  0.1554
11339SOL    HW235459   1.388   6.097  10.188  0.3539 -1.1971 -0.4284
11340SOL     OW35460   3.560   7.752  11.648  0.2112  0.1570  0.3443
11340SOL    HW135461   3.504   7.682  11.615 -0.4144  1.0398 -0.5384
11340SOL    HW235462   3.507   7.831  11.638  2.0895  1.2627 -1.8879
11341SOL     OW35463   3.366   7.936  11.828  0.3885  0.2910  0.4408
11341SOL    HW135464   3.284   7.907  11.867  0.5617  1.0393  1.3977
11341SOL    HW235465   3.429   7.866  11.849 -0.2990 -1.0180 -1.5829
11342SOL     OW35466   3.723   0.108   8.705  0.0686  0.5932  0.9793
11342SOL    HW135467   3.685   0.179   8.756 -0.3621  0.5966  0.6541
11342SOL    HW235468   3.803   0.146   8.668 -0.6272  1.2100  0.0533
11343SOL     OW35469   4.660   0.417  11.943  0.2123 -0.7767 -0.1971
11343SOL    HW135470   4.644   0.398  12.035 -3.3645  1.0258 -0.2562
11343SOL    HW235471   4.646   0.334  11.898 -0.6789 -1.1309  0.6978
11344SOL     OW35472   2.415   5.836  11.291  0.4219 -0.5062 -0.1537
11344SOL    HW135473   2.416   5.828  11.386 -0.3619  1.1939  0.0402
11344SOL    HW235474   2.322   5.845  11.269  0.7124  0.9790 -0.8741
11345SOL     OW35475   5.499   0.529  12.500  0.6569 -0.7427 -0.2284
11345SOL    HW135476   5.580   0.504  12.455  0.2332 -4.3077  0.6604
11345SOL    HW235477   5.430   0.482  12.452 -0.5934  0.2650  0.5159
11346SOL     OW35478   3.148   4.767  10.856  0.3242 -0.0522 -0.3337
11346SOL    HW135479   3.219   4.705  10.840  0.7300 -0.0209  1.1781
11346SOL    HW235480   3.082   4.747  10.789 -0.4343 -3.3968  1.2202
11347SOL     OW35481   1.765   6.407  12.034  0.1825  0.3294 -0.1536
11347SOL    HW135482   1.761   6.464  11.957  0.5816  0.5322 -0.0276
11347SOL    HW235483   1.774   6.467  12.108  0.7417  0.1022 -0.0323
11348SOL     OW35484   3.799   7.839   9.486  0.1938  0.3138 -0.3953
11348SOL    HW135485   3.727   7.840   9.423 -0.6992  1.0188  0.6045
11348SOL    HW235486   3.817   7.746   9.500 -1.3664  0.0906  0.2633
11349SOL     OW35487   1.860   5.064  10.903  0.2751  0.1952  0.0658
11349SOL    HW135488   1.890   5.034  10.989 -1.2772 -2.0282 -0.0778
11349SOL    HW235489   1.868   4.987  10.847 -0.8148  0.9833 -1.2267
11350SOL     OW35490   3.098   6.021  10.522 -0.0762  0.1684 -0.2182
11350SOL    HW135491   3.099   6.054  10.612  0.6484 -2.3977  0.7858
11350SOL    HW235492   3.190   6.018  10.496 -0.1003 -1.0772 -0.2284
11351SOL     OW35493   0.023   5.487   9.626 -0.2743 -0.1457  0.0334
11351SOL    HW135494   0.014   5.564   9.570 -0.9875  0.3919  0.8438
11351SOL    HW235495   0.097   5.438   9.590 -0.3623  0.4724 -1.0149
11352SOL     OW35496   3.101   7.207  10.743  0.3173  0.7018  0.9047
11352SOL    HW135497   3.012   7.197  10.709  0.7725  0.1493 -0.1841
11352SOL    HW235498   3.092   7.192  10.837 -0.8064  1.1330  0.8847
11353SOL     OW35499   3.601   5.763  10.175  0.1670  0.1709  0.2180
11353SOL    HW135500   3.653   5.708  10.116 -1.2018 -0.6237 -0.2928
11353SOL    HW235501   3.632   5.740  10.263  2.0493  1.1838 -0.1278
11354SOL     OW35502   3.231   6.443  11.450 -0.2523  0.2213  0.1425
11354SOL    HW135503   3.320   6.471  11.429 -1.0619  1.5997 -1.7234
11354SOL    HW235504   3.213   6.372  11.389 -1.2131  1.5304 -1.1595
11355SOL     OW35505   0.716   4.048  11.574 -0.0697  0.2218 -0.6787
11355SOL    HW135506   0.797   4.013  11.538 -0.9902 -0.4816 -2.1348
11355SOL    HW235507   0.667   3.971  11.604  0.0020  0.6770  0.6920
11356SOL     OW35508   3.800   7.052   8.324 -0.2839  0.1658  0.0347
11356SOL    HW135509   3.786   7.064   8.418 -2.0698 -0.5054 -0.1056
11356SOL    HW235510   3.784   7.139   8.286 -2.9301 -0.2081  0.0680
11357SOL     OW35511   2.828   6.899  10.070 -0.4399 -0.3317 -0.4653
11357SOL    HW135512   2.797   6.948   9.993 -0.9835 -1.8461 -1.2423
11357SOL    HW235513   2.767   6.923  10.140  0.3693  1.4670 -0.3224
11358SOL     OW35514   1.679   6.081   0.641  0.1684 -0.0945 -0.0250
11358SOL    HW135515   1.770   6.054   0.653  1.1424  3.3361  1.5731
11358SOL    HW235516   1.630   6.030   0.705  1.1892 -0.9790  0.0750
11359SOL     OW35517   5.167   7.858  10.869 -0.4009 -0.6391  0.7843
11359SOL    HW135518   5.183   7.769  10.899 -0.2965 -0.2233  2.0250
11359SOL    HW235519   5.073   7.871  10.879 -0.2793 -0.2947  1.5515
11360SOL     OW35520   3.344   5.490   0.186  0.1282  0.9881 -0.0526
11360SOL    HW135521   3.373   5.524   0.271 -0.8572  1.2393  0.1925
11360SOL    HW235522   3.394   5.541   0.122  0.7318  0.9350  0.3676
11361SOL     OW35523   2.600   5.918   8.460  0.3208 -0.2580  0.4008
11361SOL    HW135524   2.611   5.995   8.404 -2.7777 -0.4874 -0.7135
11361SOL    HW235525   2.597   5.844   8.400 -1.6302 -0.6650  0.9241
11362SOL     OW35526   4.152   7.245   9.080 -0.1582 -0.3902  0.1377
11362SOL    HW135527   4.193   7.170   9.122 -0.8346 -0.5927  0.4541
11362SOL    HW235528   4.141   7.219   8.989 -0.1367 -0.5735  0.1867
11363SOL     OW35529   2.988   6.125  10.065  0.5692  0.3448  0.2422
11363SOL    HW135530   2.980   6.220  10.054 -1.6040 -0.0196 -2.1417
11363SOL    HW235531   2.946   6.108  10.150  0.2707  1.4251  0.3318
11364SOL     OW35532   2.101   0.198   8.601 -0.4487  0.2133 -0.1199
11364SOL    HW135533   2.032   0.229   8.659 -0.6970  0.9701 -0.8072
11364SOL    HW235534   2.180   0.246   8.630 -0.3498 -0.1622  0.2394
11365SOL     OW35535   2.838   7.159  10.630 -0.0956  0.0391 -0.6501
11365SOL    HW135536   2.755   7.202  10.651 -0.1657  0.6454 -2.0859
11365SOL    HW235537   2.814   7.068  10.612 -0.7328  0.5784 -2.7298
11366SOL     OW35538   1.866   6.102   9.455 -0.2822  0.3539  0.0075
11366SOL    HW135539   1.901   6.089   9.543 -0.7636  1.5601  0.3998
11366SOL    HW235540   1.773   6.122   9.469 -0.0705  1.8810 -0.6613
11367SOL     OW35541   0.942   5.002  10.785 -0.1822 -0.3187 -0.0166
11367SOL    HW135542   1.010   4.936  10.803  0.9024  0.8622  0.3853
11367SOL    HW235543   0.926   5.043  10.870  0.3206  0.9869 -0.5242
11368SOL     OW35544   2.787   7.168  11.465  0.8448 -0.0996  0.1679
11368SOL    HW135545   2.697   7.156  11.496  1.6905 -1.7914  2.2306
11368SOL    HW235546   2.840   7.169  11.545  2.5982  1.9263 -0.9351
11369SOL     OW35547   3.159   7.559  11.699  0.5975  0.0674  0.2147
11369SOL    HW135548   3.087   7.566  11.636  1.0254  0.6134 -0.2161
11369SOL    HW235549   3.235   7.538  11.646  1.1564  1.4838  0.4139
11370SOL     OW35550   2.784   0.671  12.124  0.0879  0.0406  0.4569
11370SOL    HW135551   2.734   0.590  12.138 -0.6996  0.5654  0.7031
11370SOL    HW235552   2.874   0.647  12.147  0.0240 -0.9904 -0.2504
11371SOL     OW35553   2.623   6.284  10.394  0.5974 -0.2206 -0.6119
11371SOL    HW135554   2.623   6.268  10.299  0.4027 -1.1848 -0.4643
11371SOL    HW235555   2.705   6.247  10.425 -1.2514 -4.2237  0.2011
11372SOL     OW35556   1.716   5.485  11.322  0.2586 -0.2460  0.4724
11372SOL    HW135557   1.800   5.490  11.368 -0.3204  0.0708  1.5263
11372SOL    HW235558   1.729   5.417  11.256  1.7375  0.6466 -0.2243
11373SOL     OW35559   2.205   6.381  10.550 -0.2120  0.2222  0.1738
11373SOL    HW135560   2.206   6.466  10.506 -2.2682 -0.1016 -0.6073
11373SOL    HW235561   2.118   6.376  10.590  0.2762 -1.0793  1.1403
11374SOL     OW35562   3.628   6.302  11.306 -0.0846 -0.2785 -0.6774
11374SOL    HW135563   3.672   6.310  11.390 -0.1320 -0.3829 -0.6424
11374SOL    HW235564   3.699   6.300  11.241 -0.0402 -0.3733 -0.6267
11375SOL     OW35565   3.201   7.051   9.575 -0.3704 -0.0521  0.1963
11375SOL    HW135566   3.170   6.978   9.520  1.3409 -1.7288  1.3369
11375SOL    HW235567   3.276   7.086   9.527  0.2310 -0.5633  0.7624
11376SOL     OW35568   4.623   6.227  11.840  0.0016 -0.6401 -0.3633
11376SOL    HW135569   4.623   6.132  11.848  2.4629 -0.5751  2.1379
11376SOL    HW235570   4.714   6.250  11.823 -0.8218  1.2440 -2.7751
11377SOL     OW35571   3.414   6.205  12.211  0.5363  0.0177 -0.1805
11377SOL    HW135572   3.499   6.161  12.203  0.4476 -0.0050 -1.1337
11377SOL    HW235573   3.395   6.204  12.305  1.2259 -0.6653 -0.0379
11378SOL     OW35574   1.750   4.316   9.283  0.5629 -0.2518  0.2335
11378SOL    HW135575   1.779   4.388   9.228  1.6296 -1.2074 -0.4900
11378SOL    HW235576   1.733   4.357   9.368  0.7068  0.9258 -0.2858
11379SOL     OW35577   2.689   6.914  11.331  0.2775  0.0590 -0.2952
11379SOL    HW135578   2.696   7.000  11.371 -0.5999  0.9927 -2.0742
11379SOL    HW235579   2.779   6.889  11.310  0.4600  0.9446 -0.5780
11380SOL     OW35580   3.480   7.113   8.538  0.0085  0.0407 -0.2558
11380SOL    HW135581   3.553   7.134   8.596  1.1585 -0.4147 -1.4861
11380SOL    HW235582   3.483   7.018   8.530  0.2036  0.1313 -1.4559
11381SOL     OW35583   1.299   1.041   9.709 -0.6229 -0.5706  0.3945
11381SOL    HW135584   1.286   1.060   9.617 -0.0391 -2.1874 -0.0583
11381SOL    HW235585   1.211   1.039   9.747 -0.9018 -0.4094 -0.2390
11382SOL     OW35586   3.602   6.243   9.457 -0.0506 -0.2119 -0.3912
11382SOL    HW135587   3.524   6.299   9.452 -0.4118 -0.6809 -0.1008
11382SOL    HW235588   3.576   6.162   9.413  0.4184 -0.2157 -0.6689
11383SOL     OW35589   2.179   5.891   8.562 -0.3750 -0.4146  0.0076
11383SOL    HW135590   2.145   5.969   8.605  0.1045 -0.4349  0.4333
11383SOL    HW235591   2.105   5.857   8.511 -0.8451 -0.1945  0.5382
11384SOL     OW35592   2.752   6.836  11.791  0.3481  0.0143 -0.4041
11384SOL    HW135593   2.824   6.776  11.807  0.4819  0.2170 -0.2504
11384SOL    HW235594   2.793   6.916  11.760  0.1898  0.1334 -0.3075
11385SOL     OW35595   5.617   1.290  12.261 -0.7901  0.0158 -0.3261
11385SOL    HW135596   5.636   1.200  12.236 -0.9217  0.0414 -0.5247
11385SOL    HW235597   5.666   1.343  12.199 -0.5124  0.0823 -0.0507
11386SOL     OW35598   1.393   5.646   9.814 -0.4110  0.2006  0.6823
11386SOL    HW135599   1.325   5.659   9.881  0.0217 -0.6773  1.3128
11386SOL    HW235600   1.346   5.607   9.740 -0.7140  0.1783  0.8839
11387SOL     OW35601   2.865   0.071  11.366 -0.0379  0.0330  0.2836
11387SOL    HW135602   2.879   0.061  11.272 -2.5066 -0.5708 -0.0786
11387SOL    HW235603   2.937   0.022  11.406 -0.0669 -1.4139 -1.3077
11388SOL     OW35604   3.852   5.553  11.025 -0.0789  0.3959  0.0641
11388SOL    HW135605   3.867   5.631  10.973  2.0434  0.0409  0.0629
11388SOL    HW235606   3.923   5.552  11.089  0.6180 -2.0374 -0.6075
11389SOL     OW35607   4.267   0.095  11.244  0.1209  0.3873  0.2839
11389SOL    HW135608   4.308   0.124  11.326 -0.4214 -0.5885  0.9289
11389SOL    HW235609   4.237   0.175  11.202  0.9360  0.9527  0.7586
11390SOL     OW35610   2.309   5.150  10.853 -0.1190 -0.5103 -0.7677
11390SOL    HW135611   2.254   5.111  10.785 -2.1851 -2.7299  1.9433
11390SOL    HW235612   2.295   5.244  10.844 -0.9984 -0.7686 -2.7774
11391SOL     OW35613   2.201   6.169  10.214  0.5983 -0.4383  0.3294
11391SOL    HW135614   2.227   6.105  10.147 -0.4869  0.2326 -0.7687
11391SOL    HW235615   2.221   6.126  10.297  1.7098 -1.4127 -0.4046
11392SOL     OW35616   2.905   0.331  10.840 -1.2600  0.0503 -0.5629
11392SOL    HW135617   2.845   0.367  10.774 -0.8977  0.7068 -0.5425
11392SOL    HW235618   2.967   0.279  10.790  0.1279  1.9964 -1.0207
11393SOL     OW35619   3.403   6.762   9.626  0.6331 -0.3357  0.2601
11393SOL    HW135620   3.451   6.804   9.698 -1.8698  0.3773  1.6405
11393SOL    HW235621   3.364   6.685   9.666  0.2670 -0.6579 -0.7009
11394SOL     OW35622   4.586   6.480  11.937  0.6537  0.3156 -0.1075
11394SOL    HW135623   4.561   6.390  11.917  0.3019  0.1891  0.8306
11394SOL    HW235624   4.675   6.488  11.903  1.1982 -0.8216  0.9559
11395SOL     OW35625   4.049   6.823  10.139 -0.2774 -0.1194  0.8483
11395SOL    HW135626   4.033   6.729  10.131  1.2104 -0.2703 -1.3837
11395SOL    HW235627   4.116   6.830  10.207  0.4744 -0.8255  0.2087
11396SOL     OW35628   2.207   7.043  10.062  0.2507  0.3985 -0.5039
11396SOL    HW135629   2.128   7.049  10.008  0.3558 -0.4256 -0.7761
11396SOL    HW235630   2.217   7.129  10.101 -1.3420  0.2553  0.3047
11397SOL     OW35631   3.455   0.534  10.467  0.3562  0.1011 -0.1384
11397SOL    HW135632   3.456   0.518  10.373 -0.8738 -0.8090 -0.0276
11397SOL    HW235633   3.542   0.506  10.497  0.7190  0.2948 -0.9727
11398SOL     OW35634   2.812   3.992  10.813  0.5086 -0.3834  0.1338
11398SOL    HW135635   2.879   3.926  10.832  1.7344 -0.1352 -2.7813
11398SOL    HW235636   2.849   4.074  10.844  1.3457 -0.3429 -0.9021
11399SOL     OW35637   3.771   6.408   9.933 -0.7721 -0.1756 -0.8611
11399SOL    HW135638   3.708   6.338   9.918 -0.8842 -0.0302 -1.0761
11399SOL    HW235639   3.853   6.363   9.953 -1.0009 -0.3676 -0.3247
11400SOL     OW35640   3.751   5.972   9.623 -0.6436  1.0674 -0.1691
11400SOL    HW135641   3.655   5.977   9.618 -0.7182  1.8267  1.3189
11400SOL    HW235642   3.782   6.038   9.561 -1.0568  0.4107 -1.0946
11401SOL     OW35643   1.224   5.060  10.515 -0.1041 -0.1919  0.7384
11401SOL    HW135644   1.183   4.978  10.488  0.8522 -0.3654 -0.2870
11401SOL    HW235645   1.172   5.128  10.471  0.0153 -0.3435  0.3564
11402SOL     OW35646   3.080   6.812   8.958  0.4501 -0.2068 -0.2349
11402SOL    HW135647   3.171   6.841   8.952  0.5316 -0.6146 -1.1658
11402SOL    HW235648   3.041   6.839   8.875 -0.0660 -0.7339 -0.1694
11403SOL     OW35649   3.475   6.423   8.715  0.5920 -0.2650 -0.4095
11403SOL    HW135650   3.482   6.503   8.768  0.8098 -1.2042  1.0337
11403SOL    HW235651   3.563   6.387   8.713  0.2248 -1.2394  0.2262
11404SOL     OW35652   4.102   5.850  10.065 -0.0345 -0.0352 -0.1579
11404SOL    HW135653   4.103   5.895   9.981 -0.4898 -0.8111 -0.5921
11404SOL    HW235654   4.131   5.761  10.045 -1.2486 -0.5518  0.2966
11405SOL     OW35655   2.134   7.532   8.239 -0.0649  0.5718  0.4338
11405SOL    HW135656   2.190   7.577   8.175 -0.1873 -1.3631 -1.1124
11405SOL    HW235657   2.191   7.468   8.281 -0.6374 -0.0594  0.2694
11406SOL     OW35658   0.689   0.142  10.266  0.5458  0.3072 -0.5859
11406SOL    HW135659   0.711   0.212  10.328 -0.7894 -0.2989  0.6194
11406SOL    HW235660   0.774   0.110  10.235  1.2802  0.3347  1.2905
11407SOL     OW35661   3.407   4.441  11.493 -0.9105  0.1352 -0.3236
11407SOL    HW135662   3.422   4.470  11.583  0.2114  0.5491 -0.6256
11407SOL    HW235663   3.495   4.431  11.457 -1.3511  1.3254 -1.7996
11408SOL     OW35664   3.263   5.932  10.863 -0.4174  0.2359  0.8185
11408SOL    HW135665   3.263   5.855  10.807 -0.3067  0.5747  0.3502
11408SOL    HW235666   3.190   5.985  10.831  0.9668  1.4573 -0.4463
11409SOL     OW35667   1.614   6.185   9.499  0.0957  0.0433 -0.2972
11409SOL    HW135668   1.548   6.169   9.432 -0.4584  0.6023  0.1032
11409SOL    HW235669   1.592   6.124   9.570  1.1911 -1.1580 -0.9447
11410SOL     OW35670   4.061   5.501  11.481 -0.0512 -0.0444 -0.1125
11410SOL    HW135671   4.137   5.484  11.536  0.5336 -1.9242 -1.3990
11410SOL    HW235672   4.022   5.414  11.465 -2.7269  0.8747  0.8077
11411SOL     OW35673   2.220   4.453   9.695  0.2834  0.7245 -0.1811
11411SOL    HW135674   2.260   4.392   9.632 -1.0220 -0.0182 -0.3382
11411SOL    HW235675   2.141   4.484   9.651  0.0602  1.2379  0.5640
11412SOL     OW35676   2.893   7.935  11.081  0.0400 -0.3038 -0.4639
11412SOL    HW135677   2.874   7.851  11.039  2.0377 -1.1432  0.1751
11412SOL    HW235678   2.937   7.986  11.012  1.8587 -1.0860  0.0443
11413SOL     OW35679   2.133   6.205  11.959 -0.2928  0.2092  0.1068
11413SOL    HW135680   2.064   6.192  12.024  0.3207 -0.5073  0.6440
11413SOL    HW235681   2.131   6.125  11.905 -0.2733  0.4433 -0.2428
11414SOL     OW35682   4.825   0.078  10.655 -0.1909  0.0891 -0.2666
11414SOL    HW135683   4.907   0.116  10.687  0.7811 -0.6038 -1.8226
11414SOL    HW235684   4.842  -0.016  10.654 -0.7737 -0.0189 -1.1617
11415SOL     OW35685   1.295   0.130   8.849  0.2366  0.3459  0.1608
11415SOL    HW135686   1.317   0.086   8.931  0.1778 -2.0529 -1.0555
11415SOL    HW235687   1.371   0.116   8.792 -0.6433 -0.0097 -0.9625
11416SOL     OW35688   5.609   7.409   9.138 -0.1001  1.2860 -0.7073
11416SOL    HW135689   5.514   7.419   9.141 -0.4649 -1.5218 -0.9464
11416SOL    HW235690   5.634   7.435   9.050 -1.1449 -1.1449 -1.7878
11417SOL     OW35691   3.883   0.202  11.602  0.0734  0.0228 -0.5338
11417SOL    HW135692   3.888   0.249  11.519  0.1727  1.4124  0.2286
11417SOL    HW235693   3.971   0.168  11.615  1.3174  3.3862  0.9602
11418SOL     OW35694   3.952   0.043   9.615  0.1764 -0.1851  0.0313
11418SOL    HW135695   3.906   0.126   9.626  1.8472  0.8014 -0.0659
11418SOL    HW235696   3.896  -0.007   9.556 -2.7508 -0.6881  2.9278
11419SOL     OW35697   4.265   7.396  10.068  0.6891  0.3576  0.1929
11419SOL    HW135698   4.342   7.431  10.023  0.7833  0.3054  0.3148
11419SOL    HW235699   4.292   7.310  10.099 -0.0121 -0.5062 -1.4459
11420SOL     OW35700   1.872   5.192  10.640 -0.5237  0.3293  0.5913
11420SOL    HW135701   1.826   5.109  10.647  0.7705 -0.4013  0.6685
11420SOL    HW235702   1.849   5.239  10.721 -3.1239  1.0775 -0.4872
11421SOL     OW35703   2.196   4.868  10.249 -0.1898 -0.2969 -0.2138
11421SOL    HW135704   2.190   4.800  10.182 -0.9597  0.1550 -0.6188
11421SOL    HW235705   2.137   4.839  10.318  0.6527 -0.7953  0.3241
11422SOL     OW35706   5.094   7.519  11.275 -0.0739  0.4823 -0.3923
11422SOL    HW135707   5.152   7.509  11.351  3.1643  0.4796 -2.6617
11422SOL    HW235708   5.080   7.613  11.267 -0.8689  0.4499  0.4618
11423SOL     OW35709   3.606   6.948   9.248 -0.2069  0.2354 -0.3420
11423SOL    HW135710   3.636   7.038   9.236  1.7011 -0.2670  0.3570
11423SOL    HW235711   3.622   6.929   9.341 -2.4489 -0.2159  0.0266
11424SOL     OW35712   3.214   7.615   0.668 -0.2483 -0.3181 -0.1399
11424SOL    HW135713   3.151   7.549   0.640  1.0695 -1.2846 -0.9875
11424SOL    HW235714   3.226   7.597   0.762 -0.1244 -1.1191 -0.2947
11425SOL     OW35715   2.809   6.601  10.348  0.0402  0.5053  0.1427
11425SOL    HW135716   2.877   6.667  10.335 -0.5245  0.7664 -1.6395
11425SOL    HW235717   2.747   6.615  10.276 -0.8356 -1.0554  0.5508
11426SOL     OW35718   2.341   4.661   9.377 -0.1459  0.1247 -0.2136
11426SOL    HW135719   2.350   4.686   9.286 -1.3734 -0.1498 -0.4412
11426SOL    HW235720   2.397   4.584   9.387 -0.3186 -0.0877 -0.8460
11427SOL     OW35721   4.952   6.914  11.325  0.0751  0.1101  0.1100
11427SOL    HW135722   4.953   6.844  11.260 -0.2176 -0.1429  0.3702
11427SOL    HW235723   4.859   6.927  11.343  0.1839 -1.6553  2.4185
11428SOL     OW35724   1.408   7.669  11.037  0.6313 -0.2114  0.4147
11428SOL    HW135725   1.495   7.629  11.038  0.5040 -0.6228  3.1501
11428SOL    HW235726   1.403   7.717  11.120 -0.8874  1.8179 -0.7600
11429SOL     OW35727   2.054   0.757  10.648  0.0808  0.8070  0.2272
11429SOL    HW135728   2.060   0.665  10.673 -2.1915  0.7159  0.6107
11429SOL    HW235729   2.051   0.756  10.552  1.0910  0.5847  0.1864
11430SOL     OW35730   2.854   6.352  10.761 -0.0985  0.0395 -0.1163
11430SOL    HW135731   2.892   6.366  10.674 -1.0688  2.5161 -0.2154
11430SOL    HW235732   2.776   6.298  10.745 -1.2630  1.9113 -1.0786
11431SOL     OW35733   2.523   7.146   9.382 -0.2738 -0.1227  0.5412
11431SOL    HW135734   2.590   7.079   9.374 -1.1443 -0.9062 -0.5003
11431SOL    HW235735   2.453   7.118   9.322 -1.1264  1.1450  0.8918
11432SOL     OW35736   2.606   6.679   9.057 -0.2684  0.3673 -0.6636
11432SOL    HW135737   2.550   6.709   8.985 -0.5820 -0.3520 -0.7313
11432SOL    HW235738   2.695   6.694   9.026 -0.3989 -0.0477 -1.2644
11433SOL     OW35739   3.966   7.845  11.434  0.3376  0.0337  0.1165
11433SOL    HW135740   4.008   7.894  11.505 -0.4247  0.1811  0.4809
11433SOL    HW235741   4.016   7.868  11.356  1.0126  0.0905  0.5599
11434SOL     OW35742   0.705   5.227   9.263  0.2949  0.1840 -0.1338
11434SOL    HW135743   0.701   5.177   9.182  0.0694  0.1857 -0.1233
11434SOL    HW235744   0.743   5.167   9.327  0.5729  0.2176 -0.2675
11435SOL     OW35745   1.568   6.772   9.719 -0.1668  0.2166  0.5736
11435SOL    HW135746   1.559   6.865   9.700 -0.4222  0.0144 -0.3273
11435SOL    HW235747   1.491   6.750   9.771 -1.2950  0.0467 -1.0917
11436SOL     OW35748   1.346   6.932   0.965  0.1870  0.2658 -0.0173
11436SOL    HW135749   1.358   7.026   0.975  1.0523  0.3230 -1.3612
11436SOL    HW235750   1.338   6.899   1.055 -0.8827  1.6948  0.4376
11437SOL     OW35751   1.666   5.244  10.895  0.1859  0.2745  0.0694
11437SOL    HW135752   1.737   5.180  10.896 -0.3588 -0.6184 -3.4512
11437SOL    HW235753   1.597   5.202  10.844 -1.8213  2.1813  1.0324
11438SOL     OW35754   3.115   7.492   8.892  0.1271  0.3982 -0.2348
11438SOL    HW135755   3.068   7.416   8.927  1.2306  0.5432  1.6780
11438SOL    HW235756   3.107   7.483   8.797 -0.0988 -1.9196 -0.0592
11439SOL     OW35757   1.990   1.342  10.468 -0.3136 -0.1627 -0.3783
11439SOL    HW135758   1.939   1.264  10.447 -0.0465 -0.4529  0.0416
11439SOL    HW235759   1.925   1.407  10.495 -0.6206  0.0611 -1.5935
11440SOL     OW35760   2.767   5.545   8.794  0.6916 -0.0510 -0.3674
11440SOL    HW135761   2.702   5.494   8.843  0.3756  0.7647  0.0855
11440SOL    HW235762   2.726   5.560   8.709 -0.0661  1.1076  0.1731
11441SOL     OW35763   3.844   6.975   9.069 -0.5799 -0.2206  0.1795
11441SOL    HW135764   3.913   6.991   9.004 -0.8870 -0.0665 -0.1126
11441SOL    HW235765   3.768   7.020   9.034 -0.5112  0.6691  1.1110
11442SOL     OW35766   2.445   7.412   9.042 -0.6038  0.5606 -0.2561
11442SOL    HW135767   2.480   7.495   9.012  0.6565 -0.0174 -0.4204
11442SOL    HW235768   2.474   7.348   8.977 -1.0523 -0.1023  0.1809
11443SOL     OW35769   2.482   4.817  10.263 -0.0698  0.0929  0.1907
11443SOL    HW135770   2.569   4.849  10.284 -0.3139 -0.4698  2.2749
11443SOL    HW235771   2.496   4.748  10.198  0.7243  2.0022 -1.8186
11444SOL     OW35772   3.125   0.769   9.122 -0.0275 -0.2034  0.3569
11444SOL    HW135773   3.151   0.717   9.046  1.3307  1.5219 -0.4275
11444SOL    HW235774   3.070   0.838   9.086 -1.6770 -0.9300  1.3664
11445SOL     OW35775   2.081   4.779  10.512  0.2823  0.4958  0.0121
11445SOL    HW135776   1.992   4.790  10.478  0.6537 -0.4487 -1.3546
11445SOL    HW235777   2.070   4.723  10.589 -0.4874  1.9408  0.9847
11446SOL     OW35778   1.534   6.426  10.472 -0.3558  0.2194  0.1502
11446SOL    HW135779   1.573   6.380  10.398  0.7324  1.4892 -0.1228
11446SOL    HW235780   1.468   6.366  10.506 -0.3970 -0.6860 -1.4095
11447SOL     OW35781   1.778   6.607   0.095 -0.2716 -0.3891 -0.7155
11447SOL    HW135782   1.843   6.586   0.162 -0.4405  0.2531 -0.3374
11447SOL    HW235783   1.696   6.618   0.144 -0.3090  0.5171 -0.9608
11448SOL     OW35784   2.753   7.796   0.074 -0.9071  0.6625  0.3559
11448SOL    HW135785   2.759   7.709   0.034  1.2870  0.6200  0.6366
11448SOL    HW235786   2.808   7.790   0.153 -0.1698  2.4650  0.0383
11449SOL     OW35787   5.125   7.368   0.713 -0.4449 -0.0551 -0.1443
11449SOL    HW135788   5.116   7.375   0.808  2.2884 -2.6799  0.4562
11449SOL    HW235789   5.050   7.316   0.685 -0.6462 -0.2738  0.7741
11450SOL     OW35790   2.544   5.151  10.372  0.9176  1.0566 -0.0561
11450SOL    HW135791   2.619   5.127  10.318  2.0960 -0.1799  2.0454
11450SOL    HW235792   2.582   5.191  10.450 -0.7802  3.8295 -0.5058
11451SOL     OW35793   2.469   3.097  11.585 -0.2005  0.3193  0.0724
11451SOL    HW135794   2.390   3.057  11.622 -1.0913  2.0620  0.1717
11451SOL    HW235795   2.475   3.061  11.497 -1.3109  0.3994 -0.0535
11452SOL     OW35796   1.641   7.528  11.535 -0.0709 -0.5587  0.6253
11452SOL    HW135797   1.649   7.615  11.574  0.3939 -1.1507  1.9278
11452SOL    HW235798   1.731   7.498  11.526 -0.2448 -1.1258  0.7323
11453SOL     OW35799   1.733   6.132  11.257 -0.0204  0.1140  0.7346
11453SOL    HW135800   1.683   6.148  11.177  1.8834 -0.9549 -0.7566
11453SOL    HW235801   1.676   6.078  11.311 -0.4611 -1.2460 -1.0009
11454SOL     OW35802   3.060   6.026  12.376 -0.0180 -0.1012  0.7173
11454SOL    HW135803   3.047   6.102  12.432  0.5797 -0.1091  0.8706
11454SOL    HW235804   2.972   5.999  12.351 -0.2558  0.3097  1.1053
11455SOL     OW35805   3.017   5.667  11.056  0.1802  0.5890 -0.4384
11455SOL    HW135806   2.961   5.718  10.997  0.7160  1.3642 -0.2940
11455SOL    HW235807   3.081   5.626  10.997  1.5422  2.4204 -0.3344
11456SOL     OW35808   1.209   7.999  11.978 -0.2464 -0.0680  0.1004
11456SOL    HW135809   1.157   7.977  11.901  0.5226 -0.2951 -0.3620
11456SOL    HW235810   1.300   7.993  11.948  0.0372  1.2775  0.6277
11457SOL     OW35811   1.162   5.977   0.378  0.8646 -0.4876 -0.0433
11457SOL    HW135812   1.215   5.987   0.458  1.8201 -0.4796 -0.6549
11457SOL    HW235813   1.152   6.065   0.345 -0.0690 -0.4238  0.3937
11458SOL     OW35814   1.928   4.421   0.664 -0.2191 -0.2741  0.3358
11458SOL    HW135815   1.954   4.474   0.740  0.5083  0.6465 -0.5285
11458SOL    HW235816   1.918   4.485   0.593  1.6720 -1.3656 -1.0058
11459SOL     OW35817   3.413   5.761  11.487 -0.0033  0.5301 -0.3397
11459SOL    HW135818   3.415   5.787  11.395 -1.7480  0.5006 -0.4255
11459SOL    HW235819   3.430   5.667  11.486  0.4800  0.6178 -0.5777
11460SOL     OW35820   1.438   6.917  10.240  0.0123 -0.0578  0.5356
11460SOL    HW135821   1.418   6.836  10.287  0.0439  0.0695  0.7682
11460SOL    HW235822   1.355   6.964  10.235  0.5545  1.3790  3.2090
11461SOL     OW35823   4.591   6.916  12.152  0.4233 -0.5508  0.0621
11461SOL    HW135824   4.604   6.959  12.237 -1.1138 -0.7906  0.4456
11461SOL    HW235825   4.596   6.823  12.171 -0.7536 -0.6301  0.0696
11462SOL     OW35826   2.374   5.870   0.568  0.3903 -0.0917  0.0752
11462SOL    HW135827   2.344   5.787   0.533 -0.4137 -0.3007  1.2058
11462SOL    HW235828   2.347   5.869   0.660  1.7883  0.7373  0.5267
11463SOL     OW35829   2.984   5.370  11.597 -0.4679  0.0682 -0.4104
11463SOL    HW135830   2.957   5.415  11.516  1.0062  0.4390 -0.7336
11463SOL    HW235831   2.973   5.436  11.665  3.2816  1.7230 -1.1067
11464SOL     OW35832   3.140   5.859   0.297 -0.2073  0.7451  0.0301
11464SOL    HW135833   3.173   5.829   0.213 -0.9249  0.7249 -0.2473
11464SOL    HW235834   3.219   5.869   0.351  0.1305 -0.7972 -0.1277
11465SOL     OW35835   3.808   3.957   0.149  0.3733  0.2666 -0.3070
11465SOL    HW135836   3.812   3.926   0.059  0.7393  0.5913 -0.4036
11465SOL    HW235837   3.775   4.047   0.142 -2.7772 -0.7376  0.1069
11466SOL     OW35838   2.688   7.045  12.075 -0.5507 -0.2638  0.2281
11466SOL    HW135839   2.711   6.994  12.153 -3.3973 -0.3920  1.1309
11466SOL    HW235840   2.770   7.084  12.046  1.3883 -3.5872  0.7559
11467SOL     OW35841   3.015   5.185   0.505 -0.6795 -0.5013 -0.1216
11467SOL    HW135842   3.101   5.166   0.466 -0.9886  0.8187 -1.5510
11467SOL    HW235843   2.952   5.151   0.441 -1.2053  1.4537 -0.6968
11468SOL     OW35844   2.800   7.471   0.080 -0.2091  0.2318  0.0830
11468SOL    HW135845   2.819   7.405   0.014 -0.0369  1.0377 -0.7033
11468SOL    HW235846   2.706   7.466   0.095 -0.3915  0.6208 -0.8804
11469SOL     OW35847   4.435   6.840  11.529  0.1121  0.0659  0.1177
11469SOL    HW135848   4.481   6.823  11.611  0.9964 -1.2234 -0.6081
11469SOL    HW235849   4.345   6.814  11.545  0.1813  0.2521  0.8133
11470SOL     OW35850   4.144   6.541  10.726  0.0933  0.0414 -0.1999
11470SOL    HW135851   4.217   6.502  10.773 -0.4439  0.1672  0.7682
11470SOL    HW235852   4.142   6.632  10.756  1.4366  0.9601 -2.5413
11471SOL     OW35853   2.435   6.926  12.470 -0.1664  0.3585  0.6228
11471SOL    HW135854   2.477   6.976  12.541  2.2776 -0.5108 -0.0838
11471SOL    HW235855   2.447   6.834  12.496  0.2276  0.0426 -0.6058
11472SOL     OW35856   1.112   4.104   9.886 -0.0308 -0.0271 -0.2900
11472SOL    HW135857   1.168   4.040   9.929  0.4455  1.1564  0.9550
11472SOL    HW235858   1.121   4.183   9.940 -1.0888  0.8907 -1.3982
11473SOL     OW35859   2.661   5.002  11.710  0.2237 -0.2996 -0.6718
11473SOL    HW135860   2.617   4.929  11.665 -0.1104 -0.1015 -0.6693
11473SOL    HW235861   2.754   4.985  11.697  0.3741 -2.7180  2.3399
11474SOL     OW35862   2.259   0.233  10.973 -0.2723  0.1567  0.2625
11474SOL    HW135863   2.304   0.248  11.056 -1.1195  1.5205  0.5108
11474SOL    HW235864   2.180   0.184  10.997 -0.3774  0.3082  0.2297
11475SOL     OW35865   3.493   6.903  11.105  0.1708 -0.0045  0.3425
11475SOL    HW135866   3.446   6.975  11.063 -0.0293  0.0746  0.6950
11475SOL    HW235867   3.561   6.946  11.157  1.1771 -0.1562 -0.8101
11476SOL     OW35868   3.177   4.163  12.048 -0.3500  0.7195  0.6671
11476SOL    HW135869   3.179   4.206  12.134 -1.4099  0.9979  0.5728
11476SOL    HW235870   3.092   4.120  12.045 -0.7712  1.5742 -0.6355
11477SOL     OW35871   2.416   6.087  11.872  0.5171 -0.0010 -0.1468
11477SOL    HW135872   2.431   6.047  11.958  0.4679 -1.6675 -0.8737
11477SOL    HW235873   2.381   6.173  11.892 -0.8119 -0.8570  1.5225
11478SOL     OW35874   2.237   4.236   0.353 -0.3824  0.3851  0.3672
11478SOL    HW135875   2.325   4.262   0.381 -0.0134 -0.2331 -0.1848
11478SOL    HW235876   2.189   4.319   0.346 -0.5132  0.5824  2.7887
11479SOL     OW35877   3.920   7.574   0.464 -0.4196 -0.2249  0.1236
11479SOL    HW135878   3.871   7.517   0.405 -2.0899 -0.1194  1.3429
11479SOL    HW235879   3.853   7.618   0.516  0.9539  0.6283  1.2354
11480SOL     OW35880   1.574   7.658  10.032 -0.3420  0.0560 -0.3218
11480SOL    HW135881   1.544   7.575  10.070  0.7513  0.0438  0.5470
11480SOL    HW235882   1.614   7.705  10.105 -0.6755  1.2329 -0.8727
11481SOL     OW35883   0.732   7.211   0.375  0.0206 -0.3069 -0.3406
11481SOL    HW135884   0.778   7.161   0.442 -0.7841 -1.8196 -0.8666
11481SOL    HW235885   0.705   7.291   0.420  2.4235  0.2997  0.1866
11482SOL     OW35886   4.317   6.721   0.161 -0.1671 -0.0298 -0.3504
11482SOL    HW135887   4.312   6.757   0.250  1.6501 -0.0738 -0.1979
11482SOL    HW235888   4.245   6.763   0.114 -1.9717 -0.9381  1.4253
11483SOL     OW35889   3.884   5.057   9.988  0.9056 -0.4298 -0.3307
11483SOL    HW135890   3.838   5.056  10.072  1.5948  0.8348  0.0931
11483SOL    HW235891   3.833   4.999   9.932 -1.9665  1.7545 -0.2397
11484SOL     OW35892   5.225   4.886  11.865  0.0827 -0.3564  0.7064
11484SOL    HW135893   5.190   4.969  11.835  1.2436  0.2078  0.8391
11484SOL    HW235894   5.283   4.909  11.937  0.0798 -1.3314  1.0389
11485SOL     OW35895   1.365   7.266  12.333 -0.1417  0.2500  0.1863
11485SOL    HW135896   1.351   7.206  12.260  1.4638  0.5741 -0.4295
11485SOL    HW235897   1.420   7.217  12.394  0.1280  0.6571  0.2750
11486SOL     OW35898   3.261   5.654  12.344 -0.3805 -0.2229  0.4824
11486SOL    HW135899   3.191   5.698  12.296  0.2235 -0.6739 -0.8647
11486SOL    HW235900   3.273   5.706  12.423 -1.2748  0.6548  0.0592
11487SOL     OW35901   2.920   7.799  11.334  0.5979  0.0867 -0.3287
11487SOL    HW135902   2.932   7.836  11.246 -0.2090 -0.9901 -0.9124
11487SOL    HW235903   2.826   7.782  11.340  0.7204 -0.3282  0.5607
11488SOL     OW35904   3.241   4.480  12.049  0.4490  0.6270  0.4190
11488SOL    HW135905   3.210   4.390  12.042 -0.4740  1.0595 -1.5774
11488SOL    HW235906   3.298   4.480  12.126 -0.9385 -1.2419  1.5298
11489SOL     OW35907   1.821   6.255   1.577  0.7157  0.2034  0.2345
11489SOL    HW135908   1.834   6.258   1.672  0.9789  1.1478  0.1807
11489SOL    HW235909   1.868   6.177   1.549  1.5714  0.5110  0.7571
11490SOL     OW35910   2.178   6.284   0.127 -0.1166 -0.2677 -0.6809
11490SOL    HW135911   2.165   6.359   0.185  0.9578 -0.3439 -0.3246
11490SOL    HW235912   2.251   6.311   0.070 -0.4090 -0.6401 -1.2381
11491SOL     OW35913   2.667   4.741  10.962 -0.4628  0.3829 -0.0950
11491SOL    HW135914   2.636   4.817  11.011  1.3790  1.4098 -0.4364
11491SOL    HW235915   2.598   4.676  10.973 -1.0121  1.2508  2.2407
11492SOL     OW35916   3.520   6.045  10.795  0.4669 -0.4747 -0.3111
11492SOL    HW135917   3.562   6.015  10.876 -0.0811  0.5596  0.3836
11492SOL    HW235918   3.428   6.021  10.806  0.4347 -0.5507 -0.7430
11493SOL     OW35919   1.669   6.104  10.939  0.4200  0.5498 -0.3962
11493SOL    HW135920   1.658   6.087  10.845 -0.9094  0.5986 -0.2677
11493SOL    HW235921   1.650   6.198  10.948  0.8624  0.6173 -0.1066
11494SOL     OW35922   1.013   7.269  12.391 -0.2126  0.0842 -0.1823
11494SOL    HW135923   1.027   7.363  12.383  0.8364 -0.1388 -1.3437
11494SOL    HW235924   1.042   7.234  12.307 -0.5606 -1.2837  0.2459
11495SOL     OW35925   0.855   4.698   0.012  0.0566  0.4804 -0.4121
11495SOL    HW135926   0.915   4.709   0.086 -0.7616  1.9341  0.0890
11495SOL    HW235927   0.770   4.685   0.052  0.1076 -2.6504 -1.1090
11496SOL     OW35928   2.978   6.130  11.294 -0.6315 -0.1276  0.6650
11496SOL    HW135929   2.888   6.140  11.263 -0.3999 -0.5366 -0.1825
11496SOL    HW235930   2.969   6.099  11.384 -1.3395 -0.1710  0.5887
11497SOL     OW35931   2.604   6.034  10.846  0.1893 -0.3792  0.0887
11497SOL    HW135932   2.611   6.108  10.785 -0.3705  0.3052  0.8347
11497SOL    HW235933   2.688   6.033  10.893 -0.0097  0.1332  0.4611
11498SOL     OW35934   3.950   5.238  11.307 -0.3408  0.1475  0.1014
11498SOL    HW135935   4.007   5.163  11.294 -0.4040 -0.1693  1.5139
11498SOL    HW235936   3.876   5.224  11.248  0.1997 -0.3195 -0.4634
11499SOL     OW35937   4.447   5.223  12.075  0.1215  0.0625  0.4225
11499SOL    HW135938   4.494   5.295  12.117 -0.6447  0.1959  1.0871
11499SOL    HW235939   4.355   5.238  12.098 -0.3792  0.2839 -1.5367
11500SOL     OW35940   1.313   6.707   9.196  0.1055  0.2053 -0.2610
11500SOL    HW135941   1.347   6.774   9.137  1.2940  0.5410  0.7586
11500SOL    HW235942   1.381   6.697   9.263 -1.7758  0.8904  1.8888
11501SOL     OW35943   2.305   7.706   0.792  1.0394 -0.2648 -0.5057
11501SOL    HW135944   2.250   7.778   0.821  0.9822 -0.2995 -0.5275
11501SOL    HW235945   2.244   7.635   0.771  1.0829 -0.2510 -0.6816
11502SOL     OW35946   2.078   6.553  11.495  0.6231 -0.4536  0.0455
11502SOL    HW135947   2.065   6.595  11.410  1.6192  0.7493  0.4537
11502SOL    HW235948   1.993   6.515  11.516  0.1225 -0.0103 -1.0813
11503SOL     OW35949   3.378   5.564  11.868  1.0917 -0.0482 -0.1752
11503SOL    HW135950   3.357   5.493  11.928  1.7321 -1.2094 -1.2829
11503SOL    HW235951   3.432   5.523  11.800 -0.8347  0.8802 -2.3782
11504SOL     OW35952   2.639   6.601  10.156 -0.2418 -0.1029  0.4211
11504SOL    HW135953   2.561   6.589  10.210  0.1310 -2.5543  0.5599
11504SOL    HW235954   2.605   6.614  10.068 -0.8127  1.3492  0.8255
11505SOL     OW35955   4.144   3.877  11.115  0.0392 -0.1484 -0.4108
11505SOL    HW135956   4.121   3.967  11.090  0.7602 -0.5446 -2.7578
11505SOL    HW235957   4.071   3.849  11.170 -0.6785  1.5545 -0.4121
11506SOL     OW35958   4.566   7.784  11.740  0.3070 -0.5736 -0.9931
11506SOL    HW135959   4.540   7.852  11.678  0.1681  1.9036  1.5571
11506SOL    HW235960   4.484   7.741  11.765 -0.0925  0.5634 -0.2544
11507SOL     OW35961   3.162   6.157  11.766  0.0475 -0.0080 -0.0140
11507SOL    HW135962   3.195   6.068  11.751 -1.8007 -0.5364 -1.3380
11507SOL    HW235963   3.227   6.214  11.726  0.7921 -0.8299  0.0053
11508SOL     OW35964   4.616   5.752  12.134 -0.3522 -0.5801 -0.1031
11508SOL    HW135965   4.583   5.842  12.127  0.4053 -0.3518 -0.8420
11508SOL    HW235966   4.548   5.706  12.183 -0.2255  0.6545  1.2965
11509SOL     OW35967   3.195   4.703  11.165 -0.3176 -0.0126 -0.2240
11509SOL    HW135968   3.161   4.753  11.090 -0.1114 -1.7159 -1.5204
11509SOL    HW235969   3.119   4.656  11.199 -0.3641  0.5834  0.5363
11510SOL     OW35970   3.605   0.266  12.438  0.4850 -0.3119  0.1987
11510SOL    HW135971   3.627   0.269  12.531 -1.6858  3.7120  0.8172
11510SOL    HW235972   3.682   0.301  12.394  0.2464  1.1786  0.9152
11511SOL     OW35973   3.705   5.582  11.424  0.3396  0.5167  0.5403
11511SOL    HW135974   3.613   5.555  11.422  0.6221 -0.5465 -2.2941
11511SOL    HW235975   3.754   5.500  11.420  1.4797  1.0447  2.4266
11512SOL     OW35976   1.454   5.802   0.155  0.2611 -0.0560 -0.1837
11512SOL    HW135977   1.504   5.735   0.109  0.4957  0.8151 -1.2299
11512SOL    HW235978   1.439   5.871   0.090 -0.8850  0.4454  0.5648
11513SOL     OW35979   4.000   6.617  11.959 -0.1904 -0.1816 -0.3138
11513SOL    HW135980   4.054   6.686  11.998  1.3905 -1.8201  0.5203
11513SOL    HW235981   3.934   6.598  12.026  1.2405 -1.5301  0.7984
11514SOL     OW35982   2.691   6.963   0.469 -0.3083  0.1433  0.6356
11514SOL    HW135983   2.707   6.869   0.476  1.7547  0.4300  0.4410
11514SOL    HW235984   2.765   7.003   0.514 -0.4429  1.6786 -0.4302
11515SOL     OW35985   4.691   7.516   0.785 -0.3078 -0.1341 -0.4128
11515SOL    HW135986   4.711   7.488   0.875  0.0458  0.5816 -0.2538
11515SOL    HW235987   4.671   7.609   0.793  0.0895  0.0209 -1.1272
11516SOL     OW35988   1.609   6.251   0.123  0.9630 -0.0450 -0.6255
11516SOL    HW135989   1.539   6.247   0.058  1.6185  0.1080 -1.3665
11516SOL    HW235990   1.575   6.308   0.192  0.0702 -0.5964 -0.5941
11517SOL     OW35991   5.344   3.670  11.689  0.5003 -0.1975  0.0773
11517SOL    HW135992   5.293   3.648  11.611 -0.8398  0.2525  0.7822
11517SOL    HW235993   5.391   3.590  11.711  1.0462 -0.2789 -1.2715
11518SOL     OW35994   2.140   7.807  11.560 -0.3432  0.0447 -0.1720
11518SOL    HW135995   2.084   7.747  11.509 -1.1387  0.9687 -0.4077
11518SOL    HW235996   2.149   7.884  11.504 -0.4669  0.7059  0.7082
11519SOL     OW35997   4.114   6.713   0.631  0.1153  0.1175  1.1749
11519SOL    HW135998   4.044   6.762   0.674 -0.1068  1.5338 -0.7145
11519SOL    HW235999   4.140   6.648   0.696 -1.6563  0.7716  2.6265
11520SOL     OW36000   3.520   5.297  11.064 -0.2147 -0.2828  0.1387
11520SOL    HW136001   3.438   5.320  11.106 -0.2999  1.6352 -0.9657
11520SOL    HW236002   3.494   5.254  10.982 -0.1591  0.8703 -0.5022
11521SOL     OW36003   3.064   3.943  11.688  0.2612 -0.2501  0.2834
11521SOL    HW136004   3.085   3.883  11.759  0.4515  1.1327  1.4256
11521SOL    HW236005   3.120   4.020  11.704  0.9224 -0.2228 -1.8152
11522SOL     OW36006   3.061   6.903  10.213 -0.4740  0.1178 -0.2107
11522SOL    HW136007   3.020   6.962  10.275 -2.4096 -0.9244 -0.4164
11522SOL    HW236008   2.989   6.873  10.157  1.0549  0.4109 -2.4784
11523SOL     OW36009   1.974   6.787  12.222 -0.6103 -0.3617  0.1363
11523SOL    HW136010   2.006   6.876  12.238  0.4149 -0.7337  0.2352
11523SOL    HW236011   1.934   6.761  12.304 -0.3294 -0.2244  0.3203
11524SOL     OW36012   2.822   5.326   0.852  0.1236  0.1865  0.3391
11524SOL    HW136013   2.820   5.350   0.759 -0.4515  0.6557  0.4716
11524SOL    HW236014   2.746   5.369   0.890 -0.0020 -0.5249  0.9100
11525SOL     OW36015   2.542   4.004  12.077  0.2769  0.5277  0.1209
11525SOL    HW136016   2.514   4.036  11.991 -0.0685  0.3774  0.1768
11525SOL    HW236017   2.624   3.958  12.059 -0.8419 -1.3489 -0.4875
11526SOL     OW36018   2.449   5.748  10.565 -0.0799  0.9032  0.1901
11526SOL    HW136019   2.369   5.736  10.515 -0.9482  0.6739  1.5931
11526SOL    HW236020   2.514   5.693  10.521 -1.3016 -0.7723  0.4239
11527SOL     OW36021   0.324   7.217  12.162 -0.2447  0.1811 -0.2983
11527SOL    HW136022   0.376   7.141  12.135  0.6168  0.2432  1.0875
11527SOL    HW236023   0.379   7.263  12.225 -2.2920 -0.2431  1.9669
11528SOL     OW36024   1.508   7.966  11.584  0.0985  0.1105  0.7168
11528SOL    HW136025   1.440   7.903  11.562  1.9156 -1.1078 -1.9816
11528SOL    HW236026   1.489   8.042  11.529  2.2932 -1.3238 -2.3452
11529SOL     OW36027   2.820   7.668  12.253  0.5008 -0.2811  0.2210
11529SOL    HW136028   2.818   7.763  12.262 -0.8682 -0.2809  0.1463
11529SOL    HW236029   2.909   7.643  12.279  1.2756  1.1169 -0.9675
11530SOL     OW36030   2.253   4.501   9.961  0.6492  1.2278  0.1821
11530SOL    HW136031   2.344   4.515   9.987  0.8067 -0.6319  0.7661
11530SOL    HW236032   2.257   4.481   9.867  1.0498 -0.3646  0.5140
11531SOL     OW36033   2.674   5.217  11.872  0.3113  0.0565 -0.2396
11531SOL    HW136034   2.755   5.179  11.905  0.9415  0.7602 -0.9105
11531SOL    HW236035   2.656   5.169  11.791 -0.6506 -0.9566  0.5570
11532SOL     OW36036   4.695   7.314   0.045  0.2200 -1.0741 -1.0994
11532SOL    HW136037   4.690   7.356  -0.041 -0.8694  1.3220  0.0313
11532SOL    HW236038   4.614   7.341   0.089  1.4699 -0.9121  1.2155
11533SOL     OW36039   3.492   3.979  11.181 -0.4114  0.0439  0.1441
11533SOL    HW136040   3.471   3.927  11.103 -0.7214 -0.1476  0.3505
11533SOL    HW236041   3.438   4.058  11.172 -1.2588 -0.4527  0.6798
11534SOL     OW36042   2.389   6.298  12.125  0.3834 -0.1998  0.0227
11534SOL    HW136043   2.473   6.342  12.138  0.6913 -0.9833  0.8143
11534SOL    HW236044   2.363   6.268  12.213 -0.1915 -0.8914 -0.3664
11535SOL     OW36045   2.929   6.733   9.707 -0.4936 -0.2460  0.0667
11535SOL    HW136046   2.989   6.796   9.746 -0.2323 -0.3165 -0.2129
11535SOL    HW236047   2.915   6.766   9.618 -0.2737 -0.6378 -0.1145
11536SOL     OW36048   2.957   6.170  11.923  0.0812  0.7274  0.0799
11536SOL    HW136049   2.928   6.260  11.905  0.2229  0.7495 -0.0405
11536SOL    HW236050   3.046   6.166  11.887 -0.5407  0.0218 -1.4517
11537SOL     OW36051   1.067   6.081  11.282  0.2381 -0.1441 -0.1287
11537SOL    HW136052   0.997   6.140  11.256  0.3465 -0.7903 -2.0363
11537SOL    HW236053   1.023   6.012  11.333 -0.0363  0.9570  1.1856
11538SOL     OW36054   2.580   6.767  12.009  0.1489  0.1072 -0.3465
11538SOL    HW136055   2.607   6.858  12.000  0.3180  0.1239  0.3256
11538SOL    HW236056   2.661   6.717  12.003  0.2294  0.0953  0.6856
11539SOL     OW36057   1.799   6.778  12.024 -0.3027 -0.0448  0.0592
11539SOL    HW136058   1.883   6.767  12.070  0.9225  0.0736 -2.0484
11539SOL    HW236059   1.758   6.853  12.068 -0.5642 -1.6570  2.8170
11540SOL     OW36060   3.032   6.068  11.033  0.6369  0.8621  0.2735
11540SOL    HW136061   2.997   6.099  11.117 -0.9082 -0.3395  0.1301
11540SOL    HW236062   3.110   6.018  11.057 -1.0803 -1.4830  1.3237
11541SOL     OW36063   3.306   6.518  10.341  0.5531 -0.4721  0.5690
11541SOL    HW136064   3.228   6.534  10.287  0.0083 -1.0293  1.1662
11541SOL    HW236065   3.321   6.601  10.385  0.4272 -0.2977  0.2886
11542SOL     OW36066   4.548   0.285   0.229  0.2959 -0.1201 -0.1912
11542SOL    HW136067   4.640   0.259   0.228  0.0796 -0.9242 -0.9671
11542SOL    HW236068   4.525   0.288   0.321  0.9933 -0.2999 -0.0039
11543SOL     OW36069   1.770   7.218  12.288  0.2012  0.3090  0.1682
11543SOL    HW136070   1.687   7.246  12.326  0.3256  1.1509 -0.1670
11543SOL    HW236071   1.835   7.274  12.330  0.5370  0.0261  0.0212
11544SOL     OW36072   1.757   7.245   9.884  0.3539 -0.4571 -0.1998
11544SOL    HW136073   1.728   7.336   9.886  1.5992 -0.0491  0.2168
11544SOL    HW236074   1.775   7.227   9.791 -2.3297 -1.1307 -0.6841
11545SOL     OW36075   4.012   6.413  11.630  0.3023 -0.6062 -0.0783
11545SOL    HW136076   4.090   6.469  11.621 -0.8237  1.1356  0.4213
11545SOL    HW236077   4.047   6.328  11.658  2.1085 -0.2727 -1.1280
11546SOL     OW36078   2.497   5.869  11.745 -0.0393  0.2430 -0.2583
11546SOL    HW136079   2.489   5.952  11.791 -0.2392 -0.2245  0.5766
11546SOL    HW236080   2.585   5.838  11.767  0.4001  0.6859 -1.3580
11547SOL     OW36081   2.360   6.604  12.026  0.6661  0.0519 -0.3684
11547SOL    HW136082   2.422   6.671  11.999 -1.4332  2.2879 -0.0126
11547SOL    HW236083   2.362   6.608  12.122  0.5088 -0.3528 -0.3494
11548SOL     OW36084   1.785   5.458  11.851  0.0775 -0.4472  0.3123
11548SOL    HW136085   1.849   5.514  11.895  1.0242 -0.3050 -1.1657
11548SOL    HW236086   1.713   5.449  11.914  0.9688  0.4651  1.5025
11549SOL     OW36087   3.322   6.146   0.899 -0.3418  0.1448 -0.7410
11549SOL    HW136088   3.311   6.077   0.834  1.2817 -1.1021  0.2118
11549SOL    HW236089   3.331   6.099   0.982  0.4212  1.5096 -0.0156
11550SOL     OW36090   4.912   5.496   0.277  0.2822  0.6137 -0.1256
11550SOL    HW136091   4.818   5.505   0.261  0.1225  0.0569  0.4609
11550SOL    HW236092   4.930   5.558   0.348  0.3665  0.7656 -0.2810
11551SOL     OW36093   3.193   6.953  11.474  0.1490 -0.1323 -0.7181
11551SOL    HW136094   3.161   7.033  11.516 -0.5407 -0.8884  0.2467
11551SOL    HW236095   3.123   6.927  11.414 -0.2574 -0.7610  0.0073
11552SOL     OW36096   2.424   6.355   1.455  0.2324 -0.2486  0.0860
11552SOL    HW136097   2.415   6.343   1.550 -2.7502  1.2061  0.1200
11552SOL    HW236098   2.455   6.445   1.445 -0.5242 -0.0189 -0.2892
11553SOL     OW36099   2.597   6.264  10.697 -0.6481 -0.2161 -0.1423
11553SOL    HW136100   2.521   6.293  10.747 -0.1669  0.7518  0.0386
11553SOL    HW236101   2.602   6.324  10.623  1.2495  1.2180  1.0488
11554SOL     OW36102   4.725   5.658   9.320 -0.1305 -0.3414 -0.4092
11554SOL    HW136103   4.677   5.674   9.401  0.6686  2.0303 -0.3002
11554SOL    HW236104   4.749   5.566   9.323 -0.1431 -0.3195  2.0667
11555SOL     OW36105   3.655   7.172   0.002 -0.2468  0.0039  0.0941
11555SOL    HW136106   3.589   7.195  -0.064 -0.4536 -0.9279 -0.0474
11555SOL    HW236107   3.737   7.169  -0.046 -0.0695  1.2676  0.2906
11556SOL     OW36108   4.321   5.571  12.494 -0.0282  0.3252 -0.8610
11556SOL    HW136109   4.413   5.571  12.517  0.1756  2.2076 -1.5058
11556SOL    HW236110   4.277   5.533  12.570  1.1069  1.1734  0.2569
11557SOL     OW36111   2.590   0.073  11.868  0.0021 -0.2177 -0.1665
11557SOL    HW136112   2.518   0.023  11.906  1.3734 -1.4070  0.9587
11557SOL    HW236113   2.623   0.019  11.796 -0.5546  0.5912 -1.0640
11558SOL     OW36114   1.565   6.349   1.440  0.5505 -0.3943  0.5574
11558SOL    HW136115   1.573   6.348   1.344 -0.4648  1.8219  0.3929
11558SOL    HW236116   1.636   6.293   1.471  0.6040 -1.5614 -1.4899
11559SOL     OW36117   4.393   4.001  11.052  0.7955 -0.0012 -0.2994
11559SOL    HW136118   4.328   3.931  11.051 -0.0992  0.8207 -0.4015
11559SOL    HW236119   4.445   3.986  10.973 -0.6385  0.5772 -1.3977
11560SOL     OW36120   2.104   6.202  10.800  0.1191 -0.6742  0.4040
11560SOL    HW136121   2.174   6.259  10.771  0.0295 -1.0946 -0.6799
11560SOL    HW236122   2.045   6.259  10.850 -0.3106  0.3478 -1.1874
11561SOL     OW36123   0.803   5.281  10.326 -0.5579 -0.0010 -0.4855
11561SOL    HW136124   0.845   5.253  10.407 -0.8341  2.9390  0.8028
11561SOL    HW236125   0.719   5.235  10.325 -1.1288  0.8832  1.6496
11562SOL     OW36126   2.225   3.853   0.380  0.1312  0.2241  0.3607
11562SOL    HW136127   2.136   3.848   0.345 -0.4226  1.6819  1.4754
11562SOL    HW236128   2.214   3.872   0.473  1.6007  0.8420  0.4386
11563SOL     OW36129   0.527   5.453   0.272 -0.1129 -0.5267 -0.8075
11563SOL    HW136130   0.447   5.416   0.309  0.7061 -3.0491 -1.3212
11563SOL    HW236131   0.521   5.547   0.289 -2.9124 -0.7058 -0.3754
11564SOL     OW36132   2.643   6.166   9.787  0.4097 -0.2027 -0.1342
11564SOL    HW136133   2.590   6.118   9.851  2.0041  0.0724  1.4806
11564SOL    HW236134   2.638   6.257   9.816 -0.0476  0.1523 -1.3015
11565SOL     OW36135   1.464   6.271   0.604 -0.2681  0.2935 -0.3483
11565SOL    HW136136   1.548   6.229   0.585 -0.4738 -0.4504  0.3326
11565SOL    HW236137   1.482   6.329   0.678 -0.0640  1.1713 -1.0651
11566SOL     OW36138   1.466   5.090   0.820  0.1079  0.2220  0.0233
11566SOL    HW136139   1.492   5.181   0.806  0.0380 -0.0591 -2.2164
11566SOL    HW236140   1.370   5.092   0.815  0.1195 -0.0099 -0.3278
11567SOL     OW36141   2.257   6.973  10.735  0.1240  0.4108 -0.1522
11567SOL    HW136142   2.292   6.982  10.824 -0.7178 -0.2473  0.2670
11567SOL    HW236143   2.194   6.901  10.742  0.6247 -0.1758 -1.4680
11568SOL     OW36144   3.818   5.625   1.449  0.1009 -0.0425  0.1189
11568SOL    HW136145   3.829   5.531   1.459  0.4737  0.0821  0.9668
11568SOL    HW236146   3.787   5.655   1.534  0.7146  0.7021  0.0970
11569SOL     OW36147   4.447   7.032   9.516 -0.5928  0.1207 -0.2462
11569SOL    HW136148   4.445   6.978   9.596 -1.6056  1.6746  0.8297
11569SOL    HW236149   4.365   7.010   9.471  0.0685 -0.9014 -1.0081
11570SOL     OW36150   1.839   4.914  10.670  0.4521 -0.0449 -0.3934
11570SOL    HW136151   1.850   4.877  10.582 -1.0927 -1.2825 -0.1208
11570SOL    HW236152   1.753   4.882  10.698  1.3094 -0.4363  1.9355
11571SOL     OW36153   1.798   6.594  11.838  0.6859  0.3979  0.1973
11571SOL    HW136154   1.795   6.621  11.746 -0.6411  0.3005  0.1966
11571SOL    HW236155   1.804   6.676  11.886 -1.5471  0.6820  0.1146
11572SOL     OW36156   2.929   7.518  12.013 -0.1107 -0.1080  0.6671
11572SOL    HW136157   2.845   7.535  12.057  0.0995  0.3114  0.9078
11572SOL    HW236158   2.944   7.425  12.028 -0.3306 -0.0977  0.9857
11573SOL     OW36159   2.240   7.066   0.288  0.0393 -0.3993 -0.6031
11573SOL    HW136160   2.193   6.983   0.285 -0.2889 -0.2077 -0.9306
11573SOL    HW236161   2.225   7.100   0.376  0.2814 -0.7480 -0.4275
11574SOL     OW36162   3.217   5.937   0.710  0.6725 -0.3249 -0.0545
11574SOL    HW136163   3.126   5.926   0.683  0.9959 -0.3437 -1.1534
11574SOL    HW236164   3.268   5.923   0.631  1.7002 -1.2467  0.7319
11575SOL     OW36165   2.811   5.185  11.484 -0.4653  0.7764 -0.3048
11575SOL    HW136166   2.746   5.217  11.546 -0.3112 -0.3291  0.4466
11575SOL    HW236167   2.895   5.211  11.522 -0.4282  2.2537 -1.2999
11576SOL     OW36168   3.892   5.331   9.938  0.1503 -0.1571 -0.1997
11576SOL    HW136169   3.900   5.236   9.950  1.3252 -0.0693 -0.2106
11576SOL    HW236170   3.822   5.341   9.873  0.2347 -1.0353 -0.4382
11577SOL     OW36171   4.768   6.586   0.665 -0.2396 -0.0197  0.2761
11577SOL    HW136172   4.851   6.577   0.712 -0.1284  1.6871  0.4755
11577SOL    HW236173   4.782   6.659   0.604 -1.7086  0.5869  0.6093
11578SOL     OW36174   2.369   5.643  11.880 -0.7686  0.0229  0.6338
11578SOL    HW136175   2.399   5.687  11.801 -1.7332 -0.1260  0.1646
11578SOL    HW236176   2.322   5.566  11.848  0.2560 -0.9549  1.4139
11579SOL     OW36177   2.516   7.161  11.517 -0.1615  0.4346 -0.3951
11579SOL    HW136178   2.494   7.240  11.567  1.5121 -1.1567  3.2174
11579SOL    HW236179   2.450   7.097  11.544  2.2976 -1.2414  2.1592
11580SOL     OW36180   3.652   7.039  11.259 -0.3406  0.2976  0.5721
11580SOL    HW136181   3.609   7.122  11.280 -1.4635  0.1014 -0.8103
11580SOL    HW236182   3.639   6.984  11.336 -0.4905  1.0535  1.0922
11581SOL     OW36183   4.216   4.837  10.695  0.2725  0.7743 -0.0307
11581SOL    HW136184   4.258   4.918  10.666  0.2529  0.6115 -0.5313
11581SOL    HW236185   4.240   4.828  10.787  0.3991  1.2694 -0.0144
11582SOL     OW36186   3.152   7.435  12.374 -0.3776 -0.1903 -0.0876
11582SOL    HW136187   3.129   7.519  12.336 -0.3757 -1.3827 -2.9556
11582SOL    HW236188   3.178   7.455  12.464  0.9874  3.0223 -1.0965
11583SOL     OW36189   1.452   7.485  11.887 -0.0917  0.1923 -0.3561
11583SOL    HW136190   1.539   7.518  11.869 -0.3340  1.0358 -0.0639
11583SOL    HW236191   1.451   7.471  11.982  0.0505 -0.8264 -0.4890
11584SOL     OW36192   3.320   6.747   0.092  0.1208 -0.6001 -0.5455
11584SOL    HW136193   3.315   6.792   0.176 -1.0425 -1.9330  0.1354
11584SOL    HW236194   3.392   6.790   0.046 -1.9261  3.1436 -0.6698
11585SOL     OW36195   2.308   5.893  11.563  0.4291  0.0351 -0.5686
11585SOL    HW136196   2.365   5.864  11.634 -0.5084  1.0918  0.6533
11585SOL    HW236197   2.309   5.988  11.569 -1.2852  0.0756 -0.6745
11586SOL     OW36198   4.168   6.826  10.769 -0.1854  0.1392 -0.2866
11586SOL    HW136199   4.256   6.862  10.778 -0.5499  1.0593 -0.2219
11586SOL    HW236200   4.113   6.903  10.753 -0.9708 -0.4253 -0.3512
11587SOL     OW36201   2.936   5.788   9.652 -0.1787  0.1349  0.2294
11587SOL    HW136202   3.016   5.821   9.610  0.0824  1.4520  1.6636
11587SOL    HW236203   2.965   5.709   9.698  0.1256  0.1535  0.0755
11588SOL     OW36204   5.143   5.962  11.984 -0.0260 -0.0364 -0.0753
11588SOL    HW136205   5.170   6.020  11.913 -0.4453  0.5677  0.2424
11588SOL    HW236206   5.214   5.898  11.991  0.7898  0.8385  0.0017
11589SOL     OW36207   3.758   4.430  11.965  0.1691  0.1331  0.4342
11589SOL    HW136208   3.666   4.453  11.980 -0.2088 -0.7094 -0.4802
11589SOL    HW236209   3.798   4.432  12.052 -0.7965  0.1446  0.8873
11590SOL     OW36210   2.120   6.006   0.172 -0.4356  0.7123 -0.0471
11590SOL    HW136211   2.212   5.987   0.192 -0.6607 -0.4641 -0.0773
11590SOL    HW236212   2.124   6.070   0.101  0.4159 -1.1179 -1.7627
11591SOL     OW36213   2.386   4.151  11.146 -0.0874 -0.3888 -0.1559
11591SOL    HW136214   2.302   4.197  11.148  0.5733  0.8995 -0.7179
11591SOL    HW236215   2.381   4.094  11.070 -0.9058 -1.2460  0.5221
11592SOL     OW36216   3.625   6.411  11.937 -0.1122 -0.4984  0.0679
11592SOL    HW136217   3.622   6.477  12.007  0.2026 -0.3579 -0.0486
11592SOL    HW236218   3.707   6.363  11.953 -0.1175 -0.5673 -0.1116
11593SOL     OW36219   4.944   5.728   0.458  0.6510  0.0834 -0.2210
11593SOL    HW136220   4.903   5.814   0.454  0.8010  0.1353 -0.8179
11593SOL    HW236221   5.038   5.746   0.459  0.6778 -0.0436  0.8221
11594SOL     OW36222   2.209   5.293  11.935 -0.0894  0.6777  0.4610
11594SOL    HW136223   2.153   5.350  11.987 -0.7902  1.0350 -0.6556
11594SOL    HW236224   2.211   5.333  11.848  0.7155 -0.1300  0.0821
11595SOL     OW36225   4.473   7.123  11.464 -0.2736  0.1563  0.0579
11595SOL    HW136226   4.551   7.148  11.513  0.6788  0.1745 -1.4213
11595SOL    HW236227   4.437   7.048  11.512  0.7897 -0.0071  0.6130
11596SOL     OW36228   1.594   7.900   0.831 -0.1555 -0.0509 -0.7160
11596SOL    HW136229   1.675   7.853   0.813  1.2140  1.6539  0.6941
11596SOL    HW236230   1.585   7.961   0.758  1.2655  1.5103  0.3274
11597SOL     OW36231   7.373   6.184  12.313  0.0903  0.0734 -0.3849
11597SOL    HW136232   7.285   6.216  12.294 -0.3116 -0.8687 -0.1752
11597SOL    HW236233   7.410   6.248  12.374  0.1608  1.3336 -1.7032
11598SOL     OW36234   2.280   0.868   1.580 -0.2672 -0.5428 -0.7379
11598SOL    HW136235   2.317   0.849   1.667  0.1783  1.1669 -0.5190
11598SOL    HW236236   2.302   0.791   1.528  0.9109 -0.9037  0.2304
11599SOL     OW36237   1.764   7.352   0.804 -0.1876  0.3964  0.0099
11599SOL    HW136238   1.828   7.287   0.832 -0.3853  0.0580 -0.3032
11599SOL    HW236239   1.771   7.353   0.708 -0.3450  0.6694 -0.0002
11600SOL     OW36240   1.880   1.456   0.101  0.0438 -0.1308 -0.0651
11600SOL    HW136241   1.883   1.464   0.196  0.8889 -0.6820 -0.0339
11600SOL    HW236242   1.834   1.374   0.084 -2.5426  1.2293 -0.2313
11601SOL     OW36243   2.585   6.453  12.252  0.2026 -0.0615  0.2220
11601SOL    HW136244   2.638   6.494  12.184  1.7137  0.0698  1.4291
11601SOL    HW236245   2.643   6.389  12.292 -1.0932 -1.1047  0.5240
11602SOL     OW36246   0.619   7.993   0.608 -0.2147  0.0060 -0.1168
11602SOL    HW136247   0.699   8.006   0.659 -0.7977  0.4429  0.7190
11602SOL    HW236248   0.548   8.015   0.669 -0.9624 -0.1336 -0.9154
11603SOL     OW36249   3.366   6.575   0.346  0.2664 -0.3909 -0.1130
11603SOL    HW136250   3.401   6.538   0.427 -4.6838 -1.0725  2.0571
11603SOL    HW236251   3.368   6.670   0.360  2.0046 -0.3303 -0.5313
11604SOL     OW36252   2.319   6.737   2.139 -0.1455 -0.4846 -0.1409
11604SOL    HW136253   2.344   6.657   2.091 -0.0194  0.4471 -1.7024
11604SOL    HW236254   2.388   6.747   2.205  1.3528 -0.2316 -1.6777
11605SOL     OW36255   3.205   7.240   1.178 -0.2033 -0.5370  0.7341
11605SOL    HW136256   3.283   7.286   1.146 -0.0125  0.2503  2.2171
11605SOL    HW236257   3.238   7.185   1.249 -0.8490 -0.9934  0.6800
11606SOL     OW36258   4.024   6.677   0.022 -0.2107 -0.4592 -0.7166
11606SOL    HW136259   4.010   6.752  -0.036 -2.2357 -1.5155 -1.6936
11606SOL    HW236260   4.070   6.613  -0.032 -0.9390 -0.9542 -0.7579
11607SOL     OW36261   2.501   7.704   1.408  0.2223 -0.6433 -0.0557
11607SOL    HW136262   2.451   7.623   1.421 -1.6400  0.6140  1.0189
11607SOL    HW236263   2.454   7.750   1.338 -0.3493  0.6948  1.1604
11608SOL     OW36264   2.810   7.797   1.869 -0.1684 -0.2632  0.0735
11608SOL    HW136265   2.732   7.751   1.902 -0.3060 -0.1473 -0.0863
11608SOL    HW236266   2.857   7.823   1.947 -0.7849  0.5146  0.1930
11609SOL     OW36267   2.917   5.007  12.226 -0.0083 -0.2356 -0.3930
11609SOL    HW136268   2.845   4.973  12.279  0.6005  0.4850  0.9542
11609SOL    HW236269   2.996   4.991  12.278  0.3375  2.9747  0.3122
11610SOL     OW36270   2.517   7.680   2.928 -0.0083  0.2150  0.6295
11610SOL    HW136271   2.445   7.737   2.956  0.4666  0.1328  2.1005
11610SOL    HW236272   2.492   7.593   2.959  0.8935  0.2548  1.5162
11611SOL     OW36273   0.332   6.300   1.581  0.2256  0.4459  0.2203
11611SOL    HW136274   0.382   6.343   1.512 -0.7816  0.8747 -0.2731
11611SOL    HW236275   0.301   6.372   1.636 -2.9883  0.6799 -1.6142
11612SOL     OW36276   1.968   7.558   1.064 -0.5522 -0.0761 -0.1527
11612SOL    HW136277   1.877   7.576   1.088 -0.1015  0.4022  1.2797
11612SOL    HW236278   2.000   7.641   1.028 -0.6349 -0.2061 -0.5324
11613SOL     OW36279   2.593   0.081   0.285  0.0528 -0.0685 -0.5710
11613SOL    HW136280   2.552   0.089   0.199  1.3782 -0.5716 -1.2929
11613SOL    HW236281   2.531   0.121   0.346 -1.6270 -1.1119 -1.5292
11614SOL     OW36282   1.509   0.402   0.520 -0.3165  0.8064 -0.5093
11614SOL    HW136283   1.549   0.393   0.433 -2.3136  0.9131 -1.4961
11614SOL    HW236284   1.579   0.380   0.581  0.7950 -0.5374 -2.1760
11615SOL     OW36285   3.411   5.429  12.295  0.2620 -0.2038 -0.0598
11615SOL    HW136286   3.408   5.424  12.200  1.4964  1.3392 -0.2172
11615SOL    HW236287   3.346   5.495  12.318  0.5067 -0.0200  0.1074
11616SOL     OW36288   1.271   6.780   1.863 -0.3590  0.0968  0.4838
11616SOL    HW136289   1.318   6.857   1.894  0.0449  0.0946 -0.1173
11616SOL    HW236290   1.339   6.714   1.848 -0.4553  0.3245 -1.0870
11617SOL     OW36291   2.936   7.918   2.112  0.0605  0.4959  0.0723
11617SOL    HW136292   2.843   7.934   2.125 -0.4110 -0.7575 -1.4495
11617SOL    HW236293   2.978   7.955   2.190 -1.8042 -0.0410  1.3947
11618SOL     OW36294   2.641   7.314   1.343  0.4066  0.3225 -0.2796
11618SOL    HW136295   2.573   7.375   1.370 -0.7562 -0.3794 -1.5602
11618SOL    HW236296   2.617   7.231   1.385 -0.0199 -0.1443 -1.4339
11619SOL     OW36297   2.456   6.631   1.369  0.3902 -0.3384 -0.0007
11619SOL    HW136298   2.381   6.687   1.350  0.6480 -0.3905 -1.2703
11619SOL    HW236299   2.531   6.678   1.334  1.3500  0.8351  3.3392
11620SOL     OW36300   2.568   6.228   0.314  0.0528 -0.0149 -0.4632
11620SOL    HW136301   2.613   6.258   0.393 -0.3648  0.5137 -0.4245
11620SOL    HW236302   2.534   6.141   0.337  0.8460 -0.3202 -0.4143
11621SOL     OW36303   0.706   7.317   1.923 -0.2926 -0.1588 -0.2768
11621SOL    HW136304   0.647   7.328   1.849  0.7270  0.3212 -1.0350
11621SOL    HW236305   0.748   7.402   1.934 -1.1867  0.0903  1.5350
11622SOL     OW36306   1.235   7.608   1.663 -0.4391 -0.5073 -0.1211
11622SOL    HW136307   1.169   7.662   1.706  0.9728  0.3885  1.0250
11622SOL    HW236308   1.233   7.525   1.711 -0.5594 -0.3944  0.0726
11623SOL     OW36309   2.128   6.780   0.334 -0.3831 -0.2097 -0.1551
11623SOL    HW136310   2.141   6.786   0.429 -1.6930 -0.0445  0.0420
11623SOL    HW236311   2.047   6.830   0.318  0.0397  0.1178 -1.4184
11624SOL     OW36312   2.545   7.414   0.151 -0.6464 -0.0195  0.5692
11624SOL    HW136313   2.563   7.433   0.243  1.2601  1.7956 -0.1095
11624SOL    HW236314   2.453   7.438   0.140 -0.9620 -0.4556  2.0156
11625SOL     OW36315   2.136   6.188   0.416 -0.6092  0.7886 -0.1110
11625SOL    HW136316   2.219   6.219   0.452 -1.3432 -0.0786  2.5456
11625SOL    HW236317   2.155   6.172   0.323  2.1878  0.5932  0.4002
11626SOL     OW36318   1.739   0.373   0.680  0.1058 -0.2264 -0.4448
11626SOL    HW136319   1.723   0.357   0.773 -0.5522 -0.3752 -0.5778
11626SOL    HW236320   1.828   0.408   0.676  0.8802 -1.9863  0.0748
11627SOL     OW36321   3.579   7.557   0.984  0.3391  0.0496 -0.6264
11627SOL    HW136322   3.499   7.557   0.932  2.1097 -1.4236 -3.5736
11627SOL    HW236323   3.555   7.513   1.065 -2.2199  1.2730 -0.6219
11628SOL     OW36324   3.018   1.064   0.743  0.4466 -0.2898 -0.5936
11628SOL    HW136325   3.049   0.995   0.685 -2.2903 -0.3819 -2.1088
11628SOL    HW236326   3.034   1.145   0.696  1.2749 -0.0521  0.0577
11629SOL     OW36327   3.254   5.710   1.356 -0.1798 -0.2067  0.0063
11629SOL    HW136328   3.274   5.620   1.329 -0.4875 -0.3530  0.2614
11629SOL    HW236329   3.221   5.701   1.445  0.3549  0.2185  0.2516
11630SOL     OW36330   3.548   6.140   1.120 -0.5049  0.4892  0.6243
11630SOL    HW136331   3.527   6.055   1.159 -1.3046  1.1607  1.7038
11630SOL    HW236332   3.605   6.119   1.047  0.3906 -0.8849  1.6712
11631SOL     OW36333   1.875   7.774   2.459  0.6757  0.2281 -0.1369
11631SOL    HW136334   1.933   7.733   2.395 -0.5117  0.3425 -1.3290
11631SOL    HW236335   1.799   7.717   2.463 -0.8270  2.0115 -1.5338
11632SOL     OW36336   2.357   5.552   0.691  0.0279 -0.1390  0.0949
11632SOL    HW136337   2.406   5.548   0.609  1.4472  0.3952  0.8753
11632SOL    HW236338   2.324   5.641   0.695 -1.4677 -0.6268 -0.6499
11633SOL     OW36339   0.931   6.349   2.594  0.6360 -0.6263 -0.0580
11633SOL    HW136340   0.923   6.260   2.630  0.9081 -1.4336 -1.8691
11633SOL    HW236341   0.842   6.372   2.568  0.5614 -0.3509  0.4357
11634SOL     OW36342   2.739   2.238   1.216  0.0505 -0.2557  0.6253
11634SOL    HW136343   2.723   2.328   1.245 -2.4437  0.2400 -1.8576
11634SOL    HW236344   2.789   2.247   1.135  0.0625 -1.1523  0.5225
11635SOL     OW36345   3.798   0.021  12.303  0.0218 -0.7697  0.2880
11635SOL    HW136346   3.776   0.109  12.334 -0.5499 -0.8003 -0.0309
11635SOL    HW236347   3.734   0.002  12.234  0.9884 -0.8875 -0.6039
11636SOL     OW36348   1.364   7.188   1.025 -0.2291  0.2052 -0.0622
11636SOL    HW136349   1.287   7.245   1.019 -0.8954 -0.6874 -0.1816
11636SOL    HW236350   1.419   7.215   0.951 -1.0910 -0.0956 -0.8359
11637SOL     OW36351   2.152   0.053   2.397 -0.0114 -0.2972  0.0492
11637SOL    HW136352   2.152   0.142   2.433  0.5816 -0.9513  1.8114
11637SOL    HW236353   2.065   0.018   2.419 -0.4634  0.0152 -1.1659
11638SOL     OW36354   3.074   7.720   1.684 -0.0596  0.9154  0.0876
11638SOL    HW136355   3.086   7.625   1.688 -0.8356  0.8310  0.8168
11638SOL    HW236356   3.112   7.753   1.765 -0.4751  1.1438  0.1934
11639SOL     OW36357   0.172   7.878   0.670  0.3452 -0.4499 -0.1246
11639SOL    HW136358   0.088   7.843   0.699  0.4006 -0.5671 -0.1058
11639SOL    HW236359   0.223   7.801   0.645  0.1982 -0.3366 -0.7929
11640SOL     OW36360   0.828   7.075   1.429 -0.2144 -0.2542 -0.2932
11640SOL    HW136361   0.852   6.991   1.391  1.6148 -0.6077  1.4300
11640SOL    HW236362   0.738   7.090   1.402 -0.9038 -3.2048  0.0974
11641SOL     OW36363   3.244   6.116   1.602 -0.3963  0.3896  0.3138
11641SOL    HW136364   3.152   6.103   1.579 -0.3237 -0.9002  0.6722
11641SOL    HW236365   3.241   6.150   1.692 -0.5877  3.1645 -0.6351
11642SOL     OW36366   3.283   7.910   0.409 -0.7729  0.4070 -0.4365
11642SOL    HW136367   3.211   7.951   0.457 -0.5846  1.6164 -1.1437
11642SOL    HW236368   3.346   7.981   0.394  1.9294 -1.1029  2.4581
11643SOL     OW36369   1.747   7.321   0.534 -0.2034 -0.0951  0.3723
11643SOL    HW136370   1.802   7.285   0.466 -0.3673 -1.3082  0.8648
11643SOL    HW236371   1.659   7.319   0.497 -0.3751 -1.2845  0.8033
11644SOL     OW36372   2.390   7.720  12.369  0.2998  0.1754 -0.1008
11644SOL    HW136373   2.450   7.652  12.339 -1.0174 -0.3209 -1.7176
11644SOL    HW236374   2.447   7.793  12.395  1.6289 -0.6465 -0.6384
11645SOL     OW36375   2.106   7.797  12.327 -0.3334 -0.3531 -0.1924
11645SOL    HW136376   2.201   7.790  12.316 -0.4850 -3.9833 -0.2742
11645SOL    HW236377   2.094   7.836  12.413  1.2726 -0.8798  0.2991
11646SOL     OW36378   3.533   6.152   1.552  0.1559  0.3553  0.3652
11646SOL    HW136379   3.541   6.244   1.578 -1.9664  0.3848  1.1168
11646SOL    HW236380   3.439   6.135   1.554  0.5816 -2.3641  2.1331
11647SOL     OW36381   3.765   3.575   0.140  0.0667 -0.2396 -0.1265
11647SOL    HW136382   3.728   3.636   0.077  2.0934  0.3511 -0.8024
11647SOL    HW236383   3.691   3.550   0.195 -0.9226  2.5329 -0.0471
11648SOL     OW36384   0.898   6.408   0.663  0.1318 -0.3272 -0.1311
11648SOL    HW136385   0.851   6.335   0.623  0.5803  0.0551 -1.3902
11648SOL    HW236386   0.985   6.372   0.682 -0.4262 -0.8589  1.6558
11649SOL     OW36387   2.762   0.197  12.188  0.3409 -0.1880 -0.3122
11649SOL    HW136388   2.766   0.128  12.254  1.2087 -1.2035 -1.3787
11649SOL    HW236389   2.703   0.263  12.225  0.0182 -1.1913  1.0245
11650SOL     OW36390   2.024   6.950   1.811 -0.6273 -0.2092  0.1881
11650SOL    HW136391   1.989   7.034   1.779  1.1647  0.3014 -0.5538
11650SOL    HW236392   2.057   6.970   1.898  2.6357  0.7704 -1.1170
11651SOL     OW36393   2.292   7.066   1.750 -0.6016 -0.2682 -0.2512
11651SOL    HW136394   2.275   7.015   1.830 -0.1444 -1.9665 -1.1782
11651SOL    HW236395   2.333   7.147   1.781 -0.7897 -0.7205  1.2571
11652SOL     OW36396   1.831   7.278   1.539 -0.1646  0.7727  0.1137
11652SOL    HW136397   1.914   7.305   1.578 -0.6484  1.4665  0.6933
11652SOL    HW236398   1.856   7.235   1.457  0.7574  1.0239  0.2511
11653SOL     OW36399   3.306   7.381   0.125  0.1349 -0.3189  0.3007
11653SOL    HW136400   3.249   7.438   0.177  0.1615  0.3163 -0.3446
11653SOL    HW236401   3.364   7.341   0.189 -0.0113  0.2330  0.7950
11654SOL     OW36402   0.920   6.434   0.303 -0.1219  0.0769 -0.5066
11654SOL    HW136403   0.985   6.485   0.254  0.9194  1.1926  1.8908
11654SOL    HW236404   0.953   6.344   0.299  0.6947  0.3720 -0.6674
11655SOL     OW36405   3.670   0.135   0.206  0.6269  0.1026 -0.6903
11655SOL    HW136406   3.721   0.198   0.257 -0.7804  0.9887 -0.3531
11655SOL    HW236407   3.580   0.148   0.234  0.2895 -2.0231 -0.6855
11656SOL     OW36408   3.716   7.845   0.963 -0.4597  0.3140 -0.1385
11656SOL    HW136409   3.798   7.844   0.914 -1.2009  0.6184 -1.4183
11656SOL    HW236410   3.658   7.788   0.914 -0.7646 -0.6196  1.2489
11657SOL     OW36411   1.082   6.446   0.921 -0.4095  0.1315 -0.5839
11657SOL    HW136412   1.085   6.520   0.861  2.0056  0.8646  0.3540
11657SOL    HW236413   1.173   6.418   0.931 -1.1105 -2.1956  0.0718
11658SOL     OW36414   4.145   7.060   0.522 -0.0282 -0.0126  0.1951
11658SOL    HW136415   4.107   6.988   0.471  1.6688 -0.4313 -0.5643
11658SOL    HW236416   4.136   7.032   0.613  0.5602 -1.2043 -0.0788
11659SOL     OW36417   3.657   6.526   2.806  0.4542 -0.1197 -0.1480
11659SOL    HW136418   3.752   6.519   2.806  0.7267  1.1258 -3.7754
11659SOL    HW236419   3.639   6.610   2.849  1.1573  0.4200 -0.8791
11660SOL     OW36420   3.234   5.961  11.552  0.2617 -0.0792  0.2996
11660SOL    HW136421   3.311   5.905  11.541  0.0855 -0.2410 -0.1418
11660SOL    HW236422   3.259   6.044  11.512  0.5226  0.1641  0.9536
11661SOL     OW36423   2.074   7.873   0.516 -0.0010  0.1525  0.1372
11661SOL    HW136424   2.047   7.918   0.597 -0.3302  0.6304 -0.2309
11661SOL    HW236425   2.082   7.781   0.541  1.8905  0.5520  1.2128
11662SOL     OW36426   2.119   7.514   0.510  0.4151 -0.0280  0.7035
11662SOL    HW136427   2.124   7.495   0.604  1.2058 -0.5712  0.5624
11662SOL    HW236428   2.207   7.542   0.487 -0.2750  2.0967  0.5131
11663SOL     OW36429   1.233   7.952   4.529 -0.1556  0.4355 -0.7794
11663SOL    HW136430   1.234   7.970   4.623  0.2642  0.1083 -0.7180
11663SOL    HW236431   1.195   7.865   4.522  0.0453  0.3569 -0.8949
11664SOL     OW36432   1.462   4.276   3.509 -0.5566  0.1152  0.3952
11664SOL    HW136433   1.493   4.312   3.426  2.1568  0.4869  1.4656
11664SOL    HW236434   1.496   4.186   3.510 -1.4861 -0.2393  0.6580
11665SOL     OW36435   3.435   7.214   0.309  0.3903  0.6821  0.1512
11665SOL    HW136436   3.357   7.176   0.350  2.0980 -3.4212  0.0681
11665SOL    HW236437   3.460   7.286   0.367 -2.4261  1.0546  1.0697
11666SOL     OW36438   1.289   7.420   3.842 -0.2618  0.1148  0.0765
11666SOL    HW136439   1.341   7.477   3.899 -2.6590  1.2472  1.2650
11666SOL    HW236440   1.282   7.468   3.760  0.1895  0.1428  0.0503
11667SOL     OW36441   1.980   0.491   0.775 -0.3111 -0.6423 -0.2679
11667SOL    HW136442   1.941   0.578   0.769  1.4971  0.2427  0.1144
11667SOL    HW236443   2.016   0.488   0.864 -0.9898 -2.0930 -0.0085
11668SOL     OW36444   3.028   0.052   4.098  0.1511  0.1428  0.1197
11668SOL    HW136445   3.112   0.012   4.121 -0.7436 -1.8859  0.0590
11668SOL    HW236446   2.987  -0.010   4.039 -0.5321  2.0828 -1.5743
11669SOL     OW36447   7.270   7.459   3.704 -0.2208 -0.3572  0.1295
11669SOL    HW136448   7.360   7.430   3.689  0.0058 -0.1736  1.0807
11669SOL    HW236449   7.239   7.485   3.617  0.5309 -0.7128 -0.2614
11670SOL     OW36450   1.582   7.968   3.649  0.0357 -0.3073  0.0830
11670SOL    HW136451   1.560   8.061   3.657  0.3694  0.0613 -2.4038
11670SOL    HW236452   1.540   7.927   3.724 -2.2135  1.5119 -0.0534
11671SOL     OW36453   3.548   6.483   3.204 -0.1332 -0.5957 -0.0267
11671SOL    HW136454   3.459   6.486   3.169 -0.2151 -0.7465  0.1709
11671SOL    HW236455   3.541   6.522   3.292  0.7416  3.7284 -1.5898
11672SOL     OW36456   2.191   6.000   4.610  0.2713 -0.0935 -0.1261
11672SOL    HW136457   2.286   6.009   4.624  0.1323  0.2043  0.6369
11672SOL    HW236458   2.162   5.945   4.682 -0.3670  1.0027  0.4795
11673SOL     OW36459   2.263   1.044   3.722  0.5210 -0.2039 -0.1611
11673SOL    HW136460   2.267   0.960   3.676  1.0208  0.8625 -2.1553
11673SOL    HW236461   2.177   1.044   3.764  0.6795 -1.8807  0.2433
11674SOL     OW36462   3.030   0.668   2.901  0.0911 -0.1338  0.3186
11674SOL    HW136463   3.117   0.630   2.886 -0.5799 -1.4538 -0.4238
11674SOL    HW236464   3.031   0.750   2.852  1.2121  0.3033  1.0472
11675SOL     OW36465   2.911   7.114   3.171  0.1237  0.0149  0.2430
11675SOL    HW136466   2.958   7.192   3.141  0.9750 -0.5273  0.1430
11675SOL    HW236467   2.889   7.066   3.091  1.3694 -0.8457  0.3972
11676SOL     OW36468   2.534   7.970   1.498 -0.2838 -0.1075 -0.3228
11676SOL    HW136469   2.534   7.874   1.498 -0.9974 -0.1816  2.1337
11676SOL    HW236470   2.593   7.994   1.427 -0.6810 -2.3509 -1.4968
11677SOL     OW36471   1.978   6.535   2.485  0.0288  0.2415  0.1773
11677SOL    HW136472   1.957   6.625   2.458 -0.7895  0.2028  0.6733
11677SOL    HW236473   1.936   6.525   2.571 -0.9616 -1.0413 -0.4389
11678SOL     OW36474   0.719   7.802   3.156  0.0948 -0.0114  0.0453
11678SOL    HW136475   0.677   7.847   3.228  1.0639  0.2018  0.5021
11678SOL    HW236476   0.663   7.817   3.080 -1.6228 -1.3060  1.0027
11679SOL     OW36477   2.849   6.247   3.201 -0.1227  0.7119 -0.0675
11679SOL    HW136478   2.870   6.306   3.273  2.5334  1.6003 -1.4448
11679SOL    HW236479   2.847   6.160   3.241 -1.3623  1.4012  1.4913
11680SOL     OW36480   2.637   6.814   2.587  0.2082  0.0425  0.0022
11680SOL    HW136481   2.663   6.724   2.567 -0.2999  0.5148 -3.3947
11680SOL    HW236482   2.550   6.805   2.626  0.0256 -0.9304 -0.5882
11681SOL     OW36483   0.124   7.039   3.554  0.4640 -0.1182 -0.2074
11681SOL    HW136484   0.134   6.970   3.488  1.4749  0.5259 -0.7558
11681SOL    HW236485   0.097   6.993   3.633  1.3616 -1.1711 -0.4910
11682SOL     OW36486   1.029   1.249   2.513  0.3274 -0.4732 -0.1838
11682SOL    HW136487   1.084   1.223   2.587 -0.8039  0.6082  1.0859
11682SOL    HW236488   1.075   1.321   2.472  0.1446  0.0655  0.5407
11683SOL     OW36489   2.167   6.989   3.567  0.7290  0.4124  0.2439
11683SOL    HW136490   2.198   6.974   3.656  1.1288 -0.6104 -0.0549
11683SOL    HW236491   2.195   6.911   3.518 -1.8833 -0.3776 -0.1622
11684SOL     OW36492   3.960   6.540   2.877 -0.2892  0.2179  0.5080
11684SOL    HW136493   4.024   6.612   2.883  0.2380 -0.2862  0.9876
11684SOL    HW236494   3.913   6.544   2.960  0.6610 -0.8396  1.1158
11685SOL     OW36495   2.661   6.408   1.980 -0.5786 -0.2717 -0.1616
11685SOL    HW136496   2.756   6.405   1.973 -0.4036  0.8906  1.2916
11685SOL    HW236497   2.644   6.450   2.064 -2.3849 -0.7356 -0.2485
11686SOL     OW36498   2.807   5.897   1.550 -0.5086  0.0200 -0.0232
11686SOL    HW136499   2.803   5.960   1.478 -2.0704  0.7994  0.7075
11686SOL    HW236500   2.818   5.950   1.628 -0.7296 -0.6943  0.5024
11687SOL     OW36501   0.950   7.784   2.715 -0.2231  0.4151  0.3749
11687SOL    HW136502   1.007   7.855   2.744  0.0999  0.7366 -0.9772
11687SOL    HW236503   0.870   7.827   2.686  0.5392  0.4470 -1.8984
11688SOL     OW36504   0.554   0.176   2.672  0.2824 -0.6860  0.1254
11688SOL    HW136505   0.572   0.267   2.698  0.3615 -0.1981 -1.5102
11688SOL    HW236506   0.475   0.152   2.720 -0.1376  0.4896  0.0420
11689SOL     OW36507   2.199   1.005   2.190  0.3559  0.0537 -0.1505
11689SOL    HW136508   2.107   1.007   2.166  0.3730 -0.6204 -0.2932
11689SOL    HW236509   2.246   1.008   2.107  0.5491  2.9985 -0.0371
11690SOL     OW36510   1.084   1.619   1.507  0.2791 -0.0648  0.0063
11690SOL    HW136511   1.177   1.599   1.492  0.2289  1.0039 -2.0221
11690SOL    HW236512   1.081   1.714   1.508 -0.7932 -0.0975  0.2430
11691SOL     OW36513   2.270   7.125   4.376  0.1520 -0.2193  0.0677
11691SOL    HW136514   2.323   7.084   4.308  1.7158 -0.5992  1.4403
11691SOL    HW236515   2.181   7.124   4.342  0.9052 -0.2204 -2.0294
11692SOL     OW36516   2.748   0.393   2.132  0.0046  0.0487 -0.0351
11692SOL    HW136517   2.736   0.344   2.213 -0.3312  0.7320  0.3368
11692SOL    HW236518   2.842   0.390   2.116  0.1980  0.7357  0.9053
11693SOL     OW36519   1.466   7.969   4.370  0.0287 -0.4063 -0.3602
11693SOL    HW136520   1.503   7.912   4.437  1.3382  2.9133  1.9887
11693SOL    HW236521   1.389   8.008   4.410  0.5215  1.2423 -0.9122
11694SOL     OW36522   1.653   0.045   1.875  0.4169  0.0335 -1.0131
11694SOL    HW136523   1.626   0.049   1.966  0.7384 -0.2019 -0.9067
11694SOL    HW236524   1.693   0.131   1.858 -0.7941  0.5581 -1.3031
11695SOL     OW36525   1.502   7.172   3.482  0.2078  0.2740  0.1337
11695SOL    HW136526   1.459   7.252   3.452  1.0069 -0.2074 -2.5996
11695SOL    HW236527   1.561   7.201   3.552 -0.7342  1.7749  0.3511
11696SOL     OW36528   1.958   0.036   3.925 -0.2204 -0.0338 -0.3511
11696SOL    HW136529   1.972   0.121   3.967  0.2864 -0.4427  0.3359
11696SOL    HW236530   1.934   0.058   3.835  1.7476  0.8190 -0.7279
11697SOL     OW36531   0.706   7.631   4.623  0.1547 -0.0578  0.1560
11697SOL    HW136532   0.674   7.717   4.596  0.6228  0.0893  0.0607
11697SOL    HW236533   0.782   7.615   4.568 -0.0969 -0.6643 -0.0270
11698SOL     OW36534   2.397   6.480   2.041 -0.4884  0.1750 -0.1429
11698SOL    HW136535   2.477   6.441   2.007  0.5659  1.3047  0.9375
11698SOL    HW236536   2.362   6.413   2.101  0.0856 -0.0138 -0.0107
11699SOL     OW36537   0.757   6.545   3.862  0.0094  0.4341 -0.1088
11699SOL    HW136538   0.722   6.500   3.939 -1.8177  1.2244 -0.4194
11699SOL    HW236539   0.812   6.479   3.818  0.5267 -0.2349  1.4851
11700SOL     OW36540   3.824   7.705   1.194 -0.0039 -0.7001  0.3153
11700SOL    HW136541   3.805   7.748   1.111  0.8777  1.7754  1.2902
11700SOL    HW236542   3.738   7.678   1.227 -0.4773 -0.7075 -0.8685
11701SOL     OW36543   4.566   1.151   2.024 -0.3803  0.3954 -0.2218
11701SOL    HW136544   4.522   1.237   2.020 -2.5867 -0.5796  0.9337
11701SOL    HW236545   4.497   1.088   2.005  1.1981 -1.1695 -1.0389
11702SOL     OW36546   3.629   0.448   2.346  1.0042 -0.5771  0.1677
11702SOL    HW136547   3.615   0.517   2.411 -2.9161 -1.7940  0.8435
11702SOL    HW236548   3.643   0.368   2.398  0.3130 -1.1435 -0.4986
11703SOL     OW36549   1.484   7.259   6.127 -0.3964 -0.5105  0.1641
11703SOL    HW136550   1.436   7.181   6.102 -0.4168 -0.5616  0.3661
11703SOL    HW236551   1.571   7.227   6.153 -0.2775 -0.4268 -0.1247
11704SOL     OW36552   2.179   7.954   4.253 -0.2321 -0.0992 -0.7525
11704SOL    HW136553   2.159   7.860   4.252  1.0240 -0.3874 -0.2291
11704SOL    HW236554   2.238   7.965   4.327 -0.4262  1.1323 -0.7627
11705SOL     OW36555   3.245   6.583   4.844  0.3348 -0.4440 -0.2738
11705SOL    HW136556   3.263   6.557   4.754 -0.3111  0.7754 -0.7711
11705SOL    HW236557   3.150   6.571   4.854 -0.2052  2.5374 -0.8627
11706SOL     OW36558   7.551   6.589   3.259 -0.3714  0.1010  0.0414
11706SOL    HW136559   7.537   6.604   3.352 -2.5124  0.3131 -0.2570
11706SOL    HW236560   7.549   6.676   3.219 -0.4402 -0.0540 -0.3036
11707SOL     OW36561   0.988   7.457   4.919 -0.5059  0.1961  0.2050
11707SOL    HW136562   1.049   7.527   4.898 -1.4039  0.5279 -1.4859
11707SOL    HW236563   0.904   7.501   4.933 -0.6886 -0.3829  1.0585
11708SOL     OW36564   3.462   7.433   1.194  0.1961 -0.1218  0.1475
11708SOL    HW136565   3.379   7.456   1.235 -0.3247  0.3813 -1.1483
11708SOL    HW236566   3.511   7.388   1.263 -0.8608  0.2033  1.1403
11709SOL     OW36567   2.964   0.959   2.865 -0.1919 -0.3103  0.0273
11709SOL    HW136568   2.902   0.988   2.932  0.7583 -2.0142  1.7458
11709SOL    HW236569   2.991   1.040   2.820 -0.6492  0.9433  1.8969
11710SOL     OW36570   1.600   1.196   1.872  0.3870  0.4386 -0.0007
11710SOL    HW136571   1.551   1.114   1.863  2.3219 -0.8012  0.1690
11710SOL    HW236572   1.566   1.236   1.951 -0.6938 -0.1188 -0.1616
11711SOL     OW36573   3.386   0.085   0.973 -0.5826 -0.0029 -0.1301
11711SOL    HW136574   3.333   0.143   0.918 -0.8855 -0.9556 -0.8894
11711SOL    HW236575   3.321   0.033   1.021 -0.3597 -0.7499 -0.6050
11712SOL     OW36576   3.150   0.320   1.101  0.3035 -0.3502 -0.3462
11712SOL    HW136577   3.150   0.416   1.109 -0.8830 -0.3298 -0.3809
11712SOL    HW236578   3.185   0.289   1.184  1.8870  0.1290 -0.8048
11713SOL     OW36579   1.509   7.652   2.698 -0.1152 -0.0911  0.1566
11713SOL    HW136580   1.456   7.728   2.673 -0.2969  0.0479  0.9506
11713SOL    HW236581   1.458   7.607   2.764  0.4389 -0.3556  0.4136
11714SOL     OW36582   2.589   6.408   2.727  0.4997  0.0790 -0.2325
11714SOL    HW136583   2.636   6.435   2.806 -1.9187  0.3005  1.2309
11714SOL    HW236584   2.631   6.456   2.656  2.0720  0.6860  1.0481
11715SOL     OW36585   2.288   7.614   1.974  0.1852 -0.1213  0.4665
11715SOL    HW136586   2.216   7.659   1.931 -1.1277 -0.5720  2.0951
11715SOL    HW236587   2.301   7.662   2.056 -0.9800 -2.3511  2.0702
11716SOL     OW36588   1.989   1.525   5.860 -0.3084  0.8885  0.1713
11716SOL    HW136589   2.043   1.496   5.787  1.0447 -2.5455  2.2730
11716SOL    HW236590   1.912   1.469   5.857 -0.3378  0.8460  1.2255
11717SOL     OW36591   2.114   7.523   5.146  0.3984  0.4544 -0.4344
11717SOL    HW136592   2.021   7.548   5.146 -0.0573 -1.1755 -0.7986
11717SOL    HW236593   2.143   7.540   5.236 -0.8656 -1.1718  0.3212
11718SOL     OW36594   7.307   0.618   2.469 -0.5081  0.0735 -0.0869
11718SOL    HW136595   7.293   0.533   2.511  0.2483  0.0711  0.1750
11718SOL    HW236596   7.345   0.597   2.384  0.3069  0.1723  0.2502
11719SOL     OW36597   1.015   7.593   4.173 -0.5648 -0.0514  0.3503
11719SOL    HW136598   1.006   7.665   4.111 -1.3485 -0.4122  0.0324
11719SOL    HW236599   0.987   7.515   4.124  1.5370 -0.8253  0.2377
11720SOL     OW36600   4.051   0.904   0.791 -0.1677 -1.0730 -0.3736
11720SOL    HW136601   3.994   0.901   0.868 -0.0626 -0.3991 -0.2641
11720SOL    HW236602   4.009   0.846   0.728 -0.7469 -0.9071 -0.1440
11721SOL     OW36603   2.253   0.391   3.905 -0.4922  0.5312  0.2156
11721SOL    HW136604   2.242   0.473   3.953  1.0998 -0.0422  1.6640
11721SOL    HW236605   2.244   0.323   3.972 -0.9188 -0.4561 -0.8056
11722SOL     OW36606   3.842   6.714   4.019  0.1659  0.2291 -0.0162
11722SOL    HW136607   3.936   6.711   4.035  0.3795 -0.7722 -1.2359
11722SOL    HW236608   3.832   6.776   3.946  0.2271 -1.6084 -1.6719
11723SOL     OW36609   2.266   0.211   3.197  0.7711 -0.7251  0.2315
11723SOL    HW136610   2.192   0.178   3.248 -0.3922  1.7391  0.2867
11723SOL    HW236611   2.264   0.159   3.117 -0.3931 -1.4153  0.6708
11724SOL     OW36612   0.789   0.280   1.777  0.2604  0.7170  0.5469
11724SOL    HW136613   0.718   0.235   1.732 -0.3704  0.6853  1.5532
11724SOL    HW236614   0.808   0.356   1.723  1.0465 -0.4962 -0.9532
11725SOL     OW36615   2.003   7.224   3.580 -0.2645  0.2808  0.2321
11725SOL    HW136616   1.975   7.239   3.489 -2.3799 -1.5656  0.4863
11725SOL    HW236617   2.044   7.138   3.578 -1.5084 -0.3725  1.1985
11726SOL     OW36618   1.929   0.339   4.374 -0.3167 -0.2072 -0.5174
11726SOL    HW136619   1.900   0.379   4.456  0.4170  0.2600 -0.4783
11726SOL    HW236620   1.852   0.293   4.342 -0.1802 -1.8286  1.2725
11727SOL     OW36621   2.506   7.386   1.611  0.7483 -0.3940  0.1067
11727SOL    HW136622   2.591   7.343   1.622  0.6208 -0.4824  0.7581
11727SOL    HW236623   2.458   7.366   1.691  0.2140 -0.1036 -0.1348
11728SOL     OW36624   1.953   0.212   2.011  0.1440  0.0144 -0.1677
11728SOL    HW136625   1.991   0.300   2.008  1.7042 -0.6371 -0.6904
11728SOL    HW236626   1.923   0.195   1.922  0.1093 -0.0874 -0.1375
11729SOL     OW36627   2.450   7.424   3.768  0.2807  0.0511  0.2068
11729SOL    HW136628   2.529   7.394   3.812  0.0216 -0.9418  0.0211
11729SOL    HW236629   2.406   7.344   3.740 -0.8282  0.5789  0.3663
11730SOL     OW36630   2.589   2.013   7.238  0.2360 -0.3352  0.3451
11730SOL    HW136631   2.639   2.052   7.166  1.0561 -1.9166  0.0049
11730SOL    HW236632   2.635   1.931   7.257 -1.9360 -1.6246  0.3567
11731SOL     OW36633   1.906   7.036   4.730  0.2003  0.8242  0.1394
11731SOL    HW136634   1.966   7.000   4.664  0.0980 -0.0841  0.5312
11731SOL    HW236635   1.824   6.990   4.716  0.6313 -0.5921  1.9302
11732SOL     OW36636   2.584   0.837   1.456 -0.6593 -0.2289 -0.1188
11732SOL    HW136637   2.646   0.769   1.431 -0.3774  0.5091 -1.5738
11732SOL    HW236638   2.591   0.843   1.551  0.9600 -0.6654 -0.1832
11733SOL     OW36639   3.005   1.058   4.731 -0.1252  0.0074  0.3476
11733SOL    HW136640   2.929   1.101   4.771  0.1312  0.8518 -0.0557
11733SOL    HW236641   3.027   1.113   4.656 -0.5628 -1.5257 -0.9686
11734SOL     OW36642   3.347   1.057   5.228 -0.1678 -0.4051 -0.0472
11734SOL    HW136643   3.380   0.999   5.296 -0.8738 -0.9469 -0.1543
11734SOL    HW236644   3.424   1.082   5.178  0.2303 -0.7308  0.3967
11735SOL     OW36645   1.767   6.250   5.616 -0.4749  0.0649 -1.0030
11735SOL    HW136646   1.721   6.173   5.581 -0.2072 -0.4363 -0.2936
11735SOL    HW236647   1.849   6.215   5.651 -0.0521  0.7829 -1.2593
11736SOL     OW36648   1.840   0.536   4.592  0.1199  0.7703  0.2602
11736SOL    HW136649   1.851   0.490   4.676  0.9529  1.8671  0.7865
11736SOL    HW236650   1.766   0.594   4.606  0.0207  0.6788  0.1099
11737SOL     OW36651   1.810   5.958   4.789  0.0388 -0.0770 -0.1946
11737SOL    HW136652   1.894   5.924   4.819  0.0096 -1.2890 -1.4215
11737SOL    HW236653   1.802   6.043   4.833  1.9719  0.1379 -0.1822
11738SOL     OW36654   1.652   2.629   5.231  0.4357 -0.2877 -0.2555
11738SOL    HW136655   1.623   2.698   5.291 -0.7176 -0.2090 -0.8946
11738SOL    HW236656   1.666   2.553   5.288 -0.3182 -0.1184  0.1679
11739SOL     OW36657   3.755   6.849   3.795 -0.5764  0.6282 -0.4322
11739SOL    HW136658   3.708   6.905   3.856 -2.2147 -0.6472 -0.4567
11739SOL    HW236659   3.733   6.883   3.708 -1.1685  0.2555 -0.4301
11740SOL     OW36660   5.129   7.144   6.541 -0.0927  0.2430  0.3435
11740SOL    HW136661   5.209   7.109   6.502  0.3301  0.7288  0.7595
11740SOL    HW236662   5.059   7.090   6.505  0.2225  0.9986 -1.4955
11741SOL     OW36663   3.421   7.071   6.622 -0.0495 -0.3358  0.1662
11741SOL    HW136664   3.487   7.069   6.692  0.9770 -0.8422 -0.7901
11741SOL    HW236665   3.425   6.984   6.583 -1.4000 -0.4146  0.1772
11742SOL     OW36666   3.054   7.254   5.632  0.4891 -0.3213  0.5028
11742SOL    HW136667   2.987   7.221   5.572 -1.2200  1.6828  1.2045
11742SOL    HW236668   3.133   7.205   5.609 -0.7280 -1.4081 -1.6457
11743SOL     OW36669   2.128   7.520   4.876 -0.1304 -0.5917  0.0073
11743SOL    HW136670   2.127   7.499   4.969  1.7915  0.7557  0.3890
11743SOL    HW236671   2.093   7.441   4.834 -2.3389 -0.7395  1.8850
11744SOL     OW36672   3.385   7.309   5.413  0.4523  0.1178  0.3833
11744SOL    HW136673   3.440   7.387   5.429  1.5389 -0.7682  1.1843
11744SOL    HW236674   3.314   7.341   5.358  0.2567  1.9290  1.5862
11745SOL     OW36675   2.762   5.322   6.106  0.6862 -0.1926  0.1520
11745SOL    HW136676   2.764   5.330   6.201 -0.3435  0.7427  0.1110
11745SOL    HW236677   2.851   5.344   6.078  0.4946  1.5741  0.7821
11746SOL     OW36678   0.887   7.032   5.821  0.1761  0.2307 -0.0508
11746SOL    HW136679   0.799   7.009   5.850  0.2839 -0.0227  0.0802
11746SOL    HW236680   0.942   6.961   5.853 -0.0025 -1.2879 -2.8438
11747SOL     OW36681   4.469   6.521   3.989  0.1302 -0.3804  0.1178
11747SOL    HW136682   4.526   6.517   4.066 -0.2080 -2.1056  0.3211
11747SOL    HW236683   4.443   6.613   3.983  3.0566  0.5088 -0.1296
11748SOL     OW36684   3.656   0.541   5.157  0.2425  0.1151 -0.5492
11748SOL    HW136685   3.659   0.482   5.233  1.1156 -0.9961 -1.3997
11748SOL    HW236686   3.738   0.523   5.111  1.5366  3.4733  0.1854
11749SOL     OW36687   2.936   6.765   3.758  0.1504 -0.8667 -0.1025
11749SOL    HW136688   2.870   6.699   3.781 -0.3085 -0.6136 -0.6978
11749SOL    HW236689   3.017   6.733   3.800 -0.0873 -1.7567 -0.3090
11750SOL     OW36690   2.735   0.722   7.810 -0.2184 -0.6355  0.2505
11750SOL    HW136691   2.784   0.804   7.820 -1.1532 -0.0003 -0.2671
11750SOL    HW236692   2.795   0.655   7.841  1.6618 -0.0748 -1.8741
11751SOL     OW36693   3.821   7.803   6.481  0.1166  0.8866  0.0316
11751SOL    HW136694   3.764   7.780   6.555  0.2217  0.8084  0.0883
11751SOL    HW236695   3.820   7.898   6.478  0.0950  0.8890  0.1214
11752SOL     OW36696   3.023   0.412   1.883  0.0220 -0.0394 -0.8858
11752SOL    HW136697   2.941   0.438   1.842 -0.0058  0.3637 -0.5758
11752SOL    HW236698   3.071   0.494   1.896 -0.8000  0.1369  1.6913
11753SOL     OW36699   1.487   7.528   3.353 -0.1996 -0.0325  0.1700
11753SOL    HW136700   1.471   7.469   3.426  2.6420  0.3979  1.3023
11753SOL    HW236701   1.506   7.613   3.394  3.0898 -0.1512 -0.8054
11754SOL     OW36702   2.545   0.145   4.556  0.7609  0.2089  0.0819
11754SOL    HW136703   2.496   0.225   4.534 -1.3245 -1.5489 -2.3996
11754SOL    HW236704   2.637   0.170   4.549  0.1973  2.6774  0.6769
11755SOL     OW36705   1.626   5.960   5.230 -0.3876 -0.3537 -0.1051
11755SOL    HW136706   1.721   5.947   5.232 -0.0483  1.7722  0.7152
11755SOL    HW236707   1.589   5.872   5.238  1.5164 -1.1244  0.8419
11756SOL     OW36708   3.492   1.209   5.803  0.2006 -0.1013 -0.4959
11756SOL    HW136709   3.540   1.251   5.732 -0.6788  0.6420 -0.6651
11756SOL    HW236710   3.560   1.171   5.859  0.9571  0.5241 -0.9775
11757SOL     OW36711   3.270   7.977   4.553  0.0369  0.1772  0.1327
11757SOL    HW136712   3.193   7.928   4.582 -0.0774  0.7492  0.8259
11757SOL    HW236713   3.271   8.055   4.608  0.3643  0.8301 -0.7768
11758SOL     OW36714   3.680   0.288   4.890 -0.7992 -0.6207  0.2289
11758SOL    HW136715   3.726   0.250   4.815 -0.3718  1.5647 -0.7111
11758SOL    HW236716   3.747   0.337   4.937 -1.8832  1.8974 -0.6680
11759SOL     OW36717   3.241   6.870   4.889 -0.3590  0.5274  0.2850
11759SOL    HW136718   3.155   6.847   4.923  0.0493 -0.1477  0.8851
11759SOL    HW236719   3.290   6.787   4.890  0.1689  0.8141 -0.4431
11760SOL     OW36720   3.513   7.141   7.655 -0.0575  0.1658  0.1069
11760SOL    HW136721   3.572   7.081   7.609  0.2541  0.9292 -0.5003
11760SOL    HW236722   3.428   7.130   7.613 -0.7043 -1.8005  1.7323
11761SOL     OW36723   2.394   1.131   5.266  0.4933 -0.1896 -0.0869
11761SOL    HW136724   2.389   1.173   5.180  3.8994  3.0096  0.9723
11761SOL    HW236725   2.462   1.065   5.256  1.8438  1.0818  0.3433
11762SOL     OW36726   1.038   7.078   5.583 -0.1361 -0.3967 -0.4663
11762SOL    HW136727   0.978   7.075   5.656 -0.4387 -0.6797 -0.7247
11762SOL    HW236728   0.988   7.117   5.511  0.6597  1.4584 -0.0620
11763SOL     OW36729   3.163   0.472   5.555  0.3711  0.0884  0.0743
11763SOL    HW136730   3.130   0.498   5.469 -0.4692  1.6933  0.8462
11763SOL    HW236731   3.088   0.433   5.599 -0.0681  2.0318  1.1472
11764SOL     OW36732   0.806   7.177   4.492 -0.2685  0.0403  0.0500
11764SOL    HW136733   0.898   7.168   4.515 -0.3577 -1.8018 -0.1788
11764SOL    HW236734   0.806   7.214   4.403  0.2000  0.9582  0.4175
11765SOL     OW36735   1.455   0.606   4.444  0.0703  0.1640  0.0291
11765SOL    HW136736   1.470   0.623   4.537 -0.4367 -0.2083  0.1836
11765SOL    HW236737   1.423   0.516   4.442 -1.4148  0.6860 -0.3562
11766SOL     OW36738   1.720   6.222   4.514  0.1570  0.1083 -0.1223
11766SOL    HW136739   1.797   6.230   4.570  0.6993  2.5784 -1.0772
11766SOL    HW236740   1.752   6.241   4.426 -1.1092 -1.3445 -0.9558
11767SOL     OW36741   2.733   7.771   2.815  0.7977 -0.3642 -0.0414
11767SOL    HW136742   2.656   7.767   2.871 -0.0062 -1.4522 -1.1596
11767SOL    HW236743   2.729   7.856   2.773  1.1165  0.2428  1.1272
11768SOL     OW36744   3.088   0.154   2.992  0.9179  0.2564  0.1827
11768SOL    HW136745   3.161   0.193   3.040  0.3215  0.5747  0.8423
11768SOL    HW236746   3.010   0.180   3.041  0.3930 -0.4809 -0.2452
11769SOL     OW36747   1.859   7.905   2.865 -0.3725  0.8146 -0.6365
11769SOL    HW136748   1.806   7.825   2.863 -2.7223  2.1911  1.1680
11769SOL    HW236749   1.904   7.905   2.781  0.4663 -2.8032 -0.3823
11770SOL     OW36750   1.698   7.588   4.852 -0.5252 -0.5966 -0.4593
11770SOL    HW136751   1.608   7.611   4.872 -0.1285  0.2685  0.4215
11770SOL    HW236752   1.692   7.525   4.780 -1.8155 -0.4972 -0.4508
11771SOL     OW36753   3.482   7.931   7.007  0.4105  0.2332  0.4542
11771SOL    HW136754   3.570   7.968   7.019  0.9432 -1.3008  1.7710
11771SOL    HW236755   3.458   7.954   6.918  2.7835 -0.5429 -0.4607
11772SOL     OW36756   1.967   7.929   5.674 -0.1869 -0.0172  0.2478
11772SOL    HW136757   2.030   7.869   5.633 -0.5035  0.3985 -0.8893
11772SOL    HW236758   1.910   7.957   5.602 -0.0986  1.5765  0.7571
11773SOL     OW36759   2.409   7.294   5.410 -0.2256  0.4717  0.2494
11773SOL    HW136760   2.420   7.237   5.334 -0.4334 -0.8092  1.1322
11773SOL    HW236761   2.476   7.263   5.472  0.0029  1.5497  0.5561
11774SOL     OW36762   0.268   1.191   3.701 -0.0076  0.6714 -0.0175
11774SOL    HW136763   0.300   1.281   3.704 -0.0837  0.8396 -2.4500
11774SOL    HW236764   0.338   1.139   3.740  0.3479  1.6946  0.7396
11775SOL     OW36765   4.468   0.267   4.291  0.4198 -0.1040 -0.2120
11775SOL    HW136766   4.485   0.360   4.276  0.7325  0.0261  0.9010
11775SOL    HW236767   4.514   0.246   4.372 -1.7729 -0.5974  0.9813
11776SOL     OW36768   3.037   0.419   3.369 -0.0850 -0.3567  0.0092
11776SOL    HW136769   3.070   0.425   3.279 -1.8274 -1.3100 -0.7546
11776SOL    HW236770   3.029   0.509   3.398  0.6605 -0.0438 -0.7281
11777SOL     OW36771   3.046   0.491   4.442 -0.0714 -0.1708  0.2306
11777SOL    HW136772   3.105   0.415   4.438  0.2894  0.1730 -1.8696
11777SOL    HW236773   2.993   0.485   4.363 -1.9277  0.3221  1.3728
11778SOL     OW36774   1.500   0.208   3.724 -0.0327  0.4625 -0.0181
11778SOL    HW136775   1.553   0.244   3.794  0.9840  0.5502 -0.8098
11778SOL    HW236776   1.416   0.254   3.731  0.3283  1.0374  0.6371
11779SOL     OW36777   2.683   6.020   5.007  0.4484  0.7169 -0.4921
11779SOL    HW136778   2.753   6.028   4.943  1.8824 -1.9001  0.5628
11779SOL    HW236779   2.719   6.056   5.088  0.2482  0.1771 -0.1557
11780SOL     OW36780   1.949   6.634   4.567 -0.6871  0.2538  0.3984
11780SOL    HW136781   1.929   6.613   4.475 -3.1486 -2.3710  1.3822
11780SOL    HW236782   1.996   6.557   4.600  0.5974  1.3708  1.2747
11781SOL     OW36783   4.253   6.397   5.685 -0.7376 -0.0469  0.0903
11781SOL    HW136784   4.283   6.365   5.771 -0.1232  1.7684  0.5863
11781SOL    HW236785   4.168   6.437   5.703  0.3360  2.2673  0.3313
11782SOL     OW36786   3.726   1.323   5.330  0.3494  0.0564  0.5130
11782SOL    HW136787   3.723   1.260   5.258 -1.4361  0.0729  0.5288
11782SOL    HW236788   3.739   1.407   5.287 -1.8502  0.2173  0.0381
11783SOL     OW36789   2.376   7.891   5.105  0.3584 -0.0835  0.1631
11783SOL    HW136790   2.462   7.882   5.064  0.3337 -1.6042  0.4066
11783SOL    HW236791   2.341   7.802   5.109 -1.2082  0.4933  0.1404
11784SOL     OW36792   1.665   2.024   3.702  0.2094 -0.1192 -0.0686
11784SOL    HW136793   1.731   2.079   3.744  0.7445 -0.4535 -0.4543
11784SOL    HW236794   1.666   2.051   3.610 -0.3430  0.0206 -0.0343
11785SOL     OW36795   2.476   7.091   5.179  0.2531  0.3861 -0.1800
11785SOL    HW136796   2.422   7.081   5.101  1.8372  0.3874 -1.3209
11785SOL    HW236797   2.518   7.006   5.191 -0.6427  0.1022  1.2324
11786SOL     OW36798   3.559   7.761   6.295  0.2573 -0.1083  0.2360
11786SOL    HW136799   3.526   7.672   6.282  1.9279 -0.7093 -0.1180
11786SOL    HW236800   3.645   7.761   6.254 -0.2240  2.0688 -0.9322
11787SOL     OW36801   2.977   0.159   4.498  0.4404 -0.5033 -0.3293
11787SOL    HW136802   3.064   0.169   4.460  0.4685 -0.8686 -0.3691
11787SOL    HW236803   2.988   0.092   4.565  0.6484  0.9706  1.1601
11788SOL     OW36804   2.778   7.770   4.197 -0.3719  0.2852  0.0700
11788SOL    HW136805   2.782   7.863   4.219  1.1351  0.2513  0.0327
11788SOL    HW236806   2.800   7.767   4.104 -4.1919  0.1982 -1.0050
11789SOL     OW36807   5.044   6.454   4.392  0.0433  0.7055  0.1876
11789SOL    HW136808   5.129   6.419   4.421  1.7078  1.8098 -2.8633
11789SOL    HW236809   5.049   6.547   4.411 -1.9006  0.3590  2.8503
11790SOL     OW36810   2.389   7.255   3.384 -0.7434 -0.6759  1.0246
11790SOL    HW136811   2.315   7.211   3.342 -1.2008 -1.8115  2.9286
11790SOL    HW236812   2.467   7.215   3.344 -1.0792  0.6114 -1.0766
11791SOL     OW36813   1.990   4.970   4.647  0.0353 -0.2978  0.1648
11791SOL    HW136814   1.976   5.053   4.603 -0.2735 -0.9359 -0.9781
11791SOL    HW236815   2.083   4.970   4.671  0.2402 -0.0010 -0.6279
11792SOL     OW36816   2.899   6.892   4.099  0.1759  0.1709 -0.1468
11792SOL    HW136817   2.858   6.806   4.087 -0.7316  0.4971  0.4806
11792SOL    HW236818   2.993   6.875   4.090  0.1225 -1.1604  1.3855
11793SOL     OW36819   4.101   0.060   3.522 -0.0634  0.0528  0.0519
11793SOL    HW136820   4.009   0.078   3.499 -0.3292 -0.8425  0.3768
11793SOL    HW236821   4.117  -0.029   3.491  0.5630  0.0377  0.3914
11794SOL     OW36822   2.574   0.285   4.018  0.1338 -0.2133 -0.1257
11794SOL    HW136823   2.580   0.324   4.106  0.0480 -0.0444 -0.1944
11794SOL    HW236824   2.527   0.202   4.032 -0.3219  0.0446 -0.0812
11795SOL     OW36825   1.666   6.879   3.510  0.8310  0.7013 -0.2654
11795SOL    HW136826   1.619   6.959   3.487 -0.5143  0.3093  0.9984
11795SOL    HW236827   1.601   6.809   3.502  1.2332  0.1079  1.2423
11796SOL     OW36828   4.745   1.222   3.651 -0.2818 -0.6470  0.5649
11796SOL    HW136829   4.722   1.314   3.637  1.1441 -0.4886 -1.2092
11796SOL    HW236830   4.764   1.216   3.745  1.1596  1.3083  0.4757
11797SOL     OW36831   2.130   7.580   7.453 -1.0265  0.4735  0.2378
11797SOL    HW136832   2.174   7.661   7.477 -1.3940  0.6346  0.3691
11797SOL    HW236833   2.060   7.571   7.518  0.6523 -1.3316  1.9589
11798SOL     OW36834   2.099   6.874   7.343 -0.7558  0.1554  0.6735
11798SOL    HW136835   2.125   6.960   7.373  1.3344 -0.5046  0.9215
11798SOL    HW236836   2.043   6.890   7.267 -1.9364  1.7216  1.8208
11799SOL     OW36837   3.901   7.888   8.768 -0.1038 -0.1345  0.5621
11799SOL    HW136838   3.842   7.948   8.722  1.4308  1.1393  0.1908
11799SOL    HW236839   3.874   7.895   8.860 -2.3328 -1.7165  0.1123
11800SOL     OW36840   2.333   0.796   5.816  0.1721 -0.2722  0.0545
11800SOL    HW136841   2.244   0.763   5.829 -0.1409  0.5612  0.0791
11800SOL    HW236842   2.371   0.736   5.751 -0.1681 -1.0398  0.5482
11801SOL     OW36843   2.473   6.729   4.485 -0.3757 -0.0731  0.3897
11801SOL    HW136844   2.536   6.726   4.413  1.3711  2.4629  1.6468
11801SOL    HW236845   2.493   6.652   4.538 -0.4786 -0.9850 -0.8557
11802SOL     OW36846   4.462   0.125   7.133 -0.3606 -0.0535 -0.0126
11802SOL    HW136847   4.516   0.079   7.069 -0.0344 -0.2985  0.4334
11802SOL    HW236848   4.525   0.160   7.196 -0.7476 -0.8124  0.8169
11803SOL     OW36849   3.671   6.946   7.497  0.1491 -0.0123 -0.6297
11803SOL    HW136850   3.717   6.864   7.513  1.6602  0.7451 -0.8821
11803SOL    HW236851   3.740   7.013   7.501 -1.0279  1.2270 -0.5211
11804SOL     OW36852   1.685   7.392   4.672  0.1917 -0.4120  0.5824
11804SOL    HW136853   1.629   7.318   4.695 -1.1539  0.9787  2.0336
11804SOL    HW236854   1.696   7.387   4.577  0.1079 -2.4230  0.6480
11805SOL     OW36855   1.454   0.119   7.543  0.2403  0.4798  0.0505
11805SOL    HW136856   1.460   0.210   7.571  1.4755  0.1988  0.8071
11805SOL    HW236857   1.362   0.106   7.522  0.3201  2.3560 -1.7046
11806SOL     OW36858   1.985   7.219   6.006 -0.2285 -0.7947 -0.7803
11806SOL    HW136859   1.961   7.311   6.021  2.1549 -0.4743  1.9227
11806SOL    HW236860   2.054   7.223   5.940  0.8189 -0.4579  0.3078
11807SOL     OW36861   3.237   7.694   6.731  0.6760 -0.1644  0.1419
11807SOL    HW136862   3.182   7.628   6.775 -2.6457  1.1697 -1.7046
11807SOL    HW236863   3.322   7.652   6.725 -0.9093 -3.8058  0.2433
11808SOL     OW36864   2.069   0.972   6.614 -0.1393  0.4863 -0.5542
11808SOL    HW136865   2.078   0.964   6.519 -1.1293  2.0151 -0.8115
11808SOL    HW236866   2.156   0.998   6.645 -0.1181  1.1774 -1.1904
11809SOL     OW36867   2.160   7.414   6.731 -0.6693  0.5395 -0.2049
11809SOL    HW136868   2.087   7.377   6.682  0.4862 -0.4815 -1.2274
11809SOL    HW236869   2.134   7.405   6.823 -0.5966 -2.7083 -0.3780
11810SOL     OW36870   3.488   0.697   6.440 -0.1216  0.6143  0.0529
11810SOL    HW136871   3.437   0.687   6.520 -1.0512 -0.2100 -0.6158
11810SOL    HW236872   3.428   0.735   6.377  0.3827  0.5668 -0.4708
11811SOL     OW36873   2.813   0.562   8.169  0.2446 -0.4073  0.2277
11811SOL    HW136874   2.869   0.593   8.240 -0.7724  2.8313 -0.2385
11811SOL    HW236875   2.874   0.528   8.103  1.4383  0.2604  0.9542
11812SOL     OW36876   1.693   6.836   5.015 -0.0250  0.6148  0.5402
11812SOL    HW136877   1.719   6.745   5.000 -3.2667 -0.3107 -0.0361
11812SOL    HW236878   1.715   6.881   4.933  0.0698 -0.0198  0.2104
11813SOL     OW36879   2.877   7.230   6.677  0.6174 -0.4605 -0.2978
11813SOL    HW136880   2.893   7.225   6.771 -0.8610  0.2995  0.0288
11813SOL    HW236881   2.786   7.261   6.670  0.3000 -1.6387 -1.9695
11814SOL     OW36882   2.307   6.707   5.582  0.0836 -0.0212 -0.2382
11814SOL    HW136883   2.303   6.700   5.487 -0.0479 -0.8920 -0.1684
11814SOL    HW236884   2.322   6.618   5.613 -0.1952  0.2027  0.5761
11815SOL     OW36885   2.345   7.330   7.698 -0.1200 -0.0026  0.1472
11815SOL    HW136886   2.389   7.342   7.782 -0.4616  0.8550  0.2114
11815SOL    HW236887   2.252   7.340   7.718 -0.2843 -0.7740 -0.1720
11816SOL     OW36888   1.633   6.292   3.337 -0.3908 -0.3353  0.2247
11816SOL    HW136889   1.623   6.360   3.271  0.2512 -0.3587  0.0970
11816SOL    HW236890   1.597   6.330   3.417  0.5354  0.3856  0.3042
11817SOL     OW36891   5.085   6.951   7.940  0.2134 -0.0164 -0.0083
11817SOL    HW136892   5.069   6.964   8.034 -0.5160 -0.5825 -0.0500
11817SOL    HW236893   5.011   6.993   7.897 -1.2538 -2.6404 -0.1981
11818SOL     OW36894   2.087   0.891   7.076 -0.0014  0.0365  0.2038
11818SOL    HW136895   2.101   0.890   6.981 -1.4419  0.7563 -0.0348
11818SOL    HW236896   2.173   0.914   7.112  0.2288  1.1777 -0.9981
11819SOL     OW36897   2.223   6.764   5.931  0.3798 -0.5971 -0.0757
11819SOL    HW136898   2.311   6.800   5.936 -0.2180  1.1494 -1.2183
11819SOL    HW236899   2.212   6.741   5.838 -0.2176 -1.2282  0.1402
11820SOL     OW36900   2.855   6.275   6.168 -0.0090  0.2607  0.5741
11820SOL    HW136901   2.769   6.244   6.139 -0.3249 -1.2807  2.8854
11820SOL    HW236902   2.838   6.362   6.204 -0.6166 -0.0153  0.9784
11821SOL     OW36903   3.931   0.773   6.708  0.0926  0.4643 -0.1662
11821SOL    HW136904   3.946   0.712   6.636 -0.7271  1.4036 -1.1712
11821SOL    HW236905   4.005   0.759   6.767 -0.1515 -1.5973 -0.2741
11822SOL     OW36906   1.790   1.272   7.554 -0.5950 -0.1139  0.3991
11822SOL    HW136907   1.836   1.253   7.636  1.6896  2.2407 -0.2142
11822SOL    HW236908   1.853   1.248   7.486 -1.4420  0.4035 -0.5809
11823SOL     OW36909   1.794   7.760   6.557  0.3746 -0.3486 -0.1237
11823SOL    HW136910   1.833   7.818   6.622  0.7769 -1.1668  0.3728
11823SOL    HW236911   1.868   7.729   6.505  0.0179  0.6325 -1.2730
11824SOL     OW36912   2.464   6.509   6.570 -0.1551 -0.3812 -0.2435
11824SOL    HW136913   2.427   6.590   6.534 -0.2306 -0.5598 -0.5619
11824SOL    HW236914   2.409   6.489   6.646  0.6664  0.6078  0.6725
11825SOL     OW36915   1.743   7.157   6.174 -1.0501  0.2976  0.3362
11825SOL    HW136916   1.756   7.087   6.238 -1.8567 -0.6207 -0.4642
11825SOL    HW236917   1.821   7.153   6.119 -1.6391 -0.8331 -0.4620
11826SOL     OW36918   2.699   7.296   6.252  0.4628 -0.3296 -0.1525
11826SOL    HW136919   2.733   7.385   6.260  1.6703 -0.6436 -1.3599
11826SOL    HW236920   2.676   7.288   6.159 -2.9091 -0.1856  0.5364
11827SOL     OW36921   5.616   7.378   6.737  0.2832 -0.1057 -0.3304
11827SOL    HW136922   5.699   7.426   6.735  0.4023 -0.2054  0.9289
11827SOL    HW236923   5.549   7.444   6.718  0.5016  0.4336  0.7061
11828SOL     OW36924   1.919   0.233   7.277  0.0076 -0.2727  0.3444
11828SOL    HW136925   1.871   0.302   7.233 -0.2943 -0.8124 -0.1768
11828SOL    HW236926   1.879   0.151   7.247  1.3744 -0.7525 -0.2949
11829SOL     OW36927   2.956   0.695   6.675  0.0024 -0.4768 -0.9435
11829SOL    HW136928   2.902   0.718   6.600 -0.7434 -0.7184 -0.4935
11829SOL    HW236929   2.946   0.768   6.736 -0.8664 -1.1078 -0.3105
11830SOL     OW36930   3.724   0.205   6.757 -0.3493  0.2874 -0.2673
11830SOL    HW136931   3.728   0.286   6.706 -0.5298  0.4723  0.0054
11830SOL    HW236932   3.633   0.178   6.753 -0.5457  0.7714  0.6586
11831SOL     OW36933   3.996   7.847   7.631 -0.1381 -0.6575  0.3626
11831SOL    HW136934   3.981   7.761   7.668 -2.2315 -0.7312 -0.5335
11831SOL    HW236935   3.943   7.849   7.552  1.0978  0.9067 -0.4988
11832SOL     OW36936   0.761   1.257   7.412  0.1268 -0.0241  0.4612
11832SOL    HW136937   0.735   1.179   7.363  0.3664  0.6310 -0.7482
11832SOL    HW236938   0.856   1.248   7.421  0.3473  0.7648 -0.8685
11833SOL     OW36939   2.393   1.290   6.098 -0.5202  0.7967  0.6072
11833SOL    HW136940   2.325   1.352   6.072 -0.7113  1.0306  1.6202
11833SOL    HW236941   2.356   1.244   6.173 -0.3705 -0.5389 -0.1075
11834SOL     OW36942   2.368   0.477   7.439 -0.5818 -0.6306 -0.1080
11834SOL    HW136943   2.285   0.495   7.484 -0.8357  0.2006 -0.8718
11834SOL    HW236944   2.396   0.563   7.406  0.2314 -1.0186 -0.4541
11835SOL     OW36945   3.837   6.377   5.077  0.2883  0.2779 -0.7943
11835SOL    HW136946   3.925   6.368   5.115  0.0306  2.1353  0.3657
11835SOL    HW236947   3.791   6.298   5.106  1.0548  0.1325  0.0998
11836SOL     OW36948   2.935   0.129   4.829 -0.3993 -0.5638 -0.1946
11836SOL    HW136949   2.918   0.105   4.920 -1.0782 -0.3624 -0.2662
11836SOL    HW236950   3.029   0.148   4.826  0.1953 -3.1284 -0.1176
11837SOL     OW36951   3.495   1.038   4.986  0.1052  0.7445 -0.4220
11837SOL    HW136952   3.418   1.008   4.938 -1.7931  0.2013  2.6287
11837SOL    HW236953   3.536   0.957   5.019  0.1793  1.1373  0.4854
11838SOL     OW36954   1.121   7.126   6.134  0.4709  0.5950 -0.3519
11838SOL    HW136955   1.154   7.169   6.214 -0.2208 -1.7466  1.3007
11838SOL    HW236956   1.029   7.107   6.154  0.6588 -1.2820 -1.1210
11839SOL     OW36957   2.879   0.012   6.188  0.4032  0.1850  0.2140
11839SOL    HW136958   2.934  -0.066   6.178 -0.4904 -0.7117  1.8189
11839SOL    HW236959   2.923   0.062   6.257  0.3916  0.5554 -0.0494
11840SOL     OW36960   4.420   6.159   7.577 -0.0917  0.0274 -0.5570
11840SOL    HW136961   4.355   6.102   7.536  0.0862 -0.4887 -0.1401
11840SOL    HW236962   4.386   6.247   7.565 -0.6685 -0.2086 -0.6972
11841SOL     OW36963   1.293   7.486   6.599  0.0505 -0.4733  0.0869
11841SOL    HW136964   1.227   7.550   6.569  1.0630  0.8178  0.5255
11841SOL    HW236965   1.331   7.452   6.519  0.4738  0.5368 -0.1581
11842SOL     OW36966   0.957   5.741   7.275 -0.0385  0.1787 -0.2085
11842SOL    HW136967   0.980   5.735   7.368  0.1329  1.9566 -0.1026
11842SOL    HW236968   0.875   5.693   7.268 -0.1010  0.0919  0.8939
11843SOL     OW36969   2.452   0.202   5.474  0.0063  0.0487  0.0525
11843SOL    HW136970   2.519   0.213   5.542  0.9817 -1.5442 -0.6294
11843SOL    HW236971   2.441   0.290   5.438  1.9345  0.2954 -0.0204
11844SOL     OW36972   2.025   1.182   6.880 -0.1249  0.6920  0.2503
11844SOL    HW136973   2.026   1.265   6.832  1.8673  1.1420  0.9746
11844SOL    HW236974   2.114   1.148   6.871 -0.2733 -0.2368  1.8570
11845SOL     OW36975   3.176   7.968   6.852  0.4253 -0.7249  0.3272
11845SOL    HW136976   3.212   7.879   6.848  0.7406 -0.5963  0.2451
11845SOL    HW236977   3.196   8.005   6.766 -0.1241 -0.7313  0.1920
11846SOL     OW36978   3.719   0.752   6.300 -0.2134  0.5097  0.4605
11846SOL    HW136979   3.643   0.720   6.348 -0.3522 -0.0465 -0.1120
11846SOL    HW236980   3.794   0.728   6.355 -0.3793  0.0258  0.4862
11847SOL     OW36981   5.934   6.524   7.522 -0.0859 -1.0338 -0.1562
11847SOL    HW136982   5.843   6.553   7.517 -0.1703 -1.2195  0.3008
11847SOL    HW236983   5.950   6.508   7.615 -0.1417 -2.7864 -0.4100
11848SOL     OW36984   4.086   6.199   3.840 -0.1696  0.2431 -0.5995
11848SOL    HW136985   4.079   6.284   3.796 -0.6620  0.4180 -0.1987
11848SOL    HW236986   4.174   6.198   3.878  0.6727 -0.3440 -2.4391
11849SOL     OW36987   4.583   0.674   7.486 -0.0736 -0.7465  0.1170
11849SOL    HW136988   4.494   0.657   7.516 -0.1452  0.6119  0.7811
11849SOL    HW236989   4.578   0.670   7.390 -0.9978 -0.0571  0.1253
11850SOL     OW36990   4.564   6.948   6.922  0.3415 -0.0468 -0.0770
11850SOL    HW136991   4.546   7.006   6.995 -1.0170  0.4052 -0.7380
11850SOL    HW236992   4.526   6.864   6.948 -1.8217  0.5905 -0.9698
11851SOL     OW36993   1.940   1.515   7.423  0.2337 -0.3298 -0.2348
11851SOL    HW136994   2.024   1.481   7.453 -0.2644 -2.5062 -1.1034
11851SOL    HW236995   1.929   1.478   7.335 -1.6421 -0.1666 -0.1192
11852SOL     OW36996   1.348   7.584   6.107 -0.1661 -0.7605  0.4399
11852SOL    HW136997   1.331   7.508   6.052  1.9624 -2.1482  1.5805
11852SOL    HW236998   1.417   7.632   6.061 -1.0553  0.1961  0.0470
11853SOL     OW36999   3.062   6.739   6.488 -0.1464 -0.1901 -0.2441
11853SOL    HW137000   3.037   6.700   6.572 -0.0731  0.8243  0.2580
11853SOL    HW237001   3.031   6.829   6.493 -0.6538 -0.2703 -1.5450
11854SOL     OW37002   2.635   1.500   7.025 -0.3821  0.0546  0.3729
11854SOL    HW137003   2.690   1.547   6.962 -0.1819  0.3599  0.7795
11854SOL    HW237004   2.695   1.473   7.094 -0.5003 -0.7595  0.1709
11855SOL     OW37005   3.957   7.545   4.651  0.6172  0.1269  0.2402
11855SOL    HW137006   3.939   7.587   4.735 -1.9511  0.8404 -0.5851
11855SOL    HW237007   3.888   7.577   4.592  0.7159 -2.4154 -1.4267
11856SOL     OW37008   4.496   1.486   8.307  0.7900  0.4097  0.5125
11856SOL    HW137009   4.567   1.531   8.353  1.6104  1.0221 -1.2741
11856SOL    HW237010   4.539   1.423   8.250 -0.2119 -0.4991  0.7188
11857SOL     OW37011   2.936   0.115   6.906  0.0188  0.2533  0.2371
11857SOL    HW137012   2.983   0.113   6.989 -1.8520 -1.1231  1.3585
11857SOL    HW237013   3.001   0.089   6.840  0.9057 -1.4013  1.6729
11858SOL     OW37014   5.107   0.626   4.455 -0.2324 -0.3473  0.2798
11858SOL    HW137015   5.066   0.600   4.537  0.4362  0.0135  0.7402
11858SOL    HW237016   5.048   0.594   4.387 -0.2705 -1.5789  0.8721
11859SOL     OW37017   2.340   7.105   6.073 -0.0715  0.0119  0.5557
11859SOL    HW137018   2.415   7.063   6.032 -0.1217  0.2050  0.2677
11859SOL    HW237019   2.272   7.038   6.074 -0.1105  0.0470  0.2123
11860SOL     OW37020   1.872   7.310   5.465 -0.2224 -0.4682  0.1604
11860SOL    HW137021   1.947   7.260   5.498  0.8797 -0.0485 -1.5812
11860SOL    HW237022   1.841   7.260   5.389  0.4738  1.0901 -1.1933
11861SOL     OW37023   2.845   5.933   6.054  0.2089 -0.0031 -0.2319
11861SOL    HW137024   2.805   5.899   6.134  0.9149  0.5641  0.3734
11861SOL    HW237025   2.823   6.026   6.054  0.3299  0.0237 -0.6272
11862SOL     OW37026   3.891   7.209   5.542 -0.4177 -0.0904  0.0923
11862SOL    HW137027   3.802   7.185   5.517 -0.6335  2.1223 -1.5849
11862SOL    HW237028   3.880   7.258   5.624 -0.7269  0.0359 -0.0236
11863SOL     OW37029   3.843   7.520   6.779 -0.0216  0.2924  0.4065
11863SOL    HW137030   3.786   7.595   6.758 -0.5907  0.4437  2.3330
11863SOL    HW237031   3.876   7.539   6.866  0.1517 -1.5088  0.7623
11864SOL     OW37032   3.138   6.261   7.410 -0.1767  0.4526  0.4798
11864SOL    HW137033   3.069   6.307   7.362 -0.9913 -0.5591  0.6553
11864SOL    HW237034   3.173   6.327   7.469 -0.9143  1.0222  0.3031
11865SOL     OW37035   0.647   0.612   9.037 -0.2068  0.1034  0.1553
11865SOL    HW137036   0.651   0.533   9.091  2.6512  0.5595  0.7686
11865SOL    HW237037   0.713   0.671   9.075 -1.3239  2.2970 -1.0726
11866SOL     OW37038   3.604   7.211   7.906 -0.4277 -0.1246 -0.2679
11866SOL    HW137039   3.649   7.129   7.925 -0.6811 -0.4089 -0.8701
11866SOL    HW237040   3.576   7.203   7.815 -0.4484  0.6330 -0.3387
11867SOL     OW37041   2.441   0.695   7.870  0.0894 -0.2558 -0.6803
11867SOL    HW137042   2.432   0.600   7.863 -0.5999 -0.1517 -1.3076
11867SOL    HW237043   2.533   0.712   7.852  0.6230 -0.9428  1.1384
11868SOL     OW37044   2.508   7.859  10.009 -0.2049  0.3448 -0.3545
11868SOL    HW137045   2.598   7.836   9.988  0.0172 -0.5810  1.4593
11868SOL    HW237046   2.493   7.941   9.963  1.2639  0.0760 -1.3847
11869SOL     OW37047   3.938   0.123   7.781  0.1651  1.1275 -0.4802
11869SOL    HW137048   3.943   0.056   7.713 -0.8765  1.6386 -1.0915
11869SOL    HW237049   4.009   0.102   7.841 -1.3138 -1.7428  0.4756
11870SOL     OW37050   2.477   7.161   8.877  0.2248 -0.1874 -0.1628
11870SOL    HW137051   2.403   7.158   8.817  1.0254  3.6847 -1.6085
11870SOL    HW237052   2.551   7.189   8.824  1.7518  0.2102  2.0224
11871SOL     OW37053   1.443   7.572   6.838 -0.4696  0.3542  0.2423
11871SOL    HW137054   1.381   7.642   6.856 -0.5582  0.2187  0.4709
11871SOL    HW237055   1.398   7.517   6.773  0.1758  1.2812 -1.0175
11872SOL     OW37056   3.754   7.613   8.721 -0.2086  0.0979 -0.0314
11872SOL    HW137057   3.834   7.645   8.764  0.3447 -0.1796 -0.8291
11872SOL    HW237058   3.683   7.661   8.763  0.2398 -0.6768  1.7001
11873SOL     OW37059   4.807   7.301  10.020 -0.0017 -0.2509 -0.6570
11873SOL    HW137060   4.859   7.294   9.940 -1.4436  0.5848 -1.7166
11873SOL    HW237061   4.820   7.217  10.065  0.0706 -1.1341 -2.2583
11874SOL     OW37062   3.469   7.606   6.845  0.3866 -0.3488 -0.5086
11874SOL    HW137063   3.456   7.662   6.922  1.0187  1.2257 -1.5124
11874SOL    HW237064   3.440   7.519   6.874 -1.6266  0.6652  0.7935
11875SOL     OW37065   4.164   1.014   8.541  0.6456  0.0040 -0.3146
11875SOL    HW137066   4.169   1.068   8.620 -1.2192 -1.2791  0.7576
11875SOL    HW237067   4.166   1.077   8.469 -2.6983  1.7792  0.9112
11876SOL     OW37068   3.428   0.130   9.843 -0.4017 -0.6764 -0.3475
11876SOL    HW137069   3.473   0.059   9.890 -0.8500 -0.7924 -0.0790
11876SOL    HW237070   3.405   0.092   9.759  0.0631 -0.5938 -0.5119
11877SOL     OW37071   2.532   7.677   8.994 -0.2929  0.0695 -0.9141
11877SOL    HW137072   2.522   7.728   8.914  0.9978  0.7741 -0.6469
11877SOL    HW237073   2.500   7.734   9.064  1.8964  0.8966 -0.5147
11878SOL     OW37074   6.130   6.568   7.761 -0.1290  0.0115 -0.1921
11878SOL    HW137075   6.183   6.618   7.823 -0.4238 -0.1628  0.2037
11878SOL    HW237076   6.041   6.575   7.795 -1.0862  3.4501 -2.8003
11879SOL     OW37077   2.643   0.968   9.324 -0.6117 -0.0472  0.4311
11879SOL    HW137078   2.706   0.971   9.397  1.8570  1.0866 -1.5710
11879SOL    HW237079   2.639   1.059   9.294 -0.9760 -0.6045 -1.2850
11880SOL     OW37080   2.061   7.289   9.668 -0.4480  0.4791 -0.6252
11880SOL    HW137081   2.119   7.239   9.726 -1.4324 -0.6276 -0.5553
11880SOL    HW237082   2.044   7.370   9.715  1.4578  1.0710 -0.8922
11881SOL     OW37083   2.780   7.346   8.941 -0.1002 -0.0185  0.3913
11881SOL    HW137084   2.808   7.307   9.023 -0.3330  1.0405  0.9848
11881SOL    HW237085   2.802   7.438   8.948 -2.7359  0.6911  0.4861
11882SOL     OW37086   2.626   0.542   6.378  0.2092  0.4118 -0.4086
11882SOL    HW137087   2.574   0.463   6.369  2.4811 -1.3617  1.1463
11882SOL    HW237088   2.687   0.539   6.305 -1.5854  2.4513 -2.1839
11883SOL     OW37089   2.985   7.295   8.354 -0.2415 -0.0519 -0.1868
11883SOL    HW137090   2.906   7.293   8.300  0.3750 -0.7714 -1.0837
11883SOL    HW237091   3.050   7.337   8.299 -0.1818  1.2779  0.8378
11884SOL     OW37092   4.469   7.627   7.266 -0.1686  0.3036  0.0916
11884SOL    HW137093   4.437   7.542   7.296  0.0759  0.3826  0.6026
11884SOL    HW237094   4.396   7.664   7.216 -0.1142 -0.3870 -0.5134
11885SOL     OW37095   2.335   7.365   9.914 -0.1261 -0.7520  0.9713
11885SOL    HW137096   2.336   7.306   9.838  0.7664  1.7877 -1.1659
11885SOL    HW237097   2.246   7.360   9.947 -0.8770 -1.2000 -0.9518
11886SOL     OW37098   2.593   7.375   9.724  0.4707  0.0970  0.1346
11886SOL    HW137099   2.657   7.427   9.675  2.0958 -1.0302  0.9601
11886SOL    HW237100   2.536   7.337   9.658  0.6267  1.1470 -0.6274
11887SOL     OW37101   1.876   7.348   9.153 -1.1648 -0.6308  0.2446
11887SOL    HW137102   1.834   7.296   9.084 -0.2498 -0.1126 -0.7332
11887SOL    HW237103   1.969   7.347   9.130 -1.0809  1.1494  0.3893
11888SOL     OW37104   3.421   0.410   5.515  0.9100  0.2411 -0.1313
11888SOL    HW137105   3.447   0.365   5.595  0.1139  0.5562  0.3094
11888SOL    HW237106   3.328   0.428   5.526  0.3732 -1.1979 -1.8428
11889SOL     OW37107   5.332   7.115   6.893 -0.1593 -0.0492 -0.3140
11889SOL    HW137108   5.277   7.038   6.909  0.2572 -0.4228 -0.6412
11889SOL    HW237109   5.275   7.176   6.847 -0.5941 -0.0204  0.2488
11890SOL     OW37110   1.416   0.089   9.101  0.0397 -0.3425 -0.3914
11890SOL    HW137111   1.407  -0.003   9.128 -0.7143 -0.6332 -1.5578
11890SOL    HW237112   1.506   0.112   9.125  0.3191 -1.4522 -0.2828
11891SOL     OW37113   3.780   6.041   8.721 -0.0124  0.5965  0.2021
11891SOL    HW137114   3.836   5.985   8.776 -1.9902 -1.9027 -0.1337
11891SOL    HW237115   3.708   6.066   8.778 -0.3746  0.8062 -0.3468
11892SOL     OW37116   4.179   7.183   8.219  0.9871 -0.8525 -0.2479
11892SOL    HW137117   4.261   7.208   8.175  0.9350  1.0365  0.6165
11892SOL    HW237118   4.203   7.173   8.311  0.0774  0.9942  0.2509
11893SOL     OW37119   4.774   6.528   7.604 -0.3541  0.5114  0.0949
11893SOL    HW137120   4.855   6.494   7.566 -0.0700 -0.2591  1.3247
11893SOL    HW237121   4.799   6.559   7.691 -1.1037  1.6633 -0.0699
11894SOL     OW37122   2.638   0.591   6.753  0.0620  0.1108  0.2913
11894SOL    HW137123   2.727   0.611   6.783  0.4680 -0.0161 -0.7877
11894SOL    HW237124   2.650   0.552   6.667 -1.1415  1.9395 -0.7818
11895SOL     OW37125   2.040   6.457   8.210 -0.5592  0.0382  0.3976
11895SOL    HW137126   1.967   6.443   8.270 -0.5186  0.7216  0.6147
11895SOL    HW237127   2.115   6.416   8.254 -0.2886  1.4787  1.3668
11896SOL     OW37128   1.802   6.995   8.629  0.0190 -0.1548  0.6713
11896SOL    HW137129   1.868   6.927   8.642  0.7073  0.1710 -0.8149
11896SOL    HW237130   1.853   7.074   8.610 -0.6776 -0.3818 -2.8548
11897SOL     OW37131   1.985   7.641   9.515 -0.4077  0.0591 -0.2587
11897SOL    HW137132   2.058   7.580   9.506  0.7697  1.6050 -1.8181
11897SOL    HW237133   2.026   7.723   9.542 -1.6191  0.8809 -0.8378
11898SOL     OW37134   4.352   0.613   9.719  0.0217 -0.5269 -0.0032
11898SOL    HW137135   4.272   0.632   9.671 -0.6235 -0.7246  0.9504
11898SOL    HW237136   4.402   0.694   9.715  1.1967 -1.2665 -3.1406
11899SOL     OW37137   2.442   6.937   9.972  0.1270 -0.4555 -0.1396
11899SOL    HW137138   2.362   6.948  10.024 -0.5683  0.3006 -1.3065
11899SOL    HW237139   2.496   7.012   9.997 -0.1029 -0.2268 -0.3140
11900SOL     OW37140   1.762   0.494   9.304 -0.5019 -0.1580  0.0054
11900SOL    HW137141   1.852   0.486   9.273 -0.7181  1.2398 -1.0367
11900SOL    HW237142   1.749   0.415   9.357  1.1442 -0.6588 -0.2612
11901SOL     OW37143   1.993   0.673   7.682  0.0816 -0.1171 -0.4500
11901SOL    HW137144   2.058   0.610   7.651  1.0996 -0.2784  1.7899
11901SOL    HW237145   1.909   0.638   7.652  0.7592 -1.8055 -0.4627
11902SOL     OW37146   3.662   0.161   7.084  0.5684 -0.3840  0.0574
11902SOL    HW137147   3.624   0.155   7.172 -0.1678  2.4092  0.0437
11902SOL    HW237148   3.746   0.204   7.097  2.2795 -3.4128 -0.2911
11903SOL     OW37149   4.719   7.768   8.886  0.3572  0.1347  0.6711
11903SOL    HW137150   4.764   7.839   8.931  0.3061  1.1649 -0.8295
11903SOL    HW237151   4.695   7.805   8.801  1.0198 -1.9154 -0.4637
11904SOL     OW37152   2.134   0.759   7.889  0.3083 -0.0772  0.4147
11904SOL    HW137153   2.207   0.808   7.851  0.0966  0.8088  1.1162
11904SOL    HW237154   2.089   0.722   7.813  0.1108  1.3513 -0.2039
11905SOL     OW37155   2.166   1.395   7.541  0.0360 -0.3481 -0.2160
11905SOL    HW137156   2.153   1.330   7.610  2.1490 -2.5889 -1.7898
11905SOL    HW237157   2.261   1.403   7.533 -0.1417  2.3566 -0.6864
11906SOL     OW37158   2.859   1.260   7.224  0.2201 -0.0812  0.1003
11906SOL    HW137159   2.879   1.290   7.312 -1.4163 -0.7906  0.7534
11906SOL    HW237160   2.898   1.326   7.166 -0.5543  1.5761  1.4002
11907SOL     OW37161   2.819   1.249  12.304 -0.4170  0.6311 -0.0984
11907SOL    HW137162   2.913   1.261  12.296 -0.5978  1.6261 -0.9267
11907SOL    HW237163   2.806   1.216  12.393  0.8573 -1.3405 -0.5783
11908SOL     OW37164   4.513   7.142   7.478 -0.0974 -0.5817 -0.0554
11908SOL    HW137165   4.518   7.091   7.559  1.3575  2.4626  1.9729
11908SOL    HW237166   4.502   7.077   7.409  1.4113 -3.5838  2.3020
11909SOL     OW37167   1.857   7.435   7.161  0.2760 -0.2398  0.0454
11909SOL    HW137168   1.800   7.425   7.237 -0.7766  1.3864 -0.4929
11909SOL    HW237169   1.839   7.357   7.107 -1.4321  0.2121 -0.0860
11910SOL     OW37170   1.843   7.883   9.736  0.1808 -0.1239  0.2035
11910SOL    HW137171   1.785   7.958   9.748  1.1887  0.4545  1.8329
11910SOL    HW237172   1.784   7.812   9.710 -1.2616  0.4831  1.5862
11911SOL     OW37173   4.164   7.198   7.350 -0.0451 -0.3175  0.5899
11911SOL    HW137174   4.242   7.242   7.385 -0.2646 -0.4837  1.2946
11911SOL    HW237175   4.127   7.152   7.425 -0.6125 -0.5527  0.1682
11912SOL     OW37176   5.633   5.218   8.248 -0.3931 -0.2857 -0.0735
11912SOL    HW137177   5.544   5.204   8.217  0.0282 -0.9033 -1.0381
11912SOL    HW237178   5.686   5.222   8.169  0.3011  1.2228  0.4195
11913SOL     OW37179   4.094   6.763   7.924  0.2360  0.7391  0.5202
11913SOL    HW137180   4.038   6.768   8.002  1.8113 -0.3385  1.8010
11913SOL    HW237181   4.109   6.669   7.911 -2.0760  0.6635 -2.7383
11914SOL     OW37182   3.649   7.083   8.908 -0.9219  0.4558  0.1918
11914SOL    HW137183   3.558   7.107   8.925 -0.9234 -0.2039  1.2140
11914SOL    HW237184   3.692   7.166   8.885 -1.5899  0.9149  0.5798
11915SOL     OW37185   4.330   7.040   8.646  0.1638 -0.6857  0.6145
11915SOL    HW137186   4.314   7.099   8.573  2.1527  0.4405  0.9997
11915SOL    HW237187   4.350   6.956   8.606 -0.7837 -0.6106 -0.0330
11916SOL     OW37188   4.013   0.511   7.663 -0.1086 -0.2243 -0.2762
11916SOL    HW137189   4.098   0.469   7.675  0.1899  0.0951 -1.1391
11916SOL    HW237190   3.963   0.449   7.610 -0.3204 -0.2910 -0.0008
11917SOL     OW37191   2.631   5.978   9.009 -0.1398 -0.3018  0.0554
11917SOL    HW137192   2.538   5.996   8.999 -0.1350 -0.9530 -1.3556
11917SOL    HW237193   2.663   6.047   9.067 -1.1205  1.0839 -1.0089
11918SOL     OW37194   2.540   0.141   9.438 -0.3852 -0.0358  0.4827
11918SOL    HW137195   2.535   0.227   9.480 -2.3569  0.0857  0.0860
11918SOL    HW237196   2.527   0.160   9.345  0.0770 -0.6966  0.2777
11919SOL     OW37197   3.676   7.964   9.784  0.2103 -0.1318 -0.5363
11919SOL    HW137198   3.727   7.888   9.754  0.4200 -0.5577  0.8280
11919SOL    HW237199   3.632   7.933   9.862  1.5263  1.5863  0.9657
11920SOL     OW37200   0.654   7.851   8.492  0.2407  0.0554 -0.0011
11920SOL    HW137201   0.651   7.771   8.545  1.1615 -0.1951 -0.3018
11920SOL    HW237202   0.674   7.819   8.404 -0.8602  0.5005 -0.4279
11921SOL     OW37203   2.879   7.511   7.528  0.1534  0.7130  0.1531
11921SOL    HW137204   2.800   7.457   7.537 -2.5859  4.0016 -1.6045
11921SOL    HW237205   2.911   7.492   7.440  0.2166  0.6858  0.1824
11922SOL     OW37206   0.728   6.392   7.135  0.1109 -0.1341  0.0304
11922SOL    HW137207   0.655   6.412   7.075  0.1954  0.4192  0.1024
11922SOL    HW237208   0.712   6.302   7.163  1.0839 -1.1058 -2.2787
11923SOL     OW37209   3.466   6.823   6.494  0.1067 -0.1817 -0.1184
11923SOL    HW137210   3.553   6.814   6.534  0.2446 -0.0019 -0.3767
11923SOL    HW237211   3.422   6.741   6.515  0.7706 -0.7861 -1.0284
11924SOL     OW37212   1.640   0.628   7.668 -0.6062  0.6467 -0.5257
11924SOL    HW137213   1.585   0.679   7.728  2.9471  2.0887  1.7767
11924SOL    HW237214   1.675   0.557   7.722  0.0550 -0.0629 -1.8337
11925SOL     OW37215   3.861   6.994  11.083 -0.2460  0.3070  0.0773
11925SOL    HW137216   3.948   7.032  11.072 -0.0683 -0.2940 -0.6449
11925SOL    HW237217   3.840   7.010  11.175  0.1456  1.4478 -0.0088
11926SOL     OW37218   2.460   7.501   9.368  0.2494  0.1720  0.0282
11926SOL    HW137219   2.459   7.481   9.275  1.2616 -0.2508  0.1058
11926SOL    HW237220   2.551   7.494   9.394 -0.1419 -0.7039  1.2730
11927SOL     OW37221   4.441   7.366  10.843  0.3669 -0.3897  0.2205
11927SOL    HW137222   4.529   7.341  10.873  0.3484  0.6198  1.1568
11927SOL    HW237223   4.421   7.302  10.774  2.3376  0.0965 -0.9004
11928SOL     OW37224   3.425   0.052   8.864 -0.0360  0.3305 -0.6574
11928SOL    HW137225   3.363   0.058   8.937  0.4012  1.7842 -0.3561
11928SOL    HW237226   3.465   0.139   8.861  0.6623 -0.0190 -2.0179
11929SOL     OW37227   3.361   0.335  10.763 -0.3532  0.1975  0.1024
11929SOL    HW137228   3.414   0.306  10.689 -0.6814 -0.8519  0.2675
11929SOL    HW237229   3.399   0.290  10.838 -1.4968 -0.5835  0.2168
11930SOL     OW37230   6.084   6.596   7.282 -0.3806  0.4705 -0.3909
11930SOL    HW137231   6.014   6.561   7.337  0.2484 -0.0150  0.1054
11930SOL    HW237232   6.124   6.665   7.335 -0.6344  0.9249 -0.7756
11931SOL     OW37233   1.486   6.915   7.456 -0.5472  0.2413 -0.5894
11931SOL    HW137234   1.420   6.946   7.394 -1.3673  0.1261  0.2077
11931SOL    HW237235   1.503   6.989   7.513 -1.2992 -0.2516  0.2988
11932SOL     OW37236   2.756   0.806   6.517  0.0841 -0.3127 -0.5302
11932SOL    HW137237   2.739   0.892   6.478  0.3119 -0.6283 -1.3310
11932SOL    HW237238   2.669   0.768   6.529 -0.1458  0.6468  1.3133
11933SOL     OW37239   2.207   2.244   9.514 -0.1941  0.1459 -0.6339
11933SOL    HW137240   2.151   2.320   9.528 -0.1497  0.0163  0.3558
11933SOL    HW237241   2.292   2.280   9.492  0.3635  0.4899  1.7808
11934SOL     OW37242   1.899   7.256   8.565  0.1662 -0.5673 -0.3309
11934SOL    HW137243   1.911   7.334   8.618 -0.0228 -1.4783  1.0998
11934SOL    HW237244   1.807   7.258   8.539  0.2862 -0.0629 -0.7354
11935SOL     OW37245   5.113   0.112  10.340  0.0865 -0.4714  0.7063
11935SOL    HW137246   5.055   0.066  10.279  0.0160 -0.0925  0.4818
11935SOL    HW237247   5.193   0.127  10.290  0.3408 -0.9017  0.9812
11936SOL     OW37248   1.425   0.581  10.065 -0.1940 -0.1617 -0.2133
11936SOL    HW137249   1.397   0.672  10.050 -1.2635 -0.5597 -0.7976
11936SOL    HW237250   1.481   0.561   9.990  1.2008  0.4346  0.6296
11937SOL     OW37251   2.037   0.082   9.329 -0.7761  0.2888 -0.2748
11937SOL    HW137252   2.024   0.089   9.423  0.8899  0.3857 -0.0270
11937SOL    HW237253   2.008  -0.007   9.307 -0.7279  0.1007  0.4047
11938SOL     OW37254   4.854   0.786  11.655  0.0743  0.1445 -0.4999
11938SOL    HW137255   4.873   0.715  11.594  2.1172 -0.4071  0.6795
11938SOL    HW237256   4.836   0.742  11.738  0.9262  0.9733  0.1417
11939SOL     OW37257   1.130   0.271   8.478  0.8164  0.6265  0.5555
11939SOL    HW137258   1.190   0.198   8.468  1.3969  1.1106  0.4220
11939SOL    HW237259   1.044   0.231   8.482  0.6445  0.1040 -3.6888
11940SOL     OW37260   4.284   7.876  10.413  0.7906  0.5110 -0.1665
11940SOL    HW137261   4.379   7.881  10.420  0.9729 -1.4186 -0.5619
11940SOL    HW237262   4.263   7.786  10.440 -0.7663  0.4196 -1.5429
11941SOL     OW37263   2.362   6.683  12.283 -0.3490  0.0003  0.2662
11941SOL    HW137264   2.290   6.725  12.331  0.8449  1.1415  1.1243
11941SOL    HW237265   2.405   6.628  12.349  0.2351  0.1943  0.0483
11942SOL     OW37266   2.120   5.034  10.675 -0.6958  0.0522  0.1304
11942SOL    HW137267   2.113   4.956  10.620  1.4430  0.6893 -1.1668
11942SOL    HW237268   2.030   5.056  10.698 -1.4127 -2.1271 -0.4061
11943SOL     OW37269   4.139   7.856  11.216  0.3853 -0.2089  0.7912
11943SOL    HW137270   4.181   7.942  11.211  1.6902 -0.8389  0.6090
11943SOL    HW237271   4.131   7.827  11.125 -1.5937  0.4056  0.7201
11944SOL     OW37272   2.692   1.223  11.288  0.2965 -0.3817 -0.2257
11944SOL    HW137273   2.720   1.147  11.338 -1.1946 -0.1234  1.0905
11944SOL    HW237274   2.715   1.298  11.344 -0.2021 -0.0001 -0.5247
11945SOL     OW37275   2.003   7.220   0.822 -0.4460 -0.3927 -0.1055
11945SOL    HW137276   1.991   7.142   0.876 -1.7200 -0.2587 -0.1771
11945SOL    HW237277   2.097   7.221   0.802 -0.2649 -1.4100  0.6343
11946SOL     OW37278   4.638   0.646   9.990  0.4238  0.0155 -0.5587
11946SOL    HW137279   4.548   0.626  10.016  0.2764  0.7538 -0.4806
11946SOL    HW237280   4.649   0.600   9.906 -0.3717  0.7343 -1.0788
11947SOL     OW37281   4.161   1.448  10.771  0.1201  0.1267 -0.2972
11947SOL    HW137282   4.144   1.441  10.865 -2.2712 -0.3872 -0.7128
11947SOL    HW237283   4.245   1.404  10.759  0.3766  0.0202  1.5538
11948SOL     OW37284   4.378   0.567  10.695  0.0272 -0.2209 -0.6682
11948SOL    HW137285   4.458   0.516  10.709 -0.7817 -0.9156  2.0258
11948SOL    HW237286   4.307   0.503  10.701 -0.8349  0.7026 -0.6869
11949SOL     OW37287   3.517   0.627  10.922 -0.2300 -0.6426 -0.0450
11949SOL    HW137288   3.552   0.636  11.011 -1.4318 -0.4282  0.4225
11949SOL    HW237289   3.442   0.569  10.931 -2.1715  1.6596 -0.3832
11950SOL     OW37290   2.331   0.115   7.194  0.0554 -0.1409  0.0891
11950SOL    HW137291   2.424   0.119   7.216 -0.3791  0.9077  1.9707
11950SOL    HW237292   2.292   0.065   7.266 -0.9868  0.3863 -0.0907
11951SOL     OW37293   3.768   0.212  11.282  0.7249  0.0034  0.2206
11951SOL    HW137294   3.746   0.260  11.202  0.2019 -0.7083 -0.0639
11951SOL    HW237295   3.841   0.262  11.319 -0.3626  1.5214  0.3950
11952SOL     OW37296   2.208   7.726   8.506 -0.4841 -0.1794  0.3693
11952SOL    HW137297   2.116   7.714   8.484 -0.7167 -0.9104  1.6916
11952SOL    HW237298   2.209   7.804   8.562 -0.2666 -0.0916  0.2458
11953SOL     OW37299   2.835   6.421   0.226  0.0949  0.1372  0.1598
11953SOL    HW137300   2.743   6.415   0.250  0.2375  0.9217  0.9495
11953SOL    HW237301   2.867   6.331   0.229 -0.9374 -0.3118 -1.3794
11954SOL     OW37302   3.319   0.296   0.055 -0.0912  0.3443 -0.6127
11954SOL    HW137303   3.240   0.272   0.007  0.1237 -0.9122 -0.3868
11954SOL    HW237304   3.391   0.258   0.004  0.1082 -1.3873  0.8606
11955SOL     OW37305   2.156   7.546   8.856 -0.5249 -0.2893 -0.2668
11955SOL    HW137306   2.167   7.479   8.924 -2.4971  1.2596  1.7194
11955SOL    HW237307   2.159   7.629   8.904 -1.8383  0.8695 -2.0914
11956SOL     OW37308   2.862   7.738   9.692  0.1242  0.4498  0.4790
11956SOL    HW137309   2.768   7.727   9.704  0.3748  0.4586  3.2031
11956SOL    HW237310   2.901   7.699   9.770  2.2714  1.9540  0.2663
11957SOL     OW37311   2.431   6.916  10.497  0.0103 -0.1506 -0.1733
11957SOL    HW137312   2.381   6.905  10.417  0.4827  0.5295 -0.5705
11957SOL    HW237313   2.365   6.937  10.564 -0.0836  3.9635 -1.3038
11958SOL     OW37314   1.470   0.851  11.024 -0.2994  0.1700 -0.2180
11958SOL    HW137315   1.444   0.878  10.936 -1.3540  2.4200  0.7056
11958SOL    HW237316   1.499   0.931  11.067  0.7508 -0.9745  1.3208
11959SOL     OW37317   2.308   0.437  11.800  0.9425  0.5358 -0.2473
11959SOL    HW137318   2.215   0.459  11.796  0.8286  0.1165 -3.9553
11959SOL    HW237319   2.353   0.520  11.785  1.1025  0.5110  0.0952
11960SOL     OW37320   4.584   6.572   9.940  0.3977 -0.4442  1.0631
11960SOL    HW137321   4.513   6.511   9.958 -1.1017 -0.0981 -2.6872
11960SOL    HW237322   4.649   6.520   9.894  0.0441  0.2547 -0.3060
11961SOL     OW37323   3.505   7.880   9.983 -0.4365 -0.1044  0.1524
11961SOL    HW137324   3.443   7.867  10.054 -0.5035 -0.6860 -0.0059
11961SOL    HW237325   3.574   7.814   9.999  0.9670  1.5325  1.2178
11962SOL     OW37326   1.208   0.932   7.843  0.3415 -0.1101 -0.3460
11962SOL    HW137327   1.196   1.027   7.844  1.1213  0.0509 -2.0391
11962SOL    HW237328   1.179   0.906   7.756  2.1689 -1.1013 -0.7012
11963SOL     OW37329   3.733   1.219  11.731  0.2654 -0.6262 -0.0920
11963SOL    HW137330   3.815   1.259  11.759  0.6527 -1.1341 -0.4745
11963SOL    HW237331   3.737   1.130  11.767  0.2356 -0.9041 -0.7648
11964SOL     OW37332   4.119   6.938   0.151  0.0808 -0.4203  0.3747
11964SOL    HW137333   4.106   6.912   0.242 -2.1467  1.4761  0.7058
11964SOL    HW237334   4.038   6.911   0.107 -0.1175  1.2397 -0.3535
11965SOL     OW37335   3.358   7.822  10.248 -0.5770  0.2077 -0.3896
11965SOL    HW137336   3.365   7.885  10.321  3.4832 -2.2077  1.6984
11965SOL    HW237337   3.293   7.758  10.278 -3.0862  2.0302 -1.5651
11966SOL     OW37338   3.622   7.972  12.069 -0.1344  0.1961 -0.2081
11966SOL    HW137339   3.602   8.013  11.985  2.2685 -0.6913 -1.2865
11966SOL    HW237340   3.603   7.879  12.055 -0.9353  0.2086  0.6733
11967SOL     OW37341   3.443   0.278  11.024  0.1330  0.0750  0.1662
11967SOL    HW137342   3.529   0.321  11.028 -0.3329  1.0669 -0.1697
11967SOL    HW237343   3.418   0.266  11.115  0.7286 -0.4341  0.2684
11968SOL     OW37344   2.236   7.551  10.880 -0.6673 -0.3344 -0.5556
11968SOL    HW137345   2.260   7.470  10.833  1.7554 -2.0400  3.1408
11968SOL    HW237346   2.234   7.618  10.811  1.5553 -2.7435 -3.2641
11969SOL     OW37347   5.018   7.252   9.839  0.1491 -0.1459  0.1752
11969SOL    HW137348   5.093   7.309   9.853 -0.6095  0.3831  2.4355
11969SOL    HW237349   5.055   7.172   9.801  1.4138  1.2379 -1.6567
11970SOL     OW37350   1.786   1.134  11.183 -0.3543  0.1721  0.1585
11970SOL    HW137351   1.772   1.075  11.258  1.4194  0.1085  0.4816
11970SOL    HW237352   1.769   1.079  11.107 -1.8828  0.1530  0.4820
11971SOL     OW37353   2.518   7.075   9.632  0.5767  0.1056 -0.3533
11971SOL    HW137354   2.518   7.092   9.537 -1.0116  0.7015 -0.2857
11971SOL    HW237355   2.552   6.986   9.640 -1.2534 -0.7929 -1.6972
11972SOL     OW37356   3.671   7.272  11.046  0.0753  0.0802  0.0627
11972SOL    HW137357   3.698   7.204  11.108  1.6641  0.8268  0.2360
11972SOL    HW237358   3.620   7.225  10.980  0.1162 -1.0758  0.8251
11973SOL     OW37359   1.797   0.841   9.928 -0.8036 -0.1991  0.2039
11973SOL    HW137360   1.742   0.803   9.859 -0.0772 -0.9424  0.0234
11973SOL    HW237361   1.840   0.766   9.968 -0.4002  0.3248  0.7601
11974SOL     OW37362   3.895   0.476  10.083 -0.4038  0.1423  0.0236
11974SOL    HW137363   3.819   0.511  10.036 -1.3232  0.4244  1.6382
11974SOL    HW237364   3.951   0.440  10.014 -1.7205  0.4503 -1.2684
11975SOL     OW37365   2.017   5.790  10.350 -0.4457  0.4022 -0.3460
11975SOL    HW137366   2.021   5.696  10.333  1.9486  0.7332 -2.0704
11975SOL    HW237367   2.056   5.831  10.273 -2.1476  2.9097 -0.0145
11976SOL     OW37368   2.678   7.754  11.216 -0.1929  0.7095  0.4776
11976SOL    HW137369   2.739   7.702  11.163  0.1452  0.6802  0.8937
11976SOL    HW237370   2.636   7.813  11.153 -1.9771 -1.3162 -0.3682
11977SOL     OW37371   1.157   1.513  10.864  0.2807 -0.1721  0.4435
11977SOL    HW137372   1.246   1.522  10.831  0.0612  0.5198  0.0170
11977SOL    HW237373   1.162   1.539  10.956  0.7413 -1.3203  0.7602
11978SOL     OW37374   2.116   1.136  10.870  0.0519 -0.7163 -0.2800
11978SOL    HW137375   2.192   1.105  10.821 -1.4287 -1.5280 -2.1393
11978SOL    HW237376   2.118   1.231  10.860  0.2570 -0.8124 -1.1702
11979SOL     OW37377   4.239   0.323  10.785  0.4010 -0.2174  0.0227
11979SOL    HW137378   4.175   0.256  10.763  1.2529 -1.2539  0.6478
11979SOL    HW237379   4.323   0.284  10.763  0.9557  0.3774  1.0510
11980SOL     OW37380   4.788   7.983  11.192  0.0101  0.3546 -0.4228
11980SOL    HW137381   4.799   8.059  11.134  1.4494 -0.2608 -1.0129
11980SOL    HW237382   4.841   8.005  11.269 -1.6570  1.0415  0.5704
11981SOL     OW37383   3.187   0.092   9.972 -0.3161  0.2501 -0.6980
11981SOL    HW137384   3.259   0.133   9.925  1.1040 -0.1867  0.9868
11981SOL    HW237385   3.167   0.154  10.043 -0.4849 -0.3645 -0.1941
11982SOL     OW37386   2.959   7.489  10.105  0.3434  0.5631 -0.2357
11982SOL    HW137387   2.972   7.481  10.200  0.6188  0.8066 -0.2518
11982SOL    HW237388   2.896   7.561  10.096 -0.9179 -0.5046 -0.1630
11983SOL     OW37389   3.139   0.078  11.939 -0.0739 -0.1455 -0.4096
11983SOL    HW137390   3.088   0.122  11.871  0.2077  1.4555  0.3664
11983SOL    HW237391   3.226   0.068  11.901 -0.2028 -0.2589 -0.6777
11984SOL     OW37392   2.011   1.687   8.957 -0.5196 -0.5517 -0.3420
11984SOL    HW137393   1.941   1.719   8.899 -0.9621  0.6477  0.8046
11984SOL    HW237394   2.011   1.749   9.030  0.2091 -1.8765  0.8179
11985SOL     OW37395   2.361   6.327  10.847 -0.0430  0.5130 -0.3985
11985SOL    HW137396   2.349   6.236  10.875  2.0843  0.2746 -0.0616
11985SOL    HW237397   2.350   6.378  10.927  2.5847  0.1374  0.3106
11986SOL     OW37398   4.336   7.632  11.251  0.1251 -0.2682  0.2138
11986SOL    HW137399   4.350   7.623  11.157  0.5713 -0.7057  0.3172
11986SOL    HW237400   4.262   7.693  11.259  0.8393  0.7133 -0.4008
11987SOL     OW37401   5.150   0.467  11.601  0.1690  0.3799  0.0325
11987SOL    HW137402   5.237   0.507  11.612 -0.4985  2.5272 -1.6611
11987SOL    HW237403   5.108   0.521  11.533 -1.8593 -1.6553 -0.4382
11988SOL     OW37404   2.750   0.106   8.439  0.4072 -0.0349  0.1961
11988SOL    HW137405   2.662   0.139   8.459  0.6389  0.4789  0.3670
11988SOL    HW237406   2.807   0.148   8.503  0.6205 -1.2587  0.8334
11989SOL     OW37407   0.275   7.703   8.545 -0.3668 -0.3111  0.1957
11989SOL    HW137408   0.282   7.769   8.614  0.3667  0.8304 -0.9188
11989SOL    HW237409   0.350   7.645   8.559  0.2316  0.3791 -0.0823
11990SOL     OW37410   2.491   7.860   9.192  0.0458 -0.1085 -0.4551
11990SOL    HW137411   2.556   7.858   9.262 -0.4745  1.8809  0.1590
11990SOL    HW237412   2.409   7.881   9.236 -0.4047  0.6161 -1.5808
11991SOL     OW37413   3.698   7.679  10.371  0.4866  0.0992  0.5804
11991SOL    HW137414   3.775   7.717  10.329  1.1651 -0.5065  1.2636
11991SOL    HW237415   3.655   7.630  10.301  1.3573 -0.5214  0.4742
11992SOL     OW37416   3.749   1.383  10.780 -0.6078  0.5867  0.0681
11992SOL    HW137417   3.704   1.446  10.836 -0.2176  0.7867  0.1658
11992SOL    HW237418   3.682   1.349  10.722 -0.7819  1.2439 -0.1175
11993SOL     OW37419   6.078   7.609  10.195  0.1823 -0.1406 -0.0294
11993SOL    HW137420   6.078   7.583  10.103  1.6729  0.6565 -0.2779
11993SOL    HW237421   6.037   7.696  10.195  3.6894  1.7060 -0.5948
11994SOL     OW37422   4.843   1.221  12.001 -0.7379  0.1966  0.2614
11994SOL    HW137423   4.836   1.130  11.972 -0.7145  0.0829  0.6062
11994SOL    HW237424   4.870   1.215  12.093 -0.8758  0.5483  0.3264
11995SOL     OW37425   2.644   0.479  10.086 -0.0776 -0.0572 -0.0436
11995SOL    HW137426   2.658   0.422  10.010 -0.6343 -1.4484  0.8544
11995SOL    HW237427   2.714   0.543  10.081 -0.2943  0.0968 -1.9187
11996SOL     OW37428   3.492   0.344  12.001 -0.1997 -0.3541  0.6514
11996SOL    HW137429   3.405   0.329  12.038 -0.1609 -0.4365  0.7113
11996SOL    HW237430   3.477   0.362  11.909 -0.2725 -0.4674  0.6409
11997SOL     OW37431   4.595   7.126  10.878  0.0481  0.0533  0.1626
11997SOL    HW137432   4.589   7.128  10.973  1.4652 -0.1071  0.2851
11997SOL    HW237433   4.525   7.068  10.850  1.5793 -2.5578  1.3658
11998SOL     OW37434   2.428   0.195   9.169 -0.3134 -0.1210 -0.1798
11998SOL    HW137435   2.376   0.210   9.090  0.9076 -0.1413 -1.0177
11998SOL    HW237436   2.514   0.230   9.147 -0.0065  0.0413  1.2239
11999SOL     OW37437   3.164   0.650   9.505  0.0466  0.1773 -0.4342
11999SOL    HW137438   3.074   0.670   9.478 -0.3346  0.3964  0.8952
11999SOL    HW237439   3.218   0.713   9.457 -0.5641  0.3541 -0.8996
12000SOL     OW37440   4.294   7.608  10.504 -0.3600  0.3888 -0.5767
12000SOL    HW137441   4.218   7.559  10.470  0.7773 -2.3247  0.5007
12000SOL    HW237442   4.369   7.550  10.487  1.3111  2.3871 -0.3752
12001SOL     OW37443   0.759   7.484  11.892  0.7800 -0.7363  0.1834
12001SOL    HW137444   0.835   7.542  11.899 -0.3985  1.0307 -0.7405
12001SOL    HW237445   0.721   7.484  11.980  0.0090  1.1147 -0.0969
12002SOL     OW37446   2.057   6.819  11.062 -0.4279  0.0368 -0.1966
12002SOL    HW137447   2.114   6.742  11.055  0.8225  0.9692 -0.6503
12002SOL    HW237448   2.023   6.831  10.973  0.7787  1.0000 -0.5682
12003SOL     OW37449   4.490   0.151  12.044  0.5765 -0.4522  0.4237
12003SOL    HW137450   4.554   0.118  11.981  1.1283 -1.8804  1.6605
12003SOL    HW237451   4.417   0.089  12.038  0.2716 -0.1154  0.6061
12004SOL     OW37452   1.979   6.368   0.545 -0.3992  0.1676 -0.0967
12004SOL    HW137453   2.031   6.438   0.585 -0.9622  0.9490 -0.6948
12004SOL    HW237454   2.044   6.315   0.498  0.1288 -0.1593  0.9730
12005SOL     OW37455   2.479   6.361  11.415  0.0372 -0.3151  0.0569
12005SOL    HW137456   2.551   6.409  11.374  0.6646 -0.8910  0.4485
12005SOL    HW237457   2.401   6.411  11.394  0.5527  0.3063 -0.4104
12006SOL     OW37458   1.798   6.692  11.576  0.2188 -0.1458 -0.2746
12006SOL    HW137459   1.859   6.692  11.502  1.8648  0.7733  1.0137
12006SOL    HW237460   1.768   6.783  11.583 -0.4805 -0.3743 -0.2349
12007SOL     OW37461   3.976   0.387  11.384  0.6016 -0.4935  0.5080
12007SOL    HW137462   4.011   0.411  11.299  0.4502  0.0054  0.5817
12007SOL    HW237463   3.965   0.470  11.430 -1.8180 -0.4919  0.0458
12008SOL     OW37464   3.073   7.472   1.076 -0.1960  0.6060  0.5635
12008SOL    HW137465   3.010   7.489   1.145 -0.6103 -1.2872  0.7189
12008SOL    HW237466   3.137   7.412   1.115 -0.1519 -0.0944 -0.5114
12009SOL     OW37467   2.927   5.802  10.718  0.3674  0.0404  0.3843
12009SOL    HW137468   2.880   5.870  10.766 -1.3424  0.0510 -1.1812
12009SOL    HW237469   2.901   5.721  10.761 -1.9895 -0.0489 -1.0263
12010SOL     OW37470   2.973   7.265   0.183  0.3700 -0.7725  0.4099
12010SOL    HW137471   2.893   7.221   0.212  1.0643 -1.7094  0.9857
12010SOL    HW237472   2.944   7.351   0.153 -0.6001 -0.2968  2.5116
12011SOL     OW37473   2.510   6.656   0.050 -0.0091  0.3951  0.0176
12011SOL    HW137474   2.597   6.620   0.033 -0.1062 -0.0649  0.4784
12011SOL    HW237475   2.476   6.603   0.122 -2.5910 -2.6464 -3.0870
12012SOL     OW37476   3.409   7.006  12.117  0.2836  0.2213  0.1172
12012SOL    HW137477   3.368   6.931  12.073 -0.0750 -0.3264  1.3386
12012SOL    HW237478   3.345   7.077  12.109  0.2017  0.1125 -0.1936
12013SOL     OW37479   2.902   7.654  11.034 -0.2738  0.0743  0.3603
12013SOL    HW137480   2.989   7.666  10.997 -0.3064  0.2757  0.3483
12013SOL    HW237481   2.899   7.562  11.059 -0.8301 -0.5148 -1.6635
12014SOL     OW37482   3.615   7.436  11.695  0.1273  0.0336  0.0442
12014SOL    HW137483   3.637   7.343  11.693  0.1145  0.0116  0.6494
12014SOL    HW237484   3.688   7.479  11.650 -0.1626 -0.3148 -0.7790
12015SOL     OW37485   3.313   7.298  12.107  0.3681 -0.3789  0.3156
12015SOL    HW137486   3.292   7.387  12.137 -0.3243 -0.8145  1.2182
12015SOL    HW237487   3.359   7.259  12.181  0.5724 -0.8058 -0.0365
12016SOL     OW37488   0.689   0.301   0.315 -0.2766  0.1888  0.3736
12016SOL    HW137489   0.774   0.286   0.274  0.1907  0.9268  1.0511
12016SOL    HW237490   0.646   0.216   0.314  1.0999 -0.5385  1.4681
12017SOL     OW37491   2.917   7.600  11.546  0.2627  0.3025 -0.1690
12017SOL    HW137492   2.846   7.551  11.505 -0.0724  0.6464 -0.0090
12017SOL    HW237493   2.946   7.661  11.478 -0.3830  0.9650  0.1380
12018SOL     OW37494   2.805   6.020   2.413  0.1901  0.1716 -0.3524
12018SOL    HW137495   2.740   6.005   2.344 -0.2180 -0.2013  0.1035
12018SOL    HW237496   2.844   5.934   2.427  0.6504  0.3573 -0.4898
12019SOL     OW37497   2.115   5.981  11.796  0.1163 -0.8213  0.4494
12019SOL    HW137498   2.059   6.016  11.726 -0.8133  0.2828  1.6764
12019SOL    HW237499   2.201   5.974  11.757 -0.6144 -1.3590 -1.1381
12020SOL     OW37500   1.750   1.004  10.951 -0.4061  0.0214 -0.2886
12020SOL    HW137501   1.737   0.910  10.964  2.1414 -0.4834 -0.8151
12020SOL    HW237502   1.784   1.011  10.862 -1.4172  1.5682 -0.5864
12021SOL     OW37503   2.664   6.855   1.551  0.2924  0.1296 -0.0703
12021SOL    HW137504   2.591   6.807   1.590  0.2578  0.3119  0.0917
12021SOL    HW237505   2.740   6.800   1.567  0.5087  0.8242  1.4755
12022SOL     OW37506   2.540   6.709  11.243  0.3560 -0.1340 -0.2356
12022SOL    HW137507   2.465   6.699  11.302 -0.3212 -0.7880 -1.1794
12022SOL    HW237508   2.575   6.797  11.263 -1.1237  0.4944 -0.3103
12023SOL     OW37509   1.262   6.301   0.378 -0.2463  0.7732  0.2656
12023SOL    HW137510   1.353   6.313   0.406  0.4111 -2.7464 -0.0178
12023SOL    HW237511   1.266   6.300   0.283 -0.5083  0.1896  0.2585
12024SOL     OW37512   3.305   7.773  12.170 -0.0230  0.0325 -0.2039
12024SOL    HW137513   3.274   7.740  12.086  0.8393  1.2322 -1.0224
12024SOL    HW237514   3.388   7.726  12.185 -0.2623 -0.3087  0.0757
12025SOL     OW37515   0.806   0.993  12.498 -0.3027 -0.6698 -0.3773
12025SOL    HW137516   0.794   0.928  12.566 -1.4744  0.2408  0.3250
12025SOL    HW237517   0.719   1.004  12.460 -0.2786  0.9307 -0.0417
12026SOL     OW37518   2.410   1.244  10.610 -0.0056 -0.0122  0.3657
12026SOL    HW137519   2.344   1.312  10.627 -0.1865  0.1606 -0.9595
12026SOL    HW237520   2.493   1.289  10.616 -0.1661  0.8770 -2.5161
12027SOL     OW37521   3.712   6.047  10.339  0.1172  0.1149 -0.4312
12027SOL    HW137522   3.738   6.018  10.426  1.5940 -0.7595 -1.1251
12027SOL    HW237523   3.627   6.007  10.324 -0.7193  1.2346  1.0415
12028SOL     OW37524   3.487   0.405  11.733  0.2798 -0.1925  0.5119
12028SOL    HW137525   3.510   0.382  11.643 -0.5936  0.7465  0.0326
12028SOL    HW237526   3.405   0.454  11.726 -0.4015 -1.0598  1.9254
12029SOL     OW37527   2.294   6.909  12.049  0.1306 -0.5550 -0.2327
12029SOL    HW137528   2.337   6.985  12.087 -0.5122  0.1839 -0.9510
12029SOL    HW237529   2.322   6.836  12.104  0.1189  0.3108  0.9682
12030SOL     OW37530   2.783   7.800  11.890  0.0841  0.5396  0.5755
12030SOL    HW137531   2.828   7.832  11.969 -0.4528 -1.7086  1.8893
12030SOL    HW237532   2.809   7.708  11.884 -1.6997  0.0701 -0.5767
12031SOL     OW37533   2.906   7.109  11.743  0.5468 -0.4341 -0.2587
12031SOL    HW137534   3.000   7.092  11.740  0.4846 -0.9734  0.4656
12031SOL    HW237535   2.896   7.178  11.809  0.5614  0.7029 -1.4061
12032SOL     OW37536   3.102   0.821  11.752 -0.1273 -0.1208 -0.1684
12032SOL    HW137537   3.111   0.885  11.681  1.1243 -0.0411  0.0532
12032SOL    HW237538   3.045   0.865  11.816 -0.0742  0.3797 -0.4547
12033SOL     OW37539   5.077   0.190   0.006  0.3297  0.0056  0.3555
12033SOL    HW137540   4.999   0.153   0.048  0.5306  0.0229  0.7415
12033SOL    HW237541   5.054   0.193  -0.087 -0.5395  1.0225  0.5947
12034SOL     OW37542   1.773   7.557  11.266  0.2035 -0.5129 -0.1873
12034SOL    HW137543   1.710   7.485  11.271  0.7797 -1.0298 -0.2197
12034SOL    HW237544   1.733   7.620  11.206 -0.7223 -0.3802  0.5510
12035SOL     OW37545   2.754   6.556  12.015  0.3464 -0.2443 -0.1669
12035SOL    HW137546   2.847   6.547  12.037  0.0584  0.8314  1.7407
12035SOL    HW237547   2.729   6.471  11.979  1.5498 -1.3154  1.3969
12036SOL     OW37548   2.131   7.921   1.212 -0.0529 -0.2814  0.5410
12036SOL    HW137549   2.049   7.943   1.257  0.1284  0.0332  0.7169
12036SOL    HW237550   2.104   7.904   1.122 -0.0930  1.4902  0.1822
12037SOL     OW37551   2.098   7.009  11.403 -0.3511  0.5612  0.3110
12037SOL    HW137552   2.175   7.006  11.459 -0.0379 -2.3175 -0.1452
12037SOL    HW237553   2.130   7.046  11.320  0.4379 -0.0972  0.3087
12038SOL     OW37554   1.832   7.587   0.547  0.6775 -0.2514  0.4288
12038SOL    HW137555   1.800   7.499   0.528  0.3136  0.1362 -0.8253
12038SOL    HW237556   1.923   7.586   0.517  0.7138 -0.2346  0.5371
12039SOL     OW37557   4.118   7.304   1.066 -0.1785  0.3982 -0.3886
12039SOL    HW137558   4.100   7.394   1.037  0.5694  0.8221  0.3859
12039SOL    HW237559   4.161   7.315   1.151 -0.0926 -0.7039 -0.2738
12040SOL     OW37560   2.927   1.031  11.882 -0.0611 -0.3938  0.1115
12040SOL    HW137561   2.846   1.045  11.930  0.1884  2.2765 -0.1278
12040SOL    HW237562   2.992   1.011  11.949 -0.5818 -1.0920  0.4281
12041SOL     OW37563   1.870   0.342  11.507 -0.1494 -0.5116 -0.3055
12041SOL    HW137564   1.851   0.362  11.598  0.6048 -1.2738  0.0319
12041SOL    HW237565   1.788   0.307  11.472 -0.9113  1.2442 -0.3734
12042SOL     OW37566   2.612   0.677  11.785  0.0354  0.7273  0.3296
12042SOL    HW137567   2.695   0.719  11.763 -0.1314  0.8153 -0.1605
12042SOL    HW237568   2.581   0.722  11.863 -0.5643  2.1126 -0.6780
12043SOL     OW37569   2.602   0.841  12.228  0.3029 -0.1203  0.3263
12043SOL    HW137570   2.610   0.846  12.323 -0.1161  0.1306  0.3544
12043SOL    HW237571   2.659   0.769  12.202 -0.0383 -0.5849  0.8294
12044SOL     OW37572   3.563   7.623  12.220  0.5273  0.0301  0.0205
12044SOL    HW137573   3.655   7.631  12.245  0.4861 -1.6642  0.9204
12044SOL    HW237574   3.563   7.558  12.149  0.1495  1.1261 -1.0096
12045SOL     OW37575   3.262   0.553  11.759 -0.0697  0.1622  0.3496
12045SOL    HW137576   3.225   0.641  11.768  2.7771  1.3054  2.3287
12045SOL    HW237577   3.221   0.502  11.829  1.0765  1.1094  1.7950
12046SOL     OW37578   2.555   6.165   0.020 -0.3934 -0.1936  0.5708
12046SOL    HW137579   2.557   6.074  -0.009 -0.4343 -0.3213  0.9542
12046SOL    HW237580   2.589   6.162   0.110 -1.9866 -0.0804  1.2026
12047SOL     OW37581   3.026   5.566   8.716  0.2626 -0.3516 -0.1620
12047SOL    HW137582   2.943   5.527   8.741  0.2099 -3.7398 -4.2845
12047SOL    HW237583   3.002   5.642   8.664 -0.1634 -0.1349  0.3481
12048SOL     OW37584   1.962   7.745  11.773  0.4204  0.3308  0.0749
12048SOL    HW137585   1.989   7.681  11.838  0.2839  1.4172  1.2335
12048SOL    HW237586   2.043   7.787  11.745  0.1821  2.9468  2.8734
12049SOL     OW37587   4.889   7.224  12.150 -0.8014 -0.1733 -0.2539
12049SOL    HW137588   4.945   7.291  12.111  0.0829 -0.7951 -0.0705
12049SOL    HW237589   4.826   7.274  12.203 -1.7377  0.6632 -2.0443
12050SOL     OW37590   1.366   6.660   0.858  0.2539  0.4251 -0.2175
12050SOL    HW137591   1.373   6.731   0.922  1.3651  1.8696 -1.8322
12050SOL    HW237592   1.275   6.664   0.828 -0.0966  0.1572  0.7779
12051SOL     OW37593   3.443   0.696  11.936  0.1340  0.0447  0.7402
12051SOL    HW137594   3.394   0.620  11.904 -0.1879  0.1525  0.9733
12051SOL    HW237595   3.502   0.719  11.863 -2.3959  1.9083 -0.8805
12052SOL     OW37596   2.869   0.285   0.121 -1.0890  0.0679  0.5105
12052SOL    HW137597   2.784   0.324   0.139 -0.7245  1.3037 -0.3360
12052SOL    HW237598   2.932   0.344   0.162 -0.5165  0.5557 -0.9815
12053SOL     OW37599   2.866   7.502   1.658  0.3410  0.1324  0.1998
12053SOL    HW137600   2.816   7.439   1.711 -0.6567 -0.0606 -0.9298
12053SOL    HW237601   2.953   7.463   1.652  0.0940 -0.5068  0.5769
12054SOL     OW37602   2.509   1.431   2.972 -0.0420 -0.4912 -0.4822
12054SOL    HW137603   2.519   1.337   2.956  0.7460 -0.7239  1.1179
12054SOL    HW237604   2.453   1.436   3.050 -1.0617  0.4232 -1.2448
12055SOL     OW37605   5.931   0.448   1.304 -0.4200 -0.4138 -0.3310
12055SOL    HW137606   5.881   0.527   1.287 -1.2539 -0.7100  0.6222
12055SOL    HW237607   5.904   0.386   1.236 -1.7351 -0.7301  0.4569
12056SOL     OW37608   4.756   0.632   0.999  0.5609  0.1993  0.0214
12056SOL    HW137609   4.812   0.657   0.925 -0.2952  2.9930  0.1870
12056SOL    HW237610   4.702   0.561   0.965  0.7618  0.8591 -1.7747
12057SOL     OW37611   5.904   1.009  10.199 -0.1951 -0.1424 -0.2095
12057SOL    HW137612   5.970   1.077  10.210  0.6065 -0.5816 -2.0252
12057SOL    HW237613   5.832   1.052  10.153 -0.1189 -0.2797 -0.4560
12058SOL     OW37614   3.983   0.556   1.003  0.2339 -0.5977 -0.0225
12058SOL    HW137615   4.076   0.536   1.012 -0.0664 -1.3865  1.7723
12058SOL    HW237616   3.944   0.476   0.965  0.1496 -0.6261  0.1223
12059SOL     OW37617   4.804   1.328   4.106  0.3152 -0.5114  0.3335
12059SOL    HW137618   4.847   1.312   4.190 -2.0935 -2.3339  1.3338
12059SOL    HW237619   4.863   1.291   4.041  1.5302 -0.4141  1.3481
12060SOL     OW37620   5.858   2.066   0.934 -0.3037  0.1636  0.3155
12060SOL    HW137621   5.802   2.137   0.902 -1.3695  0.0224  1.7701
12060SOL    HW237622   5.835   2.057   1.026 -1.2472 -3.0503 -0.1213
12061SOL     OW37623   5.360   2.494   1.926 -0.7073 -0.3178  0.4052
12061SOL    HW137624   5.393   2.557   1.863 -0.8275 -0.5360  0.1235
12061SOL    HW237625   5.424   2.423   1.925 -0.6687 -0.2863  0.5850
12062SOL     OW37626   3.926   2.382   2.082 -0.3574 -0.1506 -0.2719
12062SOL    HW137627   3.852   2.352   2.029  0.3528 -0.3835 -1.1609
12062SOL    HW237628   3.905   2.473   2.104 -0.6036 -0.0001 -1.0873
12063SOL     OW37629   2.336   1.508   1.365 -0.3432 -0.0004 -0.1500
12063SOL    HW137630   2.318   1.598   1.340  0.6837 -0.1131 -1.3899
12063SOL    HW237631   2.423   1.511   1.405 -0.1453 -0.4760 -0.5271
12064SOL     OW37632   3.245   1.139   2.381  0.6030  0.2382  0.7623
12064SOL    HW137633   3.288   1.093   2.309 -1.0597  0.1245 -0.2110
12064SOL    HW237634   3.283   1.227   2.380 -1.0864  1.0839 -1.9539
12065SOL     OW37635   7.809   0.668   1.332  0.7390 -0.0338  0.7221
12065SOL    HW137636   7.865   0.729   1.284  3.8389 -2.2479  1.2200
12065SOL    HW237637   7.763   0.618   1.264 -0.5940  1.6465  0.3076
12066SOL     OW37638   3.304   0.997   1.038 -0.8954 -0.2749 -0.1256
12066SOL    HW137639   3.283   1.064   0.972  1.9278 -1.1288 -2.0983
12066SOL    HW237640   3.390   1.023   1.071  0.2181 -2.7312 -0.8376
12067SOL     OW37641   4.355   0.877   1.121  0.7823 -0.0688  0.4490
12067SOL    HW137642   4.259   0.886   1.126  0.7031 -0.5534 -0.1595
12067SOL    HW237643   4.370   0.823   1.044  1.5786  0.4611  0.2279
12068SOL     OW37644   5.162   0.984  10.870 -0.6608  0.3269 -0.2435
12068SOL    HW137645   5.076   0.984  10.912 -0.5682  0.6364 -0.0525
12068SOL    HW237646   5.222   0.953  10.937 -0.4434  1.2496  0.0028
12069SOL     OW37647   2.679   0.926   1.068 -0.0097 -0.6045 -0.2127
12069SOL    HW137648   2.598   0.963   1.104 -1.2194 -2.3051 -1.0310
12069SOL    HW237649   2.700   0.982   0.994  0.1222  0.4094  0.5641
12070SOL     OW37650   2.553   0.743   0.822 -0.7718  0.8755 -0.2059
12070SOL    HW137651   2.546   0.781   0.910 -0.6314  0.0677  0.1657
12070SOL    HW237652   2.466   0.711   0.803 -0.0697 -2.1759  1.1683
12071SOL     OW37653   5.265   2.131   1.316 -0.1309  0.2544  0.9382
12071SOL    HW137654   5.173   2.105   1.310 -0.3666  0.3337  3.2677
12071SOL    HW237655   5.298   2.126   1.226 -2.0192 -1.1911  0.2738
12072SOL     OW37656   4.617   0.778   0.762 -0.0203  0.5739  0.2301
12072SOL    HW137657   4.612   0.777   0.667 -1.3113 -0.3490  0.2798
12072SOL    HW237658   4.707   0.752   0.782  0.1029  0.2294 -0.7401
12073SOL     OW37659   4.891   0.802   0.331 -0.2111 -0.2948 -0.5469
12073SOL    HW137660   4.926   0.719   0.299 -0.6645 -0.2906 -1.0600
12073SOL    HW237661   4.800   0.802   0.305 -0.2205  0.3610 -0.5375
12074SOL     OW37662   2.656   1.295   1.547 -0.2667 -0.6116 -0.5510
12074SOL    HW137663   2.748   1.301   1.569 -0.2177 -0.9906 -0.6540
12074SOL    HW237664   2.649   1.220   1.488 -0.3731  0.4255 -1.9255
12075SOL     OW37665   4.556   1.467   1.004  0.2662  0.0207  0.1191
12075SOL    HW137666   4.488   1.404   1.030 -2.1277  1.6420 -1.7740
12075SOL    HW237667   4.530   1.495   0.916  3.6211  0.5379 -0.8441
12076SOL     OW37668   6.010   1.606   1.533  0.0347  0.0501 -0.3235
12076SOL    HW137669   6.099   1.572   1.546 -0.3011 -1.0966 -0.9019
12076SOL    HW237670   6.009   1.636   1.443 -1.0563 -2.9146 -1.4056
12077SOL     OW37671   6.919   7.790   0.638  0.4161  0.1814  0.1279
12077SOL    HW137672   7.004   7.833   0.625  0.5952  0.0196  0.7164
12077SOL    HW237673   6.866   7.818   0.563  0.9255  0.4430 -0.1398
12078SOL     OW37674   4.361   1.444   0.053 -0.0951 -0.1853  0.1576
12078SOL    HW137675   4.342   1.506  -0.018 -0.7615 -1.2276 -0.6018
12078SOL    HW237676   4.385   1.500   0.127  0.2434  0.9429 -0.7717
12079SOL     OW37677   4.061   1.056   3.138  0.2173  0.0341  0.7098
12079SOL    HW137678   4.021   1.000   3.072  0.1847  0.7927  0.0647
12079SOL    HW237679   4.004   1.049   3.215 -0.7729  0.5420  0.0486
12080SOL     OW37680   3.754   0.894   1.332 -0.2366  0.3346  0.2929
12080SOL    HW137681   3.818   0.957   1.300  0.6228 -0.0755  1.1210
12080SOL    HW237682   3.725   0.930   1.416 -2.3135  1.3053 -0.7823
12081SOL     OW37683   3.875   7.377   1.344 -0.4860 -0.2330 -0.2469
12081SOL    HW137684   3.933   7.355   1.417  1.4186 -3.2218 -2.4414
12081SOL    HW237685   3.883   7.472   1.334  0.6846 -0.0121  2.1416
12082SOL     OW37686   4.713   2.154   2.006 -0.3805  0.1312 -0.2034
12082SOL    HW137687   4.803   2.175   1.983  1.2190 -2.2203  3.0305
12082SOL    HW237688   4.704   2.061   1.983 -1.9315  0.2685 -0.2568
12083SOL     OW37689   4.253   7.934   1.294 -0.7095 -0.3209  0.5973
12083SOL    HW137690   4.290   7.893   1.216 -0.6873 -1.1946  1.0548
12083SOL    HW237691   4.173   7.886   1.311 -0.7670 -0.0683  1.0576
12084SOL     OW37692   6.183   2.626   1.716 -0.2550 -0.4398 -0.0250
12084SOL    HW137693   6.268   2.601   1.753  0.6617 -0.0532 -1.7685
12084SOL    HW237694   6.199   2.710   1.674 -1.6032 -0.2111 -0.1362
12085SOL     OW37695   5.632   0.259   0.516  0.0674 -0.0877  0.4366
12085SOL    HW137696   5.720   0.240   0.549 -0.7044 -1.8879  1.5983
12085SOL    HW237697   5.608   0.182   0.464 -1.3311 -0.2837  1.3005
12086SOL     OW37698   5.950   2.280  12.447  0.1461  0.0415 -0.2062
12086SOL    HW137699   5.874   2.327  12.480 -0.1570 -1.0388  0.7104
12086SOL    HW237700   5.952   2.300  12.353 -0.0002  1.7740  0.1317
12087SOL     OW37701   6.605   0.222   1.094 -0.5117 -0.1865  0.5759
12087SOL    HW137702   6.539   0.156   1.116  0.4042 -1.0180  0.9029
12087SOL    HW237703   6.642   0.247   1.179 -1.2102  1.1513  0.5054
12088SOL     OW37704   6.140   2.106   0.272  0.4703 -0.1552 -0.6770
12088SOL    HW137705   6.207   2.104   0.204  0.0406  0.6778 -1.1446
12088SOL    HW237706   6.175   2.166   0.338 -0.3401  1.2871 -1.5158
12089SOL     OW37707   6.741   2.412  11.520 -0.1456  0.2837 -0.0240
12089SOL    HW137708   6.679   2.351  11.480 -0.7881  0.8564  0.0796
12089SOL    HW237709   6.802   2.356  11.567 -0.1293 -0.3313 -0.7604
12090SOL     OW37710   5.286   0.672   1.440  0.7243 -0.3918 -0.0239
12090SOL    HW137711   5.214   0.616   1.468 -0.2914  0.6200 -0.5196
12090SOL    HW237712   5.306   0.643   1.351  0.3603 -0.1462 -0.1908
12091SOL     OW37713   3.480   7.061   3.219 -0.1735 -0.2334 -0.0261
12091SOL    HW137714   3.454   7.029   3.132  0.6581 -1.0448  0.0045
12091SOL    HW237715   3.425   7.011   3.280 -1.2490  0.8338 -0.0967
12092SOL     OW37716   4.781   1.366   1.812 -0.2106  0.3623  0.1638
12092SOL    HW137717   4.765   1.361   1.717 -2.4858 -2.1151  0.5576
12092SOL    HW237718   4.855   1.307   1.827  0.2422  0.8626 -0.0500
12093SOL     OW37719   3.971   7.579   0.749 -0.6489  0.3243  0.0603
12093SOL    HW137720   3.957   7.579   0.654 -2.0565  1.5337  0.2423
12093SOL    HW237721   3.893   7.536   0.785  0.2450 -0.8622  0.6541
12094SOL     OW37722   3.144   0.839   0.072 -0.1179 -0.2101 -0.0760
12094SOL    HW137723   3.168   0.800   0.156  0.9155 -0.6245 -0.5385
12094SOL    HW237724   3.171   0.931   0.079 -0.6681 -0.0718  0.2822
12095SOL     OW37725   4.579   2.644   0.047  0.3800 -0.0152  0.1744
12095SOL    HW137726   4.613   2.616  -0.038  0.3687  0.8707 -0.1317
12095SOL    HW237727   4.655   2.642   0.105  0.4845 -0.1872  0.0332
12096SOL     OW37728   0.695   3.236   0.443  0.1362 -0.1084 -0.0213
12096SOL    HW137729   0.742   3.175   0.386 -0.5614 -2.3543  1.6509
12096SOL    HW237730   0.603   3.217   0.428 -0.0657 -0.5104  1.5152
12097SOL     OW37731   5.602   0.435   1.072  0.1426 -0.4361  0.5086
12097SOL    HW137732   5.591   0.436   0.977 -0.8361 -0.7463  0.6023
12097SOL    HW237733   5.574   0.522   1.099 -0.6919 -0.7184  0.6027
12098SOL     OW37734   5.631   0.111   1.023 -0.2034  0.5075  0.4776
12098SOL    HW137735   5.701   0.145   0.968  0.0577  1.0711  1.1285
12098SOL    HW237736   5.552   0.155   0.991 -0.0153  1.0187  0.6887
12099SOL     OW37737   4.157   1.673   2.647  0.0876 -0.0102  0.0710
12099SOL    HW137738   4.170   1.730   2.723 -0.2839 -0.3896  0.4241
12099SOL    HW237739   4.083   1.617   2.672  0.9389 -1.1802  0.0507
12100SOL     OW37740   3.129   6.548   0.028  0.1114  0.0535  0.1902
12100SOL    HW137741   3.219   6.580   0.026  0.5977 -1.2970 -1.3667
12100SOL    HW237742   3.075   6.628   0.030  1.2677  1.0670 -3.2518
12101SOL     OW37743   4.942   1.901   1.453  0.1680 -0.3993 -0.6990
12101SOL    HW137744   5.037   1.895   1.460  0.1682  0.7530  0.8936
12101SOL    HW237745   4.915   1.948   1.531 -1.6322  0.2349 -1.6391
12102SOL     OW37746   4.989   2.837  12.353  0.4609  0.5922 -0.0127
12102SOL    HW137747   5.025   2.751  12.375  0.5703  0.6398 -0.0069
12102SOL    HW237748   5.002   2.889  12.432  1.8423  1.0941 -0.5297
12103SOL     OW37749   3.828   2.006   3.485  0.1192 -0.2449  0.6422
12103SOL    HW137750   3.776   2.063   3.429  0.2638 -0.5658  0.1731
12103SOL    HW237751   3.840   2.056   3.565 -0.1595  0.1887  0.4206
12104SOL     OW37752   4.230   2.086   1.190  0.1675  0.2938  0.5767
12104SOL    HW137753   4.138   2.096   1.215  0.2939  0.1141  1.1149
12104SOL    HW237754   4.262   2.176   1.180  0.1992  0.3725  1.3655
12105SOL     OW37755   4.705   2.112  12.495  0.4316 -0.2053  0.2348
12105SOL    HW137756   4.677   2.055  12.423 -0.4984  1.3130 -0.6526
12105SOL    HW237757   4.790   2.146  12.467  1.5327 -1.9424  1.2689
12106SOL     OW37758   5.696   2.672   1.291 -0.5443  0.5773 -0.4762
12106SOL    HW137759   5.753   2.748   1.283 -2.3441  1.7996 -2.7371
12106SOL    HW237760   5.709   2.624   1.209 -0.6284 -0.7239  0.2477
12107SOL     OW37761   4.532   2.253   2.185 -0.2079  0.4404 -0.1788
12107SOL    HW137762   4.462   2.253   2.120  0.7054 -0.2259 -1.2084
12107SOL    HW237763   4.601   2.199   2.146 -0.2274 -1.3613  1.9987
12108SOL     OW37764   6.037   1.537  12.366 -0.0451  0.2144  0.4957
12108SOL    HW137765   5.965   1.599  12.379 -0.9912 -0.4651 -1.1378
12108SOL    HW237766   5.998   1.452  12.384 -0.0596 -0.2766 -1.5891
12109SOL     OW37767   4.829   2.544   0.476 -0.1977  0.5024 -0.0396
12109SOL    HW137768   4.786   2.465   0.442  2.5079 -0.3615 -1.7117
12109SOL    HW237769   4.826   2.606   0.404 -0.8013  1.3559  0.6938
12110SOL     OW37770   7.375   1.662  11.556 -0.2404 -0.7940  0.4340
12110SOL    HW137771   7.322   1.599  11.606  0.2979 -0.8647  0.9182
12110SOL    HW237772   7.407   1.611  11.481  0.6391 -1.2512  1.1116
12111SOL     OW37773   6.310   2.528  12.166 -0.2055 -0.5221 -0.3256
12111SOL    HW137774   6.255   2.602  12.140  0.1365  0.1999  0.9112
12111SOL    HW237775   6.351   2.556  12.248  0.6192 -1.7470 -0.2907
12112SOL     OW37776   4.301   7.380  11.975  0.2957  0.1790  0.0244
12112SOL    HW137777   4.259   7.298  12.002 -0.6709  0.8772  0.6905
12112SOL    HW237778   4.333   7.362  11.887  0.5166 -1.0648  0.3415
12113SOL     OW37779   3.445   1.880   0.574 -0.3288  0.2048 -0.1609
12113SOL    HW137780   3.364   1.906   0.617 -0.7153 -1.2147  0.0123
12113SOL    HW237781   3.500   1.844   0.644  1.0059  2.3059 -0.0369
12114SOL     OW37782   5.000   2.066   1.268 -0.1227  0.1452  0.3784
12114SOL    HW137783   4.953   2.003   1.322 -0.7864 -0.6219 -1.0367
12114SOL    HW237784   4.973   2.045   1.178  0.7763  1.5075 -0.2362
12115SOL     OW37785   5.248   7.966   0.297  0.6746 -0.5938  0.4758
12115SOL    HW137786   5.211   7.907   0.363 -2.8146  1.1677  0.3178
12115SOL    HW237787   5.197   7.948   0.218  1.4487  0.6994 -0.3408
12116SOL     OW37788   4.729   1.621   1.880  0.1416 -0.2592  0.6524
12116SOL    HW137789   4.639   1.644   1.857 -0.1082 -1.6584  0.1694
12116SOL    HW237790   4.741   1.532   1.846  1.4859 -0.3516  1.3080
12117SOL     OW37791   4.589   1.272   1.256  0.1899  1.0276  0.3641
12117SOL    HW137792   4.606   1.243   1.166 -1.7005  0.7007  0.0801
12117SOL    HW237793   4.676   1.285   1.293  1.0206  0.7495 -1.3747
12118SOL     OW37794   3.819   6.999   1.205  0.2261 -0.2416  0.5786
12118SOL    HW137795   3.728   6.972   1.194  0.7111 -2.5236  1.6151
12118SOL    HW237796   3.827   7.020   1.298  0.6334  0.5467  0.3764
12119SOL     OW37797   3.990   1.561   0.999  0.2854 -0.0108  0.5630
12119SOL    HW137798   4.041   1.489   1.036  0.6043 -0.5610 -0.8687
12119SOL    HW237799   4.055   1.624   0.969  0.0910 -0.1080 -0.0833
12120SOL     OW37800   6.178   0.984   1.442  0.1555 -0.1307  0.0391
12120SOL    HW137801   6.086   0.966   1.422  0.4438  0.2419 -1.8314
12120SOL    HW237802   6.220   0.898   1.440 -0.0623 -0.2462  0.3892
12121SOL     OW37803   6.874   2.235   1.170  0.1157 -0.4691 -0.1090
12121SOL    HW137804   6.875   2.184   1.090  0.1214  0.1362 -0.4982
12121SOL    HW237805   6.799   2.294   1.161 -0.8556 -1.4776  1.0271
12122SOL     OW37806   4.863   0.105   2.093 -0.3974 -0.1325  0.2605
12122SOL    HW137807   4.778   0.151   2.094 -0.7106 -0.6578 -0.6593
12122SOL    HW237808   4.841   0.015   2.068  0.3690 -0.4387  0.6568
12123SOL     OW37809   5.226   7.746  12.256 -0.1508 -0.6919  0.1863
12123SOL    HW137810   5.263   7.739  12.168 -0.2270  1.6883 -0.1026
12123SOL    HW237811   5.146   7.695  12.253 -0.5094 -0.0883 -1.3599
12124SOL     OW37812   5.683   1.487  12.437  0.4141 -1.0815  0.0466
12124SOL    HW137813   5.666   1.412  12.379 -1.7783 -1.1542  0.7033
12124SOL    HW237814   5.724   1.552  12.381  0.2250 -1.9164 -1.0893
12125SOL     OW37815   5.732   7.794   0.186 -0.0099  0.0599  0.1384
12125SOL    HW137816   5.774   7.840   0.259  0.2571 -1.5592  1.0492
12125SOL    HW237817   5.804   7.767   0.129 -0.1732  0.7949 -0.4397
12126SOL     OW37818   5.688   0.942   1.240  0.0583 -0.3171  0.0709
12126SOL    HW137819   5.643   1.016   1.281 -0.0923  0.4164 -1.3372
12126SOL    HW237820   5.654   0.865   1.285 -1.0613  0.3642  0.4369
12127SOL     OW37821   5.933   0.894   1.412  0.1125  0.3946 -0.9842
12127SOL    HW137822   5.839   0.897   1.396 -0.0575  0.5854 -0.0141
12127SOL    HW237823   5.947   0.811   1.458  0.2871  0.7765 -0.3442
12128SOL     OW37824   5.662   1.323   2.202  0.3440 -0.4469 -0.2898
12128SOL    HW137825   5.579   1.278   2.190  0.1145  0.0753 -0.7141
12128SOL    HW237826   5.723   1.254   2.229 -0.3385 -0.7411  0.5497
12129SOL     OW37827   3.088   2.308   1.422 -0.1040  0.4139  0.1086
12129SOL    HW137828   3.138   2.265   1.491  0.8008  0.3760 -0.5585
12129SOL    HW237829   3.037   2.376   1.467  3.2028  2.9146  0.4397
12130SOL     OW37830   5.787   1.524   0.539 -0.3436  0.3015  0.0762
12130SOL    HW137831   5.868   1.539   0.587 -0.0388 -1.9327  0.3707
12130SOL    HW237832   5.718   1.557   0.597  0.2318  0.7894  0.4979
12131SOL     OW37833   4.803   7.587   0.367 -0.3974  0.8581  0.2726
12131SOL    HW137834   4.770   7.497   0.364 -0.4335  0.8615  0.5468
12131SOL    HW237835   4.766   7.624   0.448 -0.5323  1.1750  0.0702
12132SOL     OW37836   1.069   0.224   0.707 -0.1431 -0.2207  0.1002
12132SOL    HW137837   1.110   0.293   0.655  0.8769 -0.1762  0.9224
12132SOL    HW237838   0.981   0.214   0.669  0.0114  0.8884 -0.6061
12133SOL     OW37839   5.324   6.489   0.354  0.7780 -0.6192 -0.3623
12133SOL    HW137840   5.345   6.574   0.316 -1.4763  0.6326  0.9991
12133SOL    HW237841   5.229   6.483   0.351  0.8613 -3.0623 -0.3010
12134SOL     OW37842   5.458   1.039  12.427  0.2811 -0.1141 -0.4391
12134SOL    HW137843   5.450   0.944  12.418  1.0436 -0.4104  1.3849
12134SOL    HW237844   5.551   1.053  12.448  0.4272  1.1657 -1.7663
12135SOL     OW37845   3.608   0.026   1.739  0.0869 -0.3320  0.1830
12135SOL    HW137846   3.560   0.107   1.754 -1.3590 -1.2221  0.4828
12135SOL    HW237847   3.548  -0.043   1.765  0.9491 -1.5543 -0.9360
12136SOL     OW37848   6.295   1.707   1.141 -0.3401 -0.1068  0.3005
12136SOL    HW137849   6.291   1.790   1.188  0.2465 -0.5473  1.1463
12136SOL    HW237850   6.272   1.729   1.051  1.4596  1.2725  0.1454
12137SOL     OW37851   4.617   2.484   1.162 -0.7747  0.5654  0.2284
12137SOL    HW137852   4.705   2.520   1.178 -0.2564 -0.3778 -0.3624
12137SOL    HW237853   4.557   2.556   1.182  0.1147  1.1125  1.0110
12138SOL     OW37854   6.034   2.555   0.743 -0.6410  0.1987 -0.2756
12138SOL    HW137855   6.045   2.504   0.823 -1.9230  1.0072  0.4438
12138SOL    HW237856   5.979   2.629   0.769  0.4386  1.4833 -1.4800
12139SOL     OW37857   6.372   1.992   0.510  0.0918 -0.6228  0.2121
12139SOL    HW137858   6.389   1.954   0.596 -1.3692 -1.1162  0.3083
12139SOL    HW237859   6.445   1.961   0.456  0.1263 -1.7298  0.8546
12140SOL     OW37860   6.613   0.559   2.296 -0.0144 -0.3096  0.1095
12140SOL    HW137861   6.583   0.477   2.258 -0.5605  0.2556 -0.7276
12140SOL    HW237862   6.532   0.604   2.323  0.1702  0.4981 -0.6211
12141SOL     OW37863   5.968   0.509  11.521  0.1537 -0.0006 -0.3602
12141SOL    HW137864   6.019   0.589  11.518  0.1978 -0.0655 -1.8371
12141SOL    HW237865   5.876   0.538  11.520  0.0667  0.1185  2.3522
12142SOL     OW37866   3.333   7.294   0.841 -0.1313  0.0208 -0.3340
12142SOL    HW137867   3.331   7.201   0.864  0.8323  0.1994  0.5474
12142SOL    HW237868   3.411   7.328   0.886 -0.8547  1.3949 -0.0665
12143SOL     OW37869   5.904   1.098   3.081 -0.2621  0.0195 -0.9638
12143SOL    HW137870   5.932   1.065   3.167 -1.1685 -2.6645 -1.6022
12143SOL    HW237871   5.885   1.190   3.096  0.6068 -0.1154  1.4704
12144SOL     OW37872   4.899   2.644   2.131 -0.0667 -0.1188 -0.6254
12144SOL    HW137873   4.850   2.569   2.165  0.0911 -0.2080 -0.5934
12144SOL    HW237874   4.958   2.607   2.065  2.0035 -0.4946  1.2853
12145SOL     OW37875   7.153   3.214   1.386  0.1844 -0.3933  0.0517
12145SOL    HW137876   7.219   3.153   1.418  1.9077  0.8597 -0.9604
12145SOL    HW237877   7.160   3.289   1.445 -1.6409 -0.9279  1.0379
12146SOL     OW37878   4.268   1.581  12.034  0.4192  0.1004 -0.2968
12146SOL    HW137879   4.197   1.517  12.047  0.9097 -0.4355 -0.2007
12146SOL    HW237880   4.237   1.636  11.962  0.1239 -0.4563 -0.6110
12147SOL     OW37881   4.586   1.242   2.638 -0.0342 -0.1782  0.0425
12147SOL    HW137882   4.538   1.189   2.702  0.0472 -1.2653 -0.7728
12147SOL    HW237883   4.629   1.310   2.691  0.9252 -1.6932  1.2942
12148SOL     OW37884   4.289   7.493   0.178  0.4570 -0.4198  0.0289
12148SOL    HW137885   4.222   7.427   0.196  1.0929 -1.0244  0.1842
12148SOL    HW237886   4.246   7.576   0.200  0.4338 -0.9428  2.1561
12149SOL     OW37887   4.059   0.524   2.503  0.1949  0.0688 -0.1870
12149SOL    HW137888   4.149   0.513   2.534  0.2529  2.0971  0.5178
12149SOL    HW237889   4.065   0.509   2.408  1.1618 -0.4085 -0.0627
12150SOL     OW37890   4.669   7.736   1.171  0.0124 -0.1621  0.0168
12150SOL    HW137891   4.582   7.723   1.210 -0.1515 -1.0188 -0.5816
12150SOL    HW237892   4.710   7.650   1.176 -0.2563 -0.4870 -2.2009
12151SOL     OW37893   3.786   0.129   3.788 -0.6304  0.0203  0.1267
12151SOL    HW137894   3.882   0.130   3.793 -0.2244 -0.8020 -3.9647
12151SOL    HW237895   3.763   0.218   3.762 -1.0887  0.3472  1.5674
12152SOL     OW37896   5.378   1.490   1.212 -0.3899 -0.1601  0.1128
12152SOL    HW137897   5.426   1.445   1.143 -1.2925 -0.0435 -0.5985
12152SOL    HW237898   5.446   1.524   1.271  0.4495  0.8913 -1.4119
12153SOL     OW37899   5.665   1.134   0.282  0.1187 -0.4058 -0.6284
12153SOL    HW137900   5.746   1.186   0.279 -0.2596  0.3275  0.7888
12153SOL    HW237901   5.598   1.192   0.246 -0.1442 -0.1968  0.1632
12154SOL     OW37902   4.297   2.628   0.769  0.7303 -0.6244  0.4042
12154SOL    HW137903   4.310   2.716   0.734  1.6422 -1.9924 -3.1555
12154SOL    HW237904   4.209   2.604   0.740  1.1019 -1.4255 -0.0998
12155SOL     OW37905   4.593   0.709   0.497 -0.6042  0.2558 -1.1659
12155SOL    HW137906   4.612   0.771   0.427  0.4144 -0.5832 -1.6651
12155SOL    HW237907   4.505   0.677   0.477 -1.0788  1.4028 -0.9835
12156SOL     OW37908   5.290   2.901   0.342 -0.0567  0.4385  0.3688
12156SOL    HW137909   5.314   2.808   0.351 -2.0215 -0.1647 -0.1437
12156SOL    HW237910   5.222   2.915   0.408 -0.1411  1.3839  0.0979
12157SOL     OW37911   3.501   1.969   2.137 -0.2292 -0.1554  0.1360
12157SOL    HW137912   3.440   1.977   2.211 -0.2614 -0.0665  0.0992
12157SOL    HW237913   3.564   1.903   2.167 -0.6983 -0.7103 -0.0682
12158SOL     OW37914   4.303   0.215   0.063  0.4287  0.3569 -0.2227
12158SOL    HW137915   4.365   0.201   0.134  1.5715  3.0349 -0.5725
12158SOL    HW237916   4.315   0.307   0.038 -2.7865  0.6676 -1.1642
12159SOL     OW37917   5.878   7.957   0.637  0.1272 -0.0679 -0.1170
12159SOL    HW137918   5.974   7.951   0.640  0.3473  0.6782 -2.7758
12159SOL    HW237919   5.849   7.906   0.712  2.5432 -3.3229 -1.1114
12160SOL     OW37920   5.397   7.864   1.529 -0.3617 -0.0364  0.2944
12160SOL    HW137921   5.373   7.818   1.449  0.6370 -0.1119  0.0236
12160SOL    HW237922   5.414   7.954   1.501 -1.7893  0.4023  0.7362
12161SOL     OW37923   5.825   1.443   1.479  0.2320  0.1702 -0.0393
12161SOL    HW137924   5.753   1.506   1.472  0.0449 -0.1382 -0.9701
12161SOL    HW237925   5.899   1.495   1.511  0.0905  0.8849 -0.8294
12162SOL     OW37926   3.849   7.212   1.658 -0.4877  0.1005 -0.2864
12162SOL    HW137927   3.911   7.284   1.648  0.1466 -0.3725  0.1789
12162SOL    HW237928   3.866   7.178   1.745 -0.0148 -1.3199 -0.9055
12163SOL     OW37929   3.216   7.746   1.468 -0.0659 -0.0107  0.2728
12163SOL    HW137930   3.178   7.765   1.554 -2.4669  1.2426 -0.9800
12163SOL    HW237931   3.215   7.830   1.422 -1.9026 -1.2066 -2.0739
12164SOL     OW37932   4.221   1.719   0.982 -0.2124 -0.0539 -0.1515
12164SOL    HW137933   4.243   1.810   0.962  0.2384  0.3865  2.0719
12164SOL    HW237934   4.304   1.672   0.971  0.6664  0.6079  2.6747
12165SOL     OW37935   4.788   0.194   0.827  0.6284  0.2503  0.4592
12165SOL    HW137936   4.764   0.258   0.759  0.4449  0.0670  0.3487
12165SOL    HW237937   4.862   0.234   0.872  0.2395  0.7400  0.6784
12166SOL     OW37938   7.093   1.555   0.881  0.2192 -0.5451 -0.3406
12166SOL    HW137939   7.112   1.637   0.835  0.1290 -0.4484 -0.2053
12166SOL    HW237940   7.032   1.508   0.823  0.0536 -0.3937 -0.2897
12167SOL     OW37941   4.847   0.419  12.397 -0.2275  0.0205  0.1580
12167SOL    HW137942   4.855   0.511  12.374  0.4914 -0.1079 -0.1310
12167SOL    HW237943   4.753   0.404  12.405 -0.3299  0.8868  0.6747
12168SOL     OW37944   3.903   2.143   1.001  0.0951 -0.1926  0.4007
12168SOL    HW137945   3.913   2.220   0.945 -1.3939 -0.4913 -0.3224
12168SOL    HW237946   3.812   2.116   0.989  0.5196 -1.9360  0.8094
12169SOL     OW37947   4.160   1.584   0.593 -0.1397  0.6764  0.1397
12169SOL    HW137948   4.067   1.582   0.615  0.3850  1.5397  2.7451
12169SOL    HW237949   4.168   1.654   0.528 -1.3733  0.1051 -0.6721
12170SOL     OW37950   4.054   6.825   2.908 -1.1497 -0.1397 -0.2769
12170SOL    HW137951   4.135   6.781   2.883 -0.4782  0.9486 -0.0679
12170SOL    HW237952   4.067   6.916   2.883 -1.4021  0.5291  1.8172
12171SOL     OW37953   2.220   0.184   0.881  0.3829  0.1268  0.2813
12171SOL    HW137954   2.249   0.212   0.968  0.8524 -1.1039  0.5428
12171SOL    HW237955   2.169   0.105   0.897 -0.6624  0.6338 -0.4581
12172SOL     OW37956   3.806   6.891   2.185 -0.4002  0.1463 -0.0543
12172SOL    HW137957   3.766   6.977   2.197 -2.2841 -0.6299 -0.4375
12172SOL    HW237958   3.901   6.908   2.187 -0.7128  2.3121 -0.8693
12173SOL     OW37959   4.769   6.877   1.476 -0.1843 -0.4801  0.2385
12173SOL    HW137960   4.699   6.843   1.421 -1.5662  0.3879  1.4108
12173SOL    HW237961   4.832   6.914   1.413 -2.4957  2.0359 -0.8236
12174SOL     OW37962   5.487   2.341   2.127 -0.3817 -0.6127 -0.1653
12174SOL    HW137963   5.543   2.409   2.091 -1.3885  0.4542  0.2168
12174SOL    HW237964   5.434   2.386   2.192 -1.9265 -1.4851 -0.7592
12175SOL     OW37965   6.004   1.217   2.090 -0.2786  0.2396  0.0854
12175SOL    HW137966   5.935   1.195   2.153 -1.6546  1.2045 -1.0335
12175SOL    HW237967   6.011   1.312   2.095  0.1345  0.2524 -0.6853
12176SOL     OW37968   3.732   7.855   0.300  0.1528  0.3067 -0.0085
12176SOL    HW137969   3.708   7.932   0.352 -1.0688  0.7194 -1.1241
12176SOL    HW237970   3.663   7.791   0.319  0.6126 -0.1553  0.1345
12177SOL     OW37971   4.460   7.208   1.909  0.5330  0.4898 -0.3144
12177SOL    HW137972   4.483   7.119   1.883  0.1034  0.7046 -1.4598
12177SOL    HW237973   4.384   7.196   1.967  1.0573  0.0632  0.3106
12178SOL     OW37974   6.260   1.146  11.579  0.1365  0.5506  0.0592
12178SOL    HW137975   6.185   1.093  11.606  1.9220 -1.8939  0.5731
12178SOL    HW237976   6.272   1.209  11.650 -0.2354 -0.3783  0.9787
12179SOL     OW37977   5.623   0.848   0.955 -0.3209  0.1988  0.2337
12179SOL    HW137978   5.532   0.860   0.983  0.0874  0.2789  1.5968
12179SOL    HW237979   5.675   0.878   1.029  0.8311  0.2924 -0.5858
12180SOL     OW37980   5.182   7.964   0.799  0.1467  0.1865 -0.6243
12180SOL    HW137981   5.223   8.024   0.737  0.8594  0.1956 -0.1622
12180SOL    HW237982   5.243   7.891   0.806  0.3229  0.4195  0.4359
12181SOL     OW37983   4.543   7.154   0.798  0.1483  0.3121  0.3688
12181SOL    HW137984   4.485   7.112   0.736 -1.0879 -0.2246  1.8161
12181SOL    HW237985   4.534   7.102   0.878  0.0976  2.1555  1.6161
12182SOL     OW37986   3.993   0.103   0.284  0.0030 -0.0495  0.0674
12182SOL    HW137987   3.952   0.057   0.211 -1.9644 -2.4340  2.4315
12182SOL    HW237988   3.948   0.187   0.289  0.2799  0.2080 -1.5135
12183SOL     OW37989   4.995   6.537  12.490 -0.7833 -0.0171 -0.3038
12183SOL    HW137990   5.076   6.564  12.446 -0.3617  1.7624  1.3790
12183SOL    HW237991   4.960   6.466  12.436  1.4422 -0.2551 -1.5554
12184SOL     OW37992   5.472   1.667   0.025  0.0136  0.3377 -0.2986
12184SOL    HW137993   5.534   1.633  -0.039  1.4253  0.4946  0.9354
12184SOL    HW237994   5.388   1.664  -0.020  0.7216 -0.9242 -1.6498
12185SOL     OW37995   4.561   2.364   0.723 -0.4055 -0.3635 -0.3652
12185SOL    HW137996   4.594   2.277   0.742 -0.3233 -0.5484 -1.2815
12185SOL    HW237997   4.544   2.363   0.628  1.8299  1.3238 -0.8758
12186SOL     OW37998   5.079   1.898   0.738 -0.2666  0.0402  0.6741
12186SOL    HW137999   5.001   1.856   0.701  0.2116 -0.3232  0.0453
12186SOL    HW238000   5.142   1.826   0.748  0.8240  0.6899 -1.0987
12187SOL     OW38001   3.397   0.959   1.415 -0.3761  0.4637 -0.5524
12187SOL    HW138002   3.437   0.995   1.495 -0.6055  0.6176 -0.5055
12187SOL    HW238003   3.338   1.028   1.385  0.9432  1.0865 -1.7927
12188SOL     OW38004   3.933   0.261   1.042  0.2301  0.5249  0.0222
12188SOL    HW138005   4.023   0.280   1.018  0.3306 -1.5517 -1.5496
12188SOL    HW238006   3.939   0.208   1.121  0.6013 -1.5482 -1.3248
12189SOL     OW38007   4.476   0.434   2.357 -0.1423  0.0130  0.1373
12189SOL    HW138008   4.456   0.405   2.268 -0.4370  0.3877  0.0781
12189SOL    HW238009   4.533   0.366   2.392  0.4427  0.1416 -0.5340
12190SOL     OW38010   5.861   7.983   1.424 -0.4674  0.3136  0.2409
12190SOL    HW138011   5.841   8.074   1.448 -0.6752 -0.0175  1.4172
12190SOL    HW238012   5.784   7.934   1.453 -0.3837 -0.2374 -0.4466
12191SOL     OW38013   5.035   0.336   0.984 -0.1512  0.0305  0.6366
12191SOL    HW138014   5.085   0.381   0.916 -0.1580 -0.8089  0.0552
12191SOL    HW238015   5.101   0.289   1.035 -0.2464 -0.2239  0.5272
12192SOL     OW38016   3.663   1.562   2.491 -0.1913 -0.1231  0.0642
12192SOL    HW138017   3.568   1.556   2.504 -0.1576 -0.1678  0.3096
12192SOL    HW238018   3.683   1.491   2.430 -0.4180  0.3727 -0.5984
12193SOL     OW38019   4.196   0.364   1.062  0.3201 -0.0745 -0.1026
12193SOL    HW138020   4.282   0.406   1.066  0.4504 -0.4139  2.7377
12193SOL    HW238021   4.177   0.341   1.152 -1.7434 -2.1161 -0.9693
12194SOL     OW38022   5.214   1.606  12.408 -0.4195  0.3168 -0.6235
12194SOL    HW138023   5.122   1.599  12.381  0.1805 -1.0355 -2.5065
12194SOL    HW238024   5.232   1.524  12.454  0.1622 -0.0143 -1.4119
12195SOL     OW38025   5.681   0.658   0.299  0.8128 -0.1247  0.0049
12195SOL    HW138026   5.618   0.728   0.285  0.1736 -1.0770 -2.3566
12195SOL    HW238027   5.759   0.686   0.250  1.2827 -0.1455  0.7314
12196SOL     OW38028   3.426   0.700   1.369 -0.2491  0.3470 -0.2893
12196SOL    HW138029   3.362   0.696   1.298  0.7457  0.2529 -1.2049
12196SOL    HW238030   3.431   0.793   1.392 -0.2726  0.4319 -0.6282
12197SOL     OW38031   5.588   0.499   2.070  0.1875 -0.3608 -0.0931
12197SOL    HW138032   5.572   0.573   2.129  1.8257 -0.0703  0.0397
12197SOL    HW238033   5.551   0.424   2.117 -1.7074  0.3726 -0.3392
12198SOL     OW38034   5.105   7.584   0.516 -0.3705  0.2192  0.0449
12198SOL    HW138035   5.127   7.512   0.576 -1.4248  0.9719  1.3979
12198SOL    HW238036   5.095   7.542   0.431  0.1094 -1.0581  0.5808
12199SOL     OW38037   3.165   1.110   1.646  0.2199 -0.4204 -0.2705
12199SOL    HW138038   3.208   1.137   1.727  0.7539 -1.6732 -0.1080
12199SOL    HW238039   3.130   1.023   1.665  0.6397 -0.8774 -1.4645
12200SOL     OW38040   4.959   2.254   0.272 -0.2019  0.0359 -0.0209
12200SOL    HW138041   4.950   2.159   0.266 -0.7583  0.0875 -0.0346
12200SOL    HW238042   4.872   2.285   0.297  0.4528  0.3678  2.0109
12201SOL     OW38043   3.611   1.774   1.708 -0.2972 -0.0309  0.6431
12201SOL    HW138044   3.575   1.826   1.780  1.1511  0.8839  0.7511
12201SOL    HW238045   3.678   1.719   1.749  0.5390  0.4946  0.0324
12202SOL     OW38046   4.761   0.186   1.607 -0.1886  0.2221 -0.0803
12202SOL    HW138047   4.767   0.092   1.590 -1.2936 -0.1920  1.5711
12202SOL    HW238048   4.804   0.227   1.532  1.5902 -1.6279 -0.1450
12203SOL     OW38049   6.055   0.609   0.281  0.1063  0.2576  0.4362
12203SOL    HW138050   5.972   0.652   0.258 -0.3163  0.2135  1.8142
12203SOL    HW238051   6.056   0.608   0.377  1.8969  0.6203  0.4515
12204SOL     OW38052   6.451   2.146   1.666  0.3095  0.4461 -0.3147
12204SOL    HW138053   6.493   2.114   1.746 -1.2233 -0.7084  0.0822
12204SOL    HW238054   6.391   2.214   1.696 -0.9817 -0.6640 -0.3331
12205SOL     OW38055   3.097   2.389   1.921  0.0702  0.6503  0.6634
12205SOL    HW138056   3.006   2.413   1.937 -0.7067 -1.5173 -0.1383
12205SOL    HW238057   3.127   2.351   2.003 -1.2578 -2.7381 -0.2456
12206SOL     OW38058   5.996   7.628   1.542  0.3009  0.7607 -0.5599
12206SOL    HW138059   6.067   7.565   1.526  0.1440  0.2453  0.6640
12206SOL    HW238060   5.935   7.581   1.599  0.8194  2.4198  1.4819
12207SOL     OW38061   5.302   2.309   0.436 -0.2024 -0.5604  0.3314
12207SOL    HW138062   5.219   2.268   0.459 -0.0005 -1.5086 -0.6087
12207SOL    HW238063   5.281   2.402   0.426 -0.7159 -0.4292  2.1739
12208SOL     OW38064   5.050   2.674   0.194 -0.2636  0.2860 -0.0988
12208SOL    HW138065   5.085   2.635   0.114  0.2279  0.2067  0.1530
12208SOL    HW238066   5.116   2.655   0.261 -1.2278 -0.7224  0.6074
12209SOL     OW38067   5.596   1.823   1.162  0.0350  0.6431  0.0105
12209SOL    HW138068   5.613   1.775   1.243 -0.1489 -1.0447 -0.8910
12209SOL    HW238069   5.510   1.864   1.175  0.5851  1.4876  1.1288
12210SOL     OW38070   4.565   0.085   0.925  0.2334 -0.5153  0.1697
12210SOL    HW138071   4.556  -0.008   0.901  0.5072 -0.9960  1.8504
12210SOL    HW238072   4.657   0.105   0.906 -0.1859 -0.1253 -1.6437
12211SOL     OW38073   4.163   0.399   0.278 -0.2034 -0.4136 -0.6669
12211SOL    HW138074   4.134   0.486   0.305 -1.4638 -0.8339 -0.5725
12211SOL    HW238075   4.085   0.359   0.239 -0.5874 -2.6024  2.0525
12212SOL     OW38076   5.447   2.515   0.200 -0.3779  0.1343  0.0636
12212SOL    HW138077   5.527   2.470   0.229  0.3375  2.2454  1.6824
12212SOL    HW238078   5.401   2.536   0.281 -2.0188 -0.0285 -0.7888
12213SOL     OW38079   4.144   2.823   1.504 -0.2399  0.5663  0.2156
12213SOL    HW138080   4.085   2.858   1.437 -0.3067 -0.4171 -0.2417
12213SOL    HW238081   4.145   2.729   1.489  0.7414  0.4737  0.8015
12214SOL     OW38082   5.157   1.901   0.148 -0.0917  0.6169 -0.0986
12214SOL    HW138083   5.092   1.902   0.218  0.3077 -0.2825  0.2952
12214SOL    HW238084   5.139   1.822   0.099  1.0028  0.0872  0.3130
12215SOL     OW38085   6.873   1.486   1.765 -0.8180  0.5812  0.3743
12215SOL    HW138086   6.811   1.414   1.751  0.7096 -0.5253 -1.0698
12215SOL    HW238087   6.922   1.492   1.683  1.0425  1.3265  1.4774
12216SOL     OW38088   3.921   2.074   1.272 -0.0051  0.1948  0.1148
12216SOL    HW138089   3.931   2.163   1.305 -0.4159  0.7190 -1.1293
12216SOL    HW238090   3.888   2.085   1.183 -1.9114 -1.2486  0.5817
12217SOL     OW38091   5.646   3.155   1.152 -0.0830 -0.7945 -0.3315
12217SOL    HW138092   5.613   3.080   1.201  1.2434 -0.5709  0.9729
12217SOL    HW238093   5.624   3.231   1.206  0.4431 -0.4399 -0.6077
12218SOL     OW38094   4.820   3.093   0.917 -0.5762 -0.7290  0.2319
12218SOL    HW138095   4.904   3.054   0.943  0.6907  2.0738  0.7722
12218SOL    HW238096   4.764   3.083   0.994  0.0150 -0.7265  0.6692
12219SOL     OW38097   4.339   1.909   0.039  0.7199 -0.5028 -0.0170
12219SOL    HW138098   4.403   1.839   0.045 -0.4345 -1.4762  1.4468
12219SOL    HW238099   4.369   1.974   0.102  1.3906  0.0417 -0.8602
12220SOL     OW38100   3.487   0.556   0.036 -0.2611  0.9470  0.2001
12220SOL    HW138101   3.480   0.543  -0.058  2.1637  1.7817 -0.1706
12220SOL    HW238102   3.416   0.504   0.073 -1.4001  0.7563 -2.0713
12221SOL     OW38103   5.762   1.256   2.694  0.4035 -0.1151 -0.3279
12221SOL    HW138104   5.749   1.166   2.724  2.2161 -0.0930  0.7021
12221SOL    HW238105   5.811   1.297   2.765  0.1343  1.5133 -1.0564
12222SOL     OW38106   3.272   2.660   0.234 -0.2846 -0.3085  0.2823
12222SOL    HW138107   3.186   2.689   0.201 -0.0292  0.5958  0.3949
12222SOL    HW238108   3.252   2.619   0.318 -0.5024  0.8578  0.8239
12223SOL     OW38109   5.197   0.834   1.729  0.2493 -0.1696 -0.1053
12223SOL    HW138110   5.161   0.757   1.684  0.2116 -0.2419  0.0472
12223SOL    HW238111   5.242   0.797   1.805  3.0251 -0.3770 -1.7110
12224SOL     OW38112   4.392   0.011   1.549 -0.4312  0.2582  0.3794
12224SOL    HW138113   4.440  -0.066   1.521  0.7358  1.7366 -1.9811
12224SOL    HW238114   4.446   0.051   1.617 -0.4378 -0.3101  0.7238
12225SOL     OW38115   5.589   1.158   0.826 -0.3360 -0.0317  0.4154
12225SOL    HW138116   5.575   1.195   0.739 -1.2304 -1.6127 -0.1570
12225SOL    HW238117   5.655   1.089   0.813  0.0966  0.2285  1.1444
12226SOL     OW38118   3.142   0.302   0.497  0.5892  0.3188  0.9440
12226SOL    HW138119   3.201   0.351   0.555  1.1661  2.0523 -1.0014
12226SOL    HW238120   3.092   0.369   0.452  0.6491 -0.9255 -1.0683
12227SOL     OW38121   6.838   2.504   0.687 -0.1721  0.5963 -0.0590
12227SOL    HW138122   6.797   2.455   0.616  2.6830 -2.4518  0.1528
12227SOL    HW238123   6.864   2.587   0.646  0.1172 -0.4902 -2.2152
12228SOL     OW38124   2.501   0.822   2.045  0.2473 -0.2287  0.6687
12228SOL    HW138125   2.502   0.910   2.083  2.9652 -0.4242  1.2213
12228SOL    HW238126   2.593   0.801   2.030 -0.4018 -2.5511 -0.5321
12229SOL     OW38127   5.396   3.681   0.539  0.2748  0.5503 -0.2927
12229SOL    HW138128   5.479   3.645   0.572  0.8097  1.8314 -0.1765
12229SOL    HW238129   5.336   3.676   0.613  0.7829  1.2613  0.1694
12230SOL     OW38130   4.001   7.800   0.346  0.3186 -0.4413 -0.1457
12230SOL    HW138131   3.908   7.819   0.337  0.4150  0.3772  0.4174
12230SOL    HW238132   4.004   7.719   0.398 -0.0832  0.0192  0.6230
12231SOL     OW38133   4.984   2.548   1.688 -0.0824  0.3273  0.1986
12231SOL    HW138134   4.979   2.475   1.625  0.8840 -0.5272  1.0796
12231SOL    HW238135   4.920   2.611   1.655 -2.5212 -1.7896  0.5267
12232SOL     OW38136   4.137   3.653   1.186  0.3192  0.2675 -0.1991
12232SOL    HW138137   4.065   3.666   1.124  0.0720 -0.6478 -0.1186
12232SOL    HW238138   4.209   3.620   1.132  0.3856  0.3120 -0.1379
12233SOL     OW38139   6.238   1.853   1.463 -0.0766 -0.5828 -0.5379
12233SOL    HW138140   6.159   1.894   1.429  0.7801  0.4316 -1.3842
12233SOL    HW238141   6.276   1.919   1.522  0.4117 -0.8457 -0.5501
12234SOL     OW38142   5.145   0.097   1.433  0.3730  0.6457  0.2340
12234SOL    HW138143   5.118   0.073   1.522  1.6103  1.2831  0.8157
12234SOL    HW238144   5.184   0.018   1.398  0.6109  0.6106  0.5686
12235SOL     OW38145   4.245   0.567   1.605  0.4018  0.2705 -0.5425
12235SOL    HW138146   4.155   0.599   1.611 -0.1377 -1.2807  0.1766
12235SOL    HW238147   4.298   0.646   1.596 -0.8056  1.4669  1.8639
12236SOL     OW38148   6.141   0.392   0.930 -0.0704  0.2251 -0.2367
12236SOL    HW138149   6.079   0.463   0.947  0.5284  0.5771  0.5054
12236SOL    HW238150   6.190   0.421   0.853 -0.0416  0.4606 -0.1277
12237SOL     OW38151   4.575   2.251   9.057  0.1093 -0.0845  0.5033
12237SOL    HW138152   4.588   2.173   9.002 -0.2605  0.8061 -0.9122
12237SOL    HW238153   4.480   2.261   9.061  0.1329  1.4537 -1.1412
12238SOL     OW38154   7.008   2.049   1.310  0.0636 -0.4989 -0.1274
12238SOL    HW138155   7.034   1.990   1.240  0.6259 -1.4414  0.8474
12238SOL    HW238156   6.954   2.116   1.267  0.9618 -0.6615 -1.5572
12239SOL     OW38157   5.329   1.859   2.099 -0.2200 -0.3439  0.0487
12239SOL    HW138158   5.349   1.919   2.171 -0.0144  0.3521 -0.5811
12239SOL    HW238159   5.409   1.808   2.088  1.1826  2.1256 -2.1622
12240SOL     OW38160   5.042   1.611   1.057  0.2860  0.1229  0.6586
12240SOL    HW138161   4.953   1.629   1.026  0.4434 -0.3869 -0.1004
12240SOL    HW238162   5.061   1.523   1.025  1.0603  0.2209  0.8438
12241SOL     OW38163   6.576   7.774   0.796  0.1053  0.7173  0.0509
12241SOL    HW138164   6.560   7.716   0.871  0.2608  1.1528  0.4282
12241SOL    HW238165   6.671   7.782   0.793  0.1459  0.0297 -0.7196
12242SOL     OW38166   4.777   0.049   3.054 -0.1922  0.0672  0.4876
12242SOL    HW138167   4.765   0.099   3.135  1.4712  0.9684  0.2200
12242SOL    HW238168   4.820   0.110   2.994  0.1369 -1.0982 -0.5076
12243SOL     OW38169   4.081   1.528   1.619 -0.0452 -0.3462 -0.3386
12243SOL    HW138170   4.106   1.608   1.666  0.7488 -1.1424  0.6347
12243SOL    HW238171   4.163   1.480   1.609 -0.5557 -1.1503 -0.6980
12244SOL     OW38172   6.376   0.842  12.358 -0.1991 -0.2871  0.4109
12244SOL    HW138173   6.431   0.768  12.382 -0.0237 -0.1994  0.2836
12244SOL    HW238174   6.287   0.815  12.381 -0.1393 -0.5445  0.3412
12245SOL     OW38175   4.960   7.213  12.491 -0.5658  0.1881  0.5461
12245SOL    HW138176   4.895   7.276  12.459  0.8395  0.8238 -1.2819
12245SOL    HW238177   4.959   7.143  12.426  1.5596  0.9431 -0.3977
12246SOL     OW38178   5.098   2.998   0.934 -0.1710 -0.0630  0.3056
12246SOL    HW138179   5.131   3.055   1.004 -1.4971  0.5198  0.4864
12246SOL    HW238180   5.154   2.921   0.938  0.9876  0.7587  0.7639
12247SOL     OW38181   4.291   7.578   3.261  0.0885  0.1988  0.1678
12247SOL    HW138182   4.286   7.518   3.336 -1.0395  0.2916  0.1793
12247SOL    HW238183   4.318   7.522   3.188 -1.3754 -0.4468  0.0786
12248SOL     OW38184   4.108   2.554   1.484 -0.0581 -0.7532  0.6152
12248SOL    HW138185   4.142   2.469   1.511  1.0809 -0.2223  0.9016
12248SOL    HW238186   4.090   2.544   1.391  1.5848 -0.8496  0.2859
12249SOL     OW38187   4.457   0.704   1.376  0.0288  0.4249  0.2547
12249SOL    HW138188   4.464   0.705   1.471  0.6513 -0.1063  0.2197
12249SOL    HW238189   4.542   0.674   1.345 -0.7540 -1.2689 -0.3941
12250SOL     OW38190   3.998   7.253   0.273  0.2573 -0.2631 -0.2277
12250SOL    HW138191   4.053   7.236   0.197 -1.7371 -0.5878 -1.6842
12250SOL    HW238192   4.048   7.219   0.347  1.5258 -1.5525 -1.6066
12251SOL     OW38193   6.222   1.148  12.064 -0.1136 -0.2526 -0.0894
12251SOL    HW138194   6.288   1.080  12.048 -0.1412 -0.6076  1.1831
12251SOL    HW238195   6.173   1.116  12.140 -0.7828  0.7216 -0.1013
12252SOL     OW38196   4.573   7.354  12.096 -0.3102 -0.4019  0.2334
12252SOL    HW138197   4.480   7.362  12.076 -0.2114 -2.1830 -1.2159
12252SOL    HW238198   4.617   7.386  12.017  0.2843 -0.0600  0.7015
12253SOL     OW38199   4.310   6.868  12.105 -0.1927  0.2875  0.8438
12253SOL    HW138200   4.406   6.869  12.103 -0.1823 -0.3408 -0.7657
12253SOL    HW238201   4.288   6.854  12.197  1.2969 -1.4758  0.9820
12254SOL     OW38202   6.975   0.342   0.863 -0.4701 -0.0789 -0.0966
12254SOL    HW138203   7.064   0.357   0.894 -0.6423 -0.4842  0.6145
12254SOL    HW238204   6.947   0.426   0.828 -0.6124  0.6715  1.7355
12255SOL     OW38205   3.241   2.135   0.914  0.3555 -0.0015  0.3074
12255SOL    HW138206   3.226   2.166   1.004 -2.8441  1.3667 -0.5585
12255SOL    HW238207   3.251   2.040   0.923  2.3050  0.2890  2.2543
12256SOL     OW38208   4.688   2.361   1.576  0.6014 -0.9857 -0.6602
12256SOL    HW138209   4.715   2.417   1.648  1.0948 -1.1666 -0.7019
12256SOL    HW238210   4.769   2.322   1.544  0.8949  1.4848 -3.3873
12257SOL     OW38211   2.537   1.841   1.781  0.0837 -0.7286  0.3339
12257SOL    HW138212   2.488   1.784   1.721  0.4097 -0.0476 -0.6153
12257SOL    HW238213   2.496   1.829   1.866 -1.0410 -0.9712 -0.2346
12258SOL     OW38214   6.023   6.202   3.260 -0.0422  0.2306  0.2189
12258SOL    HW138215   6.071   6.285   3.260 -1.7492  1.2789  1.1871
12258SOL    HW238216   6.057   6.155   3.337  0.0489  0.6024  0.4093
12259SOL     OW38217   2.866   0.552   3.100  0.0523  0.2131  0.4110
12259SOL    HW138218   2.852   0.616   3.170  0.7120  0.0631  0.6872
12259SOL    HW238219   2.931   0.592   3.042 -3.0606  1.9396 -2.1809
12260SOL     OW38220   3.185   0.468   2.255  0.0159  0.1933  0.4051
12260SOL    HW138221   3.110   0.528   2.261 -0.6013 -0.5961  0.7945
12260SOL    HW238222   3.190   0.427   2.341  0.7534  0.0578  0.3060
12261SOL     OW38223   3.086   0.716   1.961  0.1795 -0.4655  0.0163
12261SOL    HW138224   2.992   0.735   1.968 -0.2358 -2.6079  1.6797
12261SOL    HW238225   3.123   0.747   2.043  1.1495  1.1063 -0.9612
12262SOL     OW38226   5.861   0.336   1.074 -0.3803  0.6979 -0.5035
12262SOL    HW138227   5.878   0.307   0.984 -0.7328 -2.2820  0.2711
12262SOL    HW238228   5.769   0.362   1.074 -1.0161 -1.3988 -0.5866
12263SOL     OW38229   6.838   7.817   0.885 -0.3100  0.0014  0.0300
12263SOL    HW138230   6.810   7.907   0.898 -2.2787 -0.3210 -1.4031
12263SOL    HW238231   6.884   7.817   0.801  1.0762 -0.0914  0.7637
12264SOL     OW38232   4.383   1.110   1.272 -0.1481  0.5343 -0.4471
12264SOL    HW138233   4.471   1.145   1.277 -0.0158  0.3568 -1.2851
12264SOL    HW238234   4.395   1.020   1.241 -0.6430  0.6602 -1.0194
12265SOL     OW38235   2.691   0.758   2.877 -0.0240 -0.3402  0.2100
12265SOL    HW138236   2.777   0.798   2.891  1.1060 -2.5722  0.0978
12265SOL    HW238237   2.668   0.782   2.788  0.6434  0.0404  0.1334
12266SOL     OW38238   4.458   1.407   3.078 -0.2180  0.0134 -0.0633
12266SOL    HW138239   4.376   1.420   3.126 -0.0510 -0.5415  0.3752
12266SOL    HW238240   4.481   1.494   3.046 -0.9268  0.1905 -0.1054
12267SOL     OW38241   4.680   1.943   2.206 -0.2607 -0.4796 -0.1086
12267SOL    HW138242   4.614   1.908   2.266 -2.9005  2.3186 -1.1063
12267SOL    HW238243   4.682   1.881   2.133 -1.4215 -0.8825  0.1842
12268SOL     OW38244   1.918   0.229   2.589  0.3107  0.3122  0.2954
12268SOL    HW138245   1.865   0.191   2.659 -0.4291 -0.1639 -0.5072
12268SOL    HW238246   1.928   0.158   2.526 -0.1168  1.1023 -0.6855
12269SOL     OW38247   5.930   2.083   3.251  0.7530  0.2853  0.2532
12269SOL    HW138248   5.947   2.072   3.158 -0.5760  0.2385 -0.0013
12269SOL    HW238249   5.948   1.997   3.289  0.5697  0.0958 -0.0808
12270SOL     OW38250   3.624   6.991   1.903  0.2174  0.1869 -0.1463
12270SOL    HW138251   3.604   6.922   1.967 -0.4534  0.6094  0.1174
12270SOL    HW238252   3.575   6.966   1.825  1.7770 -0.8293 -0.8539
12271SOL     OW38253   5.581   1.331   2.476 -0.3812 -0.5050 -0.1633
12271SOL    HW138254   5.636   1.319   2.554 -0.3255  0.5699 -0.0281
12271SOL    HW238255   5.643   1.346   2.405 -0.4809  0.5741 -0.0350
12272SOL     OW38256   2.246   2.036   1.784 -0.2939  0.3166 -0.4259
12272SOL    HW138257   2.312   2.014   1.718  0.1814  1.4815 -0.3661
12272SOL    HW238258   2.293   2.090   1.848 -1.2189  0.8886 -0.2039
12273SOL     OW38259   3.204   1.711   3.928 -0.1225  0.3957  0.3857
12273SOL    HW138260   3.126   1.721   3.983 -0.1173 -0.2675  0.5191
12273SOL    HW238261   3.195   1.624   3.888  0.2196  0.5843 -0.1197
12274SOL     OW38262   5.174   1.270   1.175  0.0772  0.8116  0.4121
12274SOL    HW138263   5.099   1.294   1.120  1.4556  1.1389 -1.4402
12274SOL    HW238264   5.231   1.347   1.172  1.4021 -0.1326  0.0777
12275SOL     OW38265   5.514   1.730   4.453 -0.6302 -0.0247 -0.1442
12275SOL    HW138266   5.449   1.800   4.468 -1.7059 -1.0118 -0.0187
12275SOL    HW238267   5.593   1.761   4.496 -1.3619  0.7195  0.7061
12276SOL     OW38268   4.679   7.989   5.495 -0.1224  0.3889  0.0005
12276SOL    HW138269   4.702   8.069   5.447  0.9527 -0.1787 -0.4458
12276SOL    HW238270   4.615   8.019   5.561  1.4794  1.9424  0.9534
12277SOL     OW38271   4.457   1.723   1.395 -0.0185 -0.0516  0.0045
12277SOL    HW138272   4.548   1.737   1.421 -0.4347 -0.3725  1.7258
12277SOL    HW238273   4.448   1.628   1.392  0.0554 -0.0503 -1.6239
12278SOL     OW38274   5.322   1.161   3.695 -0.0132  0.1582  0.0891
12278SOL    HW138275   5.261   1.087   3.689 -0.8507  0.9002 -0.8700
12278SOL    HW238276   5.405   1.125   3.663  0.4068 -1.1659  2.4539
12279SOL     OW38277   3.570   0.576   1.919  0.1198  0.1792 -0.2747
12279SOL    HW138278   3.639   0.621   1.969  1.4491 -1.0480 -0.9130
12279SOL    HW238279   3.508   0.546   1.985 -0.3722  2.1930  0.2332
12280SOL     OW38280   5.492   2.917   2.249  0.3206  0.4053  0.0694
12280SOL    HW138281   5.419   2.907   2.189  0.0297  1.3456  0.2390
12280SOL    HW238282   5.479   3.004   2.288  1.8512  0.8483 -0.3358
12281SOL     OW38283   3.653   2.081   1.685  0.4573 -0.0917 -0.2478
12281SOL    HW138284   3.743   2.110   1.671  0.8852 -1.1325  0.2454
12281SOL    HW238285   3.657   1.986   1.683 -0.8583 -0.1569 -1.4944
12282SOL     OW38286   5.621   0.946   3.951  0.1042 -0.1166 -0.4384
12282SOL    HW138287   5.656   0.986   4.030  0.5903 -0.1698 -0.6272
12282SOL    HW238288   5.651   0.855   3.954 -0.9886 -0.4793 -0.0146
12283SOL     OW38289   3.656   0.515   3.088 -0.2109 -0.1318  0.2183
12283SOL    HW138290   3.690   0.535   3.001  0.9443  0.9037  0.8884
12283SOL    HW238291   3.634   0.422   3.084  3.4485 -1.1301 -0.0658
12284SOL     OW38292   2.749   0.435   2.851 -0.0999 -0.2859 -0.0484
12284SOL    HW138293   2.771   0.484   2.772 -0.5222  0.9657  0.5773
12284SOL    HW238294   2.778   0.492   2.923 -0.4749 -1.0235  0.6997
12285SOL     OW38295   4.327   1.998   2.874 -0.2939  0.0202  0.4410
12285SOL    HW138296   4.297   2.089   2.877 -1.1638 -0.2220 -0.4182
12285SOL    HW238297   4.248   1.946   2.888 -0.1019 -0.6200 -0.7609
12286SOL     OW38298   4.338   0.080   4.131  0.1008  0.1288  0.0429
12286SOL    HW138299   4.364   0.165   4.166  0.8126  0.1663 -0.5534
12286SOL    HW238300   4.243   0.076   4.146  0.1798  0.7138  0.7293
12287SOL     OW38301   6.860   0.972   3.027 -0.4446 -0.3225  0.0181
12287SOL    HW138302   6.817   0.974   2.942  1.0405 -3.3714 -0.9132
12287SOL    HW238303   6.798   0.925   3.084 -0.6565  0.1313  0.1713
12288SOL     OW38304   3.792   0.807   1.877  0.0792 -0.0532  0.3219
12288SOL    HW138305   3.846   0.811   1.955 -1.3550 -1.4741  1.4419
12288SOL    HW238306   3.809   0.720   1.840  0.4437  0.4544 -0.7484
12289SOL     OW38307   3.881   0.313   2.811 -0.3535  0.4006 -0.5508
12289SOL    HW138308   3.966   0.354   2.800  1.1646 -2.5576 -0.8570
12289SOL    HW238309   3.888   0.263   2.892 -1.7857  0.0575 -0.6025
12290SOL     OW38310   3.644   2.631   3.437  0.1113  0.2227 -0.1700
12290SOL    HW138311   3.556   2.659   3.413 -1.2962 -3.3595  0.1394
12290SOL    HW238312   3.653   2.653   3.529  0.2878  2.1729 -0.6219
12291SOL     OW38313   3.142   7.108   2.942 -0.4648 -0.4195  0.2955
12291SOL    HW138314   3.147   7.033   2.882  0.7111 -0.5459  0.5291
12291SOL    HW238315   3.116   7.070   3.026 -0.7027 -0.4389  0.2149
12292SOL     OW38316   3.610   0.927   2.724  0.8301 -0.0176  0.1773
12292SOL    HW138317   3.528   0.970   2.748  1.4519  1.4043 -0.1470
12292SOL    HW238318   3.608   0.844   2.771 -0.6372  0.1399  0.4461
12293SOL     OW38319   7.170   0.167   2.438  0.0995  0.1057 -0.2649
12293SOL    HW138320   7.085   0.159   2.481  0.6465  0.3028  0.8688
12293SOL    HW238321   7.234   0.165   2.509  1.0643 -0.2356 -1.1151
12294SOL     OW38322   3.803   0.520   2.134  0.0712  0.1913 -0.0485
12294SOL    HW138323   3.752   0.519   2.214  0.0498  1.1103 -0.0395
12294SOL    HW238324   3.808   0.428   2.107 -2.0186  0.1154 -0.3423
12295SOL     OW38325   4.014   0.742   1.545  0.2888  0.1836  0.7018
12295SOL    HW138326   4.059   0.750   1.460 -1.5892  1.5026 -0.2472
12295SOL    HW238327   3.995   0.832   1.570  0.2118 -0.2345  2.2087
12296SOL     OW38328   7.059   3.321   2.848  0.1495 -0.0240 -0.0357
12296SOL    HW138329   7.009   3.381   2.791 -0.6251  0.9891  1.6379
12296SOL    HW238330   7.146   3.359   2.852  0.4158 -0.4911 -1.0780
12297SOL     OW38331   3.790   1.962   2.543 -0.6021 -0.0870  0.0887
12297SOL    HW138332   3.827   1.879   2.572 -1.3250 -0.3114  0.4013
12297SOL    HW238333   3.865   2.013   2.511  0.0204 -0.3628  1.0780
12298SOL     OW38334   5.576   7.741   3.778  0.1426  0.3269  0.4992
12298SOL    HW138335   5.534   7.784   3.852  0.0917  1.4187 -0.1561
12298SOL    HW238336   5.654   7.700   3.816 -1.0678 -1.1054  1.5828
12299SOL     OW38337   3.383   0.147   4.234 -0.0428 -0.2562 -0.1335
12299SOL    HW138338   3.331   0.079   4.192 -0.3711 -0.0548 -0.0605
12299SOL    HW238339   3.414   0.106   4.315  0.5063 -0.6087 -0.5151
12300SOL     OW38340   4.494   7.755   2.330 -0.0723  0.2216  0.7578
12300SOL    HW138341   4.571   7.766   2.274 -0.8324  0.6474 -0.2373
12300SOL    HW238342   4.502   7.667   2.365 -0.0778 -0.4512 -0.8492
12301SOL     OW38343   2.831   7.726   2.356 -0.2566 -0.2791  0.4939
12301SOL    HW138344   2.872   7.716   2.270 -0.0372 -0.7927  0.6513
12301SOL    HW238345   2.783   7.809   2.351 -1.8214 -1.1843 -0.7756
12302SOL     OW38346   4.430   0.038   2.708 -0.0605  0.5945 -0.1853
12302SOL    HW138347   4.459  -0.053   2.698  0.4752  0.5882  1.1957
12302SOL    HW238348   4.364   0.035   2.777 -0.2174  1.2273 -0.2983
12303SOL     OW38349   1.767   3.144   3.933  0.2340  0.1531 -0.3986
12303SOL    HW138350   1.760   3.216   3.997  0.7652 -0.1480  0.0048
12303SOL    HW238351   1.745   3.066   3.983 -3.0386  0.2652 -1.4486
12304SOL     OW38352   5.384   0.491   2.786 -0.2766  0.2114 -0.0807
12304SOL    HW138353   5.354   0.502   2.696  0.3385  1.5563 -0.1474
12304SOL    HW238354   5.334   0.555   2.836 -0.9089 -0.8042  0.6210
12305SOL     OW38355   4.368   7.944   3.220  0.0964 -0.6904 -0.3011
12305SOL    HW138356   4.450   7.898   3.203 -0.1759 -1.1720 -0.3182
12305SOL    HW238357   4.344   7.983   3.135  0.3851 -0.4169 -0.2581
12306SOL     OW38358   4.727   7.641   2.465 -0.3147 -0.6756 -0.6091
12306SOL    HW138359   4.787   7.628   2.539  0.2909 -3.2309 -1.4109
12306SOL    HW238360   4.785   7.649   2.389 -0.9457  1.1640 -0.9390
12307SOL     OW38361   5.298   0.440   2.398 -0.3446  0.0339  0.6414
12307SOL    HW138362   5.247   0.461   2.476 -1.3810  1.5091 -0.3826
12307SOL    HW238363   5.279   0.347   2.382 -0.2066 -0.2615  2.0320
12308SOL     OW38364   5.229   1.847   1.430 -0.1662  0.0231 -0.7512
12308SOL    HW138365   5.306   1.836   1.486 -0.9234  1.6867  0.7218
12308SOL    HW238366   5.254   1.914   1.367 -0.1348 -0.0776 -0.8477
12309SOL     OW38367   6.264   1.910   1.815 -0.0385  0.3161  0.2011
12309SOL    HW138368   6.182   1.861   1.812  0.4964 -0.6156  0.5567
12309SOL    HW238369   6.252   1.973   1.886 -1.8601  2.8272 -2.1236
12310SOL     OW38370   5.106   0.977   3.931 -0.2504 -0.1264  0.1299
12310SOL    HW138371   5.160   0.908   3.969  0.3013  0.3550  0.2511
12310SOL    HW238372   5.048   0.933   3.870 -0.7050 -0.8384  1.0536
12311SOL     OW38373   5.090   2.731   4.492  0.1734  0.2058 -0.0642
12311SOL    HW138374   5.028   2.803   4.501 -0.4076 -0.0715 -1.5558
12311SOL    HW238375   5.087   2.686   4.577  0.0378  1.5078  0.6485
12312SOL     OW38376   3.861   1.743   3.573  0.3517  0.0191 -0.4062
12312SOL    HW138377   3.838   1.823   3.527 -2.8461 -0.1051  0.7076
12312SOL    HW238378   3.832   1.758   3.663  3.5014 -0.8997  0.9020
12313SOL     OW38379   6.070   0.735   3.378 -0.4774 -0.0061 -0.3257
12313SOL    HW138380   6.130   0.673   3.337  0.5642  1.2614 -0.7879
12313SOL    HW238381   6.004   0.680   3.420 -0.7112 -1.3991 -2.3652
12314SOL     OW38382   4.188   2.730   3.586  0.0545 -0.1553 -0.0942
12314SOL    HW138383   4.219   2.820   3.595 -1.7968  0.4942  0.3608
12314SOL    HW238384   4.255   2.677   3.630  2.3690  0.6801 -2.3648
12315SOL     OW38385   4.726   0.888   3.326  0.0551  0.0349 -0.2245
12315SOL    HW138386   4.715   0.983   3.322 -1.3448 -0.1521 -1.8904
12315SOL    HW238387   4.798   0.875   3.389  0.3464  2.1739 -0.0322
12316SOL     OW38388   2.151   0.224   4.534 -0.0599 -0.1088 -0.3030
12316SOL    HW138389   2.129   0.217   4.627  0.5117 -2.5109 -0.2781
12316SOL    HW238390   2.068   0.241   4.491 -0.7702 -1.4429  0.4636
12317SOL     OW38391   5.026   1.062   1.726 -0.1877  0.3034  0.6394
12317SOL    HW138392   5.017   0.989   1.787 -0.5039 -0.5619 -0.3975
12317SOL    HW238393   5.074   1.025   1.652  1.1229  1.6053  0.8041
12318SOL     OW38394   5.270   1.603   4.090  0.2126 -0.5517  0.2676
12318SOL    HW138395   5.298   1.692   4.111 -2.7335  0.4192  0.5467
12318SOL    HW238396   5.235   1.568   4.172  0.6159 -1.7011 -0.0286
12319SOL     OW38397   5.905   6.768   2.274  0.2065  0.0207 -0.2160
12319SOL    HW138398   5.970   6.702   2.251 -0.2347 -0.4112 -0.2419
12319SOL    HW238399   5.832   6.751   2.214  1.0463  2.0931 -1.9207
12320SOL     OW38400   3.275   2.678   3.466 -0.0618 -0.1028  0.1497
12320SOL    HW138401   3.310   2.762   3.496  1.4824 -0.6323 -0.0536
12320SOL    HW238402   3.181   2.683   3.482  0.2919  0.8170  2.1630
12321SOL     OW38403   4.423   1.393   2.419 -0.0735 -0.0606  0.8018
12321SOL    HW138404   4.484   1.420   2.351 -0.0409  1.7024  1.4733
12321SOL    HW238405   4.478   1.351   2.486  0.3598  1.0934  1.1866
12322SOL     OW38406   5.835   2.733   3.058  0.3966  0.2402 -0.8911
12322SOL    HW138407   5.914   2.687   3.033  0.2766 -0.7578  0.4410
12322SOL    HW238408   5.763   2.673   3.036  0.3498 -1.3483  2.8722
12323SOL     OW38409   4.301   7.575   2.121  0.1086 -0.5197 -0.5285
12323SOL    HW138410   4.298   7.584   2.025  2.1288 -0.2932 -0.6043
12323SOL    HW238411   4.244   7.501   2.140 -1.9418  0.6464 -1.6835
12324SOL     OW38412   3.249   7.151   1.543 -0.6091  0.3103  0.1914
12324SOL    HW138413   3.311   7.205   1.493  0.6864 -0.5737  0.8005
12324SOL    HW238414   3.304   7.094   1.597 -1.9208 -1.8777 -0.6700
12325SOL     OW38415   4.589   1.171   3.279  0.2735 -0.2566 -0.0204
12325SOL    HW138416   4.505   1.126   3.281 -0.3494  0.8712  0.1831
12325SOL    HW238417   4.576   1.249   3.333  1.4916 -0.1174  0.1124
12326SOL     OW38418   2.794   1.256   4.169 -0.2844 -0.1307  0.1343
12326SOL    HW138419   2.754   1.343   4.157 -0.1790 -0.0451  0.3952
12326SOL    HW238420   2.727   1.205   4.214 -1.2693 -0.9058 -2.0346
12327SOL     OW38421   4.272   1.075   4.154 -0.1187  0.2573 -0.2183
12327SOL    HW138422   4.243   1.075   4.063 -1.8522 -0.1184  0.2818
12327SOL    HW238423   4.224   1.003   4.194 -0.6787  1.4341  1.3470
12328SOL     OW38424   4.663   3.081   2.949  0.7484  0.1138 -0.4430
12328SOL    HW138425   4.575   3.056   2.979  0.6122  0.7562 -0.2989
12328SOL    HW238426   4.656   3.083   2.854  0.8638 -0.7528 -0.4845
12329SOL     OW38427   3.421   5.191   1.355 -0.0553 -0.6046 -0.4260
12329SOL    HW138428   3.414   5.096   1.362 -0.5515 -0.4333  3.3019
12329SOL    HW238429   3.508   5.210   1.389 -0.4983  0.3639  0.1762
12330SOL     OW38430   3.838   7.396   1.900 -0.6604  0.1517 -0.1607
12330SOL    HW138431   3.923   7.371   1.935 -0.6062  0.3586 -0.1406
12330SOL    HW238432   3.858   7.448   1.822 -0.7506  0.8002  0.2458
12331SOL     OW38433   4.757   1.844   1.051 -0.2771  0.4996  0.1099
12331SOL    HW138434   4.689   1.910   1.064  0.4176  1.2409 -0.0081
12331SOL    HW238435   4.833   1.892   1.020 -0.4752 -0.6416 -2.4262
12332SOL     OW38436   3.765   7.978   2.044  0.2117 -0.2726 -0.2394
12332SOL    HW138437   3.671   7.977   2.025  0.3232 -0.0061 -0.8192
12332SOL    HW238438   3.771   7.965   2.139 -0.3718 -1.3906 -0.3334
12333SOL     OW38439   3.549   0.268   2.534 -0.7002  0.4902 -0.3727
12333SOL    HW138440   3.572   0.294   2.623 -0.3479 -0.2036 -0.2581
12333SOL    HW238441   3.589   0.182   2.523 -2.8027 -0.5462 -0.3591
12334SOL     OW38442   5.287   0.833   3.363  0.0028  0.4678  0.2107
12334SOL    HW138443   5.284   0.801   3.453  2.1935  0.2929  0.2819
12334SOL    HW238444   5.309   0.757   3.311 -1.0475  0.6143 -0.4762
12335SOL     OW38445   4.248   1.642   2.368 -0.5494 -0.2105  0.3553
12335SOL    HW138446   4.177   1.637   2.432 -0.8011  1.0869  0.1978
12335SOL    HW238447   4.300   1.562   2.383 -0.6892 -0.0071  2.0672
12336SOL     OW38448   5.117   0.790   2.080 -0.5437  0.4102 -0.4265
12336SOL    HW138449   5.099   0.695   2.085 -0.6721  0.4187 -0.6759
12336SOL    HW238450   5.203   0.800   2.119 -1.2595  0.4207  1.2457
12337SOL     OW38451   5.611   1.574   3.266  0.1065  0.6206 -0.0905
12337SOL    HW138452   5.524   1.593   3.300 -0.8229  0.2202 -2.0980
12337SOL    HW238453   5.638   1.655   3.222  0.5438  0.5695  0.0734
12338SOL     OW38454   3.714   1.204   1.934  0.1960 -0.0645  0.1374
12338SOL    HW138455   3.649   1.274   1.942 -0.8945 -0.7154 -2.3397
12338SOL    HW238456   3.665   1.123   1.948  0.7703 -0.4930 -0.2913
12339SOL     OW38457   3.810   1.309   4.534  0.2752  0.0053  0.3433
12339SOL    HW138458   3.760   1.245   4.482  0.1095  0.0479  0.4482
12339SOL    HW238459   3.873   1.256   4.583 -3.1229 -0.8207  4.4342
12340SOL     OW38460   2.657   6.423   2.234 -0.0932  0.1227  0.1027
12340SOL    HW138461   2.574   6.406   2.279 -0.8112  1.6370 -0.5709
12340SOL    HW238462   2.722   6.425   2.304 -0.5343 -1.4590  0.6011
12341SOL     OW38463   3.950   7.282   3.333  0.0306  0.3494  0.1981
12341SOL    HW138464   3.909   7.264   3.417  0.5717  1.7124  0.7784
12341SOL    HW238465   3.890   7.343   3.289  0.5126  0.9054  0.2889
12342SOL     OW38466   2.603   0.931   2.341 -0.4279 -0.1043  0.2083
12342SOL    HW138467   2.679   0.981   2.312  0.0214  0.8240  2.7870
12342SOL    HW238468   2.528   0.977   2.302  0.2043 -0.3714 -1.4271
12343SOL     OW38469   5.185   0.888   1.308  0.3697 -0.3788 -0.0028
12343SOL    HW138470   5.164   0.955   1.374  2.0853  0.5599 -0.3458
12343SOL    HW238471   5.210   0.811   1.359  0.5069 -0.0488  0.4330
12344SOL     OW38472   4.965   0.546   1.969 -0.1384  0.3627  0.3621
12344SOL    HW138473   5.008   0.472   2.012  1.3919 -0.0483 -1.7484
12344SOL    HW238474   4.982   0.534   1.876 -3.6557  0.9827 -0.5103
12345SOL     OW38475   6.466   1.188   1.551  0.2378  0.2185 -0.3829
12345SOL    HW138476   6.542   1.175   1.608  0.8012 -2.0801 -1.5622
12345SOL    HW238477   6.401   1.125   1.582 -0.8633  1.4736 -0.0267
12346SOL     OW38478   4.119   2.228   2.994  0.1402  0.2975  0.2298
12346SOL    HW138479   4.080   2.249   3.079 -0.9867  0.9045 -0.4049
12346SOL    HW238480   4.065   2.157   2.960  0.0109  0.6636 -0.3523
12347SOL     OW38481   4.854   1.433   1.337 -0.0662  0.2974 -0.6371
12347SOL    HW138482   4.947   1.449   1.319  0.3229 -0.8942  0.1465
12347SOL    HW238483   4.807   1.481   1.269  0.9876  3.3538  0.6601
12348SOL     OW38484   6.045   6.715   1.310 -0.4846 -0.4194 -0.4380
12348SOL    HW138485   6.058   6.639   1.253 -0.7044 -0.6841 -0.1481
12348SOL    HW238486   6.077   6.790   1.260  3.1493 -1.0978  0.5897
12349SOL     OW38487   2.801   6.938   2.347 -0.3004 -0.4037  0.2342
12349SOL    HW138488   2.802   6.843   2.364 -0.9198 -0.4476  0.0450
12349SOL    HW238489   2.771   6.976   2.430 -0.0846 -0.3728  0.2990
12350SOL     OW38490   5.315   0.398   3.674 -0.1601 -0.1040 -0.1434
12350SOL    HW138491   5.295   0.343   3.599 -5.1008 -0.9163  1.4308
12350SOL    HW238492   5.387   0.353   3.718  1.7929 -0.4404 -3.3338
12351SOL     OW38493   1.650   1.202   2.821  0.0394 -0.1714 -0.3109
12351SOL    HW138494   1.610   1.201   2.908  0.2470  1.7707 -0.1565
12351SOL    HW238495   1.730   1.253   2.831  0.0417  0.1338 -1.6406
12352SOL     OW38496   4.170   1.979   4.055  0.0875 -0.3359  0.4133
12352SOL    HW138497   4.077   1.972   4.035  0.4648  0.4509 -1.8306
12352SOL    HW238498   4.206   1.892   4.036 -0.4629 -1.3515  3.4256
12353SOL     OW38499   5.221   0.968   2.400  0.4317 -0.2381  0.1816
12353SOL    HW138500   5.304   1.014   2.406  0.9649 -1.1957  0.2519
12353SOL    HW238501   5.155   1.035   2.420  1.2712  0.1453  1.8649
12354SOL     OW38502   7.177   0.644   3.094  0.5122  0.4068 -0.0342
12354SOL    HW138503   7.096   0.635   3.144 -0.0875  1.3706 -0.7791
12354SOL    HW238504   7.244   0.661   3.160  0.0611 -0.1305  0.5721
12355SOL     OW38505   4.442   6.729   3.711 -0.0390  0.3786 -0.0843
12355SOL    HW138506   4.522   6.699   3.669  0.7116  1.9090  0.1808
12355SOL    HW238507   4.471   6.770   3.793 -1.3044 -0.9518  1.0963
12356SOL     OW38508   3.588   1.206   2.517  0.0310  0.3523 -0.0191
12356SOL    HW138509   3.595   1.111   2.521  4.0561  0.5300  3.6669
12356SOL    HW238510   3.629   1.230   2.434 -1.8588 -1.0029 -1.4435
12357SOL     OW38511   3.135   6.411   2.247  0.1581  0.2610 -0.4176
12357SOL    HW138512   3.059   6.364   2.215  1.0994 -1.6641  0.0202
12357SOL    HW238513   3.210   6.367   2.207  1.0930  1.5405 -0.1697
12358SOL     OW38514   4.046   0.188   2.316  0.1571  0.0954  0.1759
12358SOL    HW138515   3.995   0.195   2.396  1.1827  0.9372  0.7696
12358SOL    HW238516   4.137   0.195   2.344  0.4944  2.4307 -1.2221
12359SOL     OW38517   4.868   1.726   2.639  0.3266 -0.6302 -0.0797
12359SOL    HW138518   4.814   1.803   2.622  0.5203 -0.4040  0.3366
12359SOL    HW238519   4.907   1.706   2.553 -0.0039 -0.4832 -0.2675
12360SOL     OW38520   4.090   0.533   2.231 -0.5890  0.6471 -0.1899
12360SOL    HW138521   4.003   0.513   2.198 -0.5568 -0.0655  0.1280
12360SOL    HW238522   4.150   0.482   2.176 -0.4153  0.7537 -0.1022
12361SOL     OW38523   3.159   7.328   0.360 -0.3526  0.1002 -0.0744
12361SOL    HW138524   3.135   7.280   0.439 -2.1872 -1.3178 -1.3948
12361SOL    HW238525   3.097   7.297   0.294  1.4044  0.8760 -2.1984
12362SOL     OW38526   5.085   0.448   3.861  0.3336  0.7959 -0.4138
12362SOL    HW138527   5.164   0.482   3.820  0.6666  0.9211  0.3198
12362SOL    HW238528   5.021   0.518   3.853  0.7142  1.2214  0.2021
12363SOL     OW38529   5.174   2.276   2.280 -0.0673  0.1744 -0.2393
12363SOL    HW138530   5.149   2.339   2.348 -0.3808 -0.1029 -0.0950
12363SOL    HW238531   5.113   2.203   2.292 -0.0382  0.0701 -0.7375
12364SOL     OW38532   5.480   1.470   3.765  0.3776  0.1072 -0.0379
12364SOL    HW138533   5.533   1.406   3.718 -0.6474  0.5278 -1.8791
12364SOL    HW238534   5.532   1.550   3.763  0.0687  0.3007 -1.1050
12365SOL     OW38535   4.698   7.314   0.389  0.6405  0.1187 -0.0521
12365SOL    HW138536   4.642   7.361   0.450  0.0901 -0.5275 -0.0379
12365SOL    HW238537   4.638   7.288   0.318  1.0151 -0.2046 -0.2498
12366SOL     OW38538   4.524   0.542   3.924 -0.7939  0.4259 -0.4378
12366SOL    HW138539   4.475   0.473   3.880 -0.0981 -1.4069  1.5199
12366SOL    HW238540   4.615   0.526   3.902 -0.4429 -0.4558  1.4584
12367SOL     OW38541   3.449   0.251   3.356  0.0818  0.1625 -0.2998
12367SOL    HW138542   3.523   0.237   3.297  0.4071 -1.7175  0.4868
12367SOL    HW238543   3.424   0.163   3.385 -2.9296  0.6449 -1.0450
12368SOL     OW38544   4.174   1.021   2.730 -0.2482 -0.5067  0.3465
12368SOL    HW138545   4.251   0.980   2.690 -1.3551 -0.0691 -2.3933
12368SOL    HW238546   4.198   1.113   2.737 -1.0759 -0.0074 -2.2568
12369SOL     OW38547   5.028   1.796   4.583 -0.2017  0.4148  0.3037
12369SOL    HW138548   4.996   1.854   4.514  0.3172  1.0671  0.5932
12369SOL    HW238549   5.108   1.839   4.615  1.1810 -1.3118 -0.6271
12370SOL     OW38550   6.086   0.151   4.276 -0.1835 -0.2596  0.5534
12370SOL    HW138551   6.093   0.196   4.360  0.7537  0.4373  0.1156
12370SOL    HW238552   6.031   0.075   4.294  1.4481 -1.1178  2.2242
12371SOL     OW38553   2.859   6.274   2.507 -0.4853 -0.1412 -0.1341
12371SOL    HW138554   2.944   6.315   2.495 -0.4956  0.0318  0.3269
12371SOL    HW238555   2.869   6.185   2.474 -0.1818 -0.0617 -0.2548
12372SOL     OW38556   4.237   6.601   3.814 -0.7398 -0.3181  0.6436
12372SOL    HW138557   4.298   6.533   3.843 -2.1459 -0.3425  3.9199
12372SOL    HW238558   4.285   6.647   3.745  0.8255 -3.6162 -0.7155
12373SOL     OW38559   4.019   1.558   3.002 -0.4902 -0.1076  0.1443
12373SOL    HW138560   3.936   1.540   2.958  0.0634 -0.4035 -0.8170
12373SOL    HW238561   4.053   1.472   3.026 -1.0772  0.0827  1.7468
12374SOL     OW38562   3.129   7.449   1.664 -0.3967  0.0220  0.0042
12374SOL    HW138563   3.214   7.456   1.709  0.3633  1.0135 -1.5040
12374SOL    HW238564   3.139   7.374   1.605 -1.0418 -0.6529  0.7252
12375SOL     OW38565   3.117   1.514   2.648 -0.3337  0.2553  0.6729
12375SOL    HW138566   3.053   1.498   2.718 -0.8873 -1.1320 -0.1123
12375SOL    HW238567   3.078   1.583   2.595 -0.0637  1.0825  1.5211
12376SOL     OW38568   5.538   1.188   3.096  0.1362 -0.6975  0.0888
12376SOL    HW138569   5.486   1.255   3.051  0.4191 -0.5669 -0.0466
12376SOL    HW238570   5.482   1.157   3.167  0.3958  0.4208  0.7954
12377SOL     OW38571   6.037   2.211   3.991 -0.4492  0.0872  0.0547
12377SOL    HW138572   6.007   2.149   3.924  0.0059 -1.2289  1.0283
12377SOL    HW238573   6.074   2.156   4.060  3.1027  1.5035 -0.4739
12378SOL     OW38574   3.483   7.533   2.788  0.8137  0.3068 -0.1694
12378SOL    HW138575   3.569   7.573   2.774  0.8498  0.3834  0.2420
12378SOL    HW238576   3.482   7.456   2.732  0.7612  0.8651 -0.9392
12379SOL     OW38577   6.805   0.838   1.353 -0.7542 -0.2877 -0.1246
12379SOL    HW138578   6.744   0.849   1.280  1.8404  0.9829 -2.2532
12379SOL    HW238579   6.809   0.743   1.367 -2.6918 -0.4416 -0.2927
12380SOL     OW38580   3.642   0.007   2.581 -0.2269 -0.1217  0.1369
12380SOL    HW138581   3.557  -0.000   2.626 -0.1428  1.4943  0.6431
12380SOL    HW238582   3.707  -0.004   2.651 -0.0475 -0.2435 -0.0497
12381SOL     OW38583   2.755   0.922   3.580 -0.5618 -0.5386 -1.0123
12381SOL    HW138584   2.688   0.867   3.539 -2.3776 -0.7217  1.8784
12381SOL    HW238585   2.827   0.862   3.600 -1.5574 -1.4253  0.0471
12382SOL     OW38586   6.154   0.427   5.648 -0.3816  0.2948  0.0341
12382SOL    HW138587   6.082   0.451   5.591 -0.8063 -0.1536  0.3712
12382SOL    HW238588   6.157   0.332   5.644 -0.4614  0.2561  0.8108
12383SOL     OW38589   4.011   2.757   3.821 -0.0956 -0.0056 -0.1385
12383SOL    HW138590   4.058   2.744   3.738 -1.2741 -0.6282 -0.7363
12383SOL    HW238591   3.971   2.844   3.813  2.6442  1.5393  1.2792
12384SOL     OW38592   5.537   7.647   1.195 -0.8927  0.1595 -0.1374
12384SOL    HW138593   5.616   7.652   1.248  0.4786 -0.9106 -1.9466
12384SOL    HW238594   5.532   7.731   1.149 -1.4070  0.6173  0.7301
12385SOL     OW38595   4.560   7.773   2.706  0.0026 -0.4910  1.1112
12385SOL    HW138596   4.468   7.748   2.698 -0.5994  1.6004  0.7179
12385SOL    HW238597   4.609   7.691   2.697 -1.7874 -1.5837  0.8545
12386SOL     OW38598   5.427   1.924   3.131  0.2494 -0.2850 -0.2223
12386SOL    HW138599   5.400   1.860   3.198 -1.9251  0.2744 -0.4763
12386SOL    HW238600   5.483   1.986   3.178  1.8550 -1.9488  0.1809
12387SOL     OW38601   5.053   1.358   0.921 -0.9427  0.0241 -0.0261
12387SOL    HW138602   5.132   1.360   0.869 -0.3645 -0.6434  0.8012
12387SOL    HW238603   4.981   1.361   0.857 -0.2729 -1.5702 -0.9026
12388SOL     OW38604   4.251   6.865   3.556  0.4253  0.1172  0.0315
12388SOL    HW138605   4.316   6.829   3.617  0.2875 -4.1074 -1.8945
12388SOL    HW238606   4.300   6.876   3.474 -0.0686  2.6727  0.0266
12389SOL     OW38607   5.386   1.173   4.051 -0.2401 -0.3582  0.2166
12389SOL    HW138608   5.438   1.145   4.127  1.4739 -0.3373 -0.8871
12389SOL    HW238609   5.402   1.106   3.985 -0.0092  0.6704 -0.8154
12390SOL     OW38610   4.573   0.306   3.594 -0.1638 -0.5660  0.2679
12390SOL    HW138611   4.497   0.329   3.646  0.0984 -2.0680  1.3804
12390SOL    HW238612   4.611   0.230   3.638  2.4732  0.6142  0.2399
12391SOL     OW38613   1.404   2.632   1.846 -0.4704  0.3294  0.2809
12391SOL    HW138614   1.373   2.572   1.779  0.0113  0.1107  0.2511
12391SOL    HW238615   1.470   2.685   1.802  0.7250 -0.6152  0.8720
12392SOL     OW38616   2.425   2.790   0.076  0.4804 -0.0372  0.5621
12392SOL    HW138617   2.358   2.748   0.022 -0.4767  2.9015 -0.7854
12392SOL    HW238618   2.379   2.860   0.121  2.1009  0.1483  2.0384
12393SOL     OW38619   4.849   1.135   1.193 -0.1156  0.3488 -0.2685
12393SOL    HW138620   4.874   1.043   1.181 -0.7678  0.1601 -0.2073
12393SOL    HW238621   4.787   1.152   1.122  1.1593  1.1950 -1.2229
12394SOL     OW38622   4.127   2.248   2.019 -0.2892  0.4164 -0.3305
12394SOL    HW138623   4.055   2.294   2.062 -1.1403  0.1191 -1.3759
12394SOL    HW238624   4.133   2.164   2.064 -0.9586  0.2311 -0.5769
12395SOL     OW38625   3.485   7.256   2.120 -0.4033 -0.6518 -0.3775
12395SOL    HW138626   3.568   7.211   2.139 -0.6135  0.1058  3.0570
12395SOL    HW238627   3.507   7.319   2.051  1.5366 -1.3890 -0.5104
12396SOL     OW38628   3.253   1.080   4.871  0.2546 -0.9817 -0.4188
12396SOL    HW138629   3.164   1.081   4.836  0.2044  0.6625 -0.3414
12396SOL    HW238630   3.270   1.172   4.894  1.3118 -1.5526  1.2290
12397SOL     OW38631   3.823   2.119   3.033 -0.1962 -0.2493 -0.6555
12397SOL    HW138632   3.859   2.206   3.052  1.0278 -0.8613 -0.0987
12397SOL    HW238633   3.772   2.132   2.953 -0.2540  1.0316 -0.4443
12398SOL     OW38634   1.897   6.806   2.441  0.7030 -0.0730 -0.6354
12398SOL    HW138635   1.941   6.891   2.442  0.3643  0.0954  0.2512
12398SOL    HW238636   1.804   6.827   2.445  0.6064 -0.4805 -0.6927
12399SOL     OW38637   6.184   1.028   2.256  0.3584  0.3668  0.3621
12399SOL    HW138638   6.142   1.008   2.340 -0.9119  1.4481  0.0033
12399SOL    HW238639   6.131   1.098   2.218  1.0801  0.0908 -1.2306
12400SOL     OW38640   4.366   1.072   3.422 -0.3808 -0.6189 -0.5463
12400SOL    HW138641   4.292   1.121   3.456 -0.0500 -1.0352  0.8166
12400SOL    HW238642   4.429   1.070   3.494  0.4731 -1.2543 -1.2901
12401SOL     OW38643   5.410   0.328   1.726 -0.1232 -0.6139  1.0634
12401SOL    HW138644   5.475   0.287   1.668 -0.2109 -1.1524  1.3377
12401SOL    HW238645   5.390   0.412   1.684 -1.1819 -1.5520 -0.4374
12402SOL     OW38646   4.369   1.782   3.203  0.2635  0.0604 -0.1001
12402SOL    HW138647   4.366   1.721   3.277  0.0868 -0.6849 -0.7036
12402SOL    HW238648   4.460   1.809   3.197  0.0668  1.1145  1.1558
12403SOL     OW38649   3.706   2.318   2.379 -0.0951 -0.2316 -0.0885
12403SOL    HW138650   3.706   2.247   2.315  0.9166  0.4693 -0.9176
12403SOL    HW238651   3.797   2.347   2.382 -0.7921  2.4701 -1.4640
12404SOL     OW38652   4.754   2.443   2.271  0.0063 -0.0295 -0.1446
12404SOL    HW138653   4.745   2.356   2.233  0.7084 -0.5058  0.7305
12404SOL    HW238654   4.716   2.434   2.359  2.4248 -0.2053  0.9631
12405SOL     OW38655   3.951   1.633   3.989 -0.1262  0.0289 -0.0854
12405SOL    HW138656   3.908   1.718   4.002 -3.2623 -1.1703 -1.5276
12405SOL    HW238657   4.041   1.647   4.019 -1.2192  3.0415  2.4126
12406SOL     OW38658   5.564   1.618   2.176  0.3622 -0.4101  0.2859
12406SOL    HW138659   5.637   1.665   2.214 -0.2732  0.7712  0.0981
12406SOL    HW238660   5.505   1.599   2.249  0.2958 -0.3070  0.2595
12407SOL     OW38661   6.638   1.312   3.690  0.3605 -0.3791  0.2393
12407SOL    HW138662   6.676   1.292   3.775  4.2338  3.3837 -0.2950
12407SOL    HW238663   6.712   1.332   3.634 -2.1792  0.1940 -3.2602
12408SOL     OW38664   5.102   2.228   4.202  0.3863 -0.7929  0.2469
12408SOL    HW138665   5.166   2.162   4.175  2.0387  0.5084  0.8218
12408SOL    HW238666   5.100   2.222   4.297  0.8665  0.2332  0.3387
12409SOL     OW38667   2.012   7.914   2.628 -0.1386 -0.5762 -0.2243
12409SOL    HW138668   1.968   7.863   2.561  1.0048 -0.5103 -1.0621
12409SOL    HW238669   2.106   7.901   2.611  0.1919  1.3315 -0.1391
12410SOL     OW38670   4.207   1.691   4.045  0.2323  0.2967 -0.2156
12410SOL    HW138671   4.254   1.623   3.995 -0.0073  0.2447 -0.3728
12410SOL    HW238672   4.243   1.685   4.133  0.6293  0.3581 -0.3702
12411SOL     OW38673   5.573   0.066   3.667  0.0335 -0.0027 -0.4646
12411SOL    HW138674   5.602   0.039   3.580  0.0954 -1.2449 -0.0781
12411SOL    HW238675   5.625   0.013   3.727 -0.4030  0.4377  0.3252
12412SOL     OW38676   4.035   1.977   2.859  0.3265  0.9953 -0.2770
12412SOL    HW138677   3.947   1.966   2.824  0.2751 -1.3205  0.4473
12412SOL    HW238678   4.035   1.928   2.941  1.9241  2.0504  0.4001
12413SOL     OW38679   4.142   2.649   5.686 -0.5391  0.0123 -0.2300
12413SOL    HW138680   4.054   2.680   5.664 -1.0919 -2.1930 -1.4038
12413SOL    HW238681   4.147   2.561   5.650  2.6009  0.4695 -1.2500
12414SOL     OW38682   4.605   1.266   0.417 -0.5553  0.0813  0.0415
12414SOL    HW138683   4.539   1.197   0.417 -0.1707 -0.3386  1.9619
12414SOL    HW238684   4.688   1.221   0.405 -0.4081  0.3481  0.0435
12415SOL     OW38685   5.220   0.670   5.070  0.4365 -0.3721  0.7493
12415SOL    HW138686   5.308   0.644   5.043 -0.1089 -0.5018 -1.0293
12415SOL    HW238687   5.186   0.720   4.996 -0.7716  0.1998  1.6522
12416SOL     OW38688   4.224   2.767   3.271 -0.7458  0.0649 -0.1333
12416SOL    HW138689   4.254   2.722   3.350 -1.6939 -2.2822 -1.0199
12416SOL    HW238690   4.286   2.840   3.261  1.9067 -1.9046  0.5846
12417SOL     OW38691   4.384   2.317   3.056 -0.0362  0.3315  0.5771
12417SOL    HW138692   4.291   2.301   3.038  0.0292 -1.0098  1.3103
12417SOL    HW238693   4.393   2.302   3.150  1.1353 -0.6796  0.3217
12418SOL     OW38694   5.248   5.566   2.232  0.6141 -0.2589  0.3226
12418SOL    HW138695   5.342   5.550   2.241  0.3062 -3.5759 -0.8631
12418SOL    HW238696   5.230   5.548   2.139 -1.2483 -0.1285  0.6301
12419SOL     OW38697   2.519   0.073   2.457 -0.0669  0.2792  0.0302
12419SOL    HW138698   2.432   0.043   2.482 -0.2383 -0.3003 -1.1777
12419SOL    HW238699   2.535   0.149   2.513 -0.6133 -0.6446  1.4742
12420SOL     OW38700   4.622   1.877   1.934  0.2550  0.1637  0.1582
12420SOL    HW138701   4.599   1.895   1.842 -0.0863  2.3036  0.6102
12420SOL    HW238702   4.689   1.810   1.928  3.5311  3.2401 -2.0282
12421SOL     OW38703   3.895   7.924   3.211 -0.5416  0.2787  0.1100
12421SOL    HW138704   3.927   7.990   3.150  0.1003  0.0803  0.2290
12421SOL    HW238705   3.972   7.872   3.234 -1.2539 -1.3875 -1.0475
12422SOL     OW38706   6.888   0.202   1.750 -0.0311  0.1868 -0.0058
12422SOL    HW138707   6.930   0.139   1.808  1.6637  2.3099  1.2172
12422SOL    HW238708   6.955   0.221   1.684 -0.6637  0.4162 -0.5836
12423SOL     OW38709   4.307   6.826   2.213  0.4424  0.0515 -0.2699
12423SOL    HW138710   4.292   6.751   2.156  0.9788 -0.2559 -0.0122
12423SOL    HW238711   4.392   6.809   2.254 -0.8656 -0.8553  2.3103
12424SOL     OW38712   4.078   1.277   1.106  0.4272 -0.1871 -0.4531
12424SOL    HW138713   4.132   1.337   1.157  0.2424 -0.3807 -0.0294
12424SOL    HW238714   4.050   1.210   1.168 -1.3314  0.5809 -0.3567
12425SOL     OW38715   4.989   0.385   3.496 -0.1730  0.0309  0.1313
12425SOL    HW138716   4.943   0.383   3.412 -0.0304 -0.6644  0.0611
12425SOL    HW238717   4.999   0.478   3.516  0.9644  0.2391 -1.2789
12426SOL     OW38718   4.134   1.376   2.551 -0.7071  0.9320  0.5876
12426SOL    HW138719   4.169   1.317   2.485 -2.9041  1.0267 -0.7948
12426SOL    HW238720   4.204   1.440   2.567  0.7161 -0.4549  0.1179
12427SOL     OW38721   3.883   7.355   2.361 -0.0231  0.2651 -0.4939
12427SOL    HW138722   3.828   7.414   2.413  0.3446  1.0701 -1.0084
12427SOL    HW238723   3.925   7.298   2.426  2.2599  2.7462  0.3961
12428SOL     OW38724   4.399   0.800   3.551 -0.0416 -0.2629 -0.4002
12428SOL    HW138725   4.412   0.884   3.594 -1.1154 -0.2354 -0.0824
12428SOL    HW238726   4.479   0.785   3.501  0.5684  0.4701  0.3310
12429SOL     OW38727   6.390   1.994   3.688  0.3725 -0.0858 -0.0457
12429SOL    HW138728   6.342   1.916   3.660 -0.8834  0.6754 -0.0864
12429SOL    HW238729   6.356   2.014   3.775  1.2823 -0.0415  0.3184
12430SOL     OW38730   4.050   6.940   2.267  0.1133  0.3442 -0.3684
12430SOL    HW138731   4.085   7.018   2.311  0.9788 -0.6276  0.7167
12430SOL    HW238732   4.127   6.886   2.250 -0.5383 -0.5229 -0.6079
12431SOL     OW38733   3.869   7.659   2.261  0.6433 -0.2239 -0.4107
12431SOL    HW138734   3.883   7.703   2.345  1.8847 -1.5040  0.0874
12431SOL    HW238735   3.779   7.681   2.238  0.8327  1.5527  0.3967
12432SOL     OW38736   2.930   6.359   1.969  0.0818 -0.0520  0.5350
12432SOL    HW138737   2.953   6.266   1.964  0.1337 -0.0485  0.6931
12432SOL    HW238738   2.993   6.402   1.911 -1.6567 -0.3996 -1.7466
12433SOL     OW38739   5.368   0.600   1.868  0.1774  0.0231  0.3548
12433SOL    HW138740   5.441   0.563   1.919 -0.2110 -0.8356  0.2983
12433SOL    HW238741   5.301   0.618   1.933  0.1262  0.0266  0.3004
12434SOL     OW38742   3.217   0.098   2.748  0.2453 -0.1475 -0.1596
12434SOL    HW138743   3.203   0.105   2.843  1.2438 -5.7934  0.7959
12434SOL    HW238744   3.136   0.058   2.716  0.7443 -0.3074 -1.2433
12435SOL     OW38745   4.316   0.892   0.688 -0.7197 -0.2869  1.0017
12435SOL    HW138746   4.221   0.889   0.690 -0.7141 -0.6384  0.7915
12435SOL    HW238747   4.337   0.984   0.672 -1.0449 -0.4043 -0.1536
12436SOL     OW38748   3.700   0.466   1.060 -0.4322  0.5015  0.2962
12436SOL    HW138749   3.782   0.440   1.100 -0.8560 -1.1772  0.1453
12436SOL    HW238750   3.670   0.540   1.113  1.7219  1.9653 -0.3852
12437SOL     OW38751   3.679   0.622   3.653 -0.5056 -0.5554 -0.5124
12437SOL    HW138752   3.621   0.570   3.596  0.2170  0.0449 -1.8271
12437SOL    HW238753   3.659   0.713   3.632  0.7242 -0.3357 -0.8003
12438SOL     OW38754   3.032   1.252   2.773 -0.1664 -0.3795  0.2387
12438SOL    HW138755   2.989   1.308   2.838  0.4790  0.6195 -0.1618
12438SOL    HW238756   3.105   1.305   2.741 -0.5425 -0.7896 -1.4022
12439SOL     OW38757   4.798   7.491   3.009 -0.2513  0.1012 -0.0317
12439SOL    HW138758   4.854   7.559   3.047 -0.3319 -0.4568  1.0975
12439SOL    HW238759   4.716   7.497   3.057 -0.6334 -0.1161 -0.6387
12440SOL     OW38760   4.949   1.720   2.378  0.1113  0.3975 -0.5123
12440SOL    HW138761   5.040   1.696   2.356  0.5574  0.2354  1.3826
12440SOL    HW238762   4.903   1.716   2.294  1.2281 -2.3088 -1.1066
12441SOL     OW38763   5.246   2.262   3.525  0.0404  0.0155  0.8293
12441SOL    HW138764   5.325   2.224   3.566  0.8549  0.0266 -0.6572
12441SOL    HW238765   5.221   2.334   3.583  0.5915 -0.5557  1.8006
12442SOL     OW38766   4.298   7.733   2.788  0.1738 -0.1401 -0.3383
12442SOL    HW138767   4.228   7.675   2.761  0.3491 -1.2383  1.4010
12442SOL    HW238768   4.254   7.805   2.833  0.1082 -0.6571  0.4512
12443SOL     OW38769   3.689   7.971   2.310  0.0957 -0.6050 -0.6073
12443SOL    HW138770   3.650   7.886   2.333 -2.1662  0.0281 -1.7833
12443SOL    HW238771   3.688   8.021   2.391  0.6470 -1.4051 -0.0964
12444SOL     OW38772   4.693   1.520   2.712  0.0838  0.1211  0.5014
12444SOL    HW138773   4.733   1.593   2.664 -1.5500  0.6108 -0.2064
12444SOL    HW238774   4.602   1.548   2.724 -0.4957 -1.6800  0.4807
12445SOL     OW38775   6.732   0.607   3.712 -0.8170  0.0569  0.9134
12445SOL    HW138776   6.717   0.650   3.796 -2.8766  0.4689  0.4058
12445SOL    HW238777   6.666   0.645   3.654 -0.2162 -1.0712 -0.5794
12446SOL     OW38778   5.055   1.060   2.098 -0.1362 -0.3140  0.3095
12446SOL    HW138779   5.073   0.966   2.109  0.6687 -0.3221 -0.9196
12446SOL    HW238780   4.959   1.066   2.100 -0.2163 -1.2458 -0.1575
12447SOL     OW38781   3.966   2.689   2.131  0.3077  0.7648  0.3378
12447SOL    HW138782   4.042   2.653   2.178  2.1530 -1.0058 -3.5955
12447SOL    HW238783   3.991   2.780   2.111  1.1462  0.3924 -0.3613
12448SOL     OW38784   5.306   2.184   1.692  0.0540  0.0804 -0.0820
12448SOL    HW138785   5.395   2.177   1.656 -0.1500  1.4232 -0.9268
12448SOL    HW238786   5.315   2.154   1.783  1.0901 -1.0709 -0.5367
12449SOL     OW38787   4.262   7.809   3.434 -0.5510 -0.6299  0.4419
12449SOL    HW138788   4.311   7.876   3.386 -0.8140 -0.4126  0.4716
12449SOL    HW238789   4.251   7.738   3.371 -1.0440 -0.2739  0.1210
12450SOL     OW38790   4.351   2.518   3.384  0.1751 -0.3041  0.3642
12450SOL    HW138791   4.403   2.459   3.330 -0.6822 -0.4394 -0.3262
12450SOL    HW238792   4.267   2.525   3.339 -0.6604 -0.6063  1.8048
12451SOL     OW38793   2.822   1.394   1.183  0.0182  0.4734  0.2913
12451SOL    HW138794   2.863   1.342   1.113 -0.2879  0.8446 -0.1693
12451SOL    HW238795   2.729   1.378   1.171 -0.0352  0.5751  0.5916
12452SOL     OW38796   2.845   0.710   3.309 -0.2511  0.6761 -0.0284
12452SOL    HW138797   2.895   0.692   3.389  0.3662  1.8847 -0.1204
12452SOL    HW238798   2.757   0.731   3.340 -0.5075 -0.6699  0.1931
12453SOL     OW38799   4.836   0.879   2.502  0.2027  0.0070  0.2023
12453SOL    HW138800   4.774   0.873   2.575 -1.7405 -3.1332 -1.4661
12453SOL    HW238801   4.788   0.927   2.434  0.1777 -0.9882 -0.5111
12454SOL     OW38802   6.103   7.806   3.455 -0.2549 -0.0031  0.3821
12454SOL    HW138803   6.055   7.878   3.414  0.4814  0.7827  0.8476
12454SOL    HW238804   6.179   7.848   3.495  0.2480 -1.0643  0.5804
12455SOL     OW38805   3.881   0.575   1.727  0.1383 -0.5056  0.3563
12455SOL    HW138806   3.956   0.518   1.741  0.3465 -0.3029  0.0743
12455SOL    HW238807   3.910   0.637   1.660 -0.3035 -0.4688  0.1965
12456SOL     OW38808   4.090   1.203   3.772 -0.2537  0.1796  0.5559
12456SOL    HW138809   4.062   1.204   3.681  0.8106 -2.3620  0.1309
12456SOL    HW238810   4.184   1.222   3.769 -0.7453  3.5824  1.5344
12457SOL     OW38811   4.048   7.257   3.085 -0.2077 -0.4514  0.0801
12457SOL    HW138812   3.958   7.274   3.059 -0.8352  1.3196  2.9346
12457SOL    HW238813   4.045   7.251   3.181  2.6498 -0.7149  0.2496
12458SOL     OW38814   3.531   2.356   3.242 -0.0821  0.2560 -0.1369
12458SOL    HW138815   3.466   2.389   3.303  0.3055 -0.6257  0.7852
12458SOL    HW238816   3.606   2.415   3.252  0.8796 -1.1965  2.0256
12459SOL     OW38817   4.863   6.512   3.470  0.0316 -0.0969 -0.0308
12459SOL    HW138818   4.855   6.427   3.511  1.6608 -0.5560 -0.6008
12459SOL    HW238819   4.883   6.492   3.378 -0.0163  0.8982 -0.2679
12460SOL     OW38820   3.690   6.939   3.538 -0.1578  0.2895 -0.3563
12460SOL    HW138821   3.642   7.020   3.519 -0.2298  0.0269 -1.3505
12460SOL    HW238822   3.625   6.870   3.529 -0.4655  0.1924  1.9540
12461SOL     OW38823   3.051   1.158   3.298  0.1161  0.0928 -0.2819
12461SOL    HW138824   3.013   1.228   3.351  0.2246  1.5474 -2.0375
12461SOL    HW238825   3.100   1.203   3.230  1.5269 -1.7230 -0.5634
12462SOL     OW38826   4.348   2.903   2.937 -0.6914 -0.0019 -0.1092
12462SOL    HW138827   4.306   2.980   2.975 -0.3535 -0.2100  0.7219
12462SOL    HW238828   4.417   2.880   3.000 -0.0618 -0.3214 -0.8919
12463SOL     OW38829   4.196   7.315   3.422  0.0242 -0.1270  0.6670
12463SOL    HW138830   4.176   7.326   3.515 -0.2578 -0.3967  0.6426
12463SOL    HW238831   4.110   7.300   3.381  0.2707 -1.4981  0.5803
12464SOL     OW38832   4.569   0.871   3.094 -0.1576  0.8127 -0.1821
12464SOL    HW138833   4.478   0.896   3.106  0.0403  1.2491  0.4511
12464SOL    HW238834   4.609   0.882   3.181  0.0810 -1.1109  0.0073
12465SOL     OW38835   5.158   7.125   2.294 -0.1954  0.2054  0.1662
12465SOL    HW138836   5.217   7.195   2.265 -0.5272 -0.0200 -1.1052
12465SOL    HW238837   5.171   7.121   2.388  1.7624  0.2095 -0.0647
12466SOL     OW38838   3.565   7.402   1.896  0.6416  0.1149  0.4109
12466SOL    HW138839   3.561   7.359   1.810  0.6680  1.2351 -0.1683
12466SOL    HW238840   3.658   7.420   1.909  0.9670 -2.1961  1.7998
12467SOL     OW38841   5.290   1.365   3.487 -0.2500 -0.1444 -0.2143
12467SOL    HW138842   5.373   1.321   3.466  0.9490  1.4544  0.9063
12467SOL    HW238843   5.234   1.347   3.411  0.5765 -2.4947 -0.3592
12468SOL     OW38844   2.973   0.834   2.536  0.4729 -0.2710  0.4966
12468SOL    HW138845   3.012   0.752   2.506 -0.0438 -0.4142  0.2124
12468SOL    HW238846   3.046   0.880   2.579  0.8840 -0.6586  0.2314
12469SOL     OW38847   4.901   1.469   5.091 -0.1370 -0.2511  0.1647
12469SOL    HW138848   4.853   1.490   5.011 -0.2493  0.4285  0.4067
12469SOL    HW238849   4.956   1.546   5.107  0.3291 -0.6300  0.4143
12470SOL     OW38850   2.942   2.042   3.285 -0.0814  0.2922 -0.1106
12470SOL    HW138851   2.953   2.124   3.238 -0.5856  1.1267  1.1607
12470SOL    HW238852   3.030   2.022   3.318  0.2361 -0.2022 -1.2115
12471SOL     OW38853   2.362   2.197   4.172 -0.5479  0.0954  0.4376
12471SOL    HW138854   2.353   2.147   4.253  0.2625  0.1419  0.5650
12471SOL    HW238855   2.335   2.286   4.195 -2.5813 -0.3734  0.0621
12472SOL     OW38856   5.880   2.671   3.644 -0.1690 -0.6826 -0.0911
12472SOL    HW138857   5.815   2.735   3.673  0.8825  0.7245 -0.6993
12472SOL    HW238858   5.914   2.633   3.725 -0.4803 -0.1145  0.3193
12473SOL     OW38859   5.096   0.309   4.858 -0.2457 -0.0935 -0.1391
12473SOL    HW138860   5.028   0.352   4.910  1.0054  0.6660  0.9286
12473SOL    HW238861   5.163   0.283   4.922  0.9710  0.1514 -1.2617
12474SOL     OW38862   6.093   1.695   3.818  0.4316 -0.5958  0.1362
12474SOL    HW138863   6.032   1.626   3.844  0.0136  0.5110  2.3399
12474SOL    HW238864   6.160   1.650   3.765 -1.4187 -2.1025 -1.0414
12475SOL     OW38865   3.582   2.164   4.556 -0.3253  0.3806  0.2562
12475SOL    HW138866   3.501   2.209   4.580 -0.2444  0.4873  0.3280
12475SOL    HW238867   3.635   2.165   4.635  0.0374  0.9436  0.0081
12476SOL     OW38868   4.190   0.998   5.943 -0.6246 -0.1729 -0.3387
12476SOL    HW138869   4.210   1.067   5.880 -0.4554  1.3966  1.3354
12476SOL    HW238870   4.273   0.982   5.987 -0.9232 -0.5922  0.0763
12477SOL     OW38871   3.614   1.650   4.743  0.3324  0.0488  0.1421
12477SOL    HW138872   3.631   1.627   4.652 -0.8482 -0.8521  0.1250
12477SOL    HW238873   3.700   1.676   4.778  0.4798  2.3185 -1.7228
12478SOL     OW38874   4.016   0.887   4.919  0.9129  0.2310  0.7395
12478SOL    HW138875   3.972   0.850   4.995  0.4761  0.5617  0.6473
12478SOL    HW238876   4.025   0.980   4.939  1.7179  0.1483  0.8271
12479SOL     OW38877   4.751   1.565   4.854 -0.1732  0.1281  0.8039
12479SOL    HW138878   4.756   1.474   4.827 -1.5014  0.5786 -1.1796
12479SOL    HW238879   4.663   1.575   4.891 -0.9620  1.0710 -1.1750
12480SOL     OW38880   5.795   0.374   4.710  0.3625 -0.5997  0.6766
12480SOL    HW138881   5.762   0.417   4.631  3.9837 -1.8680 -1.7801
12480SOL    HW238882   5.740   0.296   4.719  0.5582 -1.0408 -1.3735
12481SOL     OW38883   5.211   1.618   4.378 -0.6795  0.5939 -0.3398
12481SOL    HW138884   5.265   1.695   4.394  0.0056 -0.1174  0.9075
12481SOL    HW238885   5.142   1.623   4.445 -1.4885  0.8698 -1.1727
12482SOL     OW38886   7.031   7.964   3.711  0.0028 -0.1453  0.3367
12482SOL    HW138887   7.022   7.947   3.617 -0.9097  0.0474  0.3840
12482SOL    HW238888   7.125   7.953   3.728  0.1620 -0.2916 -0.5731
12483SOL     OW38889   3.757   1.429   4.055 -0.0788  0.0601  0.2498
12483SOL    HW138890   3.803   1.509   4.028 -1.9735  1.0926 -0.0960
12483SOL    HW238891   3.826   1.364   4.063  1.4335  1.5140 -0.2800
12484SOL     OW38892   4.786   7.497   4.815 -0.0298  0.0692 -0.0207
12484SOL    HW138893   4.850   7.568   4.806 -1.0417  1.1802  1.2071
12484SOL    HW238894   4.817   7.446   4.890 -0.4381  0.4734  0.4296
12485SOL     OW38895   3.166   1.933   3.594  0.4133 -0.0936  0.4115
12485SOL    HW138896   3.181   1.980   3.512  1.2315 -0.5214  0.3054
12485SOL    HW238897   3.077   1.899   3.586  0.8543 -1.0324 -0.7627
12486SOL     OW38898   3.979   1.747   2.225 -0.0309  0.1710 -0.6993
12486SOL    HW138899   3.963   1.841   2.217 -1.3250 -0.1782 -2.8934
12486SOL    HW238900   4.074   1.739   2.236  0.0471  1.7222 -0.0522
12487SOL     OW38901   4.960   2.431   5.769 -0.1479 -0.3406  0.1822
12487SOL    HW138902   5.024   2.395   5.708 -1.1501  0.0504 -1.1341
12487SOL    HW238903   4.894   2.472   5.714 -0.0293  1.8817  1.5708
12488SOL     OW38904   4.793   0.783   2.956 -0.1046 -0.3660 -0.6397
12488SOL    HW138905   4.723   0.830   3.001 -0.0419 -1.4792  0.6883
12488SOL    HW238906   4.790   0.816   2.866  0.1594  2.3706  0.2714
12489SOL     OW38907   3.157   6.707   3.890  0.4400  0.6808 -0.2406
12489SOL    HW138908   3.165   6.635   3.952  0.1277 -0.3125 -1.3058
12489SOL    HW238909   3.246   6.724   3.860  0.4581  0.4137 -0.3380
12490SOL     OW38910   3.446   0.585   3.258  0.5369 -0.0535 -0.3005
12490SOL    HW138911   3.513   0.569   3.192  0.9843  0.0785  0.1193
12490SOL    HW238912   3.488   0.561   3.341  1.3255  3.3849  0.4246
12491SOL     OW38913   5.791   2.043   3.714  0.4990  0.3687  0.6058
12491SOL    HW138914   5.803   1.982   3.787 -0.0060  2.1675  2.2825
12491SOL    HW238915   5.745   2.118   3.752 -2.2951  0.2729 -2.1705
12492SOL     OW38916   3.685   1.796   2.312 -0.0622  0.2677 -0.0168
12492SOL    HW138917   3.721   1.880   2.337 -0.6843 -0.2311  2.8740
12492SOL    HW238918   3.754   1.733   2.332 -0.6189 -0.1604  0.6459
12493SOL     OW38919   5.298   0.341   5.490 -0.7824 -0.6439 -0.6364
12493SOL    HW138920   5.291   0.383   5.575  0.2454  0.0388 -0.8838
12493SOL    HW238921   5.375   0.285   5.496  1.1593  1.6898 -2.0333
12494SOL     OW38922   4.589   1.686   6.995  0.0738  0.7756  0.1194
12494SOL    HW138923   4.645   1.613   6.970  1.5667  1.8661  0.1332
12494SOL    HW238924   4.547   1.712   6.913 -2.7085 -1.7825  0.5467
12495SOL     OW38925   2.980   0.552   4.860 -0.2517 -0.0618  0.1345
12495SOL    HW138926   2.997   0.640   4.827 -1.4348  0.8998  1.9167
12495SOL    HW238927   3.061   0.503   4.842  1.3792  2.0634  1.2501
12496SOL     OW38928   4.979   1.934   4.358 -0.2018  0.4649 -0.0032
12496SOL    HW138929   4.932   1.966   4.280 -0.2367  0.7956  0.1504
12496SOL    HW238930   5.066   1.972   4.350 -1.0519  3.0336  1.6246
12497SOL     OW38931   4.325   0.955   3.169 -0.3752  0.1104 -0.3408
12497SOL    HW138932   4.341   0.986   3.258  0.3678 -0.3804 -0.2954
12497SOL    HW238933   4.234   0.980   3.151  0.5420  3.5531 -0.8383
12498SOL     OW38934   3.230   1.487   4.243  0.1376  0.2035  0.1848
12498SOL    HW138935   3.142   1.450   4.243 -0.0696  0.5144 -2.4891
12498SOL    HW238936   3.218   1.580   4.222  1.0973  0.1149 -0.8827
12499SOL     OW38937   5.153   0.300   4.105 -0.0470 -0.9763  0.1694
12499SOL    HW138938   5.076   0.243   4.105  0.8278 -2.2336  1.0555
12499SOL    HW238939   5.123   0.382   4.066 -1.9942 -1.1900  1.1027
12500SOL     OW38940   4.529   7.091   4.020 -0.0458 -0.3065 -0.4350
12500SOL    HW138941   4.596   7.146   3.980 -0.2784  0.2336 -0.0901
12500SOL    HW238942   4.446   7.125   3.985 -0.2310 -0.0240  0.2820
12501SOL     OW38943   5.906   1.428   4.438  0.2427 -0.0967 -0.0796
12501SOL    HW138944   5.813   1.446   4.423  0.1698 -0.6174 -0.2985
12501SOL    HW238945   5.924   1.465   4.525 -0.0497  0.4249 -0.2380
12502SOL     OW38946   3.779   0.648   5.641  0.2319 -0.0030  0.3164
12502SOL    HW138947   3.700   0.684   5.600  0.5248 -1.4760 -1.6995
12502SOL    HW238948   3.749   0.569   5.686  0.8429 -2.1742 -2.8023
12503SOL     OW38949   5.340   0.461   6.003  0.0640  0.0016 -0.0190
12503SOL    HW138950   5.334   0.394   6.071  0.7427 -1.9421 -1.7882
12503SOL    HW238951   5.406   0.428   5.942  0.1126  2.0941 -1.2124
12504SOL     OW38952   5.838   1.873   3.901 -0.2078  0.3620 -0.4110
12504SOL    HW138953   5.803   1.791   3.866 -1.7158  0.2096  1.3211
12504SOL    HW238954   5.932   1.856   3.913 -0.5636 -1.2650  0.3015
12505SOL     OW38955   3.286   7.915   4.134  0.1801  0.0897 -0.5338
12505SOL    HW138956   3.326   7.860   4.067 -1.0169  0.1597 -1.3322
12505SOL    HW238957   3.268   7.856   4.206 -0.6689 -0.4789 -1.1998
12506SOL     OW38958   6.311   0.892   4.121 -0.0399 -0.0234  0.2994
12506SOL    HW138959   6.360   0.914   4.042 -0.2542 -0.5727  0.0011
12506SOL    HW238960   6.219   0.896   4.095 -0.1201  0.0314  0.5835
12507SOL     OW38961   5.030   1.400   3.649  0.3144 -0.2727  0.4799
12507SOL    HW138962   4.994   1.414   3.562  0.5046 -1.2541  0.2330
12507SOL    HW238963   4.991   1.469   3.703  2.3798  2.1797 -0.9465
12508SOL     OW38964   4.331   1.275   5.283  0.3276  0.2703 -0.0014
12508SOL    HW138965   4.356   1.351   5.335 -0.1088 -0.7188  1.7100
12508SOL    HW238966   4.389   1.205   5.314  0.5451 -0.1796 -1.3690
12509SOL     OW38967   3.698   0.861   3.916 -0.6276  0.3012 -0.5131
12509SOL    HW138968   3.728   0.834   4.003 -0.4951  0.3690 -0.5373
12509SOL    HW238969   3.613   0.902   3.931 -0.5148  0.4922 -0.3895
12510SOL     OW38970   4.575   0.263   5.605 -0.0222  0.2780 -0.0101
12510SOL    HW138971   4.650   0.240   5.551  0.9629  0.8101  1.0788
12510SOL    HW238972   4.500   0.255   5.547  0.5655 -2.6302 -0.5011
12511SOL     OW38973   4.948   6.464   6.209 -0.5779  0.1218 -0.5955
12511SOL    HW138974   4.860   6.496   6.228  0.1074  0.4954  2.5806
12511SOL    HW238975   4.988   6.533   6.155 -1.0914  1.7814  1.0359
12512SOL     OW38976   3.708   1.130   5.145 -0.3468 -0.6199  0.0674
12512SOL    HW138977   3.625   1.113   5.101 -1.1912  1.0156  0.9309
12512SOL    HW238978   3.727   1.049   5.192 -1.0449 -1.2815 -0.7470
12513SOL     OW38979   4.115   1.891   3.152  0.0906 -0.1346 -0.1988
12513SOL    HW138980   4.086   1.969   3.198 -0.2784 -0.8418  0.7884
12513SOL    HW238981   4.193   1.862   3.199 -0.1719 -0.7532 -0.1357
12514SOL     OW38982   4.386   0.563   5.449  0.5004  0.3338  0.3604
12514SOL    HW138983   4.341   0.599   5.526  1.5165 -0.0140  1.1444
12514SOL    HW238984   4.478   0.586   5.463  0.4442  2.4200 -1.9728
12515SOL     OW38985   3.099   7.865   3.306  0.1409  0.3616 -0.0468
12515SOL    HW138986   3.075   7.796   3.368 -3.5235 -0.8113 -2.4280
12515SOL    HW238987   3.195   7.862   3.303  0.3418 -1.5449  3.1766
12516SOL     OW38988   3.603   6.903   4.381 -0.3289 -0.3315 -0.3990
12516SOL    HW138989   3.679   6.852   4.355  1.2148  0.8924  1.4430
12516SOL    HW238990   3.540   6.889   4.310  1.2386 -2.1049 -1.5540
12517SOL     OW38991   5.013   2.657   4.742  0.2287  0.3804 -0.8083
12517SOL    HW138992   5.014   2.616   4.829  0.3853 -1.1462 -1.5040
12517SOL    HW238993   4.999   2.750   4.760  2.3499  0.4377  0.9655
12518SOL     OW38994   4.183   0.450   3.990 -0.9395  0.6198 -0.1429
12518SOL    HW138995   4.180   0.535   3.946  0.1201 -0.5042 -2.6382
12518SOL    HW238996   4.268   0.414   3.965 -0.5789 -0.4441  2.3784
12519SOL     OW38997   4.318   1.782   3.728 -0.1887 -0.0086 -0.4945
12519SOL    HW138998   4.337   1.747   3.815 -0.7889 -0.7816 -0.6611
12519SOL    HW238999   4.283   1.869   3.744  0.1578  0.0406  0.0061
12520SOL     OW39000   3.733   1.986   4.733 -0.9897  0.0375 -0.1321
12520SOL    HW139001   3.776   1.901   4.743 -1.7014 -0.0577  3.4449
12520SOL    HW239002   3.801   2.050   4.756 -1.2549  0.2223  0.1413
12521SOL     OW39003   5.209   1.340   4.338 -0.2975  0.6711  0.5974
12521SOL    HW139004   5.250   1.426   4.340  0.5375  0.3641 -1.0196
12521SOL    HW239005   5.280   1.280   4.315 -0.8680 -0.4615  1.6291
12522SOL     OW39006   4.712   1.919   5.209  0.6237 -0.2504  0.0261
12522SOL    HW139007   4.666   2.002   5.226  0.1977 -0.3808 -0.4744
12522SOL    HW239008   4.763   1.935   5.130  0.8133 -0.3584  0.1262
12523SOL     OW39009   3.754   1.132   4.281  0.5212  0.1963 -0.4453
12523SOL    HW139010   3.695   1.150   4.208 -0.2555  0.0817  0.1423
12523SOL    HW239011   3.709   1.065   4.333  0.9771  0.4021  0.2352
12524SOL     OW39012   5.351   2.332   5.792  0.0409 -0.3743 -0.0076
12524SOL    HW139013   5.320   2.416   5.759 -2.2771 -1.2849 -0.3384
12524SOL    HW239014   5.358   2.277   5.713  0.7668 -0.7276  0.2951
12525SOL     OW39015   3.514   2.290   5.945  0.0609 -0.4245  0.1286
12525SOL    HW139016   3.583   2.265   5.884  0.0348 -1.0129  0.3359
12525SOL    HW239017   3.548   2.369   5.988  0.1057 -0.0415 -0.5855
12526SOL     OW39018   5.726   2.741   5.603  0.4507 -0.1689  0.0325
12526SOL    HW139019   5.641   2.698   5.597  0.1314  0.4184  0.2206
12526SOL    HW239020   5.768   2.702   5.680  0.5571 -0.8069 -0.3451
12527SOL     OW39021   2.670   0.866   4.967 -0.1733 -0.0404 -0.8461
12527SOL    HW139022   2.638   0.826   4.885 -0.6384 -2.3220  0.3555
12527SOL    HW239023   2.607   0.935   4.986 -2.5842 -2.2379 -0.2944
12528SOL     OW39024   6.245   2.414   3.799  0.1323 -0.4140 -0.6697
12528SOL    HW139025   6.189   2.338   3.813 -0.9274  0.1606 -1.6266
12528SOL    HW239026   6.246   2.427   3.704  0.2773  0.7700 -0.5273
12529SOL     OW39027   2.611   3.479   4.413  0.3675  0.0100  0.1634
12529SOL    HW139028   2.635   3.456   4.503  1.0372 -1.7834 -0.4348
12529SOL    HW239029   2.624   3.574   4.408 -0.6418  0.3001  2.2158
12530SOL     OW39030   4.704   0.706   4.790 -0.3928  0.2797  0.1769
12530SOL    HW139031   4.753   0.736   4.713  1.7759 -1.1806  0.8917
12530SOL    HW239032   4.770   0.698   4.859 -1.6765 -1.5392  1.2858
12531SOL     OW39033   3.877   3.218   4.843  0.5288 -0.4336 -0.0585
12531SOL    HW139034   3.939   3.171   4.899 -0.4536 -0.2981  1.2084
12531SOL    HW239035   3.796   3.219   4.894  0.0207  1.0444 -0.8401
12532SOL     OW39036   4.359   1.456   5.056  0.0489  0.2579 -0.0902
12532SOL    HW139037   4.450   1.479   5.079 -0.4297  0.3275  1.9757
12532SOL    HW239038   4.344   1.373   5.100 -0.6674 -0.1491 -1.0740
12533SOL     OW39039   4.551   7.937   3.015  0.5743 -0.1903 -0.5947
12533SOL    HW139040   4.638   7.976   3.023  1.0257 -0.7983 -2.0967
12533SOL    HW239041   4.555   7.888   2.933 -0.9969 -0.7376 -0.3703
12534SOL     OW39042   5.327   0.137   5.861  0.0490  0.2256 -0.4951
12534SOL    HW139043   5.269   0.170   5.791 -0.9928  0.0394  0.2540
12534SOL    HW239044   5.268   0.091   5.920  0.8744  0.6638  0.6908
12535SOL     OW39045   5.373   1.235   2.165  0.8667  0.4219 -0.1353
12535SOL    HW139046   5.339   1.146   2.177  4.2056 -0.7791  1.8769
12535SOL    HW239047   5.306   1.291   2.204  0.6858 -1.6736  2.9388
12536SOL     OW39048   5.080   7.784   7.054  0.2683 -0.0653  0.4483
12536SOL    HW139049   5.166   7.743   7.052 -1.0130 -2.9742 -0.6161
12536SOL    HW239050   5.075   7.833   6.972  0.8863  0.1043  0.5070
12537SOL     OW39051   4.249   1.945   4.763 -0.5908  0.0639 -0.0784
12537SOL    HW139052   4.229   1.904   4.679 -0.1862 -0.6460  0.1626
12537SOL    HW239053   4.186   2.017   4.771 -1.9229 -1.0591 -0.1055
12538SOL     OW39054   5.781   0.737   6.227  0.6103  0.4025  0.2236
12538SOL    HW139055   5.846   0.788   6.276 -0.6412  1.8265  0.4814
12538SOL    HW239056   5.705   0.733   6.286  0.5795 -1.5931  0.1077
12539SOL     OW39057   7.402   7.897   3.380 -0.3732  0.2826 -0.5134
12539SOL    HW139058   7.370   7.909   3.469 -0.1740  0.8141 -0.5111
12539SOL    HW239059   7.370   7.810   3.354  0.7165 -0.4564  0.5472
12540SOL     OW39060   3.819   1.572   5.262  0.5468 -0.1506  0.4845
12540SOL    HW139061   3.910   1.601   5.254  0.6419 -0.4482  0.4996
12540SOL    HW239062   3.768   1.648   5.233  0.8312 -0.4227 -0.8052
12541SOL     OW39063   3.370   1.483   3.111 -0.1205  0.7006 -0.2120
12541SOL    HW139064   3.439   1.512   3.170 -0.1556  1.5867 -0.5821
12541SOL    HW239065   3.411   1.415   3.058  0.5890  1.4379 -0.6476
12542SOL     OW39066   4.560   1.784   3.919  0.1533  0.6407  0.6462
12542SOL    HW139067   4.591   1.699   3.951  0.1476  0.6628  0.7104
12542SOL    HW239068   4.543   1.835   3.998  0.4502  0.8061  0.6027
12543SOL     OW39069   1.544   7.801   4.158  0.2754 -0.3159 -0.6838
12543SOL    HW139070   1.639   7.812   4.164  0.1896 -0.1053  0.5860
12543SOL    HW239071   1.509   7.858   4.226 -0.8473  0.5755 -1.9406
12544SOL     OW39072   4.249   7.248   6.086 -0.2581  0.0682 -0.1304
12544SOL    HW139073   4.343   7.245   6.106 -0.4606  0.8011  1.0284
12544SOL    HW239074   4.225   7.340   6.096 -1.3599 -0.3036  0.9566
12545SOL     OW39075   5.043   0.350   5.391 -0.0115  0.1540  0.1933
12545SOL    HW139076   5.134   0.339   5.418  0.8971  1.6282 -1.9895
12545SOL    HW239077   5.037   0.305   5.306 -0.9936  1.0081 -0.2179
12546SOL     OW39078   4.974   1.217   3.944 -0.0272  0.2746  0.3793
12546SOL    HW139079   5.027   1.137   3.937  0.4405  0.3995  1.9770
12546SOL    HW239080   5.038   1.288   3.932 -0.2519  0.4092 -0.0058
12547SOL     OW39081   4.082   1.513   3.735  0.4617 -0.2661 -0.6161
12547SOL    HW139082   4.037   1.546   3.814  1.3040  0.4966 -0.4372
12547SOL    HW239083   4.038   1.430   3.716  0.1709 -0.4179  0.5989
12548SOL     OW39084   7.044   2.236   5.159  0.4769 -0.2074 -0.2209
12548SOL    HW139085   6.964   2.214   5.206  0.8963 -0.5347  0.3468
12548SOL    HW239086   7.112   2.181   5.198  0.9144 -0.1972 -0.9354
12549SOL     OW39087   3.303   0.534   2.878  0.2045  0.3248 -0.3648
12549SOL    HW139088   3.356   0.456   2.896  0.2999  0.8644  1.9461
12549SOL    HW239089   3.354   0.584   2.814  2.1108  0.3975  1.1432
12550SOL     OW39090   3.173   1.776   4.624  0.7077  0.2514 -0.1907
12550SOL    HW139091   3.139   1.732   4.702 -2.2572 -1.6301 -2.3323
12550SOL    HW239092   3.248   1.723   4.597  1.1668  0.3755  0.7882
12551SOL     OW39093   3.484   0.483   4.470 -0.1722  0.4893  0.1735
12551SOL    HW139094   3.523   0.486   4.383 -0.3376 -0.6580  0.0527
12551SOL    HW239095   3.411   0.545   4.466  1.5607  2.7086  0.4059
12552SOL     OW39096   3.847   7.216   4.311 -0.4083  0.6540 -0.5827
12552SOL    HW139097   3.807   7.205   4.397  1.2470 -1.2006  0.0214
12552SOL    HW239098   3.868   7.310   4.306  3.9698  0.2397  3.2960
12553SOL     OW39099   2.989   7.651   2.758 -0.0435  0.5030  0.4491
12553SOL    HW139100   2.904   7.653   2.802  0.7624  3.0453  2.1012
12553SOL    HW239101   3.050   7.618   2.825  0.3066 -1.5478 -0.7887
12554SOL     OW39102   3.851   2.190   4.446  0.0602 -0.3005  0.2281
12554SOL    HW139103   3.783   2.193   4.514  0.2935 -0.7562  0.4848
12554SOL    HW239104   3.803   2.185   4.364 -0.2208 -0.3385  0.3938
12555SOL     OW39105   4.675   6.128   4.829 -0.2147 -0.4538  0.3317
12555SOL    HW139106   4.599   6.078   4.799 -0.0285 -0.9193  0.6222
12555SOL    HW239107   4.648   6.220   4.820 -0.4051 -0.5839 -0.6180
12556SOL     OW39108   4.449   1.146   4.687 -0.9021  0.4971 -0.1467
12556SOL    HW139109   4.471   1.065   4.732 -0.8373  0.4259 -0.3076
12556SOL    HW239110   4.418   1.204   4.756 -1.1840  0.2519 -0.0658
12557SOL     OW39111   4.677   1.422   4.373  0.0571 -0.1335  0.5979
12557SOL    HW139112   4.716   1.500   4.412  0.7337  0.1107 -0.5364
12557SOL    HW239113   4.724   1.410   4.291 -1.2698 -0.6861 -0.1053
12558SOL     OW39114   5.428   0.286   4.800  0.0751  0.1295  0.1041
12558SOL    HW139115   5.398   0.245   4.719  0.6378  0.7063 -0.4082
12558SOL    HW239116   5.370   0.250   4.867 -1.3879  0.7709 -0.7616
12559SOL     OW39117   3.314   2.190   3.459 -0.4834  0.2353  0.0301
12559SOL    HW139118   3.399   2.184   3.503 -1.1027 -0.6075  1.1950
12559SOL    HW239119   3.251   2.202   3.531 -1.1067  4.5003 -0.9754
12560SOL     OW39120   4.207   7.670   5.491  0.2567 -0.5597 -0.3352
12560SOL    HW139121   4.228   7.599   5.429  0.4948 -1.1835  0.4464
12560SOL    HW239122   4.292   7.703   5.519  0.1470  0.0068 -0.6444
12561SOL     OW39123   5.299   0.524   5.710  0.4238 -0.1182 -0.4625
12561SOL    HW139124   5.389   0.493   5.707  0.8029  0.9013 -0.0326
12561SOL    HW239125   5.272   0.514   5.802 -0.1292 -0.9869 -0.6966
12562SOL     OW39126   5.094   2.483   7.133  0.3218  0.3228  0.1463
12562SOL    HW139127   5.190   2.476   7.134  0.1894 -2.3455  0.3761
12562SOL    HW239128   5.069   2.485   7.225  0.1050  0.4905  0.0845
12563SOL     OW39129   4.554   0.914   4.799 -0.4106 -0.3574 -0.1190
12563SOL    HW139130   4.485   0.908   4.865  0.7441  1.1031  1.2705
12563SOL    HW239131   4.590   0.825   4.794 -0.6400 -0.5287  1.0941
12564SOL     OW39132   4.859   6.918   4.030  0.3278  0.0134  0.2186
12564SOL    HW139133   4.876   6.847   3.968  1.2464 -0.8438  1.4012
12564SOL    HW239134   4.881   6.881   4.115 -1.0681  1.1048  1.1001
12565SOL     OW39135   2.664   2.176   3.380 -0.5985 -0.0682 -0.0087
12565SOL    HW139136   2.717   2.254   3.397 -1.1838 -0.3924  4.7934
12565SOL    HW239137   2.725   2.103   3.389 -1.0854 -0.2962  1.8878
12566SOL     OW39138   5.190   0.040   5.347  0.7137  0.8078 -0.3392
12566SOL    HW139139   5.198  -0.054   5.358  0.2554  0.7791 -0.2348
12566SOL    HW239140   5.133   0.051   5.271  2.8527  1.0075 -2.0220
12567SOL     OW39141   3.898   0.237   2.091  0.1923 -0.0346 -0.5244
12567SOL    HW139142   3.845   0.163   2.060  0.9200  0.0478 -2.0357
12567SOL    HW239143   3.941   0.204   2.170 -0.0972 -0.9673 -0.7446
12568SOL     OW39144   4.530   1.695   4.931  0.1290  0.3745 -0.6020
12568SOL    HW139145   4.546   1.787   4.912  0.0120  0.4264 -0.4528
12568SOL    HW239146   4.494   1.695   5.020  1.7345  0.0386  0.0801
12569SOL     OW39147   4.826   0.398   4.079  0.1630 -0.2974 -0.2068
12569SOL    HW139148   4.732   0.382   4.070  0.0567  1.0687 -2.0634
12569SOL    HW239149   4.861   0.392   3.990  1.7144 -0.0555  0.3507
12570SOL     OW39150   5.202   2.565   5.756 -0.5894 -0.3293 -0.0526
12570SOL    HW139151   5.145   2.511   5.810 -0.9443  0.7999  0.7192
12570SOL    HW239152   5.147   2.636   5.725 -0.1566 -0.4502 -1.1679
12571SOL     OW39153   3.543   1.211   3.484 -0.1678  0.3993  0.1962
12571SOL    HW139154   3.597   1.268   3.429  0.2023 -0.8878 -0.8359
12571SOL    HW239155   3.479   1.173   3.423  0.9696 -1.9369  0.3529
12572SOL     OW39156   3.925   0.156   3.042  0.8327  0.3987  0.1451
12572SOL    HW139157   3.971   0.213   3.104  1.4378 -0.4845  0.5121
12572SOL    HW239158   3.995   0.113   2.993  0.4620 -1.5659  1.2415
12573SOL     OW39159   5.680   1.956   4.129 -0.3685 -0.9283 -1.0482
12573SOL    HW139160   5.747   1.925   4.189 -0.2835  1.2981  0.1449
12573SOL    HW239161   5.723   1.961   4.044  0.6424 -0.6984 -0.5429
12574SOL     OW39162   4.450   0.883   4.476 -0.1370  0.1724 -0.0516
12574SOL    HW139163   4.464   0.975   4.499  0.3574 -0.0654  0.6285
12574SOL    HW239164   4.374   0.857   4.528  0.8550 -0.3073  1.2110
12575SOL     OW39165   5.831   7.064   3.821 -1.1819  0.5377  0.3503
12575SOL    HW139166   5.917   7.033   3.792  0.0473  2.1609  2.0096
12575SOL    HW239167   5.791   7.101   3.743  0.7364  2.0363  0.0033
12576SOL     OW39168   3.953   2.494   4.548 -0.3099  0.3794 -0.0515
12576SOL    HW139169   3.987   2.581   4.525  1.5842 -0.7219 -1.7980
12576SOL    HW239170   3.966   2.487   4.642  1.4181  1.2824 -0.1750
12577SOL     OW39171   3.143   7.381   5.267 -0.3553 -0.0333 -0.4316
12577SOL    HW139172   3.160   7.319   5.196  3.3320  1.0754 -0.7129
12577SOL    HW239173   3.138   7.467   5.224  0.0635  0.4520  0.4541
12578SOL     OW39174   6.879   0.792   6.569  0.3259 -0.4587  0.8388
12578SOL    HW139175   6.971   0.775   6.547  0.1883  0.5910 -0.7106
12578SOL    HW239176   6.850   0.712   6.612  1.7337 -1.1340  0.6056
12579SOL     OW39177   4.605   0.529   5.231 -0.0197 -0.0209 -0.4352
12579SOL    HW139178   4.557   0.523   5.148  0.9100  0.4409 -1.0291
12579SOL    HW239179   4.577   0.452   5.281  1.4385 -1.9275 -2.2994
12580SOL     OW39180   4.297   7.010   6.224  0.1798  0.1620 -0.1876
12580SOL    HW139181   4.250   7.056   6.154 -2.6220 -0.7478  0.9420
12580SOL    HW239182   4.266   7.051   6.305  0.8620 -0.9208  0.6552
12581SOL     OW39183   4.147   1.073   4.495 -0.4015 -0.6421 -0.9826
12581SOL    HW139184   4.070   1.113   4.536 -0.3885  0.7908 -2.2416
12581SOL    HW239185   4.196   1.034   4.567 -0.2600  1.9497  0.4227
12582SOL     OW39186   3.584   1.490   4.250 -0.2991  0.2240  0.4944
12582SOL    HW139187   3.651   1.462   4.187 -1.0425  1.3047 -0.8275
12582SOL    HW239188   3.505   1.503   4.198 -1.3843 -0.3575  1.9200
12583SOL     OW39189   3.414   1.380   5.489 -0.0075  0.2894  0.2206
12583SOL    HW139190   3.434   1.463   5.446 -1.2272 -0.2064 -1.4061
12583SOL    HW239191   3.489   1.324   5.471  0.5216  0.8090  0.7614
12584SOL     OW39192   5.932   1.427   3.343 -0.4042 -0.0841  1.2146
12584SOL    HW139193   5.983   1.351   3.316 -0.3633  0.2921  0.1862
12584SOL    HW239194   5.904   1.407   3.433 -3.6886 -3.1229 -0.2401
12585SOL     OW39195   5.629   1.677   5.324 -0.1817 -0.2163  0.3511
12585SOL    HW139196   5.652   1.769   5.308 -0.3076  0.0694  1.7403
12585SOL    HW239197   5.658   1.632   5.244  2.3167  0.6148  0.6897
12586SOL     OW39198   2.410   0.370   4.489 -0.3578 -0.0441  0.5668
12586SOL    HW139199   2.427   0.454   4.447 -0.6805 -0.4851 -0.4641
12586SOL    HW239200   2.323   0.344   4.458 -0.0925 -0.9464  0.5519
12587SOL     OW39201   5.070   0.433   2.892 -0.6759  0.1527 -0.8141
12587SOL    HW139202   5.120   0.514   2.879 -1.7029  1.1261  0.8245
12587SOL    HW239203   4.988   0.463   2.931 -1.3093 -1.6615 -0.6870
12588SOL     OW39204   3.181   1.659   2.954 -0.4857 -0.1884 -0.0627
12588SOL    HW139205   3.256   1.601   2.940 -0.0165  0.0298  1.4308
12588SOL    HW239206   3.143   1.631   3.037 -0.7667  1.1046  0.2644
12589SOL     OW39207   3.160   7.076   6.490  0.5353 -0.0000 -0.1358
12589SOL    HW139208   3.252   7.074   6.519  0.9614  0.6269 -1.3722
12589SOL    HW239209   3.166   7.073   6.395 -0.6762  1.6725 -0.2955
12590SOL     OW39210   5.128   1.356   5.247  0.2532 -0.4278  0.4392
12590SOL    HW139211   5.156   1.264   5.246  1.2851 -0.1469 -1.3222
12590SOL    HW239212   5.169   1.394   5.168 -1.9721  1.0012 -0.1105
12591SOL     OW39213   2.226   2.769   3.055  0.0352  0.5863 -0.4959
12591SOL    HW139214   2.252   2.801   2.969  0.9687  1.6722  0.1782
12591SOL    HW239215   2.301   2.718   3.086 -0.2088  0.3863 -0.2245
12592SOL     OW39216   6.232   6.807   4.150  0.6308 -0.2132  0.1583
12592SOL    HW139217   6.205   6.825   4.240 -0.2591  0.0492 -0.1499
12592SOL    HW239218   6.254   6.892   4.114 -1.0327 -0.0313 -0.4964
12593SOL     OW39219   3.359   1.496   3.760 -0.1763  0.2896  0.2038
12593SOL    HW139220   3.444   1.462   3.790  0.0877  2.0910  1.6825
12593SOL    HW239221   3.382   1.560   3.693 -0.4641 -0.0502 -0.2247
12594SOL     OW39222   5.837   2.319   4.585 -0.3867  0.5142  0.4592
12594SOL    HW139223   5.882   2.278   4.511 -0.6227  0.4777  0.3367
12594SOL    HW239224   5.820   2.409   4.557  0.6047  0.8662  0.9250
12595SOL     OW39225   4.161   1.311   1.937 -0.5488 -0.6386  0.0682
12595SOL    HW139226   4.221   1.240   1.960 -0.1450 -1.3654 -2.7878
12595SOL    HW239227   4.084   1.266   1.901 -1.0450  0.3355 -0.1228
12596SOL     OW39228   4.105   7.913   4.612  0.3718 -0.2294  0.5449
12596SOL    HW139229   4.126   7.821   4.593  0.4953 -0.0555 -0.1655
12596SOL    HW239230   4.020   7.928   4.571  0.4525  0.0319  0.4695
12597SOL     OW39231   2.932   0.617   5.982 -0.0166 -0.6056 -0.1154
12597SOL    HW139232   3.014   0.591   6.023  0.7511  0.1309 -1.1412
12597SOL    HW239233   2.885   0.664   6.051  1.0034  0.1287  0.0966
12598SOL     OW39234   3.202   0.278   6.076  0.7621  0.0370  0.9280
12598SOL    HW139235   3.134   0.335   6.112 -1.1020 -2.1661  1.1645
12598SOL    HW239236   3.231   0.322   5.996 -0.5535  1.3241  1.1209
12599SOL     OW39237   4.021   1.234   4.261 -0.0265 -0.1822  0.1401
12599SOL    HW139238   4.002   1.227   4.168 -2.8081 -1.4798  0.6957
12599SOL    HW239239   3.962   1.171   4.302  1.2617  0.1898  2.7914
12600SOL     OW39240   3.683   3.442   4.163  0.1138  0.1619 -0.0655
12600SOL    HW139241   3.690   3.470   4.254  0.3500  0.2180 -0.1015
12600SOL    HW239242   3.635   3.360   4.167 -0.7268  0.6453  0.0324
12601SOL     OW39243   3.562   0.753   4.353  0.4723 -0.3353 -0.3012
12601SOL    HW139244   3.564   0.842   4.387  0.1046 -1.0206  1.6447
12601SOL    HW239245   3.474   0.721   4.373 -0.4836 -0.2304 -3.6437
12602SOL     OW39246   4.140   0.617   4.454  0.4376  0.5929  0.1161
12602SOL    HW139247   4.115   0.525   4.458  1.8244  0.2104  0.6209
12602SOL    HW239248   4.121   0.651   4.542 -1.2505  1.1395 -0.4285
12603SOL     OW39249   4.368   0.300   5.420 -0.1433 -0.3372 -0.0705
12603SOL    HW139250   4.365   0.396   5.424 -0.2586 -0.3423 -0.0499
12603SOL    HW239251   4.293   0.275   5.366 -0.0641 -0.4115 -0.1461
12604SOL     OW39252   4.085   7.870   4.903 -0.2475 -0.1676 -0.3162
12604SOL    HW139253   4.021   7.835   4.841  0.3303  0.2609 -1.1899
12604SOL    HW239254   4.111   7.795   4.956 -1.5448 -0.3240  0.1312
12605SOL     OW39255   4.995   0.362   5.678 -0.2282  0.4835  0.0132
12605SOL    HW139256   4.996   0.387   5.586 -2.2014 -0.2748 -0.2664
12605SOL    HW239257   5.044   0.280   5.681 -2.1597 -0.7562 -0.8286
12606SOL     OW39258   5.732   2.220   4.232  0.0416  0.3185  0.2080
12606SOL    HW139259   5.670   2.231   4.304  1.9794  1.5254  1.7915
12606SOL    HW239260   5.713   2.133   4.198 -1.4800  0.0326  1.6472
12607SOL     OW39261   5.358   1.656   3.318 -0.2528  0.6166  0.0402
12607SOL    HW139262   5.329   1.565   3.311  1.6751 -0.1392  1.1801
12607SOL    HW239263   5.296   1.696   3.379 -0.3885 -0.2717  0.5030
12608SOL     OW39264   5.782   2.972   3.562 -0.0204  0.6578  0.6185
12608SOL    HW139265   5.754   2.915   3.634  0.0226 -0.0624  0.0720
12608SOL    HW239266   5.790   2.914   3.487  2.9929  0.7763  0.7237
12609SOL     OW39267   4.132   0.520   6.075 -0.0885  0.4324 -0.0175
12609SOL    HW139268   4.151   0.491   5.986  0.7911  0.0706  0.2772
12609SOL    HW239269   4.169   0.453   6.131 -1.4334  0.1941  0.6284
12610SOL     OW39270   4.243   2.560   6.400  0.2340 -0.4509 -0.1633
12610SOL    HW139271   4.258   2.481   6.453 -0.9265 -0.0279  0.8664
12610SOL    HW239272   4.299   2.627   6.440  0.1991 -0.4145 -0.1750
12611SOL     OW39273   3.979   7.683   1.989  0.1159  0.0929 -0.2011
12611SOL    HW139274   3.951   7.609   2.043  1.9801 -0.4455  0.0875
12611SOL    HW239275   4.000   7.752   2.052 -0.9388  0.6622 -0.4385
12612SOL     OW39276   5.026   0.467   4.651  0.7727  0.4754  0.6461
12612SOL    HW139277   5.075   0.427   4.724 -0.0627 -0.3013  0.8087
12612SOL    HW239278   4.937   0.431   4.660  0.2819  1.5094  0.1007
12613SOL     OW39279   3.770   1.543   6.179 -0.5302 -0.0646 -0.3457
12613SOL    HW139280   3.744   1.452   6.195 -1.2240 -0.0422 -1.2326
12613SOL    HW239281   3.750   1.558   6.087 -1.0595  1.1857 -0.0603
12614SOL     OW39282   6.245   0.791   4.924  0.0399 -0.2440 -0.3946
12614SOL    HW139283   6.186   0.784   4.998 -0.7417  0.4105 -0.9431
12614SOL    HW239284   6.315   0.728   4.943 -0.3752 -0.3980  0.6727
12615SOL     OW39285   6.029   0.342   4.504  1.0929  0.2522 -0.5029
12615SOL    HW139286   6.042   0.427   4.463  1.4630 -0.6531 -2.3479
12615SOL    HW239287   5.939   0.345   4.537  1.8717  2.2274  1.7368
12616SOL     OW39288   4.639   1.490   5.199  0.6962  0.1603 -0.1227
12616SOL    HW139289   4.724   1.486   5.155  1.4423  0.1028  1.2613
12616SOL    HW239290   4.638   1.412   5.255 -0.7722 -0.4610 -0.9814
12617SOL     OW39291   4.382   2.057   5.058 -0.6067  0.0954  0.2571
12617SOL    HW139292   4.361   1.964   5.066  1.0735 -0.4609 -1.3527
12617SOL    HW239293   4.314   2.101   5.110 -0.9030 -2.0528  1.8041
12618SOL     OW39294   4.442   1.534   4.733  0.6664  0.0082 -0.3614
12618SOL    HW139295   4.488   1.587   4.798  0.0647  1.1862 -0.8556
12618SOL    HW239296   4.510   1.510   4.670  0.7925  1.0186 -0.6392
12619SOL     OW39297   3.623   0.165   4.557  0.1413 -0.6098 -0.1331
12619SOL    HW139298   3.663   0.222   4.491  2.4067 -1.0529  0.7390
12619SOL    HW239299   3.571   0.102   4.507  0.8137 -0.1783 -1.4007
12620SOL     OW39300   4.086   1.333   5.139 -0.2815 -0.1506 -0.1679
12620SOL    HW139301   4.089   1.416   5.186 -0.5587 -0.2736  0.0749
12620SOL    HW239302   4.157   1.282   5.176  1.4355  0.8117 -1.9576
12621SOL     OW39303   2.905   0.545   5.360 -0.1347  0.3596  0.2146
12621SOL    HW139304   2.903   0.639   5.376  1.9326  0.2364  1.5257
12621SOL    HW239305   2.983   0.531   5.307 -1.3832 -0.4626 -1.4916
12622SOL     OW39306   4.876   0.865   3.835 -0.3919  0.0690 -0.5633
12622SOL    HW139307   4.891   0.781   3.879  1.3019  0.6073 -0.0299
12622SOL    HW239308   4.835   0.842   3.752 -0.3406 -1.2510 -0.2455
12623SOL     OW39309   5.346   2.378   4.872  0.4758 -0.0633  0.3191
12623SOL    HW139310   5.358   2.463   4.914  0.8859  1.4133 -2.5426
12623SOL    HW239311   5.427   2.364   4.822 -0.1786 -1.4328 -0.4290
12624SOL     OW39312   4.989   0.213   5.176  0.9072 -0.1522 -0.4195
12624SOL    HW139313   4.995   0.131   5.128 -0.1527  0.2641 -1.2995
12624SOL    HW239314   4.962   0.278   5.111  0.7617  0.6970  0.4525
12625SOL     OW39315   4.971   0.759   6.262  0.1368 -0.5805  0.1638
12625SOL    HW139316   5.048   0.815   6.253 -0.7340  0.7902  0.9822
12625SOL    HW239317   4.934   0.782   6.347 -0.6589 -1.8933  0.1963
12626SOL     OW39318   4.535   7.762   4.923  0.5311 -0.2331 -0.4865
12626SOL    HW139319   4.476   7.788   4.994  2.1813  0.0154  0.8718
12626SOL    HW239320   4.508   7.673   4.900 -1.1518  0.3253 -0.7956
12627SOL     OW39321   3.580   7.392   4.288  0.4551  0.7929 -0.0202
12627SOL    HW139322   3.517   7.433   4.346 -2.0356 -0.6974 -1.4864
12627SOL    HW239323   3.641   7.346   4.347  0.5957  2.7287  1.4420
12628SOL     OW39324   4.526   2.194   4.168 -0.1498 -0.3907 -0.3246
12628SOL    HW139325   4.544   2.179   4.075  0.9581 -2.0169  0.1112
12628SOL    HW239326   4.450   2.252   4.169  0.0970  0.0286 -2.2366
12629SOL     OW39327   2.590   7.693   4.791 -0.5136 -0.0307  0.7138
12629SOL    HW139328   2.646   7.766   4.819 -2.7405  2.2391 -0.3054
12629SOL    HW239329   2.556   7.657   4.873 -0.7794  1.2884  1.2093
12630SOL     OW39330   5.411   1.211   4.624 -0.3389 -0.3704 -0.3613
12630SOL    HW139331   5.395   1.215   4.719 -1.2907 -0.3558 -0.5152
12630SOL    HW239332   5.433   1.301   4.600 -1.0080 -0.1898 -0.3075
12631SOL     OW39333   5.920   2.773   4.584  0.0148 -0.5089  0.1564
12631SOL    HW139334   5.851   2.714   4.615  0.3633 -0.5536  0.8623
12631SOL    HW239335   5.934   2.747   4.492 -0.0858 -1.2895  0.3541
12632SOL     OW39336   4.541   2.563   4.193 -0.1607  0.1294  0.1748
12632SOL    HW139337   4.619   2.544   4.245  0.4914 -1.3927 -1.2797
12632SOL    HW239338   4.505   2.642   4.233  0.7316 -0.5155  2.4170
12633SOL     OW39339   5.326   1.382   5.580  0.5953  0.1098 -0.3712
12633SOL    HW139340   5.323   1.287   5.567 -0.7326  0.1814 -0.7802
12633SOL    HW239341   5.344   1.394   5.673 -2.1055 -0.6102  0.3198
12634SOL     OW39342   4.471   1.041   3.878  0.7080 -0.1966 -0.3451
12634SOL    HW139343   4.439   0.959   3.915  1.6672 -0.9678 -1.1666
12634SOL    HW239344   4.488   1.097   3.954  0.7328 -1.0180  0.2655
12635SOL     OW39345   6.983   7.648   3.612  0.2597 -0.2540  0.4074
12635SOL    HW139346   7.011   7.713   3.677  0.4347 -0.5306  0.6110
12635SOL    HW239347   6.901   7.682   3.577  0.8519  0.5770 -0.2001
12636SOL     OW39348   4.552   1.894   4.195 -0.2124  0.4591 -0.1021
12636SOL    HW139349   4.550   1.987   4.171  1.2288  0.4565 -0.3603
12636SOL    HW239350   4.526   1.892   4.286  1.2343  1.3260  0.3722
12637SOL     OW39351   3.927   0.047   4.363 -0.3836  0.5114  0.6423
12637SOL    HW139352   3.877  -0.021   4.316  0.6332  0.5198 -0.5065
12637SOL    HW239353   3.874   0.126   4.353 -0.0749  0.5635 -0.7205
12638SOL     OW39354   4.178   0.734   3.924 -0.1401 -0.4249  0.4824
12638SOL    HW139355   4.266   0.756   3.954 -0.0585 -1.6921  1.2453
12638SOL    HW239356   4.123   0.807   3.954  0.5803  0.1980  0.3067
12639SOL     OW39357   5.514   7.463   6.017  0.3010 -0.0333 -0.2204
12639SOL    HW139358   5.499   7.497   5.928 -4.0396 -0.1511  0.2512
12639SOL    HW239359   5.500   7.369   6.009 -3.3064  0.2496  0.8890
12640SOL     OW39360   3.808   5.612   6.249  0.1733 -0.0817 -0.0909
12640SOL    HW139361   3.797   5.645   6.338  0.3246  1.2662 -0.5488
12640SOL    HW239362   3.902   5.618   6.232  0.1934 -0.6898 -0.2149
12641SOL     OW39363   2.597   1.094   1.358 -0.3410  0.0989  0.7910
12641SOL    HW139364   2.598   1.010   1.405 -0.3516  0.5902  1.7079
12641SOL    HW239365   2.521   1.088   1.300  1.1518 -1.5246 -1.1100
12642SOL     OW39366   2.802   1.481   4.873 -0.4488 -0.4046 -0.3689
12642SOL    HW139367   2.779   1.442   4.957 -0.8009  2.0966  0.7917
12642SOL    HW239368   2.749   1.433   4.809 -1.2231 -1.4426  0.9966
12643SOL     OW39369   4.203   0.573   5.110  0.2898 -0.5018 -0.0057
12643SOL    HW139370   4.147   0.641   5.146  1.4042  0.5957 -0.2741
12643SOL    HW239371   4.260   0.548   5.183  1.8381  0.9750 -0.6291
12644SOL     OW39372   5.108   2.177   4.494  0.5766 -0.1116 -0.2414
12644SOL    HW139373   5.150   2.261   4.510  2.4504 -0.5886 -2.1731
12644SOL    HW239374   5.179   2.113   4.500 -0.5830 -1.4171 -0.0168
12645SOL     OW39375   3.680   0.025   5.495  0.3604 -0.2048  0.0143
12645SOL    HW139376   3.600   0.004   5.543 -0.3442  1.8632 -0.1950
12645SOL    HW239377   3.748  -0.025   5.540 -0.5995  0.1576  1.9583
12646SOL     OW39378   5.269   1.945   7.000 -0.6012 -0.2253 -0.2721
12646SOL    HW139379   5.275   2.039   7.015 -0.8637 -0.5062  1.8868
12646SOL    HW239380   5.301   1.933   6.910  0.3045  1.7974 -0.2741
12647SOL     OW39381   4.022   1.137   5.543 -0.6306 -0.4415  0.5513
12647SOL    HW139382   3.992   1.224   5.518  0.9870  0.0359  0.1528
12647SOL    HW239383   4.001   1.129   5.636 -1.5010  0.0407  0.4066
12648SOL     OW39384   4.726   7.880   4.813 -0.1194  0.0957 -0.3853
12648SOL    HW139385   4.793   7.820   4.780  1.3956  1.5918 -0.1432
12648SOL    HW239386   4.661   7.822   4.853  1.4314 -1.3923  0.1253
12649SOL     OW39387   3.679   1.559   4.496 -0.1163  0.2956  0.1444
12649SOL    HW139388   3.705   1.475   4.534  1.2668  0.9097  0.6309
12649SOL    HW239389   3.657   1.538   4.405  2.4484 -0.3194 -0.4331
12650SOL     OW39390   5.892   0.442   4.228  0.4347  0.1701 -0.1967
12650SOL    HW139391   5.866   0.528   4.194  0.4155 -0.0046 -0.6262
12650SOL    HW239392   5.982   0.455   4.258  0.0593  0.6336  0.7936
12651SOL     OW39393   4.523   0.247   4.998  0.2969 -0.5549  0.3845
12651SOL    HW139394   4.449   0.308   4.994  0.6384  0.0481  2.1807
12651SOL    HW239395   4.483   0.161   4.989 -0.4664 -0.1730  0.0124
12652SOL     OW39396   4.199   2.054   5.377 -0.3475 -0.1073 -0.7670
12652SOL    HW139397   4.278   2.000   5.373  0.1271  0.3867  1.1480
12652SOL    HW239398   4.137   2.002   5.427 -0.1025  0.8247  0.5463
12653SOL     OW39399   4.726   0.884   5.963 -0.4759  0.5472 -0.0060
12653SOL    HW139400   4.813   0.921   5.946 -0.1464  0.1850  0.8465
12653SOL    HW239401   4.743   0.792   5.983 -1.2012  0.1188 -1.2325
12654SOL     OW39402   4.523   7.831   4.313  0.4121 -0.6265  0.2011
12654SOL    HW139403   4.473   7.837   4.231  1.0333  0.8620 -0.0887
12654SOL    HW239404   4.484   7.897   4.370  0.5686 -1.0495  0.8156
12655SOL     OW39405   2.977   1.408   4.320 -0.2582  0.0402  0.3870
12655SOL    HW139406   2.917   1.379   4.252 -1.4283  0.7193  1.1047
12655SOL    HW239407   2.944   1.494   4.347  1.3402  0.6784  0.4458
12656SOL     OW39408   5.434   2.205   3.007 -0.1529 -0.4500 -1.0329
12656SOL    HW139409   5.393   2.134   2.957 -3.2028 -0.3501  1.0652
12656SOL    HW239410   5.493   2.161   3.067  0.0387 -0.9527 -1.5753
12657SOL     OW39411   4.369   1.143   5.011 -0.3179  0.2660 -0.1979
12657SOL    HW139412   4.458   1.156   5.045  0.6557  1.0678 -2.8216
12657SOL    HW239413   4.335   1.068   5.061  2.6651 -1.4862 -0.5525
12658SOL     OW39414   3.208   0.840   5.095 -0.1737  0.1564 -0.3615
12658SOL    HW139415   3.252   0.922   5.117  0.5854 -0.4939  0.6062
12658SOL    HW239416   3.239   0.818   5.008  1.8153 -0.5011  0.4485
12659SOL     OW39417   6.622   2.233   5.661  0.2556  0.5718 -0.2684
12659SOL    HW139418   6.699   2.179   5.680 -0.9350 -0.6860  1.3340
12659SOL    HW239419   6.634   2.262   5.571  2.0101 -0.5870 -0.4569
12660SOL     OW39420   5.094   7.566   4.646  0.3464  0.0078 -0.1614
12660SOL    HW139421   5.056   7.525   4.568  0.6250 -1.3708  0.3879
12660SOL    HW239422   5.184   7.532   4.649 -0.2342 -1.5783  1.7914
12661SOL     OW39423   4.344   0.810   4.958  0.1987 -0.3160  0.2953
12661SOL    HW139424   4.391   0.825   5.040  0.0564  3.6976 -0.1569
12661SOL    HW239425   4.252   0.824   4.980  0.0964  0.1649 -0.4055
12662SOL     OW39426   4.435   0.795   4.002  0.3792  0.3689  0.3067
12662SOL    HW139427   4.453   0.789   4.095 -0.1547  2.0396  0.5472
12662SOL    HW239428   4.460   0.709   3.967  0.1595 -0.4371  2.0359
12663SOL     OW39429   4.369   7.593   3.544 -0.3413  0.0046  0.0748
12663SOL    HW139430   4.330   7.676   3.516 -0.1671 -0.3414 -1.2791
12663SOL    HW239431   4.455   7.617   3.579 -0.2449  0.3879 -0.4205
12664SOL     OW39432   3.356   7.982   2.285  0.0440  0.1814 -0.0629
12664SOL    HW139433   3.294   7.912   2.304 -1.4605  1.6694  0.7743
12664SOL    HW239434   3.407   7.992   2.365 -0.8088  1.0377  0.4023
12665SOL     OW39435   7.205   2.042   5.232 -0.1607  0.2151  0.2529
12665SOL    HW139436   7.244   2.004   5.311 -1.2511 -1.2195  0.1355
12665SOL    HW239437   7.280   2.079   5.185  0.5485  0.8846  1.8038
12666SOL     OW39438   5.877   0.699   5.222 -0.3851  0.4501  0.3728
12666SOL    HW139439   5.827   0.711   5.141  0.2382  1.2598  0.0881
12666SOL    HW239440   5.947   0.764   5.216 -0.4059  0.6179  1.6264
12667SOL     OW39441   5.113   2.053   4.890 -0.1536  0.4667 -0.0123
12667SOL    HW139442   5.163   2.050   4.972  0.3865  0.7899 -0.3195
12667SOL    HW239443   5.104   2.147   4.871 -1.0362  0.4149  0.1295
12668SOL     OW39444   3.962   0.780   3.475 -0.0257 -0.1811 -0.3788
12668SOL    HW139445   3.907   0.706   3.449  0.5545 -0.4125 -0.9667
12668SOL    HW239446   3.967   0.774   3.570 -0.6312 -0.4284 -0.3562
12669SOL     OW39447   4.786   6.766   4.962 -0.0132  0.0688  0.3450
12669SOL    HW139448   4.705   6.718   4.980  0.5717 -1.4586 -0.8961
12669SOL    HW239449   4.783   6.841   5.022 -2.0677 -0.2458  0.7097
12670SOL     OW39450   3.695   2.293   4.780  0.0151  0.5003  0.2450
12670SOL    HW139451   3.675   2.387   4.778  1.5188  0.8781  1.1029
12670SOL    HW239452   3.669   2.265   4.868  0.1041  0.2518  0.1916
12671SOL     OW39453   5.619   1.428   4.819 -0.0479  0.7238  0.5231
12671SOL    HW139454   5.542   1.462   4.774 -0.0585  0.1342  0.0972
12671SOL    HW239455   5.584   1.370   4.886  0.0094  0.8188  0.6360
12672SOL     OW39456   4.812   7.986   5.077  0.3133  0.6213 -0.2766
12672SOL    HW139457   4.901   7.952   5.075  0.4601  0.9752 -0.0030
12672SOL    HW239458   4.759   7.920   5.032  0.8141  0.7181 -1.0174
12673SOL     OW39459   4.179   1.391   4.493  0.4683 -0.1359 -0.0714
12673SOL    HW139460   4.181   1.487   4.489 -0.4303 -0.1110 -0.1429
12673SOL    HW239461   4.162   1.371   4.585  0.7057 -0.2335 -0.0468
12674SOL     OW39462   5.029   7.694   3.722 -0.1346  0.5803  0.1440
12674SOL    HW139463   5.062   7.758   3.658  0.9476 -0.9641 -0.9372
12674SOL    HW239464   5.059   7.727   3.807 -0.8289  2.2107 -0.2035
12675SOL     OW39465   3.174   0.945   4.514 -0.5956  0.0845  0.1320
12675SOL    HW139466   3.137   1.029   4.488 -0.6701 -0.3151 -1.1123
12675SOL    HW239467   3.102   0.883   4.503 -1.4776  0.2132  3.8004
12676SOL     OW39468   5.298   2.068   4.147  0.5331  0.0360  0.4013
12676SOL    HW139469   5.315   2.008   4.219  1.3962  0.2313  0.3692
12676SOL    HW239470   5.277   2.012   4.073  1.6167 -0.2546  0.2959
12677SOL     OW39471   3.598   0.848   5.185 -0.1189  0.7153  0.2415
12677SOL    HW139472   3.528   0.853   5.249  0.8093  1.0828  1.2622
12677SOL    HW239473   3.611   0.754   5.171  0.3792  0.5898  1.4182
12678SOL     OW39474   4.519   1.057   6.189 -0.0864  0.0209 -0.0414
12678SOL    HW139475   4.433   1.098   6.203 -0.1230 -0.0427 -0.0771
12678SOL    HW239476   4.507   1.004   6.110 -0.0304 -0.0352 -0.0123
12679SOL     OW39477   3.203   0.578   6.940 -0.0427  0.6661  0.0101
12679SOL    HW139478   3.268   0.547   6.877 -0.5345 -0.1707 -0.1000
12679SOL    HW239479   3.174   0.499   6.986 -1.4165  0.9269 -0.3517
12680SOL     OW39480   4.470   7.722   6.314  0.2218  0.7079 -0.0884
12680SOL    HW139481   4.410   7.687   6.380 -0.6612  0.0212 -1.2164
12680SOL    HW239482   4.450   7.672   6.235  0.7255  2.0266 -1.0849
12681SOL     OW39483   4.125   0.136   6.373  0.0886  0.5048 -0.4503
12681SOL    HW139484   4.091   0.199   6.437 -1.6936 -0.1715 -0.6782
12681SOL    HW239485   4.201   0.180   6.335  0.4807  1.4089  1.2619
12682SOL     OW39486   4.203   7.987   7.174 -0.2008 -0.2936 -0.1577
12682SOL    HW139487   4.134   8.052   7.179 -0.1134 -0.0691 -1.5667
12682SOL    HW239488   4.284   8.036   7.189 -0.2772 -0.4489  0.8456
12683SOL     OW39489   4.530   7.355   4.847 -0.0655 -0.3244  0.4106
12683SOL    HW139490   4.538   7.267   4.809 -3.6260  0.1270 -1.7650
12683SOL    HW239491   4.593   7.408   4.798 -0.5796 -0.9338 -0.9542
12684SOL     OW39492   3.934   2.066   7.304 -0.1443 -0.1211 -0.1782
12684SOL    HW139493   3.984   1.999   7.258 -0.3066  0.5585 -1.3805
12684SOL    HW239494   4.000   2.119   7.349  0.1645  0.2131 -1.0075
12685SOL     OW39495   5.345   6.963   8.019  0.0007  0.5130  0.1457
12685SOL    HW139496   5.410   7.000   7.959 -0.6905  1.8857  0.2043
12685SOL    HW239497   5.261   6.997   7.987 -0.3848  1.2026  1.8176
12686SOL     OW39498   3.157   1.309   5.497  0.2634  0.6662 -0.7082
12686SOL    HW139499   3.246   1.324   5.463  0.5926  1.8359  0.6123
12686SOL    HW239500   3.166   1.314   5.592 -1.3922  1.8277 -0.5758
12687SOL     OW39501   3.447   7.324   7.369 -0.2844  0.4051 -0.3113
12687SOL    HW139502   3.489   7.387   7.428 -0.3062  0.0174  0.1264
12687SOL    HW239503   3.373   7.371   7.331  2.2720  2.1983 -3.5458
12688SOL     OW39504   2.670   3.306   6.130  0.2282 -0.2059 -0.3071
12688SOL    HW139505   2.618   3.281   6.206 -0.0057 -0.6977 -0.6221
12688SOL    HW239506   2.747   3.349   6.166 -0.6765  1.1035  0.1637
12689SOL     OW39507   5.655   0.450   7.186 -0.5164  0.9042 -0.4360
12689SOL    HW139508   5.621   0.385   7.248  0.4202 -0.6615 -1.5247
12689SOL    HW239509   5.577   0.499   7.158 -1.4781 -0.7068 -0.6997
12690SOL     OW39510   5.185   0.620   6.749  0.1413 -0.4315  0.4176
12690SOL    HW139511   5.119   0.582   6.691 -0.1559  0.9616 -0.1985
12690SOL    HW239512   5.268   0.582   6.719 -0.2136 -1.1260  0.2856
12691SOL     OW39513   4.324   1.148   7.153  0.0233 -0.1547  0.0982
12691SOL    HW139514   4.362   1.235   7.141 -2.3253  1.0163  0.4891
12691SOL    HW239515   4.350   1.099   7.075 -0.0368  1.4829 -1.0073
12692SOL     OW39516   3.826   1.315   7.686  0.9334  0.6682  0.1646
12692SOL    HW139517   3.819   1.274   7.772  0.7353  0.1415 -0.1006
12692SOL    HW239518   3.867   1.400   7.703 -2.0624  2.0201  1.2272
12693SOL     OW39519   4.821   2.385   9.119  0.1763  0.6763 -0.2369
12693SOL    HW139520   4.784   2.404   9.033  1.9407 -0.1532 -1.2425
12693SOL    HW239521   4.767   2.314   9.153  0.2420  0.1108 -1.2653
12694SOL     OW39522   2.288   0.886   6.172  0.1425 -0.5827 -0.1038
12694SOL    HW139523   2.230   0.821   6.133  0.7680 -1.1799 -0.0543
12694SOL    HW239524   2.375   0.862   6.142  0.3923  0.1955 -0.0287
12695SOL     OW39525   1.589   2.885   6.439  0.0534 -0.1373 -0.3116
12695SOL    HW139526   1.673   2.847   6.415  0.5788  1.8083 -1.8129
12695SOL    HW239527   1.544   2.816   6.487  1.7233 -1.8998 -1.1581
12696SOL     OW39528   2.552   0.202   7.815 -0.5857 -0.2630 -0.0813
12696SOL    HW139529   2.585   0.206   7.725  0.1211 -0.7607  0.1487
12696SOL    HW239530   2.510   0.116   7.821 -1.6235  0.2063 -0.2513
12697SOL     OW39531   2.835   0.277   5.464  0.9091  0.7524 -0.5326
12697SOL    HW139532   2.765   0.302   5.526 -0.3347 -0.8579 -1.2176
12697SOL    HW239533   2.862   0.360   5.424 -0.2906  1.4764  0.0914
12698SOL     OW39534   5.757   0.217   6.066  0.2137  0.2067 -0.4176
12698SOL    HW139535   5.764   0.296   6.120  1.3456  1.3618 -2.1548
12698SOL    HW239536   5.669   0.184   6.084  1.0512 -0.4439  3.3395
12699SOL     OW39537   2.697   2.407   7.924 -0.5976 -0.0580  0.3092
12699SOL    HW139538   2.755   2.456   7.982 -0.8330 -1.7589  2.0665
12699SOL    HW239539   2.689   2.462   7.846  1.3682  1.3517  1.0378
12700SOL     OW39540   4.826   0.179   4.823  0.2709 -0.4186 -0.5951
12700SOL    HW139541   4.786   0.134   4.898  0.6046  1.0594  0.5181
12700SOL    HW239542   4.757   0.236   4.789  0.2265 -0.8310 -1.2008
12701SOL     OW39543   6.820   1.584   3.991  0.6161  0.1810 -0.5284
12701SOL    HW139544   6.795   1.496   4.021  0.9491  1.0151  2.6048
12701SOL    HW239545   6.798   1.585   3.898 -2.7661 -2.0219  0.0594
12702SOL     OW39546   5.174   7.889   4.830  0.0787 -0.0412  0.3497
12702SOL    HW139547   5.231   7.839   4.770 -0.2047  0.4145 -0.3146
12702SOL    HW239548   5.159   7.972   4.784  1.6524  1.2484  2.0268
12703SOL     OW39549   4.703   1.465   6.873 -0.2166 -0.0175 -0.0074
12703SOL    HW139550   4.730   1.479   6.782 -0.6411 -1.0357 -0.2949
12703SOL    HW239551   4.765   1.401   6.907  0.4440  0.9543  0.6852
12704SOL     OW39552   4.120   6.824   6.076 -0.3824  0.1521 -0.3232
12704SOL    HW139553   4.184   6.850   6.142  0.4082 -0.4288 -0.8425
12704SOL    HW239554   4.040   6.806   6.126  0.2837 -0.5698  0.5161
12705SOL     OW39555   3.353   1.454   7.529  0.1926 -0.4093 -0.2314
12705SOL    HW139556   3.420   1.435   7.463  0.5041  0.1581 -0.0824
12705SOL    HW239557   3.395   1.435   7.612  0.2087  0.0560 -0.1310
12706SOL     OW39558   4.156   2.222   5.890  0.0225 -0.7632 -0.1424
12706SOL    HW139559   4.096   2.282   5.935 -0.8874 -0.0905 -2.1416
12706SOL    HW239560   4.215   2.279   5.840 -0.2817 -1.4944 -1.3793
12707SOL     OW39561   4.243   7.955   7.702 -0.1774 -0.4505  1.0468
12707SOL    HW139562   4.282   7.917   7.780 -0.5928 -1.3703  0.8293
12707SOL    HW239563   4.185   7.886   7.669  0.1905 -0.1790 -0.2109
12708SOL     OW39564   2.626   7.896   6.285  0.0173  0.1135  0.2514
12708SOL    HW139565   2.713   7.926   6.257 -0.0615  1.6338  1.4605
12708SOL    HW239566   2.568   7.969   6.264 -0.4224  0.3686  2.1597
12709SOL     OW39567   4.820   1.400   5.420  0.1096  0.3513  0.1362
12709SOL    HW139568   4.798   1.489   5.391 -0.1452  1.3983  3.1992
12709SOL    HW239569   4.899   1.411   5.473  2.0556 -1.8359 -2.0514
12710SOL     OW39570   6.169   1.446   8.344  0.3563  0.0838  0.4607
12710SOL    HW139571   6.228   1.520   8.358  0.7971 -0.4814  1.7256
12710SOL    HW239572   6.227   1.374   8.319 -0.0126  0.0150 -0.2158
12711SOL     OW39573   2.458   0.028   7.561 -0.0160 -0.1841  0.4854
12711SOL    HW139574   2.369   0.000   7.539 -0.1058  0.9039 -0.6276
12711SOL    HW239575   2.476   0.099   7.500  0.7894  1.1322  2.1855
12712SOL     OW39576   4.848   1.680   6.290  0.0219 -0.0185  0.0951
12712SOL    HW139577   4.862   1.775   6.290 -2.4401  0.4132  0.4532
12712SOL    HW239578   4.918   1.646   6.346  0.5119  1.6763  0.5769
12713SOL     OW39579   5.812   3.924   5.513  0.6433  0.2904 -0.1793
12713SOL    HW139580   5.769   4.008   5.526  1.8773  0.8296  0.5603
12713SOL    HW239581   5.904   3.946   5.498  0.7721 -0.8535 -1.2502
12714SOL     OW39582   4.782   1.435   5.871  0.2841 -0.0906  0.7257
12714SOL    HW139583   4.760   1.378   5.945 -0.0155  0.0416  0.7362
12714SOL    HW239584   4.868   1.403   5.842  0.5341  0.0367  1.3053
12715SOL     OW39585   4.932   0.104   7.668  0.2625 -0.4790 -0.0445
12715SOL    HW139586   5.025   0.081   7.662  0.4188  0.2381 -0.3724
12715SOL    HW239587   4.929   0.176   7.731 -0.1390 -0.8660  0.3850
12716SOL     OW39588   6.471   1.381   5.005  0.2432  0.2826  0.0860
12716SOL    HW139589   6.489   1.418   4.919  0.7189  1.1947  0.5524
12716SOL    HW239590   6.455   1.288   4.989  1.9830  0.0828 -0.8143
12717SOL     OW39591   3.487   0.015   5.723 -0.0653 -0.1706 -0.3106
12717SOL    HW139592   3.562  -0.022   5.770 -0.3731 -0.5922 -0.1498
12717SOL    HW239593   3.486   0.107   5.749  1.0213  0.0847 -1.1174
12718SOL     OW39594   5.497   1.851   5.996  0.3764  0.6329  0.2213
12718SOL    HW139595   5.454   1.890   6.072 -0.5479  0.0146  0.0306
12718SOL    HW239596   5.539   1.772   6.030 -1.6867 -0.7424 -0.2104
12719SOL     OW39597   5.185   1.070   5.281  0.0544 -0.6112 -0.0776
12719SOL    HW139598   5.226   0.987   5.257  1.8183 -0.1036  1.0272
12719SOL    HW239599   5.130   1.049   5.356  0.6432 -0.7523  0.3168
12720SOL     OW39600   3.238   0.419   5.844 -0.1057 -0.0674 -0.2975
12720SOL    HW139601   3.166   0.394   5.785 -0.6884 -0.8100  0.6850
12720SOL    HW239602   3.230   0.514   5.852 -1.9230 -0.2570  0.9017
12721SOL     OW39603   3.666   1.150   4.794  0.0464 -0.7192  0.1895
12721SOL    HW139604   3.609   1.127   4.868 -1.2205  0.2715 -0.4440
12721SOL    HW239605   3.649   1.242   4.778 -0.2295 -1.0627 -1.7769
12722SOL     OW39606   3.289   0.060   7.528  0.8081  0.0163  0.0706
12722SOL    HW139607   3.236   0.043   7.450  0.6295  0.8025  0.0103
12722SOL    HW239608   3.273   0.153   7.548  2.2640  0.3081 -0.0363
12723SOL     OW39609   4.039   1.620   6.611 -0.2116  0.2594 -0.3260
12723SOL    HW139610   4.097   1.693   6.591  0.8989 -0.3141  0.7128
12723SOL    HW239611   4.035   1.570   6.530 -0.0042  0.8104 -0.6799
12724SOL     OW39612   6.041   1.766   4.817 -0.1724 -0.3703 -0.2007
12724SOL    HW139613   5.995   1.760   4.901  1.5657  0.7345  0.8952
12724SOL    HW239614   6.059   1.675   4.793  0.4817 -0.6750  1.3241
12725SOL     OW39615   4.292   0.691   8.341  0.1545 -0.0312  0.4513
12725SOL    HW139616   4.199   0.703   8.325  0.3303  1.2612  0.2966
12725SOL    HW239617   4.315   0.760   8.403  1.2019  0.2658 -0.2501
12726SOL     OW39618   6.853   2.498   3.587  0.2898 -0.0493  0.2125
12726SOL    HW139619   6.829   2.417   3.632 -0.8228  0.8924  1.3370
12726SOL    HW239620   6.841   2.478   3.494 -0.7482 -0.9269  0.5262
12727SOL     OW39621   4.871   5.100   6.796  0.5684 -0.3493  0.0663
12727SOL    HW139622   4.945   5.139   6.749  1.3695 -2.1393 -0.2433
12727SOL    HW239623   4.794   5.128   6.748  1.1480  0.3670 -0.4693
12728SOL     OW39624   3.060   1.046   5.772  0.0633 -0.5296 -0.4361
12728SOL    HW139625   3.071   1.046   5.677 -0.3976 -0.4985 -0.4912
12728SOL    HW239626   2.966   1.062   5.785  0.1958 -0.1038  0.0300
12729SOL     OW39627   1.646   2.674   7.188 -0.2112 -0.3374  0.1969
12729SOL    HW139628   1.610   2.641   7.106  0.6271  1.6891 -1.0781
12729SOL    HW239629   1.720   2.729   7.161  0.5172 -0.1706  2.3677
12730SOL     OW39630   3.767   0.269   5.594  0.0686 -0.0039 -0.0430
12730SOL    HW139631   3.776   0.240   5.685 -0.8716  1.4528  0.5465
12730SOL    HW239632   3.708   0.206   5.554  0.3252 -0.5385  0.3993
12731SOL     OW39633   5.217   0.587   6.418 -0.0620 -0.4456 -0.2467
12731SOL    HW139634   5.258   0.505   6.391  0.0638 -0.6524  0.5546
12731SOL    HW239635   5.161   0.612   6.344 -1.1861 -1.9732  0.0334
12732SOL     OW39636   3.293   7.848   5.585  0.1599  0.1756  0.2332
12732SOL    HW139637   3.214   7.889   5.619 -1.1019  1.5766 -3.8176
12732SOL    HW239638   3.364   7.886   5.636 -1.3121  4.1809 -0.3395
12733SOL     OW39639   4.691   0.191   5.206 -0.1833 -0.3370  0.0360
12733SOL    HW139640   4.738   0.130   5.149 -1.0609  0.1802 -1.3094
12733SOL    HW239641   4.616   0.219   5.153 -0.6300  0.7358  1.1965
12734SOL     OW39642   3.079   0.309   8.404 -0.2306  0.6788 -0.2147
12734SOL    HW139643   3.011   0.322   8.470  0.8024  0.3420  0.9518
12734SOL    HW239644   3.103   0.217   8.413  1.2770  1.1040  0.2949
12735SOL     OW39645   5.343   2.171   6.625 -0.7324 -0.0776  0.3578
12735SOL    HW139646   5.428   2.210   6.603 -1.2742  1.3721  0.7348
12735SOL    HW239647   5.282   2.245   6.624 -1.7188 -0.8363  1.5632
12736SOL     OW39648   1.910   7.915   7.592  0.0928 -0.0109  0.0370
12736SOL    HW139649   2.005   7.922   7.590  0.1984 -1.1749 -1.7872
12736SOL    HW239650   1.878   8.003   7.573  0.7576  0.5307  1.3052
12737SOL     OW39651   4.281   1.762   6.267 -0.0950 -0.0429  0.1980
12737SOL    HW139652   4.304   1.674   6.299 -1.6693 -0.9492 -1.0225
12737SOL    HW239653   4.219   1.795   6.333  0.2637  0.0365  0.4994
12738SOL     OW39654   3.612   1.948   5.792 -0.9296 -0.4514  0.2706
12738SOL    HW139655   3.683   1.991   5.744 -1.2455 -0.1451  0.0732
12738SOL    HW239656   3.646   1.937   5.881 -0.4371 -0.7851  0.0455
12739SOL     OW39657   4.222   7.427   4.793  0.3476  0.3970 -0.1978
12739SOL    HW139658   4.208   7.472   4.876 -1.1817 -2.4126  1.2050
12739SOL    HW239659   4.315   7.404   4.793  0.2726  0.0624  0.9496
12740SOL     OW39660   2.977   1.483   7.112 -0.0994 -0.0033 -0.1418
12740SOL    HW139661   2.957   1.551   7.049 -1.2202  0.0067  0.1921
12740SOL    HW239662   3.043   1.521   7.169  1.5391 -0.2991 -1.7592
12741SOL     OW39663   5.171   2.528   5.187  0.3884  0.2564 -0.3497
12741SOL    HW139664   5.132   2.520   5.100  0.8590  1.7912 -0.7326
12741SOL    HW239665   5.097   2.542   5.246  0.2630  2.2928 -0.9504
12742SOL     OW39666   4.201   7.901   5.869  0.3413  0.2745 -0.0168
12742SOL    HW139667   4.190   7.996   5.873  1.8147  0.4664 -0.1908
12742SOL    HW239668   4.207   7.874   5.961 -0.6731  0.2561  0.0574
12743SOL     OW39669   5.648   0.438   8.057 -0.3299 -0.1232 -0.0870
12743SOL    HW139670   5.692   0.493   7.994 -1.4304  0.5437 -0.3072
12743SOL    HW239671   5.572   0.403   8.010 -0.7210 -0.2587  0.6158
12744SOL     OW39672   3.512   7.993   6.146  0.1008  0.4114 -0.3780
12744SOL    HW139673   3.584   8.053   6.127 -0.0296  0.6167 -0.2343
12744SOL    HW239674   3.554   7.915   6.183  0.1597  1.0301  0.9165
12745SOL     OW39675   2.439   1.308   9.940  0.1961  0.6578  0.2747
12745SOL    HW139676   2.436   1.309   9.845  0.6582 -0.7425  0.2199
12745SOL    HW239677   2.477   1.393   9.965 -1.8498  1.9156 -0.6648
12746SOL     OW39678   4.074   1.821   8.107 -0.5250  0.5919  0.1392
12746SOL    HW139679   4.033   1.875   8.039 -0.8607  1.7757  1.2554
12746SOL    HW239680   4.152   1.871   8.133  0.1951 -0.3709 -0.0907
12747SOL     OW39681   3.778   7.838   6.128  0.8372 -0.0884 -0.2861
12747SOL    HW139682   3.855   7.889   6.150  1.1974 -0.6914 -0.1379
12747SOL    HW239683   3.747   7.876   6.045 -0.0314  1.6285  0.7684
12748SOL     OW39684   5.084   0.608   5.324  0.5436 -0.1562  0.3357
12748SOL    HW139685   5.128   0.609   5.240  0.3874 -0.6320  0.2484
12748SOL    HW239686   5.080   0.516   5.349  0.9470  0.0075  1.0547
12749SOL     OW39687   3.069   7.748   7.544  0.0114 -0.2076 -0.0689
12749SOL    HW139688   3.077   7.837   7.577  0.7741 -0.2194 -0.2010
12749SOL    HW239689   2.978   7.724   7.559 -0.2290  0.6429 -0.1617
12750SOL     OW39690   4.156   7.823   4.271 -0.7027 -0.3813 -0.3734
12750SOL    HW139691   4.103   7.878   4.329 -0.2545 -1.0726  0.7286
12750SOL    HW239692   4.206   7.768   4.331  0.6521 -0.3078 -1.4032
12751SOL     OW39693   1.319   7.416   5.894 -0.0293 -0.3158  0.2140
12751SOL    HW139694   1.365   7.333   5.882  0.4049 -0.6194  3.1818
12751SOL    HW239695   1.229   7.392   5.916 -0.1047  0.0223  0.2917
12752SOL     OW39696   4.068   7.677   5.803 -0.1851 -0.4416  0.0758
12752SOL    HW139697   4.109   7.763   5.807  0.4218 -0.7206 -0.0936
12752SOL    HW239698   4.141   7.615   5.805 -0.5065 -0.9211 -1.5927
12753SOL     OW39699   3.555   1.280   8.284 -0.6032 -0.3638 -0.8091
12753SOL    HW139700   3.554   1.366   8.327 -0.5495 -0.2771 -0.9802
12753SOL    HW239701   3.631   1.235   8.321  0.7730  0.5319 -2.4007
12754SOL     OW39702   4.163   1.921   7.525 -0.4050  0.2971  0.0798
12754SOL    HW139703   4.151   1.928   7.431  2.3978  0.4430 -0.3282
12754SOL    HW239704   4.190   2.009   7.552  0.9436 -0.2785  0.6460
12755SOL     OW39705   3.342   0.756   4.848  0.2728 -0.3280  0.1926
12755SOL    HW139706   3.390   0.689   4.798  1.7178  0.7609  0.0609
12755SOL    HW239707   3.258   0.763   4.802  0.7202 -0.9101 -0.7636
12756SOL     OW39708   4.660   0.971   7.157 -0.7323  0.4436 -0.4110
12756SOL    HW139709   4.647   0.880   7.130 -0.3202  0.5139 -0.8690
12756SOL    HW239710   4.646   1.022   7.077  3.3218  0.4500 -1.3357
12757SOL     OW39711   5.798   1.751   6.391  0.4232 -0.1828  0.7900
12757SOL    HW139712   5.833   1.668   6.422  1.4458 -0.0924 -0.0591
12757SOL    HW239713   5.706   1.749   6.414  0.3622 -1.6928  0.5021
12758SOL     OW39714   4.182   7.871   8.622  0.5295 -0.0697  0.3649
12758SOL    HW139715   4.098   7.900   8.659  1.0839  1.3683  0.5439
12758SOL    HW239716   4.226   7.952   8.596  0.3052 -0.9661 -3.2519
12759SOL     OW39717   4.976   0.472   6.944 -0.0771 -0.5318 -0.3941
12759SOL    HW139718   4.886   0.459   6.914 -0.3661  0.2260  0.1129
12759SOL    HW239719   5.024   0.499   6.865 -0.4956 -0.0618 -0.4937
12760SOL     OW39720   6.122   6.886   6.193  0.0765 -0.0599 -0.7509
12760SOL    HW139721   6.176   6.965   6.188  0.5290 -0.3274 -0.2136
12760SOL    HW239722   6.056   6.906   6.259 -0.3317  0.1695 -1.2177
12761SOL     OW39723   6.712   0.292   5.332  0.4318 -0.2569 -0.2526
12761SOL    HW139724   6.617   0.283   5.320  0.2812 -0.7620  1.0531
12761SOL    HW239725   6.748   0.210   5.299  0.2827 -0.5481  0.2823
12762SOL     OW39726   4.615   1.611   7.987  0.1556  0.2522  0.5449
12762SOL    HW139727   4.624   1.666   7.909 -2.2000  0.0403  0.0537
12762SOL    HW239728   4.533   1.640   8.027  0.0025 -1.4083  1.5074
12763SOL     OW39729   6.047   2.114   7.340 -0.2633  0.4530  0.4365
12763SOL    HW139730   6.026   2.086   7.251  0.5323 -1.3977  0.7990
12763SOL    HW239731   5.962   2.139   7.377 -1.0297 -1.3221  0.0012
12764SOL     OW39732   5.719   7.907   5.861 -0.8748 -0.5202 -0.3358
12764SOL    HW139733   5.653   7.877   5.799 -1.5562 -0.7981  0.5104
12764SOL    HW239734   5.768   7.974   5.813 -0.8263 -1.3241 -1.4660
12765SOL     OW39735   5.006   1.877   5.325  0.5089 -0.2237 -0.0128
12765SOL    HW139736   5.101   1.887   5.320  0.2578  2.6394 -0.7789
12765SOL    HW239737   4.984   1.823   5.250  1.4640 -0.3908 -0.1873
12766SOL     OW39738   4.131   0.864   6.874 -0.1495 -0.1477 -0.4099
12766SOL    HW139739   4.175   0.946   6.853 -0.4831  0.4610  1.1523
12766SOL    HW239740   4.053   0.890   6.922 -1.3344 -1.2942 -1.5945
12767SOL     OW39741   6.072   1.221   5.387 -0.3326  0.0601  0.6601
12767SOL    HW139742   6.018   1.191   5.460 -1.4185 -1.4680 -0.6926
12767SOL    HW239743   6.011   1.267   5.329  0.1882 -0.0477  0.0080
12768SOL     OW39744   3.696   1.776   6.267 -0.6031  0.1937  0.5179
12768SOL    HW139745   3.714   1.684   6.249 -0.2339  0.1384  1.1340
12768SOL    HW239746   3.640   1.776   6.344  0.4725  0.5129  1.3208
12769SOL     OW39747   4.426   1.376   6.829  0.1785 -0.0371  0.0233
12769SOL    HW139748   4.398   1.467   6.826 -0.2187 -0.1762 -1.0287
12769SOL    HW239749   4.514   1.379   6.867  0.1904  0.7918 -0.0510
12770SOL     OW39750   3.343   1.037   3.380  0.5095 -0.1370 -0.2853
12770SOL    HW139751   3.266   1.019   3.326  0.2100  2.4555 -0.8322
12770SOL    HW239752   3.319   1.006   3.467 -0.5556 -0.7637 -0.7813
12771SOL     OW39753   5.816   1.713   7.284 -0.2069 -0.0833  0.2988
12771SOL    HW139754   5.888   1.658   7.254 -1.8101 -2.0149 -0.2597
12771SOL    HW239755   5.772   1.661   7.351 -1.2719  0.9023  0.4055
12772SOL     OW39756   4.848   2.004   6.018  0.4756  0.9080  0.1770
12772SOL    HW139757   4.792   1.946   5.966  1.8783  0.4038 -0.8405
12772SOL    HW239758   4.837   2.090   5.978  0.3812  0.8261  0.0263
12773SOL     OW39759   5.789   0.454   6.220  0.3368  0.0923  0.3160
12773SOL    HW139760   5.708   0.434   6.266  1.1058 -0.8994  1.3054
12773SOL    HW239761   5.790   0.549   6.213 -0.3593  0.1936  1.3302
12774SOL     OW39762   4.890   6.987   6.513  0.2648 -0.0133 -0.5414
12774SOL    HW139763   4.844   6.999   6.596 -0.4099 -2.8305 -0.3957
12774SOL    HW239764   4.844   7.043   6.451 -0.4512  0.6675  0.5788
12775SOL     OW39765   4.549   2.749   5.271  0.3176  0.1135  0.4176
12775SOL    HW139766   4.495   2.771   5.347  0.8977 -1.3565  1.2980
12775SOL    HW239767   4.623   2.809   5.277 -0.7081  1.4887 -0.2526
12776SOL     OW39768   4.475   3.106   5.244 -0.2107 -0.1602 -0.0093
12776SOL    HW139769   4.473   3.200   5.261 -2.5371 -0.4988  2.1254
12776SOL    HW239770   4.384   3.078   5.250  0.6250 -2.9869  2.4000
12777SOL     OW39771   4.529   1.384   7.245  0.1357  0.0589 -0.2821
12777SOL    HW139772   4.603   1.371   7.304 -0.5267 -0.9847  0.3377
12777SOL    HW239773   4.569   1.419   7.165  1.4223 -1.3078 -0.2785
12778SOL     OW39774   3.085   7.833   6.255  0.7023  0.8566 -0.6041
12778SOL    HW139775   3.077   7.753   6.204  1.9716 -1.0544  1.9726
12778SOL    HW239776   3.161   7.878   6.217  1.3354 -0.2701 -0.7050
12779SOL     OW39777   3.644   7.444   7.994 -0.3115 -0.2283  0.1971
12779SOL    HW139778   3.614   7.359   7.963 -2.1567  0.4412 -0.0405
12779SOL    HW239779   3.726   7.460   7.948 -0.6748 -1.2508 -0.8396
12780SOL     OW39780   3.970   0.226   4.889 -0.2624  0.2231 -0.3329
12780SOL    HW139781   4.056   0.185   4.878 -0.0165  1.1537 -2.2775
12780SOL    HW239782   3.910   0.168   4.842 -0.3141  0.7341 -0.9144
12781SOL     OW39783   5.841   6.961   7.345  0.3282 -0.0981 -0.1163
12781SOL    HW139784   5.807   7.037   7.391 -0.7447 -0.4039 -0.3737
12781SOL    HW239785   5.899   6.919   7.408 -0.4025 -0.0033  0.6385
12782SOL     OW39786   4.645   3.008   5.439 -0.2450 -0.2513  0.0175
12782SOL    HW139787   4.587   3.020   5.515  1.1964  0.9404  0.9815
12782SOL    HW239788   4.598   3.047   5.366 -0.3026  1.5335  0.9633
12783SOL     OW39789   3.575   1.805   7.453 -0.0864 -0.4986  0.3992
12783SOL    HW139790   3.661   1.844   7.439 -0.9364  0.3766 -3.3860
12783SOL    HW239791   3.519   1.878   7.481  0.0169 -0.7767  1.3975
12784SOL     OW39792   4.901   0.746   5.633 -0.2343 -0.4165  0.2651
12784SOL    HW139793   4.995   0.731   5.649  0.0061  2.3252  1.9007
12784SOL    HW239794   4.863   0.757   5.719 -1.8770 -0.3065 -0.4404
12785SOL     OW39795   4.826   2.375   6.619 -0.2304 -0.6204 -0.0411
12785SOL    HW139796   4.850   2.468   6.621 -0.9439 -0.4124 -0.7100
12785SOL    HW239797   4.757   2.367   6.685 -0.0940 -0.6962  0.0920
12786SOL     OW39798   3.166   1.998   6.477 -0.2900 -0.8947  0.2328
12786SOL    HW139799   3.110   2.009   6.554  0.4639 -0.2649  0.7172
12786SOL    HW239800   3.254   2.021   6.508 -0.1027  0.2158 -1.0198
12787SOL     OW39801   4.694   0.501   8.040 -0.5425  0.4059  0.4657
12787SOL    HW139802   4.790   0.498   8.038 -0.5671 -0.8938  0.4102
12787SOL    HW239803   4.674   0.584   8.082  0.6117  0.7268  0.4268
12788SOL     OW39804   5.340   7.264   6.219  0.3208 -0.1781  0.0163
12788SOL    HW139805   5.393   7.240   6.144  0.8252 -0.8673  0.5808
12788SOL    HW239806   5.397   7.250   6.295 -0.6135 -0.8277  0.6214
12789SOL     OW39807   4.251   6.909   9.338 -0.7804  0.2226 -0.0157
12789SOL    HW139808   4.252   6.817   9.313 -1.7753  0.1104  0.3085
12789SOL    HW239809   4.159   6.934   9.333 -0.4955  1.2758 -0.3605
12790SOL     OW39810   3.939   1.486   6.383  0.0992 -0.0100 -0.2861
12790SOL    HW139811   3.868   1.442   6.429  0.9482  1.0886  2.3055
12790SOL    HW239812   3.896   1.536   6.314 -1.3850 -0.9631 -0.0918
12791SOL     OW39813   5.033   1.755   5.607 -0.5141 -0.7792  0.0929
12791SOL    HW139814   4.988   1.706   5.538  0.9098 -1.4216 -0.4257
12791SOL    HW239815   5.124   1.727   5.600  0.3485  1.8483 -0.1319
12792SOL     OW39816   5.469   1.219   6.866  0.6281  0.2736 -0.7208
12792SOL    HW139817   5.458   1.311   6.890  0.3758  0.4580 -1.5359
12792SOL    HW239818   5.501   1.221   6.776  0.4364 -0.4412 -0.8109
12793SOL     OW39819   4.962   7.482   5.880 -0.7624  0.0071 -0.2559
12793SOL    HW139820   5.032   7.458   5.942 -2.4835 -2.4210  0.8956
12793SOL    HW239821   4.941   7.400   5.836 -1.4957  1.1425 -2.1063
12794SOL     OW39822   3.270   1.677   6.921  0.3739 -0.0962 -0.4157
12794SOL    HW139823   3.282   1.771   6.934  2.0364 -0.0029 -2.1680
12794SOL    HW239824   3.358   1.640   6.925 -0.1600 -1.4770 -0.5765
12795SOL     OW39825   4.075   0.812   8.893 -0.2831 -0.4757 -0.3739
12795SOL    HW139826   4.038   0.781   8.811  1.2296  0.3810 -1.4253
12795SOL    HW239827   4.078   0.908   8.883  2.5889 -0.5195 -0.5629
12796SOL     OW39828   3.948   2.219   6.510 -0.3138 -0.4300  0.0653
12796SOL    HW139829   4.018   2.226   6.446 -1.7793 -0.1460 -1.5911
12796SOL    HW239830   3.884   2.160   6.469 -1.0303 -0.7124  1.5255
12797SOL     OW39831   5.547   0.333   7.393  0.3278  0.2042  0.3581
12797SOL    HW139832   5.586   0.284   7.466  0.0551  0.0747  0.4189
12797SOL    HW239833   5.456   0.348   7.420 -0.0370 -0.6590 -0.3528
12798SOL     OW39834   5.322   7.503   6.677  0.1162  0.2054  0.6011
12798SOL    HW139835   5.257   7.494   6.607  0.3209 -1.4125  0.5793
12798SOL    HW239836   5.303   7.431   6.737  0.8380  0.7268  1.4836
12799SOL     OW39837   4.557   0.359   6.254  0.2750 -0.4022 -0.0169
12799SOL    HW139838   4.576   0.424   6.322 -0.0158 -0.0236 -0.2962
12799SOL    HW239839   4.566   0.406   6.172 -0.2252 -0.6415 -0.2131
12800SOL     OW39840   5.426   1.652   7.776 -0.0752 -0.0158 -0.5472
12800SOL    HW139841   5.413   1.734   7.824 -0.9886 -0.2051 -0.4525
12800SOL    HW239842   5.382   1.666   7.692 -0.5781 -0.5320 -0.3793
12801SOL     OW39843   3.287   0.689  10.199 -0.1478 -0.3944 -0.3330
12801SOL    HW139844   3.224   0.754  10.227  0.0023 -0.5693  0.4133
12801SOL    HW239845   3.326   0.727  10.120  0.2152  0.5994  0.3036
12802SOL     OW39846   4.141   7.506   6.243  0.2154 -0.6667 -0.1503
12802SOL    HW139847   4.047   7.507   6.265  0.0598  0.7509 -0.7901
12802SOL    HW239848   4.185   7.531   6.323 -0.0600  0.1544 -0.2516
12803SOL     OW39849   6.392   0.368   6.826 -0.3617  0.0230  0.0557
12803SOL    HW139850   6.468   0.425   6.816  0.0584 -0.0819  2.1879
12803SOL    HW239851   6.421   0.284   6.790 -0.8182  0.9256 -2.6419
12804SOL     OW39852   4.608   1.144   5.814  0.2824 -0.1260 -0.0198
12804SOL    HW139853   4.565   1.223   5.844  1.6650  0.2381  1.0983
12804SOL    HW239854   4.592   1.080   5.883  1.9168  0.1740  0.6832
12805SOL     OW39855   3.995   2.291   5.501  0.1474 -0.5599  0.4508
12805SOL    HW139856   4.087   2.288   5.526  0.7288 -0.7240 -1.4950
12805SOL    HW239857   3.974   2.384   5.497  0.4675 -0.4963  0.1796
12806SOL     OW39858   4.537   7.734   8.437  0.4903 -0.0440 -0.1782
12806SOL    HW139859   4.606   7.781   8.390 -0.1847  0.5631 -0.5638
12806SOL    HW239860   4.462   7.792   8.435 -0.0266 -0.6786  0.2996
12807SOL     OW39861   2.985   0.033   8.676 -0.3611 -0.4554 -0.0322
12807SOL    HW139862   2.939   0.117   8.684 -0.6787 -0.6764  0.4893
12807SOL    HW239863   2.921  -0.032   8.703 -0.0128 -0.8428 -0.1329
12808SOL     OW39864   5.273   6.417   8.310  0.2033 -0.7341  0.4206
12808SOL    HW139865   5.181   6.423   8.286  0.2784 -1.6372 -0.1608
12808SOL    HW239866   5.309   6.504   8.292 -0.0956 -0.9457 -1.3134
12809SOL     OW39867   5.738   0.153   8.366 -0.4413  0.3591  0.0510
12809SOL    HW139868   5.820   0.198   8.347  1.3901 -3.0686 -1.0991
12809SOL    HW239869   5.669   0.215   8.341  1.6992  3.3839  1.0785
12810SOL     OW39870   5.070   2.484   6.226 -0.3924  0.0536  0.0428
12810SOL    HW139871   5.069   2.526   6.312  2.0849  0.1159  0.1223
12810SOL    HW239872   5.078   2.390   6.245 -0.7388 -0.0139 -0.1324
12811SOL     OW39873   4.069   1.101   7.175  0.6289 -0.5356 -0.0749
12811SOL    HW139874   4.162   1.108   7.153  0.6166  1.3511  0.2794
12811SOL    HW239875   4.068   1.060   7.261  1.0858 -1.1995 -0.3787
12812SOL     OW39876   2.229   1.623   6.705  0.4882  0.2000 -0.9465
12812SOL    HW139877   2.305   1.582   6.746 -0.5792 -0.7654  0.1565
12812SOL    HW239878   2.218   1.576   6.622 -0.4258 -1.4975  0.0811
12813SOL     OW39879   4.685   1.690   5.636 -0.2505 -0.0012 -0.3993
12813SOL    HW139880   4.721   1.668   5.550 -1.9689 -0.4277 -1.0480
12813SOL    HW239881   4.658   1.606   5.673 -0.9134  0.3355 -0.1012
12814SOL     OW39882   4.306   0.644   6.490 -0.1994 -0.0405 -0.4036
12814SOL    HW139883   4.211   0.633   6.500 -0.4074  1.6425 -0.2331
12814SOL    HW239884   4.321   0.635   6.396 -0.5352 -0.2223 -0.4429
12815SOL     OW39885   1.692   7.588   8.049  0.2008  0.6281 -0.3585
12815SOL    HW139886   1.634   7.664   8.053 -1.7441 -0.7682 -0.4208
12815SOL    HW239887   1.664   7.533   8.123  1.1048 -0.3346 -0.7087
12816SOL     OW39888   4.766   1.185   7.672  0.0614 -0.6001  0.2301
12816SOL    HW139889   4.755   1.118   7.605 -0.7225 -1.1535  0.8941
12816SOL    HW239890   4.750   1.140   7.754 -0.1824  0.3372  0.7116
12817SOL     OW39891   3.739   7.934   5.854 -0.1235  0.3515  0.2543
12817SOL    HW139892   3.780   8.017   5.830 -0.1293  0.1683 -0.4310
12817SOL    HW239893   3.786   7.869   5.802 -0.7503  0.0463  0.0524
12818SOL     OW39894   5.936   0.587   5.510 -0.0147 -0.7071 -0.2547
12818SOL    HW139895   5.929   0.525   5.437  0.9945 -0.0681 -0.9189
12818SOL    HW239896   5.996   0.655   5.479  0.3536 -0.3526  1.1285
12819SOL     OW39897   3.439   2.074   6.482  0.7754  0.0207  0.0349
12819SOL    HW139898   3.476   2.093   6.395  0.5038  1.8800  0.3054
12819SOL    HW239899   3.465   2.148   6.536 -0.3743 -0.3736  1.1607
12820SOL     OW39900   6.501   1.481   6.425 -0.2933 -0.4154 -0.2743
12820SOL    HW139901   6.578   1.425   6.415 -0.0780 -0.2873  0.5631
12820SOL    HW239902   6.534   1.570   6.411 -0.2155 -0.3331  0.3914
12821SOL     OW39903   3.921   1.328   8.050  0.2844  0.0504 -0.7246
12821SOL    HW139904   3.966   1.297   7.972 -0.5055  1.2239 -1.6926
12821SOL    HW239905   3.829   1.309   8.034  0.3326 -2.5093  1.3041
12822SOL     OW39906   3.444   0.973   7.713  0.1704 -0.2118  0.2562
12822SOL    HW139907   3.402   1.002   7.794 -0.5379 -0.0317 -0.1719
12822SOL    HW239908   3.494   1.049   7.683 -0.6416  0.1550 -0.1805
12823SOL     OW39909   3.559   1.405   9.101  0.0699 -0.0182  0.3514
12823SOL    HW139910   3.557   1.457   9.021 -0.8226  0.5104  0.7031
12823SOL    HW239911   3.498   1.332   9.084 -0.5322  0.3859  0.7270
12824SOL     OW39912   4.455   7.902   3.964 -0.5065  0.2979  0.0965
12824SOL    HW139913   4.385   7.868   3.908 -0.5250  0.7389 -0.1480
12824SOL    HW239914   4.416   7.975   4.010  0.0926  1.2488 -0.8545
12825SOL     OW39915   4.894   2.518   5.334  0.4576 -0.0328 -0.1678
12825SOL    HW139916   4.870   2.602   5.294  3.1510  1.9028  1.8538
12825SOL    HW239917   4.834   2.509   5.408 -0.4640 -0.4215 -0.9435
12826SOL     OW39918   5.539   2.716   5.231  0.8279 -0.9028  0.2667
12826SOL    HW139919   5.507   2.677   5.150 -0.1650  0.0991  0.1483
12826SOL    HW239920   5.635   2.712   5.224  0.7958  0.2224 -1.5020
12827SOL     OW39921   4.544   0.208   6.530 -0.1776 -0.2836  0.3138
12827SOL    HW139922   4.557   0.245   6.442  0.7716 -0.3583  0.4135
12827SOL    HW239923   4.513   0.282   6.582 -1.2073 -0.3448 -0.1811
12828SOL     OW39924   2.087   1.105   5.869 -0.1791 -0.6444  0.4992
12828SOL    HW139925   2.042   1.137   5.791  0.1154  0.0075  0.5919
12828SOL    HW239926   2.179   1.097   5.841 -0.2697 -1.5444  0.4359
12829SOL     OW39927   5.147   7.285   6.764  0.7320 -0.1721  0.2442
12829SOL    HW139928   5.055   7.277   6.787  0.3676 -0.3110 -1.1629
12829SOL    HW239929   5.154   7.241   6.679  1.7592  1.2617 -0.4433
12830SOL     OW39930   5.989   1.112   4.093 -0.3181  0.2643 -0.5072
12830SOL    HW139931   6.034   1.138   4.173 -0.3986  0.1833 -0.4359
12830SOL    HW239932   5.896   1.124   4.112 -0.3862 -0.5221 -0.3113
12831SOL     OW39933   5.485   1.745   4.881  0.1418  0.1373 -0.3409
12831SOL    HW139934   5.397   1.756   4.843  0.6936 -0.1617 -1.7601
12831SOL    HW239935   5.479   1.787   4.967 -1.3373  0.2819 -0.4817
12832SOL     OW39936   3.589   1.839   7.074  0.2396  0.7123 -0.4290
12832SOL    HW139937   3.659   1.905   7.078 -0.4690  1.5276 -1.0163
12832SOL    HW239938   3.508   1.891   7.063 -0.6114 -0.1257  1.4696
12833SOL     OW39939   3.186   0.600   6.356 -0.7988 -0.0230  0.1695
12833SOL    HW139940   3.174   0.628   6.447 -1.2027  0.7208 -0.0960
12833SOL    HW239941   3.221   0.678   6.312  1.3817 -0.9908  0.0975
12834SOL     OW39942   5.197   1.572   6.732  0.3121  0.4420 -0.0036
12834SOL    HW139943   5.139   1.498   6.747 -0.9785  1.3285 -0.4291
12834SOL    HW239944   5.281   1.533   6.708 -0.6498 -0.8850 -1.3737
12835SOL     OW39945   5.190   6.875   6.848 -0.0604  1.3553  0.5705
12835SOL    HW139946   5.120   6.878   6.914  0.1452 -0.9078  0.9524
12835SOL    HW239947   5.143   6.873   6.765 -0.3742  1.9197  0.7225
12836SOL     OW39948   4.405   2.137   6.676  0.4946  0.0166  0.1278
12836SOL    HW139949   4.444   2.067   6.624  1.0307  0.3112  0.1262
12836SOL    HW239950   4.478   2.175   6.725 -0.1116 -0.7219  1.6632
12837SOL     OW39951   5.060   0.057   4.390  0.4807  0.1814 -0.4061
12837SOL    HW139952   4.996   0.114   4.348 -0.4907 -0.5556  0.0520
12837SOL    HW239953   5.043   0.066   4.484  1.1309  0.0697 -0.2704
12838SOL     OW39954   5.012   7.367   8.360  0.5761 -0.2439  0.4377
12838SOL    HW139955   4.977   7.437   8.415  1.6641  0.1524  0.6388
12838SOL    HW239956   5.083   7.408   8.310 -0.8302 -0.3807 -1.8446
12839SOL     OW39957   5.680   3.546   7.549 -0.9169 -0.1956 -0.3737
12839SOL    HW139958   5.587   3.559   7.570 -1.1029 -0.1887 -1.1669
12839SOL    HW239959   5.705   3.467   7.597 -0.8985  0.6844  1.1213
12840SOL     OW39960   4.035   1.966   6.076  0.1068  0.5677  0.1668
12840SOL    HW139961   4.102   2.034   6.067  0.0718  0.7687  1.3392
12840SOL    HW239962   4.082   1.890   6.109  0.0884  0.0952 -0.8504
12841SOL     OW39963   6.043   1.530   7.267 -0.1094 -0.4027 -0.3414
12841SOL    HW139964   6.064   1.459   7.327 -0.3953 -0.9363 -0.8664
12841SOL    HW239965   6.054   1.492   7.180 -1.7698 -0.2690 -0.6354
12842SOL     OW39966   6.354   2.462   5.354 -0.3114  0.3374 -0.2291
12842SOL    HW139967   6.308   2.389   5.396  2.4761 -2.3137 -1.4631
12842SOL    HW239968   6.347   2.445   5.260  3.0488 -0.2749 -0.4981
12843SOL     OW39969   2.889   1.711   6.972 -0.3842 -0.4370  0.2690
12843SOL    HW139970   2.924   1.791   7.012  0.2044  0.0522 -1.1585
12843SOL    HW239971   2.835   1.743   6.900  0.4899 -1.3320 -0.8116
12844SOL     OW39972   4.168   1.359   5.747 -0.2955 -0.0632 -0.5038
12844SOL    HW139973   4.109   1.349   5.672 -1.1863 -2.6008  0.3877
12844SOL    HW239974   4.120   1.416   5.807 -1.1952 -0.8100 -0.4698
12845SOL     OW39975   5.372   2.613   4.992  0.0841 -0.3399  0.1650
12845SOL    HW139976   5.316   2.620   5.069  3.7538  0.6456  3.0292
12845SOL    HW239977   5.348   2.689   4.938 -1.1219  0.2079  1.4155
12846SOL     OW39978   4.900   7.941   5.654 -0.3246 -0.6013 -0.5545
12846SOL    HW139979   4.825   7.950   5.594 -1.4006  1.2789  0.9336
12846SOL    HW239980   4.860   7.936   5.741  1.2568  0.5045  0.2899
12847SOL     OW39981   5.361   0.969   6.902  0.0448 -0.3345  0.5294
12847SOL    HW139982   5.432   1.031   6.885  0.2380 -0.5936  0.3874
12847SOL    HW239983   5.281   1.020   6.888  0.1995 -0.0800  0.5508
12848SOL     OW39984   5.637   1.968   5.323 -0.1226  0.2931 -0.4283
12848SOL    HW139985   5.712   2.027   5.328 -0.2846  0.4535  0.1959
12848SOL    HW239986   5.601   1.967   5.412 -0.0805 -0.8090 -0.4147
12849SOL     OW39987   4.142   0.886   4.307 -0.1595  0.3882 -0.2475
12849SOL    HW139988   4.136   0.943   4.384 -1.7530 -0.5128  0.3443
12849SOL    HW239989   4.175   0.803   4.341 -1.8254 -0.3362 -0.2932
12850SOL     OW39990   2.684   7.675   8.642  0.9070  0.0988  0.8445
12850SOL    HW139991   2.660   7.718   8.560  0.1547 -0.0232  0.9930
12850SOL    HW239992   2.640   7.590   8.639 -0.3323  0.6431  1.9825
12851SOL     OW39993   5.267   7.281   7.607 -0.0258  0.1536 -0.5693
12851SOL    HW139994   5.329   7.226   7.654 -2.0461 -1.2357  0.6553
12851SOL    HW239995   5.210   7.219   7.560 -1.6363  1.2182 -0.1277
12852SOL     OW39996   3.659   0.394   5.397 -0.1788  0.4756  0.2704
12852SOL    HW139997   3.696   0.354   5.476  1.7723  3.6349  1.1459
12852SOL    HW239998   3.572   0.425   5.425 -0.2524 -0.0487  0.6318
12853SOL     OW39999   4.503   0.789   5.175 -0.1297  0.2274  0.1485
12853SOL    HW140000   4.581   0.844   5.162  0.4017 -0.6607 -0.5302
12853SOL    HW240001   4.538   0.700   5.181 -1.2534 -0.4693 -2.4029
12854SOL     OW40002   4.267   0.652   5.684 -0.0779  0.0407 -0.5671
12854SOL    HW140003   4.178   0.687   5.697 -0.6893 -1.7503  0.4485
12854SOL    HW240004   4.325   0.725   5.704 -1.3144  1.1912 -1.0460
12855SOL     OW40005   3.866   1.646   5.566  0.0796  0.1000  0.0408
12855SOL    HW140006   3.860   1.712   5.497 -0.8185 -0.6356 -0.6277
12855SOL    HW240007   3.932   1.679   5.627  2.3817 -0.1252 -2.1661
12856SOL     OW40008   3.105   1.120   8.930 -0.0667 -0.1009  0.1198
12856SOL    HW140009   3.116   1.203   8.885 -0.0237 -0.1103  0.1121
12856SOL    HW240010   3.194   1.086   8.941 -0.1916 -1.3824 -2.1984
12857SOL     OW40011   2.810   1.097   6.479 -0.5414  0.0222 -0.9705
12857SOL    HW140012   2.857   1.142   6.409 -0.5813  0.1465 -0.9172
12857SOL    HW240013   2.863   1.020   6.498 -0.5651 -0.0489 -1.1859
12858SOL     OW40014   4.985   0.665   7.121  0.6791 -0.4730  0.3389
12858SOL    HW140015   5.071   0.689   7.087 -0.3690  0.1654 -2.1210
12858SOL    HW240016   4.965   0.582   7.078  0.3349 -0.9845  1.4531
12859SOL     OW40017   4.113   1.835   4.481 -0.0860  0.3862 -0.2682
12859SOL    HW140018   4.029   1.813   4.439 -0.0377 -2.1404  0.7908
12859SOL    HW240019   4.126   1.766   4.546  1.6181  2.1522  1.3773
12860SOL     OW40020   4.369   1.338   7.582  0.0575  0.3407 -0.1566
12860SOL    HW140021   4.452   1.334   7.629 -0.2493  2.2169  0.6291
12860SOL    HW240022   4.340   1.429   7.593 -2.1937 -0.3268 -0.2368
12861SOL     OW40023   5.941   2.650   5.815 -0.3076 -1.0303  0.1307
12861SOL    HW140024   5.878   2.689   5.876  0.4515  1.7000 -0.6570
12861SOL    HW240025   6.018   2.633   5.868 -0.2117 -0.1906  0.2788
12862SOL     OW40026   3.508   0.965   6.872 -0.0980  0.1695 -0.0222
12862SOL    HW140027   3.458   1.015   6.808  1.2752  0.4633 -0.8833
12862SOL    HW240028   3.531   0.884   6.827 -1.0065 -0.6297  0.8660
12863SOL     OW40029   4.396   2.627   5.074  0.2589  0.0864 -0.2087
12863SOL    HW140030   4.461   2.684   5.115  1.7161 -0.6246 -1.4456
12863SOL    HW240031   4.415   2.540   5.109  0.7167 -0.3130 -1.4376
12864SOL     OW40032   5.764   2.385   5.283 -0.3534  0.0116  0.0306
12864SOL    HW140033   5.690   2.387   5.343  0.0991 -0.5207  0.6267
12864SOL    HW240034   5.800   2.297   5.293  0.1774  0.1654 -0.4721
12865SOL     OW40035   5.580   1.636   6.744 -0.2834  0.2600  0.3119
12865SOL    HW140036   5.661   1.584   6.742 -0.1096  0.5174  0.4992
12865SOL    HW240037   5.527   1.601   6.673 -0.6733 -0.9809  1.1839
12866SOL     OW40038   5.248   0.744   6.993  0.5381 -0.3917  0.0780
12866SOL    HW140039   5.256   0.688   6.916 -0.4807  0.9795 -1.0945
12866SOL    HW240040   5.291   0.826   6.968  1.5824 -0.4317  1.5761
12867SOL     OW40041   3.827   1.397   7.398  0.4789  0.2547 -0.0180
12867SOL    HW140042   3.815   1.371   7.490  4.6510  3.9093  1.9341
12867SOL    HW240043   3.917   1.372   7.378 -0.2081 -0.1168 -3.1232
12868SOL     OW40044   2.186   1.436   6.022 -0.2225  0.0958 -0.0101
12868SOL    HW140045   2.252   1.503   6.005  0.8062 -0.3060  2.0945
12868SOL    HW240046   2.114   1.457   5.962  1.1712  1.4455 -1.2932
12869SOL     OW40047   5.095   1.489   5.485  0.4217 -0.2370 -0.1719
12869SOL    HW140048   5.185   1.488   5.519  0.6479 -0.5906 -0.7760
12869SOL    HW240049   5.099   1.439   5.404  0.1084  1.4933 -1.2993
12870SOL     OW40050   3.925   1.422   5.897 -0.1663  0.1639 -0.4347
12870SOL    HW140051   3.940   1.512   5.925  0.3134 -0.3157  0.9704
12870SOL    HW240052   3.871   1.385   5.967 -0.9699 -0.4489 -1.3525
12871SOL     OW40053   3.327   0.325   6.376 -0.5270  0.2563  1.0103
12871SOL    HW140054   3.259   0.361   6.319  0.5674  0.7845 -0.0128
12871SOL    HW240055   3.307   0.232   6.382 -0.1702  0.0108 -1.0077
12872SOL     OW40056   1.921   0.901   5.891 -0.2215  0.2375  0.3525
12872SOL    HW140057   1.963   0.828   5.846 -0.9418 -0.2555  0.4707
12872SOL    HW240058   1.989   0.969   5.894  0.0267  0.0741 -0.9535
12873SOL     OW40059   3.260   0.115   7.077 -0.3501  0.4355 -0.2301
12873SOL    HW140060   3.262   0.056   7.152 -1.2959 -0.0959 -0.6105
12873SOL    HW240061   3.258   0.058   7.001  0.9669  0.9674 -0.7009
12874SOL     OW40062   2.781   7.985   5.915 -0.0001 -0.9757  0.0156
12874SOL    HW140063   2.790   8.014   6.005  0.3004 -0.3400 -0.2111
12874SOL    HW240064   2.817   7.896   5.915 -2.2502 -1.9435  1.0061
12875SOL     OW40065   4.468   0.898   5.966 -0.1866 -0.1833  0.2650
12875SOL    HW140066   4.562   0.884   5.964 -0.5556 -3.3871 -1.3994
12875SOL    HW240067   4.436   0.862   5.883 -3.0389 -1.1128  1.6073
12876SOL     OW40068   5.139   7.452   6.484 -0.2484 -0.1385 -0.0783
12876SOL    HW140069   5.142   7.359   6.508 -3.0130 -0.2690  0.1108
12876SOL    HW240070   5.054   7.462   6.442  0.3811  2.1538 -0.9328
12877SOL     OW40071   3.983   0.717   6.159  0.4434  0.0618 -0.1681
12877SOL    HW140072   4.031   0.640   6.129 -0.3340 -0.5645  0.1659
12877SOL    HW240073   3.968   0.701   6.252  0.0764  0.5106 -0.1449
12878SOL     OW40074   4.549   0.479   7.032 -0.3462  0.4958 -0.3016
12878SOL    HW140075   4.469   0.525   7.054 -0.1620  0.7716 -0.1975
12878SOL    HW240076   4.564   0.420   7.106 -1.2123 -0.6069 -0.9658
12879SOL     OW40077   3.649   0.722   6.765  0.6048 -0.3402 -0.2779
12879SOL    HW140078   3.663   0.717   6.860 -0.2656  0.9674 -0.0591
12879SOL    HW240079   3.738   0.721   6.728  1.1058  1.7424  0.7167
12880SOL     OW40080   4.111   7.180   6.693  0.4125  0.2223 -0.5631
12880SOL    HW140081   4.106   7.217   6.782  0.3942 -0.3517 -0.3191
12880SOL    HW240082   4.117   7.256   6.636 -0.8577  0.6617 -0.1546
12881SOL     OW40083   3.681   1.525   6.534 -0.0878  0.3407  0.5474
12881SOL    HW140084   3.664   1.619   6.539 -1.4066  0.2484 -1.1523
12881SOL    HW240085   3.632   1.497   6.456  0.7449 -1.6494  0.7066
12882SOL     OW40086   4.397   1.842   7.188  0.2825  0.6930 -0.3421
12882SOL    HW140087   4.443   1.921   7.160  0.2464  0.7068 -0.3623
12882SOL    HW240088   4.431   1.773   7.131 -1.5649  1.1524 -2.1014
12883SOL     OW40089   3.172   0.706   5.844  0.0350 -0.1661 -0.2620
12883SOL    HW140090   3.181   0.770   5.914  0.4135  0.4430 -0.8618
12883SOL    HW240091   3.077   0.690   5.838 -0.0386  0.1534  0.0429
12884SOL     OW40092   5.644   7.381   7.215  0.3828  0.1281 -0.0365
12884SOL    HW140093   5.579   7.312   7.206  0.7855 -0.4489  1.2538
12884SOL    HW240094   5.717   7.354   7.159 -0.0294  0.2256 -0.6267
12885SOL     OW40095   6.650   6.324   5.192 -0.0812 -0.0836 -0.1919
12885SOL    HW140096   6.719   6.288   5.248  1.0906  2.1950 -0.0704
12885SOL    HW240097   6.666   6.418   5.192 -2.8818  0.4580 -0.6546
12886SOL     OW40098   3.096   1.431   3.871  0.4189 -0.1489  0.2095
12886SOL    HW140099   3.037   1.356   3.877 -2.4223  1.7954 -1.4119
12886SOL    HW240100   3.169   1.400   3.817 -0.2231 -1.9656  0.3178
12887SOL     OW40101   4.771   0.233   6.008 -0.1585 -0.8122  0.1042
12887SOL    HW140102   4.763   0.304   5.944  1.7657  0.0802  0.7732
12887SOL    HW240103   4.824   0.270   6.078 -1.7231 -1.9388  2.0042
12888SOL     OW40104   4.267   7.609   6.809  0.2754 -0.1455 -0.3588
12888SOL    HW140105   4.239   7.690   6.853 -0.1771 -0.2240 -0.4935
12888SOL    HW240106   4.362   7.614   6.807  0.3174 -0.2079  0.7634
12889SOL     OW40107   2.711   0.776   9.718 -0.3817  0.5197 -0.0929
12889SOL    HW140108   2.721   0.832   9.641 -0.0188  0.2857 -0.2271
12889SOL    HW240109   2.626   0.799   9.755 -0.0343  1.4830  0.1289
12890SOL     OW40110   4.626   5.629   7.333  0.3257 -0.7189 -0.2668
12890SOL    HW140111   4.624   5.590   7.420  0.5490  0.6683  0.3875
12890SOL    HW240112   4.616   5.555   7.273  0.2677 -1.7057  0.9261
12891SOL     OW40113   5.234   0.949   9.123 -0.1879 -0.0998  0.6400
12891SOL    HW140114   5.316   0.972   9.080 -0.4475 -2.4088 -1.3192
12891SOL    HW240115   5.171   1.014   9.094  0.5141  0.5966  0.6558
12892SOL     OW40116   5.434   0.520   6.694  0.4024  0.5626  0.1059
12892SOL    HW140117   5.424   0.481   6.607  1.7824  1.2314 -0.3683
12892SOL    HW240118   5.455   0.445   6.751 -0.3466  0.1458 -0.1504
12893SOL     OW40119   4.859   1.116   5.662 -0.2038  0.4874  0.1750
12893SOL    HW140120   4.765   1.114   5.682 -0.7186  3.0717 -1.4142
12893SOL    HW240121   4.894   1.186   5.718  0.1986  1.2914 -1.0260
12894SOL     OW40122   3.468   5.096   8.450 -0.0406 -0.1094  0.4760
12894SOL    HW140123   3.377   5.102   8.419  1.0842  3.9034 -2.9739
12894SOL    HW240124   3.467   5.138   8.536 -1.2553  1.3263 -0.1983
12895SOL     OW40125   4.864   0.649  10.109 -0.5156  0.1817  0.2558
12895SOL    HW140126   4.856   0.572  10.165  1.1542  0.0405  0.3375
12895SOL    HW240127   4.778   0.656  10.066 -0.5677 -1.9945 -0.1193
12896SOL     OW40128   2.739   1.291   9.171  0.1275  0.1620 -0.0083
12896SOL    HW140129   2.830   1.318   9.185 -0.0844  0.1888  1.4852
12896SOL    HW240130   2.734   1.272   9.078  1.5997  0.4141 -0.1680
12897SOL     OW40131   2.652   7.641   7.292 -0.0365  0.3470  0.2738
12897SOL    HW140132   2.695   7.716   7.334 -1.8510  0.7978  1.4421
12897SOL    HW240133   2.605   7.679   7.218  1.1444 -0.0870 -0.7504
12898SOL     OW40134   4.135   7.723  10.058  0.0566  0.0973 -1.0905
12898SOL    HW140135   4.132   7.642  10.108  0.2599 -0.7712 -2.4208
12898SOL    HW240136   4.215   7.766  10.087  0.1564 -0.3717 -0.6499
12899SOL     OW40137   4.155   1.425   8.640  0.2189  0.1463  0.7472
12899SOL    HW140138   4.171   1.452   8.550 -0.6509  0.5268  0.6922
12899SOL    HW240139   4.199   1.340   8.648  1.6068  0.8175  0.4362
12900SOL     OW40140   4.917   2.648   7.671  0.5069 -0.4980 -0.4862
12900SOL    HW140141   4.948   2.713   7.735  0.7432 -1.6305  0.5966
12900SOL    HW240142   4.870   2.699   7.606 -1.2226  0.5724  1.4749
12901SOL     OW40143   4.206   0.689   9.259 -0.3407 -0.4098  0.0308
12901SOL    HW140144   4.298   0.668   9.244  0.3073  2.1280  0.0155
12901SOL    HW240145   4.160   0.607   9.244  1.6986 -1.2916 -2.0020
12902SOL     OW40146   6.250   7.454   9.382 -0.1839 -0.1821  0.5508
12902SOL    HW140147   6.270   7.544   9.357 -0.0154 -0.6046 -0.9074
12902SOL    HW240148   6.250   7.406   9.300 -0.9758 -1.3902  1.2352
12903SOL     OW40149   4.775   2.415   8.555  0.1055  0.1854 -0.0240
12903SOL    HW140150   4.792   2.509   8.562  0.0355  0.2186 -0.2884
12903SOL    HW240151   4.810   2.391   8.469 -0.3918  0.0848 -0.2031
12904SOL     OW40152   4.388   0.298   7.769  0.6466  0.1121 -0.3417
12904SOL    HW140153   4.453   0.228   7.757 -0.4992 -0.9428 -0.6298
12904SOL    HW240154   4.360   0.319   7.680  0.9263  0.9116 -0.2504
12905SOL     OW40155   3.981   1.626   7.375 -0.0655  0.0452  0.6368
12905SOL    HW140156   3.927   1.557   7.414  0.9226 -0.4809  1.1127
12905SOL    HW240157   4.055   1.579   7.336 -0.2247  0.7023 -0.4980
12906SOL     OW40158   4.089   0.059   6.655  0.1129  0.6165 -0.4283
12906SOL    HW140159   4.095   0.019   6.568  1.4139  2.2855 -1.1626
12906SOL    HW240160   4.179   0.077   6.680 -0.0698 -1.3286  2.0779
12907SOL     OW40161   3.806   0.288   7.981  0.0077  0.3801  0.5335
12907SOL    HW140162   3.865   0.259   7.911 -0.8424 -1.1908  0.4189
12907SOL    HW240163   3.853   0.360   8.023  1.5604 -0.1636 -0.1772
12908SOL     OW40164   4.016   0.719   7.474 -0.0553  1.1284 -0.0556
12908SOL    HW140165   4.013   0.649   7.540 -0.5237  0.7749 -0.4441
12908SOL    HW240166   3.956   0.785   7.507 -1.9514  0.0285 -1.1333
12909SOL     OW40167   6.903   7.894   9.807  0.4544 -0.2730 -0.2161
12909SOL    HW140168   6.997   7.876   9.809  0.7644  1.2258  0.3593
12909SOL    HW240169   6.861   7.808   9.813  1.7787 -0.8886  0.6439
12910SOL     OW40170   4.733   0.492   7.625  0.0427  0.2241 -0.2172
12910SOL    HW140171   4.694   0.572   7.590 -0.6621 -0.4722 -1.0767
12910SOL    HW240172   4.685   0.421   7.582 -0.6753 -0.7009  1.9921
12911SOL     OW40173   5.525   7.991   7.807  0.6323 -0.3675 -0.7839
12911SOL    HW140174   5.570   7.909   7.830 -0.4628 -0.6092  0.6410
12911SOL    HW240175   5.443   7.988   7.856 -0.2473  0.7788 -2.1044
12912SOL     OW40176   4.416   1.708   9.676  0.3775  0.3322  0.0752
12912SOL    HW140177   4.361   1.764   9.730  1.2658  0.4216  0.8954
12912SOL    HW240178   4.486   1.679   9.734  1.1628  0.1627 -0.9345
12913SOL     OW40179   5.022   1.025   7.730  0.0200  0.1638 -0.5608
12913SOL    HW140180   5.094   1.026   7.666 -0.6210 -0.1625 -1.3076
12913SOL    HW240181   4.981   1.111   7.722  0.7444  0.6169  0.3752
12914SOL     OW40182   6.375   2.387   7.405  0.1420 -0.0859 -0.1950
12914SOL    HW140183   6.468   2.375   7.384  0.2407 -1.2190  0.7697
12914SOL    HW240184   6.328   2.346   7.333  0.4075 -0.2040 -0.3006
12915SOL     OW40185   4.815   0.210   8.907 -0.0564 -0.0380  0.0678
12915SOL    HW140186   4.838   0.235   8.817 -1.8334  0.8405 -0.1940
12915SOL    HW240187   4.719   0.215   8.909 -0.1882 -1.8642  1.5069
12916SOL     OW40188   4.762   0.991   7.869 -0.6386 -0.1552 -0.7748
12916SOL    HW140189   4.814   0.938   7.809 -2.5440 -1.0214 -1.7510
12916SOL    HW240190   4.674   0.954   7.864 -1.6761  2.0487 -0.1738
12917SOL     OW40191   4.060   0.933   6.499 -0.3933 -0.3231 -0.1399
12917SOL    HW140192   4.087   0.853   6.455 -0.5016 -0.1849 -0.4608
12917SOL    HW240193   3.979   0.910   6.544 -1.3765  0.0583 -1.6613
12918SOL     OW40194   3.599   1.146   8.050  0.4953  0.0763 -0.4525
12918SOL    HW140195   3.518   1.143   8.000  0.3471  0.0849 -0.2126
12918SOL    HW240196   3.575   1.188   8.133  0.5295 -0.8148  0.0207
12919SOL     OW40197   4.548   0.170   9.374  0.2302 -0.5785  0.1166
12919SOL    HW140198   4.477   0.143   9.315  0.0590 -1.1055  0.5497
12919SOL    HW240199   4.624   0.182   9.317 -0.8858  2.9611 -0.8309
12920SOL     OW40200   3.784   1.946   9.664 -0.6190  0.3822  0.4066
12920SOL    HW140201   3.741   2.018   9.710 -0.4835  0.7707 -0.0669
12920SOL    HW240202   3.801   1.881   9.732  1.4848  1.8047  1.3234
12921SOL     OW40203   6.228   3.262   8.451 -0.8080 -0.1631  0.3476
12921SOL    HW140204   6.299   3.223   8.501 -0.5994 -1.1833 -0.7001
12921SOL    HW240205   6.161   3.284   8.516  0.4417  0.8260  1.3512
12922SOL     OW40206   5.026   7.100   7.060 -0.7406 -0.0815  0.5840
12922SOL    HW140207   5.024   7.144   6.975  1.2780  0.7255  0.9133
12922SOL    HW240208   4.977   7.159   7.118  0.7727  1.1096  0.7115
12923SOL     OW40209   5.807   0.844   7.778 -0.0221  0.2300  0.3006
12923SOL    HW140210   5.837   0.809   7.693 -0.9954 -0.4272  0.2067
12923SOL    HW240211   5.826   0.937   7.773  2.5288 -0.2265  0.4986
12924SOL     OW40212   5.161   0.831   7.902  0.1467 -0.8338  0.0612
12924SOL    HW140213   5.104   0.878   7.841 -0.0951 -1.0401  0.1246
12924SOL    HW240214   5.152   0.877   7.985  1.0046 -0.1360 -0.2202
12925SOL     OW40215   3.475   7.511   7.768  0.0964  0.2184 -0.1016
12925SOL    HW140216   3.413   7.438   7.770  1.3039 -0.8350 -0.4057
12925SOL    HW240217   3.510   7.516   7.857  2.2052 -1.5447 -0.7516
12926SOL     OW40218   5.692   6.745   8.233  0.1676 -0.0567 -0.4208
12926SOL    HW140219   5.758   6.807   8.264  1.0374  0.2618 -2.7516
12926SOL    HW240220   5.673   6.773   8.144 -2.3049 -0.8435 -0.2105
12927SOL     OW40221   4.930   7.806   8.458 -0.1169 -0.0896  0.3517
12927SOL    HW140222   4.957   7.866   8.388 -0.3200 -1.2948 -0.8058
12927SOL    HW240223   4.868   7.856   8.510  0.6695  1.1158  0.1690
12928SOL     OW40224   3.542   0.505  10.196  0.4516 -0.4575  0.4705
12928SOL    HW140225   3.617   0.473  10.145  0.5373 -1.9935  1.4745
12928SOL    HW240226   3.563   0.596  10.216  0.0542  0.4621 -2.8199
12929SOL     OW40227   6.039   7.316   8.265  0.4246  0.4627 -0.1464
12929SOL    HW140228   5.998   7.402   8.270  1.3613  0.8487  1.7150
12929SOL    HW240229   6.047   7.298   8.171  2.0940  3.3221 -0.6617
12930SOL     OW40230   2.618   1.912   8.886  0.7902 -0.4806 -0.1021
12930SOL    HW140231   2.707   1.945   8.871 -0.4242  2.0007 -2.8906
12930SOL    HW240232   2.561   1.979   8.849 -2.2222 -2.8454 -0.1730
12931SOL     OW40233   3.537   1.563   8.866  0.5625 -0.5552 -0.1382
12931SOL    HW140234   3.449   1.598   8.861  0.0183 -1.8945 -0.3599
12931SOL    HW240235   3.563   1.547   8.775  1.0158 -0.2376 -0.0712
12932SOL     OW40236   5.033   0.245   7.458  0.3463 -0.2820 -0.1948
12932SOL    HW140237   4.958   0.251   7.398  0.2183 -1.5778 -0.1742
12932SOL    HW240238   5.003   0.188   7.528  1.4372 -1.0053 -0.2969
12933SOL     OW40239   4.243   0.155   8.583  0.4140 -0.2822  0.1591
12933SOL    HW140240   4.272   0.246   8.594 -1.4656  0.5170 -0.9653
12933SOL    HW240241   4.252   0.139   8.489 -1.1593 -0.5403  0.0282
12934SOL     OW40242   3.703   1.842   8.357 -0.4330  0.1868 -0.1398
12934SOL    HW140243   3.713   1.770   8.294  1.4123  1.6544 -1.6634
12934SOL    HW240244   3.780   1.834   8.414  0.2371  1.3477 -0.8286
12935SOL     OW40245   2.793   7.678   9.984 -0.4364 -0.0019 -0.2003
12935SOL    HW140246   2.821   7.770   9.976  0.1423 -0.1901 -0.4347
12935SOL    HW240247   2.717   7.671   9.927 -1.4286  0.6915  0.9676
12936SOL     OW40248   3.753   0.678   9.553  0.7598 -0.0882 -0.1594
12936SOL    HW140249   3.735   0.725   9.635 -1.5458 -1.9452  0.5082
12936SOL    HW240250   3.783   0.592   9.581  1.1838 -0.3216 -1.2908
12937SOL     OW40251   4.339   7.407   8.692 -0.4252  0.3365  0.3071
12937SOL    HW140252   4.268   7.467   8.716 -0.3407  0.6182 -0.1364
12937SOL    HW240253   4.353   7.354   8.771 -1.3443  0.0552  0.2879
12938SOL     OW40254   3.601   7.833   9.228  0.6370  0.2861  0.0123
12938SOL    HW140255   3.516   7.831   9.184  0.4662  2.1879  0.1569
12938SOL    HW240256   3.587   7.886   9.306  1.1676 -2.2340  1.9549
12939SOL     OW40257   4.884   0.826   6.515 -0.3638 -0.2039 -0.1479
12939SOL    HW140258   4.850   0.762   6.578  0.7896  0.1759  0.9002
12939SOL    HW240259   4.968   0.853   6.552  0.8354 -0.6968 -2.3570
12940SOL     OW40260   4.592   2.268   8.200 -0.7265  0.4257 -0.1403
12940SOL    HW140261   4.562   2.250   8.289  1.2207  2.4655  1.0389
12940SOL    HW240262   4.542   2.345   8.173 -1.5503 -0.3830 -0.9759
12941SOL     OW40263   5.751   7.444   7.783 -0.6690  0.1831 -0.2923
12941SOL    HW140264   5.706   7.468   7.701  0.5679  1.7491 -0.5625
12941SOL    HW240265   5.841   7.425   7.756 -0.3990  0.1003  0.6359
12942SOL     OW40266   5.324   1.872   8.289  0.1661  0.6365 -0.1759
12942SOL    HW140267   5.260   1.844   8.354 -0.9350  1.0266 -1.0536
12942SOL    HW240268   5.272   1.905   8.216  1.3750  1.0855 -0.8798
12943SOL     OW40269   3.953   2.135   7.593  0.6038  0.3028 -0.0045
12943SOL    HW140270   3.874   2.176   7.627  2.4825  2.4316  2.1479
12943SOL    HW240271   3.959   2.051   7.638 -0.6091 -0.1031 -0.5524
12944SOL     OW40272   5.169   2.256   6.352 -0.5644 -0.0218 -0.3769
12944SOL    HW140273   5.260   2.230   6.370 -1.4645 -2.9538  0.5325
12944SOL    HW240274   5.134   2.281   6.437 -1.0529 -0.5800 -0.4083
12945SOL     OW40275   2.382   2.381   9.366  0.5044 -0.0513 -0.5691
12945SOL    HW140276   2.314   2.359   9.302 -0.2422 -1.0085  0.5010
12945SOL    HW240277   2.461   2.396   9.314 -0.9236  3.2343 -2.0578
12946SOL     OW40278   5.818   1.883   8.206  0.2513  0.2598  0.5678
12946SOL    HW140279   5.871   1.829   8.148 -0.8987 -0.8548  0.4992
12946SOL    HW240280   5.881   1.928   8.262  1.3051  0.0928 -0.4603
12947SOL     OW40281   4.645   7.498   7.529  0.2342  0.0757 -0.1326
12947SOL    HW140282   4.730   7.461   7.506  0.3405  0.8277 -0.9873
12947SOL    HW240283   4.583   7.454   7.470  0.1582  0.2010 -0.1464
12948SOL     OW40284   5.512   7.141   8.457  0.3465 -0.2962 -0.7209
12948SOL    HW140285   5.461   7.112   8.382  0.6556 -1.2384 -0.5746
12948SOL    HW240286   5.600   7.106   8.441  0.4372 -0.4285  0.0376
12949SOL     OW40287   4.785   3.460   8.046 -0.2617  0.0851 -0.2487
12949SOL    HW140288   4.844   3.524   8.006 -0.9969  0.9961  0.0793
12949SOL    HW240289   4.702   3.472   8.000 -1.1668  1.2369  1.5762
12950SOL     OW40290   4.721   0.434   6.786 -0.6868 -0.2828 -0.2007
12950SOL    HW140291   4.704   0.345   6.815  1.1322 -0.9240 -0.9619
12950SOL    HW240292   4.672   0.489   6.848 -2.1868 -1.7798  0.0181
12951SOL     OW40293   4.825   2.480   7.946 -0.2310  0.2862  0.2687
12951SOL    HW140294   4.889   2.438   8.004 -2.0534 -1.2648  1.2561
12951SOL    HW240295   4.831   2.573   7.967  2.5336  0.3716 -0.5580
12952SOL     OW40296   4.695   2.106   8.005 -0.5731 -0.0423  0.0908
12952SOL    HW140297   4.619   2.115   7.947 -0.3086  0.7060 -0.1536
12952SOL    HW240298   4.674   2.161   8.081 -0.0895  0.5572 -0.1925
12953SOL     OW40299   4.392   7.531   8.341 -0.2683  0.0992 -0.2976
12953SOL    HW140300   4.464   7.591   8.362 -0.1461  0.1767 -0.9411
12953SOL    HW240301   4.314   7.577   8.372  0.0390 -0.4732  1.4530
12954SOL     OW40302   4.603   0.109  10.827 -0.3124 -0.4188 -0.5514
12954SOL    HW140303   4.521   0.082  10.784 -0.6989  0.6936 -0.5373
12954SOL    HW240304   4.669   0.051  10.790 -1.0277 -1.0255 -0.9142
12955SOL     OW40305   4.316   0.349   8.993 -0.6319 -0.5338  0.1756
12955SOL    HW140306   4.225   0.327   9.014 -1.2526  2.1045  0.5117
12955SOL    HW240307   4.364   0.328   9.074 -1.2837 -0.0530  0.6984
12956SOL     OW40308   3.158   1.614   9.323  0.2141  0.2368  0.8853
12956SOL    HW140309   3.154   1.655   9.236 -0.0367 -1.8856 -0.1749
12956SOL    HW240310   3.246   1.636   9.355  0.0999  1.5577  0.3886
12957SOL     OW40311   5.271   1.382   7.654 -0.6180 -0.4239 -0.0195
12957SOL    HW140312   5.244   1.291   7.663  0.6380 -0.7480  0.6972
12957SOL    HW240313   5.345   1.379   7.593 -1.6817  0.3542 -1.4068
12958SOL     OW40314   6.272   6.077   7.625 -0.0810  0.0920 -0.0310
12958SOL    HW140315   6.356   6.068   7.671 -0.5382 -2.0663  0.4700
12958SOL    HW240316   6.222   6.139   7.679  0.5562  0.0332  0.6435
12959SOL     OW40317   3.303   1.277   6.330 -0.0540 -0.1291  0.4969
12959SOL    HW140318   3.302   1.220   6.408  0.9744  0.5167  1.0098
12959SOL    HW240319   3.268   1.360   6.361  0.8497  0.2933  0.4238
12960SOL     OW40320   5.150   1.483   8.247 -0.3449 -0.4715 -0.2566
12960SOL    HW140321   5.131   1.400   8.204  0.7021 -1.3164  0.8481
12960SOL    HW240322   5.085   1.489   8.317 -0.1307 -0.5925 -0.0456
12961SOL     OW40323   2.581   7.752   8.011 -0.4695  0.5205  0.6151
12961SOL    HW140324   2.646   7.790   7.952  0.1068 -0.9137  0.2749
12961SOL    HW240325   2.539   7.827   8.053  0.8170  1.4912  0.2115
12962SOL     OW40326   5.636   2.053   5.885 -0.5539 -0.0454 -0.0642
12962SOL    HW140327   5.683   2.080   5.964  0.7847 -0.5395 -0.6583
12962SOL    HW240328   5.575   1.986   5.916  1.5895 -1.9848  0.2712
12963SOL     OW40329   4.195   5.734   6.878  0.0215  0.6093 -0.3519
12963SOL    HW140330   4.220   5.717   6.787 -1.0101  0.3758 -0.6019
12963SOL    HW240331   4.188   5.647   6.917 -0.3739  0.6700 -0.2842
12964SOL     OW40332   3.883   0.405   7.107  0.3086  0.3338  0.0961
12964SOL    HW140333   3.821   0.475   7.088  2.5885  2.2944 -0.6611
12964SOL    HW240334   3.954   0.448   7.154  0.3659 -2.1463  2.5386
12965SOL     OW40335   5.365   1.263   8.992 -0.1993  0.0810 -0.0712
12965SOL    HW140336   5.434   1.329   8.998  0.9961 -1.2656  2.0754
12965SOL    HW240337   5.339   1.264   8.899 -0.6273  3.8627 -0.0912
12966SOL     OW40338   4.554   2.176   6.918 -0.2194  0.2137 -0.6569
12966SOL    HW140339   4.641   2.145   6.945 -0.5086 -2.3349 -2.2503
12966SOL    HW240340   4.502   2.173   6.998  0.8767  0.7548  0.1126
12967SOL     OW40341   6.291   1.681   7.336  0.1230 -0.5128 -0.5110
12967SOL    HW140342   6.337   1.676   7.252 -0.8267  1.5483 -1.2240
12967SOL    HW240343   6.234   1.605   7.336  0.9127 -1.1274 -1.2422
12968SOL     OW40344   5.101   1.459   7.469  0.0234 -0.1674  0.5449
12968SOL    HW140345   5.019   1.458   7.519 -0.2287 -1.1788  0.1323
12968SOL    HW240346   5.164   1.414   7.526  0.1518  0.1346  0.6395
12969SOL     OW40347   4.794   0.398   9.102 -0.7438  0.2644 -0.3938
12969SOL    HW140348   4.876   0.430   9.141 -0.6108 -0.8171  0.2341
12969SOL    HW240349   4.823   0.344   9.028 -0.8190 -1.0689  0.5202
12970SOL     OW40350   2.418   1.171   7.887 -0.2342 -0.4955  0.8540
12970SOL    HW140351   2.440   1.147   7.797  0.7226  0.3987  0.8258
12970SOL    HW240352   2.481   1.123   7.941  0.1146  0.0555  0.9468
12971SOL     OW40353   3.907   6.015   9.038  0.0033 -0.1110  0.0791
12971SOL    HW140354   3.889   6.107   9.022  1.3069  0.4756  1.6665
12971SOL    HW240355   3.959   5.987   8.962 -1.4783  0.0663 -1.0393
12972SOL     OW40356   3.535   7.367  10.413  0.6607  0.5020  0.0299
12972SOL    HW140357   3.549   7.273  10.402 -0.7089  0.0688  1.4740
12972SOL    HW240358   3.469   7.389  10.347  0.0665  0.1593  0.4949
12973SOL     OW40359   4.301   7.527   8.083  0.1621  0.0379 -0.5885
12973SOL    HW140360   4.369   7.529   8.150 -0.1646 -1.4051 -0.1855
12973SOL    HW240361   4.220   7.547   8.130 -0.1124 -1.2853 -0.4753
12974SOL     OW40362   4.906   6.261   7.880 -0.0444  0.7127  0.2778
12974SOL    HW140363   4.843   6.305   7.938  1.0739  0.5698  1.6395
12974SOL    HW240364   4.929   6.180   7.927 -0.4820 -0.3436 -1.2282
12975SOL     OW40365   5.728   1.299  10.250 -0.3132 -0.5477 -0.1137
12975SOL    HW140366   5.649   1.313  10.198 -0.4532 -0.0142  0.2354
12975SOL    HW240367   5.746   1.384  10.289  0.5232 -0.6292 -0.3137
12976SOL     OW40368   6.186   1.227   6.510 -0.2713  0.4822  0.4164
12976SOL    HW140369   6.236   1.246   6.430  2.5166  0.3869  2.0056
12976SOL    HW240370   6.149   1.311   6.536  1.4403  1.1893  0.6667
12977SOL     OW40371   4.984   1.304   8.846  0.7198  0.3917  0.4850
12977SOL    HW140372   4.943   1.389   8.830 -0.8549  0.0148  2.2269
12977SOL    HW240373   5.016   1.276   8.760  0.6512  2.4075 -0.2410
12978SOL     OW40374   4.322   0.670   6.905 -0.1328  0.1079  0.1841
12978SOL    HW140375   4.268   0.591   6.912 -1.1736  0.5173 -2.1437
12978SOL    HW240376   4.260   0.743   6.913  0.4068  0.6358 -0.2613
12979SOL     OW40377   4.144   0.413   6.836 -0.3650  0.6088  0.1266
12979SOL    HW140378   4.067   0.361   6.860  0.0660  0.1891  0.6007
12979SOL    HW240379   4.215   0.377   6.888  0.6200 -0.3407 -1.7908
12980SOL     OW40380   4.560   0.083  10.297 -0.4127 -0.0431 -0.1917
12980SOL    HW140381   4.635   0.140  10.312 -0.0239 -0.3827 -0.8100
12980SOL    HW240382   4.567   0.016  10.366 -0.5848  0.3578  0.2206
12981SOL     OW40383   6.855   7.257   9.630  0.1674 -0.0778  0.1106
12981SOL    HW140384   6.822   7.269   9.719 -0.8482 -0.4297 -0.2078
12981SOL    HW240385   6.790   7.201   9.588  1.6822 -1.6728 -0.2330
12982SOL     OW40386   4.952   7.618   7.844 -0.0809 -0.3051  0.3270
12982SOL    HW140387   4.908   7.690   7.798  2.2680  0.9914 -0.0408
12982SOL    HW240388   4.967   7.553   7.775  2.5847  1.2366 -0.7186
12983SOL     OW40389   2.347   0.356   9.557  0.1591  0.9788  0.1413
12983SOL    HW140390   2.294   0.341   9.480  1.3240  0.3780 -0.5753
12983SOL    HW240391   2.368   0.449   9.554 -0.7463  1.2029  0.3860
12984SOL     OW40392   6.333   1.182   6.736 -0.5734  0.2033  0.0781
12984SOL    HW140393   6.274   1.193   6.662 -0.1785 -1.4329 -0.5161
12984SOL    HW240394   6.413   1.147   6.697  0.0629  0.4325  1.1399
12985SOL     OW40395   4.452   1.396   8.874 -0.0362  0.2420  0.5545
12985SOL    HW140396   4.499   1.321   8.912  2.3653  1.2955 -0.1389
12985SOL    HW240397   4.521   1.450   8.835 -1.9568  1.4277 -1.4155
12986SOL     OW40398   4.638   0.419   8.708  0.5530  0.0797 -0.0943
12986SOL    HW140399   4.617   0.496   8.655  0.2544  1.0554  1.3936
12986SOL    HW240400   4.702   0.450   8.772  1.4193 -1.2344 -0.2855
12987SOL     OW40401   4.799   0.934   8.180  0.0132 -0.6134  0.5513
12987SOL    HW140402   4.788   1.004   8.116  1.7925 -0.1105  0.7395
12987SOL    HW240403   4.772   0.972   8.263 -0.9068 -0.8073  0.3555
12988SOL     OW40404   4.377   1.677   8.128 -0.1559  0.2034 -0.1275
12988SOL    HW140405   4.387   1.602   8.186 -1.1356 -0.5159 -0.8515
12988SOL    HW240406   4.372   1.753   8.186  1.9427 -0.1486  0.5705
12989SOL     OW40407   3.372   7.413   9.925 -0.0070 -0.1167 -0.0585
12989SOL    HW140408   3.334   7.348   9.866  0.7037  0.9077 -1.7047
12989SOL    HW240409   3.344   7.497   9.888  2.2936  0.6144 -0.2634
12990SOL     OW40410   4.800   1.056   8.925  0.0695 -0.0098  0.1844
12990SOL    HW140411   4.861   1.087   8.858 -0.0266 -0.9877 -0.3812
12990SOL    HW240412   4.777   1.134   8.975 -2.0505  1.3647 -2.6449
12991SOL     OW40413   5.740   7.439   8.904  0.3720  0.5814 -0.2737
12991SOL    HW140414   5.827   7.437   8.945 -0.8642  0.7969  2.5922
12991SOL    HW240415   5.758   7.442   8.810  3.4460  0.4166  0.2063
12992SOL     OW40416   5.124   1.112   7.112 -0.3700  0.0349  0.0238
12992SOL    HW140417   5.173   1.141   7.036  1.7546  0.2308  1.3817
12992SOL    HW240418   5.085   1.029   7.086  1.4572 -0.5901 -0.8593
12993SOL     OW40419   5.633   0.781   6.663 -0.1039 -0.8951  0.1243
12993SOL    HW140420   5.632   0.775   6.759  0.2467  0.3555  0.2226
12993SOL    HW240421   5.634   0.690   6.634  0.7763 -1.3106  1.3315
12994SOL     OW40422   3.621   1.824   9.886 -0.2499 -0.1732  0.5289
12994SOL    HW140423   3.612   1.731   9.865  3.7886 -0.2844 -1.5986
12994SOL    HW240424   3.643   1.826   9.979  0.5574 -1.4511  0.3829
12995SOL     OW40425   4.267   0.858   7.348  0.2591 -0.3116  0.6655
12995SOL    HW140426   4.172   0.847   7.360  0.0731 -1.5049 -1.3848
12995SOL    HW240427   4.283   0.950   7.367 -1.6945  0.4378 -0.9627
12996SOL     OW40428   4.571   0.162   8.640  0.1575  0.3352 -0.1035
12996SOL    HW140429   4.527   0.130   8.719  1.0659  1.9177  1.0982
12996SOL    HW240430   4.575   0.257   8.652  2.5388  0.3867 -0.8470
12997SOL     OW40431   4.235   1.504   9.621  0.0213  0.4339 -0.0015
12997SOL    HW140432   4.258   1.500   9.528  0.6615  2.4484  0.0404
12997SOL    HW240433   4.296   1.567   9.659  1.1412 -1.8188  2.2354
12998SOL     OW40434   3.116   1.933   9.124 -0.3435  0.5503 -0.0631
12998SOL    HW140435   3.022   1.915   9.128 -0.2247  0.1171  1.1241
12998SOL    HW240436   3.147   1.922   9.214  1.0692 -0.5425 -0.6294
12999SOL     OW40437   5.636   1.386   7.746  0.1446  0.1757  0.0210
12999SOL    HW140438   5.638   1.351   7.835 -2.3234 -0.0920  0.0400
12999SOL    HW240439   5.588   1.468   7.753  0.1657  0.2914 -1.0188
13000SOL     OW40440   6.528   7.339   9.499 -0.1566  0.0116  0.0937
13000SOL    HW140441   6.502   7.343   9.591 -1.2017  1.1282 -0.2235
13000SOL    HW240442   6.448   7.358   9.451  0.6183  0.5407 -1.0246
13001SOL     OW40443   1.729   0.274   9.861 -0.8602 -0.8897 -0.0137
13001SOL    HW140444   1.821   0.273   9.834 -0.2318 -0.8970  1.9774
13001SOL    HW240445   1.698   0.185   9.844 -0.6700 -0.7683 -1.1200
13002SOL     OW40446   3.803   1.144   8.413  0.2344 -0.3577 -0.5876
13002SOL    HW140447   3.814   1.173   8.504  1.0875 -1.9765 -0.1383
13002SOL    HW240448   3.887   1.162   8.371  0.0735 -0.2522 -0.8660
13003SOL     OW40449   3.433   7.114   9.463 -0.4564 -0.3998  0.3078
13003SOL    HW140450   3.501   7.157   9.411 -0.6854 -0.7938 -0.3313
13003SOL    HW240451   3.461   7.125   9.554  0.9935 -1.4380  0.0159
13004SOL     OW40452   6.651   7.989   8.541  0.2594  0.2967 -0.3147
13004SOL    HW140453   6.742   7.969   8.518  0.4609 -0.3186  0.9394
13004SOL    HW240454   6.657   8.034   8.626 -0.7187 -2.0156  1.0661
13005SOL     OW40455   3.383   1.403   8.645 -0.2889  0.0395 -0.2916
13005SOL    HW140456   3.454   1.355   8.688 -0.6863 -0.7845 -0.5368
13005SOL    HW240457   3.361   1.473   8.706  0.4842  0.0807 -0.0480
13006SOL     OW40458   2.882   0.395   7.016  0.0625 -1.2347  0.0083
13006SOL    HW140459   2.882   0.347   6.933 -3.2381 -0.0885 -0.8271
13006SOL    HW240460   2.974   0.401   7.040  1.0218 -3.1356 -2.6426
13007SOL     OW40461   4.518   7.377   9.904 -0.0771  0.3927 -0.6315
13007SOL    HW140462   4.484   7.306   9.849  1.6914  1.0775 -2.7379
13007SOL    HW240463   4.577   7.333   9.965 -0.4344 -0.1561 -0.6679
13008SOL     OW40464   5.562   1.788   8.197  0.2231 -0.1030  0.1727
13008SOL    HW140465   5.498   1.830   8.254  0.0432  0.6376 -0.5433
13008SOL    HW240466   5.642   1.841   8.209 -0.1920  0.9018 -1.2345
13009SOL     OW40467   3.712   0.896   8.448 -0.4514 -0.2606  0.4720
13009SOL    HW140468   3.661   0.878   8.370  0.7065  0.7906 -0.5622
13009SOL    HW240469   3.736   0.988   8.442  4.5878 -1.3345 -1.0853
13010SOL     OW40470   4.894   1.919   7.977  0.5900  0.6695 -0.7549
13010SOL    HW140471   4.843   1.860   7.920 -0.5480  0.1008  0.7874
13010SOL    HW240472   4.831   1.986   8.003  1.3091  1.3551 -0.7634
13011SOL     OW40473   4.382   7.888   9.800  0.0516 -0.5782 -0.0838
13011SOL    HW140474   4.389   7.807   9.750 -1.0846  0.2771 -1.7078
13011SOL    HW240475   4.288   7.899   9.814  0.2393  0.1544  0.6660
13012SOL     OW40476   3.607   0.182   7.588 -0.2446  0.0706 -0.4854
13012SOL    HW140477   3.690   0.230   7.596 -0.3798  0.3223 -0.6087
13012SOL    HW240478   3.595   0.142   7.674  0.6255 -0.9757 -0.8306
13013SOL     OW40479   6.625   0.304   9.117 -0.1371 -0.3107  0.1323
13013SOL    HW140480   6.584   0.391   9.118  0.8926  0.1952  1.0771
13013SOL    HW240481   6.679   0.305   9.038  0.7256  0.3504  0.7097
13014SOL     OW40482   4.444   3.077  10.470 -0.5800 -0.0264 -0.4756
13014SOL    HW140483   4.413   2.987  10.481 -1.6925  0.2932 -0.8328
13014SOL    HW240484   4.395   3.126  10.536  0.1866  0.2844 -0.1355
13015SOL     OW40485   3.984   0.151   7.148  0.2073  0.3228 -0.0728
13015SOL    HW140486   3.964   0.241   7.122  0.7370  0.1838 -0.9842
13015SOL    HW240487   3.984   0.102   7.066 -1.6201 -0.8284  0.5675
13016SOL     OW40488   6.903   5.987   7.974 -0.3929 -0.3509  0.2486
13016SOL    HW140489   6.871   5.964   7.886  0.5319 -1.2370  0.1223
13016SOL    HW240490   6.850   6.063   7.999 -1.5533 -0.8489 -0.5495
13017SOL     OW40491   3.182   0.481   8.222  0.1855 -0.1999 -0.2949
13017SOL    HW140492   3.209   0.442   8.139  3.2783 -0.4681  0.7218
13017SOL    HW240493   3.159   0.406   8.278  1.4689 -0.2993  0.1349
13018SOL     OW40494   4.585   0.259   8.105  0.0074 -0.4124 -0.0622
13018SOL    HW140495   4.622   0.346   8.092 -0.6343  0.0363  0.9267
13018SOL    HW240496   4.592   0.245   8.200  0.8489 -1.7880 -0.3007
13019SOL     OW40497   6.099   0.198   9.460  0.8173  0.0230  0.0288
13019SOL    HW140498   6.043   0.205   9.383  0.3656  0.3106  0.3733
13019SOL    HW240499   6.170   0.139   9.434  0.4456 -0.2093 -0.4678
13020SOL     OW40500   6.902   1.578   9.580 -0.3267 -0.0557 -0.1162
13020SOL    HW140501   6.823   1.597   9.529  0.9027 -1.3930 -2.6772
13020SOL    HW240502   6.972   1.622   9.534  0.6923 -0.2297  1.1992
13021SOL     OW40503   5.208   6.239  11.243  0.2517 -0.1599  0.4362
13021SOL    HW140504   5.210   6.216  11.150  1.8926  1.2088  0.0908
13021SOL    HW240505   5.132   6.192  11.278 -0.7598 -0.2114 -1.7111
13022SOL     OW40506   2.251   1.218   6.610 -0.0048 -0.4086 -0.4382
13022SOL    HW140507   2.331   1.241   6.658 -0.2619 -0.2330 -0.0843
13022SOL    HW240508   2.281   1.193   6.523  0.2418  2.1258 -1.1645
13023SOL     OW40509   2.560   0.690   8.857  0.2442  0.0298  0.0707
13023SOL    HW140510   2.564   0.741   8.776 -0.6984  0.0559  0.0324
13023SOL    HW240511   2.526   0.751   8.922  0.2877 -0.2015  0.3087
13024SOL     OW40512   4.592   2.268   8.673  0.6166  0.1903 -0.2142
13024SOL    HW140513   4.659   2.331   8.648  0.6201 -0.5867 -2.3851
13024SOL    HW240514   4.540   2.255   8.593 -0.7935 -0.8316  0.8078
13025SOL     OW40515   2.469   0.240  11.204  0.3951  0.8862  0.7596
13025SOL    HW140516   2.491   0.221  11.296 -0.9071 -3.0896  0.4579
13025SOL    HW240517   2.541   0.202  11.154 -1.7500 -2.8235  0.1155
13026SOL     OW40518   2.773   0.104  10.152 -0.6708 -0.1178 -0.2616
13026SOL    HW140519   2.808   0.192  10.163 -0.6329 -0.0531 -0.8872
13026SOL    HW240520   2.708   0.095  10.223  0.7626 -0.3510  1.0850
13027SOL     OW40521   5.651   7.639   9.703 -0.2876  0.0908  0.1962
13027SOL    HW140522   5.714   7.669   9.637 -2.1569  0.2309 -1.6203
13027SOL    HW240523   5.640   7.545   9.684  1.0167 -0.4818  1.9840
13028SOL     OW40524   4.944   0.678   8.604 -0.1295  0.3104  0.2448
13028SOL    HW140525   4.886   0.626   8.548 -0.8562  0.5013  0.8085
13028SOL    HW240526   4.930   0.769   8.576  0.9848  0.2410 -0.5995
13029SOL     OW40527   4.685   0.623   7.243  0.4081  0.2087  0.0030
13029SOL    HW140528   4.767   0.662   7.213  0.2697  0.2231 -0.3592
13029SOL    HW240529   4.634   0.609   7.163  0.2958 -0.3518  0.1697
13030SOL     OW40530   3.490   1.077  10.054 -0.4869  0.3538 -0.3420
13030SOL    HW140531   3.397   1.093  10.072 -0.6489  0.0108 -0.8669
13030SOL    HW240532   3.530   1.164  10.060 -0.8349  0.4983 -0.0754
13031SOL     OW40533   5.067   0.491   9.120 -0.3465 -0.2260 -0.1833
13031SOL    HW140534   5.094   0.410   9.076 -0.8514 -0.9173  0.7447
13031SOL    HW240535   5.137   0.553   9.100 -0.4308 -0.5855 -1.7317
13032SOL     OW40536   4.565   0.218   9.647 -0.0984 -0.0088  0.7969
13032SOL    HW140537   4.573   0.313   9.652  0.5491  0.0625 -1.0377
13032SOL    HW240538   4.552   0.199   9.554  0.1281 -1.7411  1.0783
13033SOL     OW40539   6.146   1.730   8.905 -0.3076  0.1211 -0.4573
13033SOL    HW140540   6.207   1.726   8.978  1.2835 -0.2782 -1.7299
13033SOL    HW240541   6.144   1.640   8.871 -2.3446 -0.0870  0.0897
13034SOL     OW40542   3.658   1.599   7.947  0.2802  0.3833  0.1010
13034SOL    HW140543   3.672   1.658   7.873 -0.3393  0.7958  0.3055
13034SOL    HW240544   3.728   1.621   8.009 -0.9492  2.1557  0.9489
13035SOL     OW40545   3.164   0.483  10.369 -0.2120  0.3073  0.6903
13035SOL    HW140546   3.214   0.492  10.450 -0.8473  3.1341  0.8565
13035SOL    HW240547   3.206   0.543  10.308 -2.0145  1.0628  0.1356
13036SOL     OW40548   6.040   0.995   8.015  0.5631 -0.0684 -0.0466
13036SOL    HW140549   5.995   1.038   8.088  1.5679 -1.1330  1.2495
13036SOL    HW240550   5.993   1.025   7.938  0.0066  1.8079  0.9348
13037SOL     OW40551   4.918   6.764   8.470 -0.3009  0.2054 -0.4568
13037SOL    HW140552   4.900   6.853   8.499 -0.5167  0.3248 -0.9509
13037SOL    HW240553   5.013   6.756   8.473 -0.2761  0.4768 -0.4871
13038SOL     OW40554   5.869   1.110   8.174  0.0325 -0.0632 -0.8520
13038SOL    HW140555   5.801   1.103   8.241  1.2971  1.0482  0.6196
13038SOL    HW240556   5.850   1.193   8.129  0.4773  0.3126 -0.3531
13039SOL     OW40557   6.147   7.660   7.062 -0.3263 -0.5285  0.1351
13039SOL    HW140558   6.172   7.663   7.154  1.0950  0.8286 -0.2523
13039SOL    HW240559   6.145   7.567   7.040 -0.5541 -0.8668  1.4739
13040SOL     OW40560   4.316   1.903   9.090  0.4579  0.7308 -0.4854
13040SOL    HW140561   4.239   1.943   9.051 -0.0674 -0.0170 -0.2482
13040SOL    HW240562   4.286   1.869   9.174  1.6320  2.5503  0.7455
13041SOL     OW40563   5.582   2.650  10.083  0.1480  0.2647  0.3028
13041SOL    HW140564   5.514   2.604  10.132 -0.8026  1.1019 -0.2023
13041SOL    HW240565   5.653   2.586  10.075 -1.2410 -1.2422 -0.6389
13042SOL     OW40566   3.149   2.331   9.064 -0.4731  0.1557  0.4657
13042SOL    HW140567   3.239   2.364   9.060 -0.5351  0.2508 -0.4276
13042SOL    HW240568   3.095   2.409   9.055 -0.6482  0.1118  1.1210
13043SOL     OW40569   5.826   2.594   7.801 -0.6426 -0.3556  0.8884
13043SOL    HW140570   5.920   2.583   7.817 -0.4446  0.8173  0.6680
13043SOL    HW240571   5.813   2.689   7.799 -1.6296 -0.4792 -0.2406
13044SOL     OW40572   4.394   0.570  10.143 -0.5127 -0.1664  0.0490
13044SOL    HW140573   4.415   0.562  10.236 -1.1027 -0.3894  0.1669
13044SOL    HW240574   4.315   0.517  10.132 -0.7629  0.3143 -0.4711
13045SOL     OW40575   5.249   0.056   7.896 -0.1187 -0.3643 -0.4132
13045SOL    HW140576   5.209   0.038   7.811  0.4903  2.1483 -1.2968
13045SOL    HW240577   5.174   0.072   7.954 -0.4959  0.8226 -1.2037
13046SOL     OW40578   7.305   1.845   9.713 -0.4758 -0.2225 -0.0663
13046SOL    HW140579   7.320   1.767   9.766 -0.2629 -0.5763 -0.6297
13046SOL    HW240580   7.387   1.856   9.664 -0.1596  0.8932  0.6788
13047SOL     OW40581   3.363   1.130   7.902 -0.7871 -0.0891 -0.9004
13047SOL    HW140582   3.398   1.219   7.892  0.6261 -0.6874 -1.7343
13047SOL    HW240583   3.268   1.141   7.898 -0.8075  1.6761  1.8231
13048SOL     OW40584   6.245   2.343   8.798  0.6027  0.1780 -0.4607
13048SOL    HW140585   6.263   2.301   8.713  0.8966  1.4522 -1.0581
13048SOL    HW240586   6.332   2.366   8.831  0.5967 -1.5471  0.8817
13049SOL     OW40587   5.581   0.808   8.951  0.4891 -0.2121  0.1221
13049SOL    HW140588   5.670   0.820   8.916  0.2438 -0.5092 -0.6294
13049SOL    HW240589   5.555   0.895   8.980  0.7309  0.0400 -0.3921
13050SOL     OW40590   2.582   0.452   8.300 -0.3629 -0.1982 -0.2839
13050SOL    HW140591   2.655   0.463   8.239  1.3227  1.0834  1.8225
13050SOL    HW240592   2.536   0.536   8.299  1.1892  0.7706  1.9436
13051SOL     OW40593   4.294   2.386   5.709  0.0016 -0.6500 -0.2329
13051SOL    HW140594   4.353   2.345   5.646 -0.2491 -1.5909  0.1405
13051SOL    HW240595   4.350   2.446   5.758  0.7486 -1.7921  0.3562
13052SOL     OW40596   2.960   1.695   9.500  0.1661  0.7752 -0.3225
13052SOL    HW140597   3.031   1.660   9.448  0.8447  0.9252  0.4780
13052SOL    HW240598   2.917   1.618   9.538  0.1733  0.7052 -0.4588
13053SOL     OW40599   4.187   1.835   6.514  0.8510  0.4056  0.4533
13053SOL    HW140600   4.280   1.860   6.516  1.3437 -1.1875 -0.5915
13053SOL    HW240601   4.145   1.896   6.574  2.4454  1.6921  0.3431
13054SOL     OW40602   5.810   0.878   7.334 -0.2479 -0.0284 -0.4906
13054SOL    HW140603   5.846   0.835   7.257 -0.0254  0.2845 -0.5643
13054SOL    HW240604   5.811   0.971   7.313 -1.4369 -0.0334 -0.6272
13055SOL     OW40605   3.236   7.687   9.336  0.6509 -0.5183 -0.5839
13055SOL    HW140606   3.322   7.664   9.301  0.9422  1.3477 -1.2110
13055SOL    HW240607   3.217   7.773   9.298  0.0443  0.6982  2.2221
13056SOL     OW40608   4.470   0.040   7.982 -0.2741  0.2221 -0.5302
13056SOL    HW140609   4.522   0.096   8.040  0.4986 -0.8505 -0.1536
13056SOL    HW240610   4.511   0.050   7.896 -0.4530  0.6239 -0.5686
13057SOL     OW40611   4.094   1.530   8.144  0.0853 -0.6267 -0.1948
13057SOL    HW140612   4.036   1.480   8.088 -1.2028 -1.0243  1.4093
13057SOL    HW240613   4.111   1.611   8.095 -0.4722 -1.2192 -1.3996
13058SOL     OW40614   5.709   1.087  10.465 -0.1945  0.1407  0.0007
13058SOL    HW140615   5.618   1.057  10.468 -0.6297  0.9730 -2.5464
13058SOL    HW240616   5.708   1.161  10.405  2.3136 -0.4220 -0.8491
13059SOL     OW40617   3.846   3.184   7.929  0.1612  0.2239 -0.2779
13059SOL    HW140618   3.864   3.246   7.859  0.2920  0.9178  0.3592
13059SOL    HW240619   3.769   3.219   7.973  0.8635  0.5299  0.7483
13060SOL     OW40620   5.603   0.223   7.644 -0.2171  0.1517 -0.0735
13060SOL    HW140621   5.555   0.167   7.706  0.7644  2.8367  3.4683
13060SOL    HW240622   5.685   0.177   7.628 -1.0784 -1.2579 -0.5968
13061SOL     OW40623   3.462   3.136   7.803  0.9954 -0.1754  0.2754
13061SOL    HW140624   3.434   3.161   7.891 -0.5900 -1.4401  0.1932
13061SOL    HW240625   3.470   3.218   7.756 -2.4716  0.4136  0.4381
13062SOL     OW40626   3.226   0.770   8.733  0.3492 -0.1066  0.5096
13062SOL    HW140627   3.172   0.693   8.712  1.0270 -0.2172 -0.9969
13062SOL    HW240628   3.169   0.825   8.787 -0.5049 -1.1976  0.7729
13063SOL     OW40629   4.250   7.946  12.072  0.0136 -0.0077 -0.1569
13063SOL    HW140630   4.195   7.905  12.006  0.0380  0.3273 -0.3900
13063SOL    HW240631   4.197   7.948  12.151  0.0234 -0.5106 -0.1361
13064SOL     OW40632   3.659   0.582   7.047  0.6455 -0.0426  0.0451
13064SOL    HW140633   3.619   0.502   7.013 -0.0891  0.4635 -0.3157
13064SOL    HW240634   3.649   0.576   7.142  0.2751 -0.2181 -0.0038
13065SOL     OW40635   5.314   7.821  10.232  0.0186  0.0400 -0.3420
13065SOL    HW140636   5.346   7.775  10.309 -0.0713  1.1970  0.4126
13065SOL    HW240637   5.263   7.755  10.184 -0.6716 -0.4754  1.0401
13066SOL     OW40638   3.160   1.141   7.250 -0.0419  0.7624 -0.1800
13066SOL    HW140639   3.227   1.169   7.313  1.3601 -1.0457 -0.7621
13066SOL    HW240640   3.086   1.115   7.305 -0.2124  2.5661  0.4989
13067SOL     OW40641   5.031   2.248   7.033  0.0776  0.3518  1.0761
13067SOL    HW140642   5.125   2.232   7.028  0.1506  1.0988 -0.8903
13067SOL    HW240643   5.023   2.343   7.039 -0.5180  0.6251 -2.1142
13068SOL     OW40644   4.894   1.547   8.758  0.3939 -0.0807  0.7710
13068SOL    HW140645   4.915   1.637   8.783 -1.0721  0.6260 -0.3301
13068SOL    HW240646   4.805   1.553   8.724  0.7307 -1.7390 -0.4948
13069SOL     OW40647   4.182   7.972   8.912  0.1374 -0.3018 -0.2401
13069SOL    HW140648   4.121   8.046   8.908  0.3686 -0.0610  0.5771
13069SOL    HW240649   4.229   7.976   8.828  0.8178  1.0769  0.1604
13070SOL     OW40650   1.921   6.911   9.012  0.2460  0.0820 -0.1392
13070SOL    HW140651   1.855   6.881   9.076 -0.7470 -0.2686 -1.2941
13070SOL    HW240652   1.873   6.970   8.955  1.3044  0.9480 -0.1561
13071SOL     OW40653   5.336   0.501   8.263 -0.1711  0.4424 -0.4354
13071SOL    HW140654   5.405   0.567   8.272  0.1329  0.1302 -0.4595
13071SOL    HW240655   5.279   0.517   8.338  0.3299  0.2388 -0.0000
13072SOL     OW40656   2.882   2.002   8.859  0.0198 -0.1211 -0.1112
13072SOL    HW140657   2.898   1.909   8.874  1.1779 -0.1449 -1.3135
13072SOL    HW240658   2.968   2.043   8.866 -0.2364  0.6349 -1.1092
13073SOL     OW40659   4.964   0.262   9.395 -0.0873  0.3708  0.2331
13073SOL    HW140660   5.045   0.310   9.380  0.5806 -0.9483 -0.5346
13073SOL    HW240661   4.936   0.290   9.482  1.3445  0.6441  0.6331
13074SOL     OW40662   2.947   7.539   7.785  0.3826 -0.1748  0.1454
13074SOL    HW140663   2.941   7.451   7.822  2.3660 -0.3241  0.2371
13074SOL    HW240664   2.930   7.527   7.691 -0.9976 -0.3653  0.4003
13075SOL     OW40665   4.988   0.927   6.999 -0.1596  0.0457  0.0568
13075SOL    HW140666   4.953   0.853   7.049  0.5674 -0.0609  0.4114
13075SOL    HW240667   4.975   0.901   6.908  0.4603 -0.7067  0.1735
13076SOL     OW40668   5.678   0.999  10.017  0.0993 -0.0520 -0.2124
13076SOL    HW140669   5.710   1.088  10.001  0.3604 -0.4310 -1.9669
13076SOL    HW240670   5.626   0.978   9.939 -0.2868 -1.2957  0.3580
13077SOL     OW40671   7.254   0.720   8.592  0.1981  0.6004 -0.7919
13077SOL    HW140672   7.339   0.759   8.570  0.3008  1.4316  0.9428
13077SOL    HW240673   7.206   0.790   8.636 -0.7656 -0.3614 -0.2543
13078SOL     OW40674   4.498   0.746   6.677  0.4203 -0.5515 -0.2818
13078SOL    HW140675   4.450   0.708   6.751  0.6622 -0.0929  0.1179
13078SOL    HW240676   4.453   0.713   6.599  0.1529 -1.0279  0.0719
13079SOL     OW40677   5.141   1.266  10.037 -0.8358  0.5202 -0.4164
13079SOL    HW140678   5.147   1.361  10.026  1.7385  0.5566  0.4339
13079SOL    HW240679   5.116   1.254  10.129 -0.6484  0.3944 -0.3804
13080SOL     OW40680   4.493   0.998   7.626 -0.3249  0.4061  0.3337
13080SOL    HW140681   4.571   0.991   7.570 -0.4410  1.6764 -0.0078
13080SOL    HW240682   4.421   1.011   7.564 -0.4817  1.6393  0.7640
13081SOL     OW40683   5.881   0.091   5.680 -0.5582  0.0219 -0.3045
13081SOL    HW140684   5.872   0.142   5.599 -1.6330  0.3201  0.0004
13081SOL    HW240685   5.938   0.018   5.655 -0.3498  0.4653 -1.1653
13082SOL     OW40686   6.335   1.686   9.107  0.4173 -0.7665 -0.8567
13082SOL    HW140687   6.376   1.602   9.128 -0.7930 -1.1489  0.0647
13082SOL    HW240688   6.283   1.708   9.185 -0.6703 -0.0154 -1.7614
13083SOL     OW40689   4.506   7.838  11.366  0.0634 -0.0061 -0.0103
13083SOL    HW140690   4.454   7.758  11.364 -0.2381  0.2052 -1.2760
13083SOL    HW240691   4.489   7.880  11.282 -1.2543  2.3534  1.3381
13084SOL     OW40692   4.160   7.385   6.896 -0.0482  0.0792 -0.0090
13084SOL    HW140693   4.146   7.395   6.990 -1.4959  0.4940 -0.2301
13084SOL    HW240694   4.205   7.465   6.869 -0.3339  0.3213  0.2245
13085SOL     OW40695   4.993   3.004   8.814  0.4134 -0.3209 -0.3739
13085SOL    HW140696   4.972   2.979   8.724  0.0502 -1.3341 -0.0243
13085SOL    HW240697   4.913   3.046   8.847 -0.1903 -1.7477  0.0886
13086SOL     OW40698   6.173   0.416   9.069  0.0984  0.4307  0.5025
13086SOL    HW140699   6.083   0.406   9.099  0.7503 -1.1832  2.1237
13086SOL    HW240700   6.221   0.345   9.112  2.3105  1.7244  0.3479
13087SOL     OW40701   4.310   7.275   8.452  0.3647  0.4107  0.1457
13087SOL    HW140702   4.327   7.333   8.378  0.1840 -0.5440 -0.6804
13087SOL    HW240703   4.338   7.324   8.529  2.0757  0.8181 -0.7030
13088SOL     OW40704   5.383   1.354   7.940  0.1919 -0.6624 -0.0843
13088SOL    HW140705   5.456   1.347   8.002  0.2502 -1.4325 -0.2233
13088SOL    HW240706   5.390   1.274   7.886  0.4580  0.2277 -1.4248
13089SOL     OW40707   4.883   7.466   8.814  0.3602 -0.0879 -0.3526
13089SOL    HW140708   4.975   7.443   8.825 -0.2475 -2.7796 -0.1008
13089SOL    HW240709   4.867   7.460   8.720  0.5342  0.7651 -0.4347
13090SOL     OW40710   4.619   0.980   6.702  0.3751  0.5810  0.1056
13090SOL    HW140711   4.685   0.999   6.635  0.3502  0.6737  0.1081
13090SOL    HW240712   4.579   0.898   6.672  3.7760 -2.2806  2.5196
13091SOL     OW40713   4.805   6.831   9.585 -0.6512  0.3565  0.0218
13091SOL    HW140714   4.728   6.838   9.642  0.3940 -2.2364  1.9350
13091SOL    HW240715   4.772   6.850   9.498 -3.2851  0.1877  0.9040
13092SOL     OW40716   3.361   0.419   7.239 -0.3443 -0.2406  0.2202
13092SOL    HW140717   3.370   0.514   7.236  1.8714 -0.3802  0.9249
13092SOL    HW240718   3.405   0.388   7.159  0.2604 -0.7245  0.7319
13093SOL     OW40719   3.623   0.797   7.534 -0.2703  0.3036  0.3912
13093SOL    HW140720   3.562   0.868   7.553  0.9008  2.0603 -1.8496
13093SOL    HW240721   3.685   0.835   7.472  1.0199 -2.4271 -0.1475
13094SOL     OW40722   3.606   6.718   9.445  0.3755  0.1680 -0.2895
13094SOL    HW140723   3.542   6.748   9.509  1.0486 -0.8968  0.9251
13094SOL    HW240724   3.556   6.663   9.385 -0.2011  0.9129 -0.4979
13095SOL     OW40725   4.371   7.686   7.889 -0.2548  0.8966  0.0564
13095SOL    HW140726   4.367   7.619   7.956  1.2371  1.0903  0.3716
13095SOL    HW240727   4.374   7.769   7.938 -1.0481  1.1520 -0.3048
13096SOL     OW40728   4.836   7.388   9.371  0.1014 -0.2855 -0.3697
13096SOL    HW140729   4.802   7.399   9.459  0.0635 -0.5068 -0.3539
13096SOL    HW240730   4.921   7.431   9.372 -0.4485  0.8357 -0.5920
13097SOL     OW40731   4.019   2.362   7.179 -0.1900 -0.0465  0.2723
13097SOL    HW140732   4.012   2.269   7.156 -1.1016 -0.1162  0.7683
13097SOL    HW240733   4.111   2.384   7.163 -0.1101 -0.8623 -0.4696
13098SOL     OW40734   2.977   7.835   5.176 -0.0216  0.0083  0.4359
13098SOL    HW140735   2.934   7.792   5.250 -2.2905 -0.5523 -1.1004
13098SOL    HW240736   2.990   7.925   5.205  0.3967 -0.5180  1.9761
13099SOL     OW40737   2.653   2.470   8.644 -0.0068 -0.3102  0.4053
13099SOL    HW140738   2.578   2.436   8.693 -0.4433 -0.4119 -0.3303
13099SOL    HW240739   2.616   2.511   8.567  0.6911 -0.3268  0.0503
13100SOL     OW40740   2.337   7.614  10.476  0.5581  0.0729  0.5039
13100SOL    HW140741   2.413   7.608  10.535  0.1859 -3.3259  0.8672
13100SOL    HW240742   2.375   7.604  10.388  0.6932  0.3236  0.5326
13101SOL     OW40743   2.746   0.508   9.666 -0.1438 -0.0825 -0.1309
13101SOL    HW140744   2.754   0.509   9.571 -1.3774  1.6321 -0.2565
13101SOL    HW240745   2.751   0.600   9.691 -0.9057 -0.4227  1.3607
13102SOL     OW40746   3.459   1.940  10.965  0.5774 -0.1492  0.7923
13102SOL    HW140747   3.416   1.868  11.011  0.5212 -0.0890  0.8341
13102SOL    HW240748   3.521   1.897  10.907  0.6079 -0.2282  0.8828
13103SOL     OW40749   5.509   1.375   9.939 -0.2220 -0.3479 -0.1265
13103SOL    HW140750   5.446   1.415   9.880 -1.3589 -0.2172  1.1284
13103SOL    HW240751   5.487   1.281   9.937  0.2512 -0.4538 -0.5022
13104SOL     OW40752   4.574   1.851   9.100  0.0271  0.0315 -0.1110
13104SOL    HW140753   4.483   1.863   9.125  0.6178  0.2155  2.2191
13104SOL    HW240754   4.592   1.923   9.039 -0.6765  1.7288  1.5873
13105SOL     OW40755   6.273   7.937   8.997  0.2426 -0.2074  0.5399
13105SOL    HW140756   6.280   7.914   8.904 -1.2047  0.3629  0.2684
13105SOL    HW240757   6.267   7.852   9.041  0.0953 -0.4684  0.0332
13106SOL     OW40758   6.793   0.285  11.690 -0.2961 -0.3170  0.3851
13106SOL    HW140759   6.726   0.335  11.645  0.8870 -0.4940 -1.7330
13106SOL    HW240760   6.842   0.350  11.740 -1.2663 -0.0176  0.9728
13107SOL     OW40761   5.920   1.279  12.422 -0.0274 -0.2100 -0.1485
13107SOL    HW140762   5.840   1.231  12.400  0.4671 -0.5654 -1.2106
13107SOL    HW240763   5.984   1.210  12.441  0.8349 -0.0231 -2.1872
13108SOL     OW40764   4.906   0.847  10.421  0.3448 -0.0568  0.0439
13108SOL    HW140765   4.913   0.897  10.340 -0.6950  0.2573  0.1294
13108SOL    HW240766   4.816   0.814  10.420  0.3768 -0.1849  0.9945
13109SOL     OW40767   5.449   1.543  11.348  0.1328  0.3803  0.5079
13109SOL    HW140768   5.362   1.576  11.370 -0.2121  0.7413 -1.2430
13109SOL    HW240769   5.507   1.619  11.356 -0.0718  0.6221 -0.2614
13110SOL     OW40770   4.500   2.292   9.792 -0.6081 -0.3050 -0.2767
13110SOL    HW140771   4.531   2.202   9.781 -1.1034 -0.6570  0.9801
13110SOL    HW240772   4.562   2.345   9.743  1.1669 -1.1077  0.9867
13111SOL     OW40773   5.388   0.089  10.268 -0.2264  0.1523  0.8357
13111SOL    HW140774   5.364   0.001  10.238  0.5387 -0.6273  2.3876
13111SOL    HW240775   5.477   0.102  10.233 -0.5194  0.5199  0.2101
13112SOL     OW40776   6.131   0.823   0.476 -0.4979  0.2126  0.3665
13112SOL    HW140777   6.217   0.856   0.503  0.5314 -2.2337  0.2962
13112SOL    HW240778   6.089   0.794   0.556  0.0032 -1.3216  0.1056
13113SOL     OW40779   5.884   0.182  10.829  0.4794  0.4208 -1.2657
13113SOL    HW140780   5.862   0.261  10.779 -1.8598 -0.3999 -1.6655
13113SOL    HW240781   5.817   0.118  10.803 -0.5592 -0.2422  2.4648
13114SOL     OW40782   4.526   2.997   9.913  0.2820  0.3406 -0.3644
13114SOL    HW140783   4.485   3.050   9.844 -1.0914  1.7246  1.4219
13114SOL    HW240784   4.495   3.036   9.995  2.0165 -1.1166  1.0683
13115SOL     OW40785   4.805   1.407  11.044  0.5797 -0.4017  0.1170
13115SOL    HW140786   4.772   1.447  11.124  1.1557  1.0769 -0.3340
13115SOL    HW240787   4.852   1.478  11.000 -1.2794 -0.6074 -2.4467
13116SOL     OW40788   3.784   0.437   9.666 -0.4437  0.1927  0.2201
13116SOL    HW140789   3.826   0.378   9.603  0.0681  0.3623  0.4025
13116SOL    HW240790   3.740   0.378   9.727 -1.0659  0.0289 -0.3751
13117SOL     OW40791   3.816   1.051  11.117  0.1032  0.0146  0.7591
13117SOL    HW140792   3.837   1.132  11.162  4.5127 -1.1160  1.1581
13117SOL    HW240793   3.841   1.067  11.026 -0.5152 -0.4343  0.5008
13118SOL     OW40794   4.971   1.670   9.064  0.2722 -0.2444  0.4303
13118SOL    HW140795   4.977   1.712   8.978  0.3024  0.1613  0.6301
13118SOL    HW240796   5.024   1.591   9.055 -1.2971 -1.2378 -0.5173
13119SOL     OW40797   4.299   0.304  10.349 -0.3564 -0.1245 -0.1329
13119SOL    HW140798   4.355   0.245  10.299  0.2416 -1.5751  2.0958
13119SOL    HW240799   4.211   0.289  10.314  0.2643  0.4547 -2.0895
13120SOL     OW40800   5.518   1.280   0.575 -0.5665 -0.1086  0.1201
13120SOL    HW140801   5.596   1.278   0.520 -1.1020 -0.2459 -0.6512
13120SOL    HW240802   5.471   1.359   0.548  0.0927  0.8800  1.7165
13121SOL     OW40803   4.857   7.557   8.531 -0.0095 -0.0309  0.0954
13121SOL    HW140804   4.777   7.583   8.577 -0.0289 -0.8454  0.5277
13121SOL    HW240805   4.881   7.635   8.481  0.3928  1.1291  1.9906
13122SOL     OW40806   4.795   1.227   9.533  0.5072 -0.6857  0.1209
13122SOL    HW140807   4.872   1.250   9.480 -1.1770  1.3920 -1.6166
13122SOL    HW240808   4.811   1.268   9.618  1.8393 -1.3782  0.2384
13123SOL     OW40809   3.940   1.603   8.996 -0.5559 -0.1900 -0.0364
13123SOL    HW140810   3.945   1.579   8.904 -1.4911  0.3269 -0.2377
13123SOL    HW240811   3.853   1.572   9.025 -0.3899 -0.0942  0.5897
13124SOL     OW40812   5.226   0.686   8.977  0.3387 -0.1416  0.1504
13124SOL    HW140813   5.231   0.769   9.025  0.3561  0.3777 -0.7270
13124SOL    HW240814   5.244   0.710   8.886  0.7604 -1.1736 -0.0519
13125SOL     OW40815   5.052   1.567  10.474 -0.2422 -0.1104  0.2766
13125SOL    HW140816   4.987   1.556  10.406  1.5535 -2.5424 -1.2229
13125SOL    HW240817   5.002   1.567  10.556 -2.2145 -0.3763 -0.8742
13126SOL     OW40818   5.113   0.739   0.539  0.1731  0.4107 -0.5613
13126SOL    HW140819   5.062   0.788   0.474  0.8660 -0.7407 -2.0338
13126SOL    HW240820   5.174   0.687   0.487  1.2702 -0.0028  1.0683
13127SOL     OW40821   5.968   1.226  11.362  0.1869  0.5762  0.0999
13127SOL    HW140822   5.998   1.316  11.365  1.7681  0.1218 -0.9786
13127SOL    HW240823   5.922   1.218  11.278  0.6470  0.2122 -0.1223
13128SOL     OW40824   4.563   1.961  11.489  0.0292 -0.0242 -0.4830
13128SOL    HW140825   4.548   2.020  11.563  3.0753  1.1604 -0.6494
13128SOL    HW240826   4.645   1.992  11.450 -0.9173 -1.2245 -3.7851
13129SOL     OW40827   4.138   1.768   9.329  0.0272  0.3040 -0.0804
13129SOL    HW140828   4.161   1.688   9.376  0.5933  0.4302 -0.1364
13129SOL    HW240829   4.068   1.741   9.269 -0.3643  0.0377  0.4893
13130SOL     OW40830   3.693   1.429   8.595  0.2834 -0.0487 -0.3661
13130SOL    HW140831   3.627   1.456   8.531 -0.6223 -1.4134 -0.0494
13130SOL    HW240832   3.648   1.364   8.650  0.5699  2.0208  2.5546
13131SOL     OW40833   4.638   2.819   8.719  0.1067  0.1483 -0.3520
13131SOL    HW140834   4.565   2.774   8.676  0.2006 -0.3858  0.0368
13131SOL    HW240835   4.646   2.902   8.672  0.7404 -0.7638 -1.9347
13132SOL     OW40836   6.421   0.582  10.639  0.0198 -0.3972  0.2444
13132SOL    HW140837   6.356   0.596  10.708 -0.6125 -1.2930 -0.1521
13132SOL    HW240838   6.378   0.613  10.559  0.6157  0.3105  0.1884
13133SOL     OW40839   5.729   0.485  12.327 -0.5319 -0.8024  0.5537
13133SOL    HW140840   5.765   0.554  12.272  0.2831 -0.0810  1.9310
13133SOL    HW240841   5.801   0.460  12.385 -1.4460 -1.2560  1.5398
13134SOL     OW40842   5.815   2.569  10.452  0.3383 -0.8208  0.1053
13134SOL    HW140843   5.745   2.587  10.514 -0.6252  0.3089 -1.2234
13134SOL    HW240844   5.849   2.483  10.477  0.1742 -0.2856  2.3108
13135SOL     OW40845   6.305   0.093  10.427 -0.2197 -0.0438 -0.4342
13135SOL    HW140846   6.346   0.148  10.494  2.2033 -0.6246 -1.3494
13135SOL    HW240847   6.222   0.137  10.407 -1.1812  0.0401  3.0206
13136SOL     OW40848   5.205   0.710  11.905  0.1880  0.2200  0.0708
13136SOL    HW140849   5.178   0.802  11.913  0.1508  0.3164 -1.0290
13136SOL    HW240850   5.292   0.714  11.866  0.4660 -0.1955  0.6399
13137SOL     OW40851   5.594   7.781   8.992 -0.1638  0.0942  0.0970
13137SOL    HW140852   5.618   7.847   8.928 -1.1980  0.4100  0.0163
13137SOL    HW240853   5.676   7.735   9.012 -0.2843 -2.5639 -4.2821
13138SOL     OW40854   5.549   2.792   8.551  0.4254  0.1728  0.0203
13138SOL    HW140855   5.483   2.793   8.621  0.9657  0.0273  0.5456
13138SOL    HW240856   5.506   2.747   8.479  0.0255 -0.1236  0.4339
13139SOL     OW40857   5.072   1.279  11.806 -0.2499  0.0209 -0.1773
13139SOL    HW140858   4.984   1.246  11.825  0.0941 -1.3057 -0.7486
13139SOL    HW240859   5.104   1.312  11.890 -1.6970  1.5970 -0.1908
13140SOL     OW40860   5.537   1.272  11.328 -0.3683  0.2706 -0.6627
13140SOL    HW140861   5.496   1.357  11.345 -0.9318 -0.0055 -0.6245
13140SOL    HW240862   5.629   1.285  11.350 -0.8034  0.3123  1.3181
13141SOL     OW40863   5.575   2.375  10.430  0.3234  0.7528  0.5403
13141SOL    HW140864   5.635   2.339  10.365  0.4678  1.7445  0.1106
13141SOL    HW240865   5.517   2.432  10.380 -0.1107  0.8541  1.1520
13142SOL     OW40866   5.541   0.663   9.515 -0.1829  0.2939 -0.2378
13142SOL    HW140867   5.536   0.722   9.590 -0.9982 -0.5119  0.3586
13142SOL    HW240868   5.593   0.589   9.546 -2.2588 -1.0315  0.2584
13143SOL     OW40869   5.277   2.088   8.632  0.5424  0.4917 -0.0558
13143SOL    HW140870   5.238   2.144   8.564  1.3518  3.1706  1.5588
13143SOL    HW240871   5.357   2.056   8.592 -0.9231 -1.3462 -1.7569
13144SOL     OW40872   4.010   0.546  10.779  0.8182 -0.4517 -0.0050
13144SOL    HW140873   3.929   0.568  10.823  0.0427 -2.0059 -0.5648
13144SOL    HW240874   4.079   0.568  10.842 -0.0107  1.0285  0.4105
13145SOL     OW40875   3.051   3.178  12.171  0.1200  0.1492  0.0719
13145SOL    HW140876   3.072   3.086  12.153 -0.9252 -0.2910  0.9768
13145SOL    HW240877   2.977   3.197  12.113 -0.1657  0.1735  0.4395
13146SOL     OW40878   5.458   7.956   9.333 -0.2157 -0.1104 -0.2262
13146SOL    HW140879   5.543   7.988   9.364 -0.4832  0.9133 -0.5023
13146SOL    HW240880   5.410   8.035   9.311 -0.1142 -0.7446 -3.1624
13147SOL     OW40881   7.371   0.575  10.166 -0.1799 -0.0226 -0.5281
13147SOL    HW140882   7.380   0.668  10.145 -0.3380 -0.1880 -1.3496
13147SOL    HW240883   7.364   0.532  10.081  0.7128 -0.8764 -0.1821
13148SOL     OW40884   5.811   2.735   8.653 -0.6607 -0.4596 -0.1055
13148SOL    HW140885   5.866   2.685   8.594 -1.4878  1.1517 -2.3598
13148SOL    HW240886   5.728   2.744   8.607 -0.2662  3.7830 -0.3498
13149SOL     OW40887   4.643   0.800  10.552 -0.3051 -0.1871 -0.3430
13149SOL    HW140888   4.641   0.805  10.647 -1.2697 -0.5227 -0.3294
13149SOL    HW240889   4.643   0.706  10.532 -1.3199 -0.1403 -0.6571
13150SOL     OW40890   3.964   0.974  10.749 -0.3300 -0.5285 -0.5888
13150SOL    HW140891   3.992   1.045  10.807 -0.2526 -0.1315 -1.1043
13150SOL    HW240892   3.880   1.004  10.713  1.2687  0.9129 -3.4621
13151SOL     OW40893   4.165   2.044  10.283 -0.1808  0.3499  0.1288
13151SOL    HW140894   4.191   2.049  10.190  1.4159  0.8601  0.5657
13151SOL    HW240895   4.208   1.965  10.316 -0.8081  0.1271  0.4315
13152SOL     OW40896   5.059   0.054   8.518  0.2525 -0.3619  0.1818
13152SOL    HW140897   5.112  -0.008   8.569 -0.0429 -1.6885 -1.0464
13152SOL    HW240898   5.105   0.061   8.434 -0.5614 -0.1610 -0.2564
13153SOL     OW40899   6.776   0.998   0.178 -0.4895  0.0838  0.3278
13153SOL    HW140900   6.739   1.022   0.093 -0.7940 -0.5818  0.2669
13153SOL    HW240901   6.865   1.032   0.175 -0.8382  1.0101  0.1656
13154SOL     OW40902   4.998   0.255  10.738  0.0027  0.1040  0.9319
13154SOL    HW140903   5.082   0.210  10.736 -0.0105  0.0610  1.3502
13154SOL    HW240904   5.018   0.345  10.711 -0.1576 -0.4236 -1.1268
13155SOL     OW40905   6.514   0.303   9.375  0.0044 -0.2304 -0.1083
13155SOL    HW140906   6.573   0.294   9.300 -0.4306  0.1254 -0.4913
13155SOL    HW240907   6.428   0.316   9.337 -0.1976  0.0925  0.4535
13156SOL     OW40908   5.738   2.453  10.878  0.1069 -0.2963  0.1389
13156SOL    HW140909   5.701   2.519  10.936  0.0707  0.2034 -0.4482
13156SOL    HW240910   5.695   2.371  10.905 -0.0317 -0.0391  0.7008
13157SOL     OW40911   5.146   1.899   8.069 -0.2533  0.0755 -0.1288
13157SOL    HW140912   5.063   1.902   8.022 -0.0332  1.7331 -0.4594
13157SOL    HW240913   5.164   1.805   8.080 -0.8989 -0.3534 -2.3111
13158SOL     OW40914   4.895   0.664  11.267  0.7829  0.3863 -0.3574
13158SOL    HW140915   4.838   0.587  11.278 -0.1753  1.0195 -0.7600
13158SOL    HW240916   4.938   0.651  11.183  1.7308 -0.4051  0.2395
13159SOL     OW40917   5.108   1.207   9.077  0.2667  0.2574  0.1708
13159SOL    HW140918   5.052   1.237   9.005 -0.3353  0.1772  0.5998
13159SOL    HW240919   5.196   1.203   9.039 -0.0448  0.2193 -0.5613
13160SOL     OW40920   4.475   0.497   8.287  0.1306 -0.5271 -0.1278
13160SOL    HW140921   4.416   0.570   8.309 -0.1087 -1.0446  1.0444
13160SOL    HW240922   4.455   0.477   8.196 -0.7435  0.0134 -0.0736
13161SOL     OW40923   5.333   0.926  11.057  0.0561  0.6084 -0.0537
13161SOL    HW140924   5.400   0.865  11.088 -0.9998 -0.4765  0.1954
13161SOL    HW240925   5.352   1.008  11.102 -0.4182 -0.4425  2.1808
13162SOL     OW40926   5.386   4.540  11.723 -0.5936 -0.6731 -0.0759
13162SOL    HW140927   5.479   4.537  11.746 -0.7970  0.2353  0.9584
13162SOL    HW240928   5.347   4.464  11.765 -0.3694 -0.8772 -0.2409
13163SOL     OW40929   5.522   1.495   9.029  0.5970 -0.2266 -0.1673
13163SOL    HW140930   5.556   1.491   9.119 -0.6036 -0.9335  0.2840
13163SOL    HW240931   5.591   1.539   8.979  0.9140  0.9992  1.2748
13164SOL     OW40932   5.409   0.435  11.160  0.3148 -0.4938  0.1384
13164SOL    HW140933   5.409   0.394  11.247  0.5999 -0.6489  0.0647
13164SOL    HW240934   5.496   0.418  11.125  0.1285 -0.6223 -0.2692
13165SOL     OW40935   5.901   1.234  11.779 -0.4831  0.3682 -0.3934
13165SOL    HW140936   5.901   1.299  11.709 -0.6886  0.6574 -0.1243
13165SOL    HW240937   5.961   1.270  11.845  2.2189 -1.3314 -1.7350
13166SOL     OW40938   3.712   0.769  10.384 -0.0177 -0.1663 -0.1689
13166SOL    HW140939   3.799   0.753  10.420  0.0332  1.6020  0.5696
13166SOL    HW240940   3.728   0.788  10.291  0.2083 -1.2810 -0.3736
13167SOL     OW40941   5.745   1.996  10.825 -0.1529  0.0002 -0.5092
13167SOL    HW140942   5.729   2.039  10.741 -1.9646 -0.6156 -0.5243
13167SOL    HW240943   5.658   1.981  10.862  0.4915 -1.8640  0.3975
13168SOL     OW40944   4.167   1.627  11.313 -0.3712 -0.1149  0.3010
13168SOL    HW140945   4.189   1.565  11.243  2.5025 -1.0579  1.8715
13168SOL    HW240946   4.084   1.595  11.348  0.2206 -2.1548 -0.0107
13169SOL     OW40947   4.621   1.729  11.358  0.3786  0.3810  0.5266
13169SOL    HW140948   4.589   1.792  11.423 -0.9344 -0.4793  0.7400
13169SOL    HW240949   4.556   1.658  11.359  1.6390 -0.8160  0.0405
13170SOL     OW40950   6.149   1.412   9.974 -0.2152  0.1699  0.1110
13170SOL    HW140951   6.085   1.469   9.931  0.0608 -0.6505 -1.4593
13170SOL    HW240952   6.167   1.455  10.058  0.8787  3.0634 -1.4752
13171SOL     OW40953   5.177   1.473   9.109 -0.2585 -0.4796  0.1808
13171SOL    HW140954   5.126   1.395   9.132  0.0849 -2.3043 -4.2682
13171SOL    HW240955   5.267   1.441   9.103  0.2999  0.9271  0.6248
13172SOL     OW40956   6.353   7.213   7.825 -0.4034  0.4639  0.4094
13172SOL    HW140957   6.313   7.298   7.806  0.1274  0.7113  0.3728
13172SOL    HW240958   6.343   7.203   7.920 -0.2150  0.7075  0.4593
13173SOL     OW40959   4.581   7.890  10.482  0.0185 -0.0160  0.4470
13173SOL    HW140960   4.618   7.891  10.571  1.0434 -0.4495  0.0386
13173SOL    HW240961   4.626   7.818  10.438 -0.2369  0.4051 -0.5279
13174SOL     OW40962   4.828   7.402  10.871 -0.0761  0.2513  0.0705
13174SOL    HW140963   4.782   7.395  10.955  0.9411  0.1946  0.6519
13174SOL    HW240964   4.871   7.487  10.875 -0.3602  0.4205 -0.5711
13175SOL     OW40965   4.149   0.270  11.052 -0.2892  0.0232  0.3042
13175SOL    HW140966   4.195   0.294  10.971 -0.5266 -0.0609  0.1427
13175SOL    HW240967   4.072   0.328  11.054 -0.3125 -0.0115  0.4425
13176SOL     OW40968   5.080   2.097   9.006 -0.0129  0.0936 -0.2872
13176SOL    HW140969   5.046   2.048   9.080 -1.1061  0.5661 -0.4707
13176SOL    HW240970   5.141   2.035   8.963  0.6473 -0.1711  0.9817
13177SOL     OW40971   3.701   2.434   9.686 -0.0128  0.2007 -0.1516
13177SOL    HW140972   3.640   2.375   9.642  0.6754 -0.6461 -0.0034
13177SOL    HW240973   3.684   2.520   9.647  0.4844 -0.4870 -1.9709
13178SOL     OW40974   4.289   2.156   8.783 -0.0476  0.0863  0.4095
13178SOL    HW140975   4.202   2.185   8.757  0.3617  0.4946 -0.5974
13178SOL    HW240976   4.349   2.213   8.734  0.8406 -3.0814 -2.6394
13179SOL     OW40977   4.742   7.946   8.658 -0.4079 -0.1958 -0.2064
13179SOL    HW140978   4.799   7.996   8.717  0.2184 -0.5993 -0.4575
13179SOL    HW240979   4.675   8.009   8.630  0.0107  0.3331 -0.0338
13180SOL     OW40980   4.198   0.632  10.937  0.2925  0.1288 -0.7965
13180SOL    HW140981   4.204   0.680  11.020  0.6527 -0.7254 -0.3126
13180SOL    HW240982   4.289   0.619  10.910  0.2562 -1.2762 -0.3180
13181SOL     OW40983   5.524   7.595   9.960 -0.1626 -0.4040  0.1087
13181SOL    HW140984   5.583   7.622   9.889 -1.5503  1.0813 -0.5600
13181SOL    HW240985   5.572   7.614  10.040 -0.3187  2.4968 -0.3788
13182SOL     OW40986   4.772   1.602   9.434  0.2654 -0.0770 -0.0086
13182SOL    HW140987   4.737   1.651   9.508 -0.6067 -0.2552 -0.3006
13182SOL    HW240988   4.800   1.670   9.372 -2.7266  0.1453 -1.2767
13183SOL     OW40989   5.462   2.385   8.709 -0.2328 -0.2387  0.4689
13183SOL    HW140990   5.384   2.346   8.749 -0.8090  0.5675  0.1622
13183SOL    HW240991   5.428   2.439   8.637  0.7067 -0.8699 -0.4821
13184SOL     OW40992   5.832   0.787  10.410  0.6730  0.2907 -0.2984
13184SOL    HW140993   5.851   0.880  10.410 -0.2916  0.5138 -1.3384
13184SOL    HW240994   5.775   0.774  10.333  0.5034 -1.0841  0.0284
13185SOL     OW40995   5.979   1.270   8.499 -0.5623 -0.3347 -0.1741
13185SOL    HW140996   5.984   1.174   8.504 -0.0734 -0.2862  0.3873
13185SOL    HW240997   6.051   1.295   8.440  0.4979 -0.2074  1.1164
13186SOL     OW40998   4.625   1.556   8.729 -0.8086  0.2083 -0.1453
13186SOL    HW140999   4.600   1.636   8.776  0.7940  0.0681  1.0518
13186SOL    HW241000   4.614   1.578   8.637 -2.8031  0.9499  0.2097
13187SOL     OW41001   7.047   0.338  10.712 -0.3594 -0.6380 -0.0350
13187SOL    HW141002   7.069   0.261  10.660  0.2148 -0.5898  0.1347
13187SOL    HW241003   6.979   0.307  10.773  0.1108 -1.0961  0.2627
13188SOL     OW41004   4.415   7.037   9.978  0.6500 -0.0858 -0.3326
13188SOL    HW141005   4.359   7.074  10.047 -0.2409 -0.4053 -0.8603
13188SOL    HW241006   4.493   7.007  10.025 -0.0666 -0.5776  0.6013
13189SOL     OW41007   2.138   0.774   9.792 -0.3778  0.0378 -0.7650
13189SOL    HW141008   2.133   0.737   9.704 -0.9660  0.2169 -0.8122
13189SOL    HW241009   2.105   0.864   9.782  0.2679  0.3138 -0.5024
13190SOL     OW41010   4.539   1.549   0.544  0.2680  0.1256  0.7520
13190SOL    HW141011   4.585   1.466   0.555  0.3745  0.1050  0.1689
13190SOL    HW241012   4.584   1.592   0.472  0.7627  1.0803  1.5949
13191SOL     OW41013   4.962   1.996   9.226  0.1406  0.5285 -0.2139
13191SOL    HW141014   4.917   2.069   9.268 -0.5276  0.4280 -0.7323
13191SOL    HW241015   4.904   1.921   9.239  1.3061 -0.1759  1.2429
13192SOL     OW41016   5.018   3.770   0.455 -0.0077  0.3567  0.1556
13192SOL    HW141017   5.080   3.826   0.409  0.8519 -1.7930 -1.5009
13192SOL    HW241018   4.959   3.738   0.387 -0.2453 -0.9974  0.9444
13193SOL     OW41019   5.393   2.110   9.767 -0.3862  0.0889  0.2850
13193SOL    HW141020   5.302   2.082   9.767 -0.4249  0.1157 -1.1684
13193SOL    HW241021   5.392   2.194   9.721  0.3063  0.3729  0.7670
13194SOL     OW41022   5.755   7.500   9.348  0.4935 -0.1159  0.1757
13194SOL    HW141023   5.680   7.542   9.390  1.1472  2.1205 -0.7463
13194SOL    HW241024   5.717   7.430   9.294 -0.8076  0.2448  0.5940
13195SOL     OW41025   5.710   0.578  11.516 -0.3428  0.7989  0.4385
13195SOL    HW141026   5.688   0.493  11.555  0.5639 -0.0261 -0.7751
13195SOL    HW241027   5.625   0.617  11.494 -0.7699  0.2248  1.0391
13196SOL     OW41028   5.946   1.002   0.339 -0.2802 -0.8277  0.2848
13196SOL    HW141029   6.026   0.973   0.383 -0.0704 -0.0748  0.4135
13196SOL    HW241030   5.917   0.925   0.290  1.7368 -0.5471 -1.5321
13197SOL     OW41031   5.165   7.961   7.647 -0.7784  0.0030  0.6492
13197SOL    HW141032   5.252   7.941   7.613  0.0571  2.9644  0.6793
13197SOL    HW241033   5.122   7.877   7.655  0.4867 -1.2944 -3.5518
13198SOL     OW41034   4.925   0.838  10.911  0.0069 -0.0957  0.0934
13198SOL    HW141035   4.881   0.753  10.915  1.8629 -1.1742 -0.5088
13198SOL    HW241036   4.974   0.835  10.828  1.1598  1.0060  0.6970
13199SOL     OW41037   5.338   0.581  10.716 -0.1845  0.8511 -0.1061
13199SOL    HW141038   5.351   0.653  10.654 -1.4514 -1.0217 -2.6968
13199SOL    HW241039   5.398   0.513  10.687 -2.1298 -0.7737 -0.5169
13200SOL     OW41040   5.588   2.542  11.557 -0.1636  0.4806  0.3854
13200SOL    HW141041   5.659   2.485  11.527  0.3794  0.8060  1.0206
13200SOL    HW241042   5.511   2.485  11.557  0.1435  0.0534 -0.0766
13201SOL     OW41043   3.842   2.775   8.197 -0.4536  0.1756  0.3933
13201SOL    HW141044   3.882   2.850   8.241  1.9917 -1.2090  0.7197
13201SOL    HW241045   3.785   2.813   8.131 -1.2898  2.2996  2.2138
13202SOL     OW41046   4.983   1.319  12.227 -0.0104 -0.4044  0.3299
13202SOL    HW141047   4.999   1.365  12.310 -0.0879 -0.3274  0.3028
13202SOL    HW241048   5.027   1.235  12.237  0.9633  0.0532  0.0034
13203SOL     OW41049   4.974   1.850  11.473 -0.6371  0.5070 -0.0975
13203SOL    HW141050   5.064   1.870  11.447 -0.8687  1.0780 -0.4927
13203SOL    HW241051   4.970   1.755  11.474  0.3140  0.4554  1.1221
13204SOL     OW41052   4.641   2.832  10.184  0.4038 -0.2618  0.1290
13204SOL    HW141053   4.649   2.799  10.094 -0.2582 -2.5543  0.8448
13204SOL    HW241054   4.724   2.876  10.201  1.4411 -1.7272 -0.8862
13205SOL     OW41055   5.952   1.052   9.710 -0.6378  0.3811  0.6772
13205SOL    HW141056   5.971   0.968   9.668  0.5457  1.8343 -1.9190
13205SOL    HW241057   6.002   1.050   9.792  1.2333 -0.5675 -0.4284
13206SOL     OW41058   3.576   0.938  11.068  0.4238  0.2934 -0.0199
13206SOL    HW141059   3.574   0.934  11.163 -0.6767  2.0968  0.0832
13206SOL    HW241060   3.634   1.011  11.048  0.4347  0.1029 -0.7242
13207SOL     OW41061   4.467   0.555  12.361  0.4257  0.1442 -0.1576
13207SOL    HW141062   4.504   0.470  12.381  3.0986  1.1174 -0.5896
13207SOL    HW241063   4.435   0.588  12.445 -0.7775 -1.2888 -0.0178
13208SOL     OW41064   3.725   1.052  10.651  0.1881 -0.1681 -0.1318
13208SOL    HW141065   3.646   1.102  10.670 -0.6889 -1.8437  0.8583
13208SOL    HW241066   3.693   0.969  10.614  1.3709 -1.3673  1.3998
13209SOL     OW41067   5.865   0.820  11.226  0.1731  0.2646 -0.4553
13209SOL    HW141068   5.826   0.732  11.226  0.5096  0.1130 -0.1497
13209SOL    HW241069   5.871   0.844  11.318  1.9484 -0.2396 -0.3969
13210SOL     OW41070   5.226   0.555  10.437 -0.3964 -0.4914  0.3440
13210SOL    HW141071   5.268   0.471  10.457 -0.3414 -0.6498 -0.4028
13210SOL    HW241072   5.148   0.556  10.493  0.3810 -0.3634  1.4523
13211SOL     OW41073   4.241   0.380   8.001  0.1999 -0.3431 -0.4310
13211SOL    HW141074   4.287   0.383   7.917  0.7978 -1.1298 -0.1381
13211SOL    HW241075   4.230   0.287   8.020 -1.6934 -0.1895 -0.5709
13212SOL     OW41076   4.563   2.114  11.161 -0.4390  0.2243  0.3965
13212SOL    HW141077   4.568   2.023  11.192  0.8483  0.1625  0.0728
13212SOL    HW241078   4.472   2.138  11.173 -0.7269 -0.9931  0.8453
13213SOL     OW41079   4.843   2.739   9.151  0.1565  0.3795 -0.1814
13213SOL    HW141080   4.798   2.798   9.091 -0.8503  1.8629  1.8711
13213SOL    HW241081   4.932   2.773   9.157  1.1667 -1.5087 -2.9194
13214SOL     OW41082   4.305   1.931   9.790 -0.3824 -0.0880  0.9565
13214SOL    HW141083   4.237   1.941   9.723 -0.2387  1.5048  1.0143
13214SOL    HW241084   4.270   1.979   9.866  0.6265  0.4199  1.1148
13215SOL     OW41085   4.722   0.931  10.169 -0.2614 -0.6864  0.5705
13215SOL    HW141086   4.719   0.864  10.100 -1.7581  0.4575 -0.5369
13215SOL    HW241087   4.646   0.912  10.224 -1.2838  0.6417 -0.3272
13216SOL     OW41088   4.553   0.025  11.593 -0.1857 -0.4043  0.2352
13216SOL    HW141089   4.560  -0.027  11.514  1.1379 -2.1189  1.4036
13216SOL    HW241090   4.459   0.034  11.608 -0.4814 -2.6182  0.0467
13217SOL     OW41091   6.682   2.570   1.470  0.2743  0.1894 -0.3907
13217SOL    HW141092   6.700   2.496   1.412  1.6791 -2.5509  3.1868
13217SOL    HW241093   6.758   2.627   1.461 -0.7825  1.3660 -3.1216
13218SOL     OW41094   3.522   2.249   9.582 -0.5573  0.2740 -0.3295
13218SOL    HW141095   3.524   2.164   9.538  0.0046 -0.1605  0.5130
13218SOL    HW241096   3.430   2.260   9.609 -0.7160  0.1322 -0.8142
13219SOL     OW41097   5.747   0.044  10.427  0.1548  0.1185 -0.6266
13219SOL    HW141098   5.738   0.037  10.522 -2.6965  1.1763 -0.7035
13219SOL    HW241099   5.699  -0.032  10.394 -0.3437  0.6736 -1.2052
13220SOL     OW41100   6.016   2.427  10.776  0.7151 -0.5275  0.6178
13220SOL    HW141101   6.015   2.480  10.696  2.6340  0.6099  1.2945
13220SOL    HW241102   5.924   2.420  10.801 -0.0110 -1.3432 -1.9222
13221SOL     OW41103   2.899   0.358  12.036 -0.5180  0.0904  0.1870
13221SOL    HW141104   2.946   0.403  12.106 -0.6348 -0.3565  0.5588
13221SOL    HW241105   2.834   0.304  12.082 -0.1703 -0.6965 -0.2252
13222SOL     OW41106   5.895   1.224  10.641 -0.6105  0.7867  0.4492
13222SOL    HW141107   5.856   1.274  10.713 -0.6597  0.3276  0.7507
13222SOL    HW241108   5.824   1.168  10.609 -0.5889  0.9960  0.0393
13223SOL     OW41109   3.305   1.107  11.933 -0.1954  0.2693  0.0001
13223SOL    HW141110   3.318   1.042  12.002  2.9223  0.0907 -0.5853
13223SOL    HW241111   3.314   1.058  11.852  0.4803  1.1495 -0.4694
13224SOL     OW41112   4.491   0.025  11.080 -0.4889  0.4611 -0.1171
13224SOL    HW141113   4.410   0.065  11.113 -0.1609  1.1395 -0.1285
13224SOL    HW241114   4.519   0.083  11.009  0.2182  0.4361  0.1426
13225SOL     OW41115   6.194   1.790   9.705  0.1429  0.3223  0.4297
13225SOL    HW141116   6.269   1.799   9.646 -0.0897 -2.0840 -0.3162
13225SOL    HW241117   6.118   1.812   9.651 -0.0723 -1.9055 -0.2631
13226SOL     OW41118   5.738   2.565   9.463 -0.2884  0.0662 -0.1235
13226SOL    HW141119   5.654   2.554   9.417  1.3456 -3.2112 -2.7298
13226SOL    HW241120   5.761   2.657   9.447 -1.9409  0.2405 -2.0375
13227SOL     OW41121   4.433   1.539  11.051 -0.1221  0.4102 -0.3435
13227SOL    HW141122   4.340   1.530  11.031 -0.2523  1.0255 -0.0365
13227SOL    HW241123   4.455   1.629  11.028  0.8341 -0.2148 -2.0995
13228SOL     OW41124   2.523   1.529  11.062 -0.1137  0.2865 -0.6581
13228SOL    HW141125   2.517   1.561  11.153 -0.0707  1.4740 -1.0542
13228SOL    HW241126   2.498   1.437  11.068 -0.6097  0.4680  0.4891
13229SOL     OW41127   3.169   0.050  10.378 -0.2551 -0.7994 -0.3355
13229SOL    HW141128   3.262   0.066  10.390 -0.2433 -0.1898 -1.1349
13229SOL    HW241129   3.140   0.119  10.318 -0.6900 -2.4398 -2.1299
13230SOL     OW41130   7.598   1.238  10.025  0.3066 -0.0379 -0.3918
13230SOL    HW141131   7.575   1.209   9.937 -0.1400  1.1655 -0.6923
13230SOL    HW241132   7.565   1.169  10.082 -4.4496  1.6116 -0.7560
13231SOL     OW41133   5.457   1.049   9.499  0.0894 -0.2478  0.2449
13231SOL    HW141134   5.455   1.064   9.404 -1.2676 -1.2884  0.0907
13231SOL    HW241135   5.379   1.095   9.532 -0.4554 -1.4112  0.6099
13232SOL     OW41136   4.113   1.311  11.381  0.4518 -0.0337  0.4428
13232SOL    HW141137   4.125   1.377  11.313  1.0811  1.1411  1.6378
13232SOL    HW241138   4.185   1.250  11.368 -0.6773 -1.0705 -1.2636
13233SOL     OW41139   4.693   1.393  10.213  0.1325  0.2091  0.3388
13233SOL    HW141140   4.629   1.421  10.279  0.1581  2.4917 -0.5183
13233SOL    HW241141   4.759   1.462  10.213  0.8698 -0.4443 -1.1242
13234SOL     OW41142   2.737   1.065  12.112  0.3207 -0.5972 -0.1971
13234SOL    HW141143   2.702   0.990  12.161 -1.0647 -0.1794 -0.4861
13234SOL    HW241144   2.776   1.121  12.178 -1.0722 -0.2888  0.3930
13235SOL     OW41145   5.302   0.600   9.737 -0.6969  0.2520 -0.4844
13235SOL    HW141146   5.250   0.650   9.800  1.0634  1.5373  0.0307
13235SOL    HW241147   5.269   0.510   9.745 -2.5675  0.9330  0.0332
13236SOL     OW41148   3.728   0.762  12.056  0.1499  0.0120 -0.1291
13236SOL    HW141149   3.650   0.755  12.001 -0.8463  2.2726  0.8551
13236SOL    HW241150   3.797   0.792  11.996 -0.7688  1.8291 -0.3598
13237SOL     OW41151   6.079   0.742  11.975  0.2226 -0.2774  0.2369
13237SOL    HW141152   5.993   0.703  11.958 -0.3996  1.7027 -1.5786
13237SOL    HW241153   6.060   0.822  12.024  0.9538  0.4773 -0.6766
13238SOL     OW41154   4.140   1.633  10.576  0.0486 -0.2044 -0.7662
13238SOL    HW141155   4.168   1.598  10.661 -0.9273  0.4877 -0.1369
13238SOL    HW241156   4.089   1.562  10.536 -1.3171  0.1803  0.1933
13239SOL     OW41157   3.988   1.723   9.724  0.3269  0.2637  0.4069
13239SOL    HW141158   4.018   1.805   9.683 -0.8615  0.1356 -0.7724
13239SOL    HW241159   3.950   1.673   9.652 -0.3269 -0.6925  1.3954
13240SOL     OW41160   3.794   0.640  10.928 -0.2754  0.4258  0.0165
13240SOL    HW141161   3.814   0.696  11.003  0.3614 -0.2158  0.3408
13240SOL    HW241162   3.705   0.664  10.903 -0.5638  0.5278  1.0987
13241SOL     OW41163   7.053   1.234   1.143  0.8171  0.3204 -0.0098
13241SOL    HW141164   7.092   1.168   1.087 -0.4537  0.1143 -0.6905
13241SOL    HW241165   7.117   1.247   1.214  1.5049 -0.9184 -0.3816
13242SOL     OW41166   5.818   1.989   9.532  0.2133 -0.2101  0.0357
13242SOL    HW141167   5.900   1.942   9.517  0.2858  0.1131 -0.6443
13242SOL    HW241168   5.779   1.997   9.445 -0.7297 -0.6917  0.3952
13243SOL     OW41169   3.413   1.805   9.249  0.2125  0.0605  0.3717
13243SOL    HW141170   3.452   1.734   9.300  0.1385 -0.2964 -0.0606
13243SOL    HW241171   3.476   1.823   9.180  0.2181  0.3981  0.4650
13244SOL     OW41172   3.618   7.972  11.254 -0.4880 -0.3775 -0.5936
13244SOL    HW141173   3.599   7.941  11.343  1.5156 -2.0184 -0.6674
13244SOL    HW241174   3.676   8.047  11.267 -1.3919  0.3316 -0.5230
13245SOL     OW41175   3.588   1.365  10.305  0.0139  0.0229 -0.3584
13245SOL    HW141176   3.558   1.446  10.345 -0.5327 -0.6828  0.7285
13245SOL    HW241177   3.674   1.349  10.344  0.5696  0.5682 -1.3177
13246SOL     OW41178   5.292   0.315  10.473 -0.3632  0.3178  0.4523
13246SOL    HW141179   5.211   0.266  10.460 -1.4643  1.6616  1.8981
13246SOL    HW241180   5.355   0.249  10.502 -0.5282 -0.9651 -1.7934
13247SOL     OW41181   4.883   1.196  10.183  0.5071  0.4613  0.3340
13247SOL    HW141182   4.802   1.244  10.166  0.9729  1.6356  1.2777
13247SOL    HW241183   4.879   1.120  10.125 -0.2501  1.6334 -1.2123
13248SOL     OW41184   4.703   2.009  10.675  0.4505  0.0695  0.3002
13248SOL    HW141185   4.701   1.985  10.582 -2.4263 -2.1789  0.7830
13248SOL    HW241186   4.655   2.092  10.679 -0.6932 -0.5433 -0.1258
13249SOL     OW41187   3.442   2.195  10.291 -0.4572  0.2355  0.3203
13249SOL    HW141188   3.357   2.173  10.252 -0.4676  0.8699 -0.0274
13249SOL    HW241189   3.499   2.122  10.266 -0.7355  0.1216  0.0043
13250SOL     OW41190   5.067   1.720  11.915 -0.0869  0.5297 -0.9530
13250SOL    HW141191   5.146   1.684  11.957 -1.1705 -2.1486 -1.0330
13250SOL    HW241192   4.995   1.670  11.954 -1.7032  2.4000 -1.4268
13251SOL     OW41193   4.210   7.584  12.096  0.0948  0.1056 -0.2006
13251SOL    HW141194   4.232   7.498  12.062  1.6445  0.2085  0.4405
13251SOL    HW241195   4.185   7.569  12.187  2.4303  0.4787  0.5910
13252SOL     OW41196   6.975   1.262  10.331  0.0659  0.1425 -0.1424
13252SOL    HW141197   6.928   1.184  10.301  0.4404 -0.0512 -0.2300
13252SOL    HW241198   6.963   1.326  10.260 -1.5673  0.7261  0.6009
13253SOL     OW41199   5.527   3.078  11.068 -0.7222 -0.2659 -0.4988
13253SOL    HW141200   5.495   3.132  11.141 -1.1159  0.0875 -0.9233
13253SOL    HW241201   5.524   3.137  10.993 -1.5331 -0.9999 -1.0536
13254SOL     OW41202   5.779   7.221   9.447 -0.7905  0.1961  0.2334
13254SOL    HW141203   5.767   7.311   9.416 -0.6662 -0.2412 -1.1677
13254SOL    HW241204   5.788   7.170   9.366  1.3155 -0.7781  1.0226
13255SOL     OW41205   3.168   2.007  10.256 -0.3775 -0.2493 -0.1073
13255SOL    HW141206   3.115   2.047  10.187 -0.6991  0.6708  0.6459
13255SOL    HW241207   3.162   1.913  10.239  0.8067 -0.0069 -2.2274
13256SOL     OW41208   4.676   1.885   8.609 -0.2524 -0.5884  0.2430
13256SOL    HW141209   4.728   1.966   8.604  0.1692 -0.8453  0.4136
13256SOL    HW241210   4.586   1.916   8.617 -0.1904 -0.1388 -0.6582
13257SOL     OW41211   4.516   2.416  10.767  0.2169 -0.4392 -0.2028
13257SOL    HW141212   4.499   2.509  10.786  0.3444 -0.5266  0.3662
13257SOL    HW241213   4.436   2.385  10.725  0.4327  0.0982 -1.0261
13258SOL     OW41214   7.642   0.194  10.244  0.1614  0.3011  0.3412
13258SOL    HW141215   7.726   0.148  10.253  0.3590  0.5573 -0.1665
13258SOL    HW241216   7.591   0.165  10.320  0.3921 -0.5163  0.1929
13259SOL     OW41217   3.237   7.789  11.306 -0.0994 -0.2604 -0.1564
13259SOL    HW141218   3.151   7.791  11.266 -0.0948 -0.1434 -0.1597
13259SOL    HW241219   3.226   7.831  11.391  0.0049 -0.0299 -0.2549
13260SOL     OW41220   5.510   1.320  10.706  0.7029 -0.0086  0.3027
13260SOL    HW141221   5.467   1.239  10.734  1.9932 -0.3512  1.4264
13260SOL    HW241222   5.440   1.374  10.670 -0.2159 -1.5513 -0.3111
13261SOL     OW41223   5.451   0.445   9.341 -0.4222 -0.7384 -0.1382
13261SOL    HW141224   5.483   0.499   9.414 -1.3223  0.9231 -0.9133
13261SOL    HW241225   5.466   0.499   9.263 -2.2638 -1.1638 -0.8345
13262SOL     OW41226   5.377   1.175   8.423  0.6094 -0.4915  0.1071
13262SOL    HW141227   5.421   1.224   8.493  1.1635  1.3893 -1.4596
13262SOL    HW241228   5.284   1.192   8.437  0.6976 -0.3311  0.5235
13263SOL     OW41229   5.489   2.274  10.790  0.2980 -0.3604  0.2938
13263SOL    HW141230   5.451   2.188  10.775 -0.5221 -0.1911  1.2794
13263SOL    HW241231   5.569   2.274  10.738  0.6464 -1.9500  0.7681
13264SOL     OW41232   5.584   0.517  10.412  0.1092 -0.5532  0.4439
13264SOL    HW141233   5.532   0.511  10.332  1.3489 -2.6371 -0.2840
13264SOL    HW241234   5.615   0.608  10.413 -3.0544  0.6368  0.6761
13265SOL     OW41235   5.282   1.357   8.745 -0.3322  0.0523  0.5715
13265SOL    HW141236   5.353   1.350   8.681  1.6607 -0.3768  2.6896
13265SOL    HW241237   5.215   1.408   8.700  0.0653 -1.9078 -2.5448
13266SOL     OW41238   4.339   1.156  11.390  0.2833  0.2204  0.2814
13266SOL    HW141239   4.380   1.211  11.458  2.1929  0.3548 -0.9071
13266SOL    HW241240   4.400   1.083  11.378 -1.1894 -1.0642  0.3306
13267SOL     OW41241   5.532   7.653   9.417  0.3621  0.1927 -0.1317
13267SOL    HW141242   5.480   7.670   9.339  2.0772 -1.0214 -1.6097
13267SOL    HW241243   5.602   7.718   9.414  0.7450 -0.2042  0.1133
13268SOL     OW41244   3.834   1.055  11.447  0.0767 -0.2916  0.6675
13268SOL    HW141245   3.827   1.090  11.358 -1.8254 -0.9369  0.5102
13268SOL    HW241246   3.858   1.131  11.500 -0.9120  0.6118 -0.1089
13269SOL     OW41247   3.694   0.773   9.797  0.4910  0.0793 -0.1090
13269SOL    HW141248   3.659   0.862   9.793  1.4390  0.4911  0.3209
13269SOL    HW241249   3.781   0.784   9.835  0.6576 -1.0272 -0.1486
13270SOL     OW41250   2.882   1.937   9.479 -0.0079  0.0815  0.8456
13270SOL    HW141251   2.910   1.851   9.509  0.4516  0.0279  0.2848
13270SOL    HW241252   2.959   1.974   9.436 -0.2880  0.6503  0.8208
13271SOL     OW41253   4.834   1.596  11.281 -0.2675 -0.2885 -0.1135
13271SOL    HW141254   4.883   1.658  11.226  1.5949 -0.8605  0.8276
13271SOL    HW241255   4.761   1.648  11.315  0.1182  0.8371 -0.9276
13272SOL     OW41256   3.482   0.396   9.790  0.0207  0.4241 -0.1276
13272SOL    HW141257   3.478   0.301   9.795  1.8713  0.2850 -0.5391
13272SOL    HW241258   3.417   0.419   9.723  0.8427 -0.7364 -1.3904
13273SOL     OW41259   4.791   7.737  11.324  0.1931 -0.2339  0.5237
13273SOL    HW141260   4.773   7.825  11.292 -0.6281 -0.7182 -0.3937
13273SOL    HW241261   4.734   7.727  11.400 -0.7604 -0.4647 -0.2094
13274SOL     OW41262   4.633   7.709  10.051  0.2324  0.4655 -0.4394
13274SOL    HW141263   4.648   7.741   9.962  2.0280  1.0821  0.0449
13274SOL    HW241264   4.541   7.684  10.052 -0.6292  3.2116 -1.6057
13275SOL     OW41265   5.142   1.323   6.582 -0.4272 -0.1177 -0.5814
13275SOL    HW141266   5.070   1.296   6.525 -0.4159  1.0145 -1.1501
13275SOL    HW241267   5.205   1.364   6.523 -0.1738  0.5945  0.1729
13276SOL     OW41268   4.438   1.336  10.862  0.7009 -0.5237 -0.1717
13276SOL    HW141269   4.433   1.244  10.886  0.4413 -0.4816 -0.0676
13276SOL    HW241270   4.421   1.383  10.944  0.2497 -0.3821 -0.3446
13277SOL     OW41271   4.589   1.388   7.741 -0.2549  0.1802  0.0622
13277SOL    HW141272   4.650   1.450   7.781  1.0110 -0.9918 -0.0161
13277SOL    HW241273   4.643   1.317   7.708 -1.3017  0.6476 -3.0405
13278SOL     OW41274   4.994   0.803   9.888  0.3029  0.1561  0.2361
13278SOL    HW141275   4.914   0.838   9.848 -0.8590 -1.4078  1.0842
13278SOL    HW241276   4.983   0.820   9.982  0.9552 -0.0852  0.3619
13279SOL     OW41277   5.958   7.568  11.719 -0.4971  0.3882 -0.5821
13279SOL    HW141278   5.913   7.625  11.657  1.6747  2.0463 -0.7869
13279SOL    HW241279   5.978   7.625  11.794  2.9302  0.4635 -1.3539
13280SOL     OW41280   4.008   1.333  11.619  0.1236 -0.0691  0.4205
13280SOL    HW141281   3.971   1.420  11.633  1.5077  0.3840  1.5520
13280SOL    HW241282   4.042   1.335  11.529 -0.4181  0.3348  0.2249
13281SOL     OW41283   6.805   0.998  11.829  0.4547 -0.2073  0.0345
13281SOL    HW141284   6.763   1.006  11.743  1.1075 -1.5623 -0.4446
13281SOL    HW241285   6.879   1.059  11.825 -0.7958  1.4092  0.5017
13282SOL     OW41286   4.605   1.266   8.181 -0.1428  0.3324 -0.2249
13282SOL    HW141287   4.671   1.227   8.124  0.1600 -0.7958  0.8478
13282SOL    HW241288   4.620   1.226   8.267 -0.9668  1.5219  0.5170
13283SOL     OW41289   4.480   0.634   9.257  0.0577 -0.4511 -0.4220
13283SOL    HW141290   4.517   0.696   9.321  0.1582  0.3248 -1.2118
13283SOL    HW241291   4.551   0.620   9.194 -0.2509 -0.7026 -0.7179
13284SOL     OW41292   5.959   0.329  10.495 -0.1089  0.3198  0.1536
13284SOL    HW141293   5.970   0.418  10.528 -2.2829  1.2350 -1.3806
13284SOL    HW241294   5.872   0.302  10.525 -0.3882 -0.4278 -1.2246
13285SOL     OW41295   4.905   1.801  12.339 -0.0260  0.0917 -0.2090
13285SOL    HW141296   4.951   1.768  12.262 -0.4959  0.1168 -0.5084
13285SOL    HW241297   4.845   1.868  12.304  0.8034  1.1703  0.3636
13286SOL     OW41298   5.223   2.258   8.400  0.0708 -0.7145  0.1250
13286SOL    HW141299   5.289   2.251   8.330 -0.8885 -2.3423 -0.6788
13286SOL    HW241300   5.198   2.350   8.399  1.2633 -0.3692 -0.5683
13287SOL     OW41301   4.978   0.556  10.977 -0.0020  0.1406  0.2767
13287SOL    HW141302   5.045   0.620  11.000 -0.0851  0.8267 -1.3104
13287SOL    HW241303   5.006   0.521  10.893 -0.7487 -0.8384  0.4153
13288SOL     OW41304   5.332   1.636  10.833  0.2386 -0.1630 -0.6839
13288SOL    HW141305   5.331   1.606  10.924 -1.2509  0.6955 -0.3811
13288SOL    HW241306   5.341   1.556  10.782 -2.2022 -1.0748  0.1449
13289SOL     OW41307   3.345   7.811  10.828 -0.8229  1.2413  0.1168
13289SOL    HW141308   3.377   7.788  10.915  0.0185  0.7302 -0.3220
13289SOL    HW241309   3.364   7.905  10.820  0.7468  0.9257 -0.1915
13290SOL     OW41310   5.920   3.007  10.836 -0.2803  0.3677  0.3686
13290SOL    HW141311   5.974   3.046  10.767  3.8870 -1.9321  2.0189
13290SOL    HW241312   5.871   3.081  10.872  0.5829  2.3696 -2.1998
13291SOL     OW41313   5.196   0.081  12.150 -0.5804  0.1917 -0.5826
13291SOL    HW141314   5.133   0.147  12.177 -0.7924  0.2111 -1.1028
13291SOL    HW241315   5.225   0.040  12.232 -0.5554  0.8226 -0.2730
13292SOL     OW41316   3.365   7.398  10.190 -0.0313  0.0118 -0.2432
13292SOL    HW141317   3.286   7.444  10.217 -0.5558  0.3371 -2.2113
13292SOL    HW241318   3.367   7.407  10.095  3.3645  1.6733 -0.1696
13293SOL     OW41319   4.101   1.975  12.329 -0.2524  0.0188 -0.2273
13293SOL    HW141320   4.074   1.891  12.291  0.0422 -0.4417  0.5478
13293SOL    HW241321   4.153   1.950  12.405 -0.8372  0.9160  0.4805
13294SOL     OW41322   6.107   1.000  10.580  0.1368 -0.1419  0.2519
13294SOL    HW141323   6.054   1.074  10.609 -2.1094 -0.9150 -1.5267
13294SOL    HW241324   6.082   0.928  10.638 -1.0993 -0.5823 -0.7669
13295SOL     OW41325   4.130   7.772   9.786 -0.2585  0.0129 -0.2550
13295SOL    HW141326   4.096   7.693   9.744  2.1940 -1.5163  0.4504
13295SOL    HW241327   4.121   7.755   9.879 -0.1635  0.7884 -0.1001
13296SOL     OW41328   5.899   1.856  10.628  0.0044 -0.1433 -0.6735
13296SOL    HW141329   5.939   1.786  10.680 -0.7527  0.3740  0.6568
13296SOL    HW241330   5.810   1.825  10.612 -0.5587  0.7827  0.5218
13297SOL     OW41331   2.922   0.660   9.278  0.1814  0.1434 -0.3433
13297SOL    HW141332   2.938   0.747   9.314  0.1816  0.4585 -1.1018
13297SOL    HW241333   2.954   0.664   9.188  1.1060 -0.9339 -0.0840
13298SOL     OW41334   4.414   2.105   9.438 -0.0742 -0.5427 -0.0261
13298SOL    HW141335   4.381   2.016   9.424 -0.8750 -0.8324  2.9069
13298SOL    HW241336   4.335   2.156   9.454  0.4981  0.2795  0.2034
13299SOL     OW41337   4.462   7.431  11.395  0.3945  0.1687 -0.4915
13299SOL    HW141338   4.386   7.392  11.438  1.7000 -1.1803  0.7168
13299SOL    HW241339   4.426   7.501  11.342 -1.8023 -1.0247 -0.7119
13300SOL     OW41340   4.976   7.611  10.809  0.1564  0.0963  0.0108
13300SOL    HW141341   4.955   7.698  10.775 -0.9485 -0.5258 -0.9838
13300SOL    HW241342   5.066   7.618  10.838  1.3560  0.6677 -3.3583
13301SOL     OW41343   5.330   1.480  10.589 -0.1268  0.2344 -0.2246
13301SOL    HW141344   5.242   1.513  10.605 -0.2539  0.7543 -1.8036
13301SOL    HW241345   5.321   1.421  10.514  0.5316 -1.4325  0.9447
13302SOL     OW41346   5.035   0.769  12.178  1.1891  0.6334  0.3327
13302SOL    HW141347   5.051   0.732  12.265  0.6535 -2.6827 -0.8458
13302SOL    HW241348   5.119   0.762  12.133  0.7050 -0.7364 -0.4064
13303SOL     OW41349   5.410   7.664  10.509 -0.8385 -0.4443  0.0621
13303SOL    HW141350   5.397   7.572  10.488 -1.1100 -0.5696  0.7728
13303SOL    HW241351   5.409   7.668  10.604 -0.5022  0.2486  0.0415
13304SOL     OW41352   4.653   6.991   9.080 -0.4127 -0.4499  0.5270
13304SOL    HW141353   4.664   6.921   9.016 -2.4386  1.2214 -1.8302
13304SOL    HW241354   4.696   6.958   9.159 -0.0196 -3.7064 -0.8866
13305SOL     OW41355   6.527   7.968   9.479  0.0377  0.0995  0.3541
13305SOL    HW141356   6.496   7.951   9.568  0.3782 -0.3482  0.3901
13305SOL    HW241357   6.610   8.014   9.490  1.5091 -2.3950  0.3315
13306SOL     OW41358   2.741   2.929   7.721  1.0808  0.4975  0.2811
13306SOL    HW141359   2.816   2.879   7.690  0.2593  0.9217 -2.6757
13306SOL    HW241360   2.676   2.862   7.745  1.7468  0.1543  1.1814
13307SOL     OW41361   3.293   1.160   9.383  0.2208  0.4282  0.5432
13307SOL    HW141362   3.313   1.159   9.477 -2.4232 -1.0124  1.1873
13307SOL    HW241363   3.233   1.087   9.371  1.7438 -0.4910 -2.6316
13308SOL     OW41364   3.345   0.931  12.144  0.0827 -0.3176 -0.6006
13308SOL    HW141365   3.403   0.927  12.219 -0.2209 -1.1975 -0.3999
13308SOL    HW241366   3.370   0.856  12.090 -0.5289 -0.4168 -0.7547
13309SOL     OW41367   2.998   6.747  11.811  0.2714 -0.1007 -0.0995
13309SOL    HW141368   3.034   6.690  11.743  2.1563  1.3746 -0.4357
13309SOL    HW241369   3.000   6.694  11.890 -1.3992 -1.6552 -1.0126
13310SOL     OW41370   2.648   0.185   0.589  0.0729 -0.3048  0.3465
13310SOL    HW141371   2.720   0.154   0.645 -0.2695 -0.1052  0.9084
13310SOL    HW241372   2.570   0.146   0.628 -0.2745  0.6064  0.5671
13311SOL     OW41373   5.280   1.028   0.867  0.7517  0.4342  0.3603
13311SOL    HW141374   5.187   1.049   0.867  0.8272  1.1059 -2.3752
13311SOL    HW241375   5.324   1.110   0.848  1.6856 -0.3535 -1.1015
13312SOL     OW41376   5.840   0.295  11.214  0.1735 -0.5368  0.1467
13312SOL    HW141377   5.883   0.256  11.138  0.4178 -0.0705  0.0402
13312SOL    HW241378   5.894   0.270  11.289 -0.7135 -1.9980  0.3365
13313SOL     OW41379   4.392   0.915  12.112  0.0877 -0.1356 -0.4762
13313SOL    HW141380   4.448   0.981  12.153 -0.7655  0.6103 -0.4859
13313SOL    HW241381   4.453   0.847  12.083  0.8969  0.2467  0.2764
13314SOL     OW41382   4.221   1.101  11.114 -0.4810  0.3760 -0.1864
13314SOL    HW141383   4.193   1.188  11.083 -0.7300  0.3109 -0.1505
13314SOL    HW241384   4.236   1.113  11.208 -1.1088  0.2419 -0.0600
13315SOL     OW41385   4.999   0.899   1.131  0.1311  0.2957  0.1132
13315SOL    HW141386   5.050   0.927   1.207 -1.8096 -0.3114  1.7394
13315SOL    HW241387   5.018   0.806   1.122  1.6621  0.6867 -1.2927
13316SOL     OW41388   4.522   2.926   1.354  0.2748  0.0009  0.2760
13316SOL    HW141389   4.537   2.926   1.449 -0.2821  0.6211  0.3688
13316SOL    HW241390   4.464   3.001   1.339 -1.1549 -1.1961 -0.3213
13317SOL     OW41391   5.866   1.766   0.847  0.4193 -0.3443  0.1361
13317SOL    HW141392   5.894   1.720   0.768 -0.2003 -1.1828  0.3848
13317SOL    HW241393   5.857   1.858   0.820 -0.7724 -0.7698 -1.0608
13318SOL     OW41394   6.137   1.509  10.265  0.1742  0.2306 -0.0400
13318SOL    HW141395   6.099   1.437  10.315  0.0901  1.2655  1.4489
13318SOL    HW241396   6.065   1.571  10.254  0.3055  0.2093 -1.1173
13319SOL     OW41397   4.005   2.252  11.913 -0.1549 -0.6239 -0.8330
13319SOL    HW141398   4.045   2.256  12.000  1.0974 -0.2382 -1.3873
13319SOL    HW241399   3.976   2.162  11.903 -0.0117 -0.7506 -0.1420
13320SOL     OW41400   4.032   1.884  11.328 -0.1503 -0.1974 -0.4286
13320SOL    HW141401   4.075   1.799  11.336 -0.5899 -0.4924 -1.0556
13320SOL    HW241402   3.970   1.886  11.401  1.4371  0.5734  0.9657
13321SOL     OW41403   4.280   2.105  12.044 -0.5811  0.1685  0.3665
13321SOL    HW141404   4.227   2.133  12.118 -0.2706 -0.5164  0.8574
13321SOL    HW241405   4.245   2.019  12.021  2.4928 -1.9864  2.9663
13322SOL     OW41406   4.423   1.542  11.365 -0.2731  0.3783 -0.1909
13322SOL    HW141407   4.426   1.480  11.292 -0.8984  0.5522 -0.3666
13322SOL    HW241408   4.330   1.561  11.377 -0.0179  3.5982 -2.1285
13323SOL     OW41409   4.382   1.209   1.017  0.1579 -0.3839 -0.2447
13323SOL    HW141410   4.292   1.193   0.988 -0.4569  1.2049  0.6486
13323SOL    HW241411   4.379   1.194   1.112  1.4660 -2.7790 -0.5237
13324SOL     OW41412   5.437   1.865  10.202 -0.3644 -0.3488 -0.2635
13324SOL    HW141413   5.375   1.923  10.245 -0.6053 -1.1959  0.5630
13324SOL    HW241414   5.386   1.823  10.132 -1.0905 -1.8591  1.0909
13325SOL     OW41415   5.854   1.629  11.763  0.7977 -0.2813 -0.3525
13325SOL    HW141416   5.785   1.674  11.715 -0.0090 -0.5631  0.5091
13325SOL    HW241417   5.838   1.651  11.855  0.9956 -1.4713 -0.0047
13326SOL     OW41418   6.981   1.916  12.377  0.0698  0.2368 -0.3110
13326SOL    HW141419   6.950   1.872  12.297  0.2044 -0.0674 -0.1963
13326SOL    HW241420   7.039   1.853  12.418 -1.0852 -0.1666  0.7613
13327SOL     OW41421   5.958   1.262   0.395 -0.2666  0.3098  0.0154
13327SOL    HW141422   5.898   1.316   0.343 -0.7932  0.1129  0.4117
13327SOL    HW241423   5.939   1.172   0.368  0.2458  0.2787 -0.2641
13328SOL     OW41424   1.709   0.013   0.604 -0.5672 -0.4000  0.2884
13328SOL    HW141425   1.767   0.050   0.670 -0.7628  1.8990 -0.7103
13328SOL    HW241426   1.767  -0.037   0.546  0.1284  0.2449  0.4136
13329SOL     OW41427   5.058   2.499  12.092 -0.2432  0.8334  0.0394
13329SOL    HW141428   5.075   2.480  12.184  3.6129  1.5975 -0.3388
13329SOL    HW241429   5.066   2.594  12.085 -1.4679  0.8954 -0.9707
13330SOL     OW41430   6.857   0.806   0.659  0.0201  0.0929 -0.1983
13330SOL    HW141431   6.844   0.900   0.668 -0.2257  0.0268  0.1681
13330SOL    HW241432   6.812   0.783   0.577  0.4792  0.3673 -0.5283
13331SOL     OW41433   6.045   0.070   0.924 -0.4312  0.2362  0.3301
13331SOL    HW141434   6.065   0.138   0.860 -0.2236  0.6982  0.8769
13331SOL    HW241435   6.077   0.105   1.008 -0.7963 -0.3067  0.7068
13332SOL     OW41436   5.869   1.238  11.130  0.0699 -0.0689  0.0008
13332SOL    HW141437   5.943   1.254  11.072  0.8846 -0.4399  0.9199
13332SOL    HW241438   5.833   1.154  11.101  0.1374  0.0066 -0.3019
13333SOL     OW41439   0.499   2.615  12.197  0.3665  0.1083  0.4179
13333SOL    HW141440   0.435   2.656  12.139 -0.6961 -1.1156  0.6864
13333SOL    HW241441   0.486   2.521  12.185  2.1664 -0.1765  0.4371
13334SOL     OW41442   5.149   1.786  10.709  0.6375 -0.3330  0.4948
13334SOL    HW141443   5.220   1.733  10.746 -0.2390 -1.3993  0.7308
13334SOL    HW241444   5.069   1.743  10.741 -0.1459  1.8994  1.7442
13335SOL     OW41445   6.162   0.595   1.279  0.0201  0.4360  0.4898
13335SOL    HW141446   6.144   0.625   1.190  1.0248 -0.3567  0.0026
13335SOL    HW241447   6.099   0.524   1.294  1.7575 -1.4887 -0.7499
13336SOL     OW41448   5.095   1.615   0.330  0.2464  0.1014  0.1408
13336SOL    HW141449   5.079   1.579   0.417 -1.8911 -2.0852 -1.0239
13336SOL    HW241450   5.096   1.710   0.343 -1.5277 -0.0896  2.3726
13337SOL     OW41451   6.735   1.574  11.336 -0.0070  0.2266  0.0684
13337SOL    HW141452   6.642   1.570  11.359  0.2334  0.3652  1.1264
13337SOL    HW241453   6.776   1.506  11.389  0.7116  1.1961  0.8018
13338SOL     OW41454   3.360   0.019  12.284  0.5255  0.3670  0.5383
13338SOL    HW141455   3.331  -0.054  12.228 -1.1331 -0.4552  2.3573
13338SOL    HW241456   3.446   0.043  12.249 -0.0540 -0.6462 -1.8051
13339SOL     OW41457   6.014   0.984  12.106 -0.3261  0.8372  0.3055
13339SOL    HW141458   5.949   0.981  12.035  0.2701 -3.3274 -0.3533
13339SOL    HW241459   5.961   0.986  12.186 -1.2695 -0.3806 -0.2482
13340SOL     OW41460   7.130   1.737   0.407  0.7096  0.0999  0.9533
13340SOL    HW141461   7.187   1.757   0.332 -0.8734 -2.6428 -1.2046
13340SOL    HW241462   7.084   1.819   0.425  0.6692  0.7209 -1.5740
13341SOL     OW41463   4.838   1.111   0.400  0.6809  0.1191 -0.4188
13341SOL    HW141464   4.840   1.016   0.411  1.9548  0.3490  2.2675
13341SOL    HW241465   4.923   1.141   0.433 -0.2444  2.2757  0.2263
13342SOL     OW41466   6.441   1.136  11.377 -0.3028 -0.7680 -0.1959
13342SOL    HW141467   6.370   1.158  11.437 -1.0690 -1.7690 -0.7105
13342SOL    HW241468   6.500   1.081  11.429  1.1835  1.6663  0.8390
13343SOL     OW41469   4.044   0.930  10.390 -0.3537 -0.3938 -0.3137
13343SOL    HW141470   4.048   0.933  10.485  2.0857  0.0839 -0.3545
13343SOL    HW241471   4.032   0.838  10.369  0.2227 -0.6608  0.4781
13344SOL     OW41472   5.369   2.714   0.033  0.1683  0.0767 -0.0715
13344SOL    HW141473   5.405   2.661   0.104  1.7550  2.0104  0.6840
13344SOL    HW241474   5.338   2.650  -0.032  0.8737 -1.7326  1.2880
13345SOL     OW41475   6.468   2.584  12.416  0.1191 -0.3883 -0.1714
13345SOL    HW141476   6.550   2.535  12.418  1.1537  1.2822  0.7306
13345SOL    HW241477   6.459   2.620  12.504 -2.0868 -1.2376  0.0340
13346SOL     OW41478   6.117   1.352  11.045  0.2662 -0.0782  0.0955
13346SOL    HW141479   6.088   1.441  11.061 -0.0781  0.1047 -1.3861
13346SOL    HW241480   6.206   1.348  11.080 -1.3629 -0.7173  4.9936
13347SOL     OW41481   4.589   1.299  11.872  0.1602  0.2629 -0.4766
13347SOL    HW141482   4.669   1.275  11.920  0.3996 -0.2598 -1.1171
13347SOL    HW241483   4.540   1.217  11.866  0.0581  0.3588 -0.9753
13348SOL     OW41484   6.466   1.824   2.130  0.0186  0.5209 -0.3423
13348SOL    HW141485   6.467   1.745   2.183 -0.0953  1.2038  0.6896
13348SOL    HW241486   6.496   1.795   2.044 -1.6084 -0.9695 -0.4583
13349SOL     OW41487   6.633   1.785  11.879 -0.2161 -0.2120 -0.1375
13349SOL    HW141488   6.600   1.822  11.797  1.8015 -0.3738 -1.0932
13349SOL    HW241489   6.718   1.826  11.892 -0.7896  0.3620  2.3232
13350SOL     OW41490   0.016   1.709  12.148  0.5434 -0.3301 -0.1598
13350SOL    HW141491   0.078   1.761  12.096 -0.5127  2.6928  1.3349
13350SOL    HW241492  -0.064   1.708  12.096  0.2444  0.5397  0.2580
13351SOL     OW41493   6.495   0.703  11.199  0.5395 -0.4976 -0.3947
13351SOL    HW141494   6.405   0.729  11.218  0.9685  0.2991  0.6308
13351SOL    HW241495   6.547   0.779  11.222  1.4958 -0.9978 -0.8584
13352SOL     OW41496   4.214   7.559  12.384 -0.9161 -0.4104 -0.7590
13352SOL    HW141497   4.207   7.463  12.379  4.4109 -1.2724  1.3254
13352SOL    HW241498   4.181   7.581  12.471 -0.2840 -0.7476 -0.4214
13353SOL     OW41499   3.224   1.479  11.800  0.1836 -0.2591  0.6393
13353SOL    HW141500   3.152   1.418  11.787 -1.7492  1.7793  1.1026
13353SOL    HW241501   3.261   1.492  11.713 -1.9792  0.8743 -0.1824
13354SOL     OW41502   6.132   1.380   0.832  0.2379 -0.3930 -0.0479
13354SOL    HW141503   6.039   1.375   0.854 -0.2608 -1.1915 -2.1413
13354SOL    HW241504   6.175   1.396   0.916 -1.8398  0.9841  0.8461
13355SOL     OW41505   5.044   1.055  12.242 -0.2585  0.5882 -0.1628
13355SOL    HW141506   5.086   1.052  12.328 -0.9804 -0.3453  0.1825
13355SOL    HW241507   5.040   0.963  12.214 -0.8052  0.7949 -0.8034
13356SOL     OW41508   5.291   0.587  10.087 -0.0108  0.5155 -0.2245
13356SOL    HW141509   5.217   0.542  10.047 -0.9922  1.4891  0.4400
13356SOL    HW241510   5.354   0.517  10.107 -0.9963 -0.4058 -0.2761
13357SOL     OW41511   6.296   1.645   0.303 -0.3001  0.0751 -0.1789
13357SOL    HW141512   6.312   1.623   0.395 -0.7908 -0.0697 -0.1251
13357SOL    HW241513   6.229   1.582   0.275 -0.5480  0.4692 -0.4811
13358SOL     OW41514   3.809   1.355   1.014  0.1694 -0.6282 -0.1036
13358SOL    HW141515   3.751   1.360   1.090 -0.1688  1.0152 -0.4435
13358SOL    HW241516   3.895   1.381   1.047 -0.2147  1.2471 -0.4862
13359SOL     OW41517   5.611   1.121  11.570  0.3163 -0.0758 -0.0168
13359SOL    HW141518   5.517   1.139  11.565  0.3256 -0.2605 -0.9556
13359SOL    HW241519   5.634   1.138  11.662 -0.0899  2.5668 -0.3218
13360SOL     OW41520   5.784   2.973  10.465 -0.0412 -0.3243 -0.4139
13360SOL    HW141521   5.841   2.973  10.543  0.6467 -1.4258 -0.8949
13360SOL    HW241522   5.828   2.915  10.404 -1.6716 -1.1381 -0.8453
13361SOL     OW41523   3.441   0.934  11.740  0.0560  0.2686  0.2619
13361SOL    HW141524   3.512   0.965  11.796  0.2680  0.2020  0.0342
13361SOL    HW241525   3.477   0.855  11.698 -0.0649  0.3760 -0.0443
13362SOL     OW41526   6.579   0.161   0.352  0.4604  0.5203  0.5217
13362SOL    HW141527   6.656   0.213   0.330 -0.2941  1.7216  0.6024
13362SOL    HW241528   6.506   0.223   0.345 -0.6332 -0.8183 -0.5937
13363SOL     OW41529   5.085   1.980  11.826  0.6676 -0.0039  0.2524
13363SOL    HW141530   5.063   1.889  11.847  0.2238  0.0566  0.0558
13363SOL    HW241531   5.179   1.985  11.840  0.5745 -0.2775  1.0755
13364SOL     OW41532   2.461   0.595  12.447 -0.5080  0.3173  0.4738
13364SOL    HW141533   2.535   0.642  12.407 -0.9446  0.2802 -0.3948
13364SOL    HW241534   2.387   0.613  12.390 -1.0181 -0.2291  0.9496
13365SOL     OW41535   5.793   1.335   0.893  0.1440  0.2498  0.2347
13365SOL    HW141536   5.822   1.319   0.982  0.8327 -1.5109 -0.2705
13365SOL    HW241537   5.724   1.271   0.877  0.6774 -0.1009 -0.7940
13366SOL     OW41538   5.929   7.244  12.181  0.4185  0.0395 -0.0565
13366SOL    HW141539   6.003   7.223  12.238  1.5758  0.9617 -1.1757
13366SOL    HW241540   5.948   7.331  12.147 -1.5163  0.5824  0.1140
13367SOL     OW41541   5.786   0.579  11.198  0.1339  0.5523  0.4641
13367SOL    HW141542   5.718   0.566  11.132  1.4471  1.6871 -1.2341
13367SOL    HW241543   5.812   0.490  11.224 -0.3174  0.0678 -0.6835
13368SOL     OW41544   3.598   0.815  10.608  0.0733  0.2122 -0.2549
13368SOL    HW141545   3.631   0.810  10.518  1.8081  0.2977  0.3334
13368SOL    HW241546   3.586   0.724  10.634  0.0285  0.1721 -0.4126
13369SOL     OW41547   6.116   6.579   0.396  0.3429  0.3885 -0.2767
13369SOL    HW141548   6.168   6.658   0.385 -0.3764  1.0779  1.0465
13369SOL    HW241549   6.026   6.607   0.378  0.0214  0.0129  0.6551
13370SOL     OW41550   6.608   0.339   0.818 -0.1685  0.9288  0.3614
13370SOL    HW141551   6.658   0.421   0.824  0.2650  0.6907  0.0495
13370SOL    HW241552   6.610   0.303   0.907  0.9409  0.5002  0.1701
13371SOL     OW41553   4.921   7.786  12.423  0.3397  0.3359  0.2511
13371SOL    HW141554   4.856   7.763  12.489  1.3578 -0.1207  1.1440
13371SOL    HW241555   4.945   7.702  12.384  0.3694  0.5025 -0.0913
13372SOL     OW41556   5.766   0.464  11.911  0.5338 -0.3097  0.3277
13372SOL    HW141557   5.843   0.424  11.952  0.1715 -0.4644  0.8732
13372SOL    HW241558   5.768   0.432  11.821  2.2103  1.2625 -0.2563
13373SOL     OW41559   4.681   2.085  10.010 -0.3779 -0.2812 -0.7899
13373SOL    HW141560   4.650   2.054   9.925 -1.5355  1.1905 -0.9316
13373SOL    HW241561   4.602   2.096  10.063  0.3262 -1.2200  0.5209
13374SOL     OW41562   6.088   1.512   0.216  0.1090 -0.1506  0.2669
13374SOL    HW141563   6.026   1.447   0.249 -0.6585  0.1983 -0.4650
13374SOL    HW241564   6.043   1.554   0.143 -0.0374  2.2572  1.6361
13375SOL     OW41565   5.507   1.286   1.083  0.3117 -0.6118 -0.0556
13375SOL    HW141566   5.486   1.211   1.028  1.5336  0.1383 -1.6267
13375SOL    HW241567   5.561   1.250   1.153  0.5426 -1.2731 -0.5643
13376SOL     OW41568   7.203   7.872  11.197 -0.1706 -0.1992 -0.2039
13376SOL    HW141569   7.269   7.803  11.196  1.6273  1.4519  0.5774
13376SOL    HW241570   7.175   7.877  11.288 -0.0439  0.3451 -0.1974
13377SOL     OW41571   5.913   1.802  11.206 -0.0565  0.0169  0.3439
13377SOL    HW141572   5.885   1.719  11.244 -0.0041 -0.2671 -0.2313
13377SOL    HW241573   5.900   1.791  11.112 -2.4139  1.5455  0.4214
13378SOL     OW41574   5.205   0.712   0.780  0.3023  0.0669 -0.1546
13378SOL    HW141575   5.243   0.795   0.810  2.9178 -1.4654  1.1376
13378SOL    HW241576   5.181   0.728   0.689  0.6913  2.2440  0.0642
13379SOL     OW41577   5.726   0.703   0.721  0.6250  0.0154  0.2868
13379SOL    HW141578   5.698   0.737   0.806  2.4796  0.2997  0.8312
13379SOL    HW241579   5.728   0.779   0.664 -1.8841 -0.3783 -0.4303
13380SOL     OW41580   3.060   0.439   0.228 -0.1945  0.1937 -0.0941
13380SOL    HW141581   3.096   0.521   0.263  0.4271 -0.1895  0.1881
13380SOL    HW241582   3.136   0.396   0.187 -0.8130  0.4358 -1.5579
13381SOL     OW41583   4.746   0.531   0.372  0.0414 -0.2467  0.0572
13381SOL    HW141584   4.691   0.460   0.406 -1.9387  0.2707 -1.7760
13381SOL    HW241585   4.714   0.610   0.416  1.5270 -0.3180  1.3200
13382SOL     OW41586   3.352   0.289   1.341  0.3321  0.0227 -0.0838
13382SOL    HW141587   3.363   0.366   1.397  3.9665 -1.0039  0.8900
13382SOL    HW241588   3.424   0.294   1.278  0.1127 -2.1008 -0.5868
13383SOL     OW41589   6.667   1.118  12.432 -0.6475 -0.3639 -0.3074
13383SOL    HW141590   6.580   1.121  12.470 -0.5022 -1.4216  0.1319
13383SOL    HW241591   6.659   1.059  12.357 -0.7507  1.0893 -1.4984
13384SOL     OW41592   7.153   3.141  12.329  0.5964 -0.1011 -1.1938
13384SOL    HW141593   7.120   3.055  12.353  0.0253  1.0085  2.6910
13384SOL    HW241594   7.079   3.185  12.288 -0.4071 -0.1967  0.4425
13385SOL     OW41595   5.095   3.057  11.290 -0.0851  0.1555  0.3019
13385SOL    HW141596   5.095   2.974  11.241 -0.2691  0.5081 -0.3014
13385SOL    HW241597   5.020   3.049  11.349 -1.5102  0.7912 -1.3318
13386SOL     OW41598   3.284   0.814   0.822  0.5073 -0.3113 -0.1618
13386SOL    HW141599   3.358   0.840   0.767  0.4225  0.2312 -0.0261
13386SOL    HW241600   3.284   0.878   0.894 -1.4870  1.1642 -1.3650
13387SOL     OW41601   5.253   1.506  12.012  0.3585  0.2229 -0.3642
13387SOL    HW141602   5.224   1.443  12.078  0.0047 -3.1313 -3.4319
13387SOL    HW241603   5.348   1.508  12.021  0.2558  0.6870  0.8891
13388SOL     OW41604   6.092   1.126   0.700  0.1917 -0.4230 -0.1060
13388SOL    HW141605   6.103   1.183   0.624  1.1062 -0.3629  0.0666
13388SOL    HW241606   6.107   1.182   0.775 -0.2787 -0.5844  0.1141
13389SOL     OW41607   4.917   2.182  12.144 -0.3019  0.1792 -0.2413
13389SOL    HW141608   5.010   2.168  12.129 -0.0098 -0.1468  1.6410
13389SOL    HW241609   4.875   2.104  12.108  0.4538 -1.0939  1.4801
13390SOL     OW41610   4.041   1.564   0.185 -0.1790  0.3443  0.2214
13390SOL    HW141611   4.065   1.657   0.187  0.9528  0.1620 -1.9943
13390SOL    HW241612   3.947   1.563   0.204  0.3305  1.6036  3.3953
13391SOL     OW41613   5.402   1.942   0.749  0.0019  0.5947 -1.0144
13391SOL    HW141614   5.432   1.854   0.771 -3.2045 -0.9552 -2.1466
13391SOL    HW241615   5.428   1.954   0.658  2.5926  1.9564 -0.1883
13392SOL     OW41616   5.199   2.725   0.833 -0.4185  0.2777  0.2528
13392SOL    HW141617   5.158   2.669   0.768 -0.6645  1.9740 -1.1315
13392SOL    HW241618   5.288   2.738   0.802 -0.8814  2.0591 -0.4585
13393SOL     OW41619   5.713   7.605  10.919 -0.2535  0.2530  0.5890
13393SOL    HW141620   5.723   7.697  10.940  0.1757 -0.3228  3.3358
13393SOL    HW241621   5.627   7.598  10.879 -0.1177  1.8873 -0.0247
13394SOL     OW41622   6.489   0.199  11.094  0.4857  0.2851 -1.0258
13394SOL    HW141623   6.505   0.107  11.074 -1.9027 -0.2677 -0.7045
13394SOL    HW241624   6.403   0.200  11.136  0.9846  2.5408  0.1207
13395SOL     OW41625   5.801   7.883   0.884 -0.5133  0.6618 -0.1803
13395SOL    HW141626   5.839   7.833   0.957 -0.2185 -0.9864 -1.4207
13395SOL    HW241627   5.841   7.970   0.892  1.3366 -0.1729  0.2555
13396SOL     OW41628   4.953   0.915   0.092  0.1209  0.2203 -0.0684
13396SOL    HW141629   4.928   0.877   0.176 -0.2270 -0.4145 -0.4522
13396SOL    HW241630   5.005   0.992   0.115  0.6287 -0.3368  0.7302
13397SOL     OW41631   3.646   1.009  11.894 -0.2164  1.4778  0.0238
13397SOL    HW141632   3.626   1.040  11.982 -0.3257 -0.3571  0.6828
13397SOL    HW241633   3.734   0.971  11.900 -0.1360  1.5256 -0.7068
13398SOL     OW41634   3.486   1.323  12.168 -0.4973 -0.0875 -0.0720
13398SOL    HW141635   3.550   1.385  12.202  0.1386 -1.1635  0.7741
13398SOL    HW241636   3.401   1.358  12.194 -0.2047  0.8573 -0.3596
13399SOL     OW41637   4.873   0.115   0.183  0.4652  0.4597 -0.3014
13399SOL    HW141638   4.866   0.038   0.239  0.4769 -0.9008 -2.0717
13399SOL    HW241639   4.914   0.181   0.239 -2.2044  0.2183  2.1943
13400SOL     OW41640   2.339   1.336   9.673 -0.8284 -0.3704  0.1101
13400SOL    HW141641   2.413   1.307   9.619 -0.9971  0.0686 -0.3620
13400SOL    HW241642   2.311   1.418   9.634 -2.8713 -1.5003 -0.9701
13401SOL     OW41643   3.987   0.984  12.153  0.3382 -0.5564 -0.6941
13401SOL    HW141644   3.926   0.965  12.224  1.8941 -0.7634  0.6483
13401SOL    HW241645   3.989   1.080  12.150  2.0221 -0.4590  1.2211
13402SOL     OW41646   5.594   1.104   1.431  0.3285  0.0489 -0.1000
13402SOL    HW141647   5.635   1.038   1.487  0.3398 -0.7133 -0.9900
13402SOL    HW241648   5.645   1.184   1.445  1.3805 -0.5788 -0.3070
13403SOL     OW41649   6.292   0.739   1.460  0.4834  0.0736 -0.4474
13403SOL    HW141650   6.309   0.670   1.525  0.0580 -0.2407 -0.6649
13403SOL    HW241651   6.235   0.697   1.395  0.2939  0.6052 -0.6276
13404SOL     OW41652   3.910   1.998   0.546 -0.5784 -0.4825 -0.7170
13404SOL    HW141653   3.895   1.959   0.460 -0.3925 -0.1960 -0.8788
13404SOL    HW241654   3.979   2.062   0.532  0.3393 -1.3140 -0.1059
13405SOL     OW41655   3.878   7.985   0.069 -0.2675 -0.4134  0.6671
13405SOL    HW141656   3.807   7.961   0.128 -1.2419  0.6199 -0.0298
13405SOL    HW241657   3.834   8.013  -0.011  0.9918 -1.1261 -0.3180
13406SOL     OW41658   4.832   1.813   0.617  0.8736 -0.1370  0.1214
13406SOL    HW141659   4.756   1.871   0.611 -0.8408 -2.2981 -0.2730
13406SOL    HW241660   4.873   1.820   0.530  0.5886  0.3381  0.0189
13407SOL     OW41661   5.152   0.455  12.469 -0.4287 -0.2898  0.1739
13407SOL    HW141662   5.164   0.379  12.526  0.5305 -0.7232 -0.5817
13407SOL    HW241663   5.063   0.447  12.436 -1.0322  0.0024  1.6382
13408SOL     OW41664   5.843   0.967  11.891 -0.2292  0.4806  0.1111
13408SOL    HW141665   5.833   0.912  11.813  2.1058  2.8427 -2.0667
13408SOL    HW241666   5.868   1.053  11.856  0.8802  1.6872  3.4881
13409SOL     OW41667   3.266   0.183   1.632  0.4817 -0.1145 -0.1759
13409SOL    HW141668   3.221   0.099   1.636 -0.9940  0.5760 -1.4158
13409SOL    HW241669   3.283   0.196   1.539  3.2234 -0.2796  0.2081
13410SOL     OW41670   5.519   1.499  12.005  0.0354 -0.4566 -0.3853
13410SOL    HW141671   5.563   1.425  11.963 -1.4557 -2.0928  0.7927
13410SOL    HW241672   5.577   1.573  11.988  1.3059 -1.7448 -2.1166
13411SOL     OW41673   4.444   1.617  10.725  0.8497  0.5911 -0.8850
13411SOL    HW141674   4.492   1.658  10.653  0.7261  0.5385 -0.9967
13411SOL    HW241675   4.483   1.530  10.734  0.5478  0.4254 -1.1942
13412SOL     OW41676   6.722   1.437   0.997 -0.0703 -0.4506  0.7040
13412SOL    HW141677   6.754   1.392   0.919  0.4430 -0.1959  0.7672
13412SOL    HW241678   6.746   1.379   1.069  1.3508  0.3183  0.8646
13413SOL     OW41679   4.128   1.739  11.842  0.1645  0.7564 -0.1773
13413SOL    HW141680   4.057   1.719  11.781 -0.5982  0.7485  0.6907
13413SOL    HW241681   4.168   1.819  11.807  0.9626 -0.2789 -1.7117
13414SOL     OW41682   2.987   1.666   0.020 -0.0265 -0.3238 -0.4937
13414SOL    HW141683   2.969   1.599  -0.046  0.8799 -0.0164 -1.0692
13414SOL    HW241684   3.082   1.679   0.017 -0.1444  0.7502 -0.1622
13415SOL     OW41685   6.488   7.566  11.967  0.0297 -0.4055  0.6090
13415SOL    HW141686   6.461   7.534  12.053  0.5117 -0.5822  0.6948
13415SOL    HW241687   6.565   7.621  11.985  0.1791 -0.5056  0.2801
13416SOL     OW41688   4.761   2.541  11.009  0.2523 -0.3779  0.0900
13416SOL    HW141689   4.774   2.446  11.003 -0.5744 -0.4878 -0.0784
13416SOL    HW241690   4.693   2.560  10.945  0.4269  0.3401  0.1084
13417SOL     OW41691   3.904   2.465  10.554 -0.2078  0.1158 -0.1569
13417SOL    HW141692   3.836   2.531  10.566  0.7383  0.9418  0.7466
13417SOL    HW241693   3.874   2.391  10.607 -0.2502  0.5965  0.5026
13418SOL     OW41694   4.474   0.384  11.070 -0.0769  0.2885  0.6166
13418SOL    HW141695   4.486   0.459  11.128  0.7248  1.2268 -0.7073
13418SOL    HW241696   4.518   0.311  11.114  0.7337  1.0395  1.0611
13419SOL     OW41697   6.877   1.429   0.469 -0.4230  0.0004 -0.4656
13419SOL    HW141698   6.883   1.408   0.376 -1.0290  1.3641 -0.8474
13419SOL    HW241699   6.956   1.481   0.486 -0.6316  0.3003 -0.3939
13420SOL     OW41700   5.782   0.247   0.831 -0.1414  0.3418 -0.1362
13420SOL    HW141701   5.819   0.228   0.744 -1.3810 -1.1572 -0.3759
13420SOL    HW241702   5.724   0.321   0.816 -1.0187 -0.4515 -0.7995
13421SOL     OW41703   3.953   7.576  10.921  0.6537 -0.5027 -0.2252
13421SOL    HW141704   3.894   7.533  10.983  0.5306 -0.8638 -0.5923
13421SOL    HW241705   3.979   7.507  10.860  0.7058 -0.1316 -0.6281
13422SOL     OW41706   4.813   2.068  11.457  0.1330  0.6064  0.4918
13422SOL    HW141707   4.802   2.058  11.362 -2.2456 -0.5721  0.8016
13422SOL    HW241708   4.851   1.985  11.485  3.3772  1.9203  0.3472
13423SOL     OW41709   5.337   2.011   1.038 -0.0544  0.2960  0.3679
13423SOL    HW141710   5.289   1.936   1.074  1.6350 -0.5092  1.0265
13423SOL    HW241711   5.338   1.995   0.944  1.7073 -1.4354  0.6299
13424SOL     OW41712   5.334   0.276  11.429 -0.4886 -0.3334 -0.3280
13424SOL    HW141713   5.345   0.265  11.523  0.8724 -0.4818 -0.4809
13424SOL    HW241714   5.419   0.250  11.392 -0.8925  0.0419 -1.5655
13425SOL     OW41715   5.973   0.624   0.811 -0.3713 -0.1893  0.2828
13425SOL    HW141716   6.012   0.707   0.783 -0.9417  0.2098  0.6455
13425SOL    HW241717   5.880   0.634   0.793 -0.1859 -1.7126 -2.0425
13426SOL     OW41718   5.227   2.321  11.354  0.6484 -0.3452  0.1696
13426SOL    HW141719   5.252   2.229  11.340  1.3510 -0.1930  0.4046
13426SOL    HW241720   5.205   2.325  11.448 -2.4191 -0.9753 -0.4054
13427SOL     OW41721   6.482   7.174  10.527 -0.5271 -0.2603  0.0561
13427SOL    HW141722   6.542   7.099  10.517  1.1422  1.0258  0.0554
13427SOL    HW241723   6.395   7.137  10.510  0.2397 -2.2045  0.0855
13428SOL     OW41724   3.815   1.242  10.444  0.6283  0.0337  0.4246
13428SOL    HW141725   3.817   1.188  10.522  1.4299  0.1098  0.4639
13428SOL    HW241726   3.886   1.305  10.456 -0.4198  1.2574  0.4886
13429SOL     OW41727   7.809   1.724  11.979 -0.4841  0.2193 -0.0607
13429SOL    HW141728   7.782   1.797  11.923  0.8652 -0.7550 -2.0792
13429SOL    HW241729   7.743   1.657  11.965 -0.6134  0.2886  0.2057
13430SOL     OW41730   3.067   2.602  12.211  0.0909 -0.2900  0.2780
13430SOL    HW141731   3.150   2.570  12.246  0.5317  1.5863  1.0712
13430SOL    HW241732   3.067   2.696  12.231 -2.3821 -0.3000  0.6238
13431SOL     OW41733   2.249   2.685  11.359  0.1797  0.5631 -0.8934
13431SOL    HW141734   2.216   2.602  11.324  0.2209 -0.1913  0.7901
13431SOL    HW241735   2.335   2.695  11.318  1.3720 -1.6216  0.8702
13432SOL     OW41736   2.482   7.560   0.923  0.2256 -0.2869 -0.0970
13432SOL    HW141737   2.447   7.506   0.993 -1.0190 -0.6549 -0.9573
13432SOL    HW241738   2.405   7.603   0.885  0.7768 -0.5032 -1.5522
13433SOL     OW41739   6.131   0.860   0.746 -0.0079  0.4412 -0.0770
13433SOL    HW141740   6.111   0.944   0.705  0.7240  0.0248 -1.3315
13433SOL    HW241741   6.222   0.868   0.775  0.0591  0.0916 -0.1864
13434SOL     OW41742   7.466   2.188   0.914 -0.3259 -0.0565  0.0299
13434SOL    HW141743   7.490   2.135   0.991 -1.0024  0.3934  0.5599
13434SOL    HW241744   7.510   2.272   0.928  2.9642 -1.2250 -2.0957
13435SOL     OW41745   7.972   0.923   0.782  0.4319  0.2050  0.2422
13435SOL    HW141746   8.048   0.870   0.761  0.4059  0.0577  0.5173
13435SOL    HW241747   7.998   1.012   0.759 -0.1584 -0.1396 -1.9308
13436SOL     OW41748   3.685   0.520  12.229 -0.3475  0.5069 -0.2425
13436SOL    HW141749   3.703   0.596  12.174 -2.4533  0.7884 -0.6170
13436SOL    HW241750   3.672   0.448  12.166 -1.4337  0.5364 -0.0666
13437SOL     OW41751   4.523   2.614  11.301 -0.0222  0.2420  0.2545
13437SOL    HW141752   4.484   2.681  11.358  1.1648  0.3585  0.9427
13437SOL    HW241753   4.491   2.531  11.336 -2.5903  0.3969 -1.3893
13438SOL     OW41754   6.245   0.817  11.225  0.4204 -0.2105 -0.2126
13438SOL    HW141755   6.214   0.898  11.185 -0.9394 -0.7401 -0.2761
13438SOL    HW241756   6.261   0.840  11.317 -0.9851 -0.0977  0.0274
13439SOL     OW41757   4.172   2.166  10.918  0.0775  0.1055 -0.0611
13439SOL    HW141758   4.241   2.220  10.957 -0.1065  0.1308  0.2369
13439SOL    HW241759   4.218   2.090  10.882  0.4154  0.7604 -1.0492
13440SOL     OW41760   3.572   1.370  11.907  0.4399  0.2930  0.0045
13440SOL    HW141761   3.587   1.315  11.830  1.2723  0.8178 -0.2207
13440SOL    HW241762   3.508   1.321  11.960  0.6515 -0.5582 -0.5157
13441SOL     OW41763   5.660   3.114  12.379  0.1039  0.2211 -0.3382
13441SOL    HW141764   5.707   3.032  12.397 -1.5495 -0.6650  0.1140
13441SOL    HW241765   5.628   3.143  12.464  0.3584  1.1612 -0.5517
13442SOL     OW41766   5.116   2.802  11.142 -0.2083  0.3134 -0.2952
13442SOL    HW141767   5.188   2.748  11.174 -1.5083 -1.3905 -0.0728
13442SOL    HW241768   5.131   2.810  11.048  0.0338 -0.4150 -0.3223
13443SOL     OW41769   7.082   2.578   0.185 -0.2265 -0.2382 -0.2562
13443SOL    HW141770   7.009   2.617   0.136 -1.3104 -1.6093  0.2284
13443SOL    HW241771   7.045   2.501   0.227  1.1865 -0.2233  1.1080
13444SOL     OW41772   3.149   0.889  10.728 -0.0804  0.3752  0.7967
13444SOL    HW141773   3.092   0.850  10.662 -1.0236  1.3454  1.0205
13444SOL    HW241774   3.229   0.911  10.680 -0.4951  0.4420  0.1205
13445SOL     OW41775   6.180   0.866   0.167 -0.1335 -0.7451  0.6805
13445SOL    HW141776   6.091   0.831   0.174 -0.3713  0.0283  1.7065
13445SOL    HW241777   6.236   0.791   0.189 -0.4067 -1.8115 -1.9768
13446SOL     OW41778   4.194   0.896  11.609  0.1383  0.3735 -0.0353
13446SOL    HW141779   4.172   0.873  11.699 -0.5929 -0.6824 -0.4745
13446SOL    HW241780   4.177   0.990  11.604 -2.9160 -0.1008  0.0707
13447SOL     OW41781   6.684   0.752   0.152 -0.3105 -0.0507  0.1348
13447SOL    HW141782   6.709   0.726   0.063 -0.7215  0.5046 -0.1462
13447SOL    HW241783   6.716   0.842   0.160 -1.5979  0.4280  0.0176
13448SOL     OW41784   4.437   1.199  12.474 -0.1035  0.3157 -0.0246
13448SOL    HW141785   4.397   1.280  12.505  0.0046  0.7111 -0.9036
13448SOL    HW241786   4.516   1.227  12.428  0.0522 -0.3060 -0.1416
13449SOL     OW41787   4.191   1.211  12.214  0.6834  0.0258 -0.2517
13449SOL    HW141788   4.268   1.239  12.165  0.2752 -0.3859 -1.1472
13449SOL    HW241789   4.216   1.127  12.253  0.2126 -0.8843 -1.8063
13450SOL     OW41790   3.387   0.483  12.291 -0.0133 -0.4587 -0.6788
13450SOL    HW141791   3.339   0.402  12.278 -1.0012 -0.0549  0.3889
13450SOL    HW241792   3.445   0.489  12.214 -0.6028 -1.6822 -1.2335
13451SOL     OW41793   4.881   1.262  10.722  0.2631  0.2904 -0.0266
13451SOL    HW141794   4.793   1.272  10.759  0.9067  0.9838  1.4064
13451SOL    HW241795   4.866   1.244  10.629 -1.3979 -0.1403  0.2930
13452SOL     OW41796   6.102   1.535  11.671  0.4848 -0.2803  0.0770
13452SOL    HW141797   6.085   1.550  11.578 -0.2755 -1.1756  0.0624
13452SOL    HW241798   6.018   1.550  11.714  0.2463 -2.1403  0.3293
13453SOL     OW41799   3.292   7.250  11.553  0.2448 -0.3895 -0.1992
13453SOL    HW141800   3.291   7.339  11.587 -1.5676  0.2340 -1.6819
13453SOL    HW241801   3.291   7.194  11.631 -1.4000  0.9228  0.7817
13454SOL     OW41802   5.561   0.624  11.896 -0.3058  0.7019  0.2721
13454SOL    HW141803   5.477   0.578  11.893 -0.8004  1.6047 -1.8395
13454SOL    HW241804   5.626   0.554  11.905 -1.1553 -0.2780 -0.8345
13455SOL     OW41805   3.100   1.464  11.355 -0.3402 -0.4785 -0.1280
13455SOL    HW141806   3.088   1.372  11.331 -0.1653 -0.5548  0.0668
13455SOL    HW241807   3.054   1.513  11.288 -0.6787 -0.7209 -0.0757
13456SOL     OW41808   7.367   1.888  11.121  0.2734 -0.1679 -0.2642
13456SOL    HW141809   7.441   1.829  11.130  0.0326 -0.4085  0.1698
13456SOL    HW241810   7.295   1.843  11.165  0.7077  1.5661  2.4556
13457SOL     OW41811   4.787   2.702   0.221  0.4848 -0.1233  0.5214
13457SOL    HW141812   4.879   2.692   0.198  0.1943  0.3823 -0.9216
13457SOL    HW241813   4.766   2.792   0.198 -0.4350 -0.2979  0.6439
13458SOL     OW41814   4.490   2.988   1.651  0.0520  0.0034  0.0297
13458SOL    HW141815   4.528   3.072   1.624  0.6126 -0.4481 -0.6211
13458SOL    HW241816   4.406   3.011   1.690  0.8072  0.9926  1.1270
13459SOL     OW41817   2.836   1.297   0.915  0.0595 -0.4508 -0.3528
13459SOL    HW141818   2.817   1.372   0.859  0.0348 -0.0541  0.1764
13459SOL    HW241819   2.774   1.229   0.887  1.0322 -0.7842 -1.8040
13460SOL     OW41820   4.246   3.077   1.794  0.2699  0.1586 -0.1869
13460SOL    HW141821   4.271   3.069   1.886  0.9756 -1.2846 -0.4779
13460SOL    HW241822   4.298   3.150   1.761  1.1689 -0.2833  0.2091
13461SOL     OW41823   6.085   3.565   2.097 -0.0949 -0.4719 -0.5097
13461SOL    HW141824   5.991   3.573   2.110 -0.0751 -1.3285  0.2931
13461SOL    HW241825   6.119   3.653   2.115 -0.5237 -0.6708  1.5237
13462SOL     OW41826   3.673   3.032  12.477  0.0141 -0.5004  0.0735
13462SOL    HW141827   3.656   3.080  12.558 -0.9689 -1.0451  0.2136
13462SOL    HW241828   3.743   2.971  12.499  0.7115  0.2867  0.1133
13463SOL     OW41829   5.512   1.626   0.636 -0.4329 -0.6094 -0.1286
13463SOL    HW141830   5.435   1.578   0.606  0.0359  0.4870 -3.4043
13463SOL    HW241831   5.491   1.718   0.619  0.5041 -0.0195  1.6804
13464SOL     OW41832   3.077   3.097   3.591  0.3726 -0.6620  0.2070
13464SOL    HW141833   3.078   3.131   3.681  0.1296  0.2183 -0.1087
13464SOL    HW241834   2.989   3.063   3.578  0.4493 -0.9106  0.3516
13465SOL     OW41835   4.303   2.744   1.061 -0.1775  0.0485  0.1066
13465SOL    HW141836   4.356   2.796   1.002 -0.0410 -0.1442  0.0575
13465SOL    HW241837   4.234   2.708   1.006 -0.3966  0.3508  0.1830
13466SOL     OW41838   3.453   1.400   1.685  0.4347 -0.0410  0.5349
13466SOL    HW141839   3.470   1.382   1.592 -0.4678 -1.4761  0.6125
13466SOL    HW241840   3.520   1.463   1.710  0.3276  0.8250 -1.2404
13467SOL     OW41841   4.030   2.467   2.711  0.0551 -0.4411 -0.8492
13467SOL    HW141842   4.109   2.436   2.667 -0.0899  1.9329 -3.0118
13467SOL    HW241843   4.055   2.477   2.802  1.7373 -1.3336 -1.1811
13468SOL     OW41844   4.466   3.113   2.386 -0.5845 -0.0566  0.3412
13468SOL    HW141845   4.405   3.151   2.323 -0.3707 -1.0366 -0.4895
13468SOL    HW241846   4.413   3.095   2.464 -1.3030 -0.5922 -0.2489
13469SOL     OW41847   5.096   2.621   1.916  0.1321 -0.6051 -0.2336
13469SOL    HW141848   5.154   2.553   1.948  0.3363 -0.6090 -0.6000
13469SOL    HW241849   5.066   2.589   1.831  1.3004  0.3549 -1.0421
13470SOL     OW41850   5.178   2.375   1.091  0.1215  0.0282 -0.1720
13470SOL    HW141851   5.260   2.329   1.109  0.1116  0.1936  0.3032
13470SOL    HW241852   5.170   2.373   0.996 -0.3003 -1.7014 -0.1369
13471SOL     OW41853   5.294   3.387   0.144  0.4770  0.1799  0.2762
13471SOL    HW141854   5.354   3.339   0.202 -2.0122 -2.6947  0.7310
13471SOL    HW241855   5.216   3.402   0.198 -0.1999  1.5680 -1.0226
13472SOL     OW41856   4.483   4.379   1.214 -0.4422 -0.3348  0.0742
13472SOL    HW141857   4.564   4.328   1.211 -0.9512 -1.1744  0.3303
13472SOL    HW241858   4.433   4.349   1.138  0.4548  1.8887 -1.5036
13473SOL     OW41859   4.436   2.651   1.975 -0.0846  0.7234 -0.2268
13473SOL    HW141860   4.360   2.708   1.962  0.2125  0.9965 -0.8107
13473SOL    HW241861   4.471   2.678   2.060  0.5053  1.9793 -0.8287
13474SOL     OW41862   2.579   2.933   1.266  0.1872 -0.1940 -0.8069
13474SOL    HW141863   2.602   2.935   1.173  0.3055  0.3674 -0.7688
13474SOL    HW241864   2.502   2.989   1.273 -0.1818 -0.7157 -0.6595
13475SOL     OW41865   4.427   2.929   0.431 -0.4586  0.1212 -0.9677
13475SOL    HW141866   4.512   2.954   0.468 -1.5118  0.4647  1.4332
13475SOL    HW241867   4.448   2.860   0.368  1.6413  0.4945 -0.7502
13476SOL     OW41868   3.637   3.754   1.300  0.1720 -0.5732  0.1918
13476SOL    HW141869   3.680   3.705   1.230 -0.0973 -0.3557 -0.1265
13476SOL    HW241870   3.623   3.689   1.369 -0.4168 -1.0081 -0.3305
13477SOL     OW41871   5.195   3.094   1.168  0.6193 -0.0684  0.1433
13477SOL    HW141872   5.213   3.087   1.262 -1.5337 -1.6784  0.5303
13477SOL    HW241873   5.246   3.023   1.129  0.2273 -0.4741  0.3529
13478SOL     OW41874   4.636   1.150   0.175 -0.3345 -0.3637  0.6825
13478SOL    HW141875   4.593   1.162   0.090 -0.2182  0.7537  0.7682
13478SOL    HW241876   4.664   1.237   0.200  1.3719 -0.9542  0.9646
13479SOL     OW41877   2.745   0.989   0.576 -0.2846 -0.2830 -0.1742
13479SOL    HW141878   2.800   1.055   0.533 -1.6137  0.2453 -1.1302
13479SOL    HW241879   2.807   0.935   0.626  1.4305 -1.2398 -3.0806
13480SOL     OW41880   6.116   2.600   0.401 -0.1369  0.3631 -0.4194
13480SOL    HW141881   6.121   2.673   0.339  1.2566 -0.4026 -1.2540
13480SOL    HW241882   6.037   2.618   0.452 -0.5868  1.7282 -1.5189
13481SOL     OW41883   6.595   1.555  12.424 -0.1770  0.4528 -0.0441
13481SOL    HW141884   6.535   1.488  12.457  1.1850 -0.5630  0.4817
13481SOL    HW241885   6.638   1.589  12.502  1.0121  0.0723 -0.5106
13482SOL     OW41886   4.893   1.579  12.108  0.0678  0.1743  0.6326
13482SOL    HW141887   4.805   1.586  12.070  0.5168 -1.6608 -0.9017
13482SOL    HW241888   4.906   1.485  12.120  2.1552  0.3383 -0.0218
13483SOL     OW41889   6.774   3.033  12.030 -0.5769 -0.7106  0.1337
13483SOL    HW141890   6.709   3.091  12.069  0.5765  0.4525  0.3961
13483SOL    HW241891   6.750   3.028  11.938 -0.2796  0.7968 -0.0458
13484SOL     OW41892   4.259   1.793   1.613  0.1570  0.6698  0.2273
13484SOL    HW141893   4.312   1.822   1.538 -0.9735  0.2802 -0.7453
13484SOL    HW241894   4.173   1.833   1.598 -0.2798  0.0227  0.9633
13485SOL     OW41895   3.173   2.201  11.822 -0.3861  0.0436  0.4198
13485SOL    HW141896   3.118   2.278  11.838 -0.0042  0.4903 -0.3391
13485SOL    HW241897   3.244   2.209  11.886 -1.3763 -0.7432  1.6657
13486SOL     OW41898   3.203   2.275   1.686  0.5956 -0.7352 -0.4621
13486SOL    HW141899   3.183   2.266   1.780  1.3379 -1.9033 -0.3904
13486SOL    HW241900   3.157   2.354   1.659  1.3687  0.3102  1.1575
13487SOL     OW41901   5.372   0.566   0.557  0.2058 -0.1470 -0.5668
13487SOL    HW141902   5.386   0.550   0.464 -0.6981 -1.0366 -0.5609
13487SOL    HW241903   5.387   0.482   0.599 -1.9111 -0.4300 -0.2288
13488SOL     OW41904   5.732   2.075   1.188  1.0606  0.5328  0.0869
13488SOL    HW141905   5.807   2.043   1.238  1.2351  0.5532 -0.1637
13488SOL    HW241906   5.696   1.997   1.146  0.5808  0.4214  0.6785
13489SOL     OW41907   5.354   0.871   1.079 -0.1196 -0.6641  0.0006
13489SOL    HW141908   5.293   0.892   1.150  1.7669  2.1938  0.9658
13489SOL    HW241909   5.319   0.917   1.003  0.0718 -0.1777  0.2015
13490SOL     OW41910   4.571   5.293   0.362  0.1339 -0.2681 -0.0327
13490SOL    HW141911   4.559   5.251   0.277  0.7032 -0.6497  0.0645
13490SOL    HW241912   4.614   5.226   0.415 -0.8302 -0.2651  0.7672
13491SOL     OW41913   3.858   2.704   1.513  0.0091  0.2415 -0.7124
13491SOL    HW141914   3.941   2.672   1.548  0.4560  1.5666 -0.5368
13491SOL    HW241915   3.833   2.777   1.570 -1.2105 -0.0439 -0.8500
13492SOL     OW41916   5.744   3.791   1.396 -0.3513  0.1357  0.4314
13492SOL    HW141917   5.790   3.780   1.479 -1.2445 -1.3274  0.7556
13492SOL    HW241918   5.801   3.749   1.331  0.1583  0.9357  0.3466
13493SOL     OW41919   4.065   1.735   1.862  0.0801 -0.4098  0.1458
13493SOL    HW141920   4.014   1.743   1.782 -0.7743 -1.0636  0.5992
13493SOL    HW241921   4.038   1.809   1.916 -0.2721 -0.6455  0.3049
13494SOL     OW41922   2.078   3.000   1.946  0.2843  0.1012  0.0018
13494SOL    HW141923   2.066   3.019   2.039  4.0735 -3.0492  1.3951
13494SOL    HW241924   2.045   2.911   1.935 -0.7231  0.6461 -1.9255
13495SOL     OW41925   3.869   2.020  12.210 -0.2878 -0.0179  0.7452
13495SOL    HW141926   3.825   2.105  12.218 -0.8893 -0.4878  2.9384
13495SOL    HW241927   3.952   2.031  12.256 -0.3695 -0.6146  1.0403
13496SOL     OW41928   7.230   4.928   0.106 -0.0719  0.9286 -0.5953
13496SOL    HW141929   7.223   4.837   0.077  2.1740  0.0002  1.4272
13496SOL    HW241930   7.180   4.931   0.187 -1.8446  2.1071 -1.6615
13497SOL     OW41931   6.433   1.006   2.187 -0.0969  0.2458  0.3512
13497SOL    HW141932   6.502   1.013   2.253  0.1852  0.2442  0.0586
13497SOL    HW241933   6.352   1.025   2.234  0.1257  0.4419  0.6548
13498SOL     OW41934   5.807   1.741   1.680 -0.1417  0.1111  0.2851
13498SOL    HW141935   5.735   1.727   1.619 -1.1084  0.4024  1.3304
13498SOL    HW241936   5.879   1.689   1.645 -0.6340  0.3612 -1.1561
13499SOL     OW41937   4.479   2.331   1.750  0.0583  0.1696  0.4237
13499SOL    HW141938   4.539   2.328   1.675 -0.4485 -0.3183  0.0212
13499SOL    HW241939   4.446   2.241   1.756 -1.7418  0.7346 -0.2943
13500SOL     OW41940   3.244   2.840   1.678  0.4344  0.0890 -0.0234
13500SOL    HW141941   3.306   2.770   1.658  1.2007  0.8778 -0.4474
13500SOL    HW241942   3.238   2.891   1.598 -0.8640 -0.0316 -0.0267
13501SOL     OW41943   5.990   1.640   9.851  0.2613  0.1654  0.2241
13501SOL    HW141944   6.029   1.728   9.858  1.1991 -0.3409  2.0061
13501SOL    HW241945   5.996   1.619   9.758  2.5334  0.9267  0.1176
13502SOL     OW41946   3.400   3.605   1.759 -0.1570  0.1311 -0.0096
13502SOL    HW141947   3.468   3.597   1.826  0.5027  0.2890 -0.6486
13502SOL    HW241948   3.334   3.540   1.784 -1.6230  2.4083  2.7393
13503SOL     OW41949   2.110   5.012   2.044 -0.1040 -0.4512 -0.3996
13503SOL    HW141950   2.137   5.096   2.007 -0.0640 -0.9035 -1.4396
13503SOL    HW241951   2.192   4.962   2.051 -0.0355 -0.1926  0.8114
13504SOL     OW41952   6.965   3.277  12.167 -0.1753  0.4288  0.1733
13504SOL    HW141953   6.928   3.210  12.109 -0.5771 -0.0564  0.9778
13504SOL    HW241954   6.948   3.360  12.122 -1.9964  0.1982  0.3666
13505SOL     OW41955   5.460   2.671   3.180 -0.4214  0.1132  0.2158
13505SOL    HW141956   5.420   2.700   3.262 -0.8521 -1.9910  0.8206
13505SOL    HW241957   5.432   2.580   3.171  0.6746 -0.0877 -1.6246
13506SOL     OW41958   4.545   3.412   1.152  0.2732 -0.4286  0.0895
13506SOL    HW141959   4.539   3.335   1.095 -0.4808 -1.0944  1.0347
13506SOL    HW241960   4.620   3.461   1.118 -1.9954  0.9633 -3.5693
13507SOL     OW41961   3.390   3.621   0.592 -0.0247 -0.3136 -0.3126
13507SOL    HW141962   3.482   3.642   0.578 -0.1046 -0.2826 -0.7920
13507SOL    HW241963   3.392   3.539   0.642  0.2627 -0.0809  0.0658
13508SOL     OW41964   4.001   3.069   1.696 -0.5977 -0.0932  0.1366
13508SOL    HW141965   3.986   3.150   1.646 -0.7661 -0.5271 -0.5341
13508SOL    HW241966   4.096   3.066   1.709 -0.4968 -0.2100 -0.5801
13509SOL     OW41967   4.844   4.487   1.027 -0.4664  0.0450  0.4185
13509SOL    HW141968   4.878   4.542   0.956 -0.8563  0.0341  0.2212
13509SOL    HW241969   4.786   4.424   0.984  3.4044 -3.6183 -0.0762
13510SOL     OW41970   0.088   2.927   1.495  0.5460  0.4881  0.2121
13510SOL    HW141971   0.172   2.948   1.455 -0.1826  0.9144 -1.1445
13510SOL    HW241972   0.050   3.013   1.517 -0.8385  0.5033 -1.9885
13511SOL     OW41973   5.799   2.402   1.643  0.2590  0.2245 -0.5162
13511SOL    HW141974   5.778   2.333   1.580 -0.9502  0.4562 -0.3891
13511SOL    HW241975   5.771   2.483   1.601 -0.9281  0.3426  0.4541
13512SOL     OW41976   3.494   1.551   1.233 -0.0934  0.0386 -0.2948
13512SOL    HW141977   3.555   1.583   1.166  0.6229 -0.5693  0.0548
13512SOL    HW241978   3.483   1.626   1.292  2.9882 -0.7344  1.5430
13513SOL     OW41979   4.139   3.470   0.086 -0.2789  0.9803 -0.0981
13513SOL    HW141980   4.231   3.488   0.063 -0.5603  0.7770 -1.4634
13513SOL    HW241981   4.144   3.398   0.148  0.4580  0.4630 -0.7347
13514SOL     OW41982   2.859   3.576   1.444  0.5327  0.0184  0.6487
13514SOL    HW141983   2.817   3.637   1.506  0.9847  0.7473  0.2521
13514SOL    HW241984   2.842   3.489   1.481 -1.7199  0.2267  0.2967
13515SOL     OW41985   5.142   2.975   0.594 -0.2285  0.2653 -0.2299
13515SOL    HW141986   5.117   3.001   0.683  0.4024 -0.9231  0.3093
13515SOL    HW241987   5.069   2.920   0.564  0.7303 -1.5282  0.5824
13516SOL     OW41988   3.069   1.677   2.367  0.4987 -0.1734 -0.2173
13516SOL    HW141989   3.087   1.584   2.354  1.5858  0.1379 -1.0748
13516SOL    HW241990   2.976   1.681   2.390 -0.2322 -1.2613 -2.6566
13517SOL     OW41991   4.796   3.303  12.334 -0.1957 -0.5023  0.5661
13517SOL    HW141992   4.862   3.273  12.397  0.0220 -0.0765  0.5415
13517SOL    HW241993   4.846   3.349  12.267 -0.4921 -0.4210  0.4001
13518SOL     OW41994   4.029   4.271   1.963  0.0534 -0.2543 -0.2199
13518SOL    HW141995   4.045   4.219   2.041 -0.0917  1.6698  1.1732
13518SOL    HW241996   4.113   4.271   1.917 -0.1351 -2.2314 -0.6570
13519SOL     OW41997   6.624   2.072   1.266  0.0163 -0.2714  0.1104
13519SOL    HW141998   6.712   2.112   1.269 -0.1659  0.2478 -0.9992
13519SOL    HW241999   6.641   1.978   1.267  0.6019 -0.1800 -0.1875
13520SOL     OW42000   3.271   4.129   1.354  0.1106 -0.0350 -0.9889
13520SOL    HW142001   3.288   4.197   1.289  0.4541  0.4264 -0.4234
13520SOL    HW242002   3.318   4.052   1.321  0.9844  0.4317 -0.8797
13521SOL     OW42003   3.492   2.673   0.637  0.1364 -0.0176  0.1582
13521SOL    HW142004   3.562   2.709   0.583  0.5249  1.0654  1.3466
13521SOL    HW242005   3.425   2.647   0.574  1.0407  0.1692 -0.9155
13522SOL     OW42006   3.438   3.227   2.113  0.4763  0.1329  0.5368
13522SOL    HW142007   3.438   3.197   2.022 -1.5587  1.7193 -0.0506
13522SOL    HW242008   3.364   3.181   2.154 -3.0070  4.2172 -0.4975
13523SOL     OW42009   4.953   2.680   2.393  0.3122 -0.0910 -0.1167
13523SOL    HW142010   4.912   2.683   2.307 -2.9671  0.1070  1.3009
13523SOL    HW242011   4.978   2.770   2.412 -0.7787  0.2227 -0.1087
13524SOL     OW42012   5.320   1.332   0.806 -0.1261  1.1540  0.4795
13524SOL    HW142013   5.363   1.336   0.720  1.2223 -1.5601  0.9117
13524SOL    HW242014   5.369   1.392   0.861 -0.0090  1.7422 -0.2544
13525SOL     OW42015   3.985   7.851   2.428  0.8437 -0.1318  0.3699
13525SOL    HW142016   3.989   7.872   2.335 -0.9722  3.2105  0.8696
13525SOL    HW242017   4.041   7.917   2.470 -0.9362  0.5767  1.7879
13526SOL     OW42018   6.835   4.881   1.959 -0.0066  0.0746 -0.8758
13526SOL    HW142019   6.866   4.872   2.049  0.6709  2.7169 -0.7618
13526SOL    HW242020   6.770   4.952   1.963  0.3749  0.5626 -2.5154
13527SOL     OW42021   5.109   3.816   1.224 -0.0559  0.3464 -0.0085
13527SOL    HW142022   5.157   3.796   1.304  0.7437 -0.1342 -0.5823
13527SOL    HW242023   5.035   3.869   1.252 -0.5188 -0.8915  1.2028
13528SOL     OW42024   3.962   2.998   1.981 -0.3585 -0.4820  0.1724
13528SOL    HW142025   4.047   2.997   2.025 -0.6930 -1.7352  0.8218
13528SOL    HW242026   3.982   3.024   1.891  0.6319 -0.1923  0.4662
13529SOL     OW42027   2.820   3.224   0.981  0.1358 -0.1303 -0.1435
13529SOL    HW142028   2.867   3.243   1.062  0.3273 -0.8738 -0.0749
13529SOL    HW242029   2.730   3.210   1.008 -0.2334  1.6484 -0.3163
13530SOL     OW42030   4.659   0.045  12.497  0.0827 -0.1612 -0.1427
13530SOL    HW142031   4.742   0.066  12.540 -0.3336 -1.0191  1.1467
13530SOL    HW242032   4.631  -0.037  12.537 -2.6434  1.3578  1.4041
13531SOL     OW42033   5.500   2.796   0.535  0.2994  0.1506 -0.4848
13531SOL    HW142034   5.491   2.838   0.620 -1.7852  0.4800 -0.8230
13531SOL    HW242035   5.412   2.768   0.512  0.9465 -0.6398 -2.1909
13532SOL     OW42036   3.563   2.315   0.181 -0.2935  0.1985  0.2285
13532SOL    HW142037   3.604   2.326   0.267 -0.0172 -0.6360  0.2183
13532SOL    HW242038   3.568   2.221   0.165 -1.9743  0.1096  0.0943
13533SOL     OW42039   6.770   0.550   1.957  0.1404 -0.2641 -0.6899
13533SOL    HW142040   6.747   0.617   2.021  2.5140 -1.3894  1.5338
13533SOL    HW242041   6.854   0.578   1.921  0.1311 -0.9999 -1.3262
13534SOL     OW42042   6.774   2.035   0.383 -0.4210  0.3109 -0.1557
13534SOL    HW142043   6.798   1.965   0.322 -1.3546  0.4023 -0.6529
13534SOL    HW242044   6.745   2.107   0.327 -1.8195  0.2063  0.3851
13535SOL     OW42045   4.208   3.462   1.975 -0.2559  0.1365 -0.7370
13535SOL    HW142046   4.188   3.547   2.015 -1.5146 -0.7530  0.6084
13535SOL    HW242047   4.302   3.452   1.985 -0.3845  0.4656  0.9936
13536SOL     OW42048   4.402   2.371   0.299  0.4003  0.2278  0.5925
13536SOL    HW142049   4.345   2.403   0.369 -1.0535 -0.1569 -0.3701
13536SOL    HW242050   4.380   2.426   0.223 -0.0628 -1.1269 -0.2966
13537SOL     OW42051   5.238   2.236   0.167  0.1412 -0.0013 -0.0633
13537SOL    HW142052   5.286   2.281   0.236  0.5447  0.9916 -0.9509
13537SOL    HW242053   5.146   2.251   0.187  0.2487 -0.1458  0.5293
13538SOL     OW42054   4.079   2.577  12.179 -0.5945  0.3925 -0.3097
13538SOL    HW142055   4.130   2.497  12.168 -3.1848 -1.7281  1.7719
13538SOL    HW242056   4.041   2.592  12.092  0.3964 -0.2795 -0.8817
13539SOL     OW42057   4.023   1.234   0.131  0.3354  0.1498 -0.3633
13539SOL    HW142058   3.970   1.164   0.170  0.0157 -0.6605 -2.1692
13539SOL    HW242059   3.968   1.270   0.062  0.7446  1.8070  0.1135
13540SOL     OW42060   5.812   2.743   0.465  0.2024  0.1517 -0.4902
13540SOL    HW142061   5.826   2.778   0.553 -0.6213  0.9320 -0.6518
13540SOL    HW242062   5.717   2.734   0.458  0.3560 -2.0247 -0.5145
13541SOL     OW42063   4.121   0.547   3.025  0.1632 -0.6018 -0.0165
13541SOL    HW142064   4.138   0.458   3.054 -1.4395 -0.9454 -0.0286
13541SOL    HW242065   4.087   0.591   3.103 -1.1036 -0.6334 -0.5177
13542SOL     OW42066   7.741   3.500  11.573 -0.2870  0.0505 -0.7899
13542SOL    HW142067   7.769   3.443  11.644 -0.1613  1.6063  0.4818
13542SOL    HW242068   7.754   3.449  11.493 -0.1690 -1.6474  0.2818
13543SOL     OW42069   4.607   1.978   1.661  0.0620  0.2483  0.0773
13543SOL    HW142070   4.686   2.031   1.677  1.9399 -2.1466 -0.6604
13543SOL    HW242071   4.591   1.986   1.568  0.5915 -0.7117 -0.1119
13544SOL     OW42072   5.140   1.069   0.237 -0.3393  1.0969 -0.4074
13544SOL    HW142073   5.157   1.106   0.324 -1.1474  1.1494 -0.2622
13544SOL    HW242074   5.192   0.988   0.235  0.1959  1.4270 -0.1281
13545SOL     OW42075   4.495   3.716   0.557 -0.9426 -0.1164  0.0459
13545SOL    HW142076   4.560   3.776   0.594  1.2145 -1.6136 -1.0700
13545SOL    HW242077   4.416   3.730   0.609  0.7332  0.6667  2.5367
13546SOL     OW42078   4.239   1.783   0.429 -0.0748 -0.2426 -0.4448
13546SOL    HW142079   4.178   1.808   0.360  1.0249  1.7007 -0.8078
13546SOL    HW242080   4.257   1.865   0.476  2.4233 -0.6504 -0.5468
13547SOL     OW42081   5.211   1.649   0.808 -0.4489  0.1695  0.4877
13547SOL    HW142082   5.301   1.625   0.831 -0.4481  0.3661  0.7010
13547SOL    HW242083   5.167   1.659   0.893 -0.6820  0.0328  0.3823
13548SOL     OW42084   4.873   4.526   2.650  0.3099  0.2928 -0.2273
13548SOL    HW142085   4.866   4.528   2.555  0.4876  0.3277 -0.2394
13548SOL    HW242086   4.883   4.618   2.675 -1.3681  0.4687 -0.0513
13549SOL     OW42087   6.079   3.013   0.518  0.3063  0.5359  0.5933
13549SOL    HW142088   5.988   3.029   0.545 -0.6205 -0.8155 -1.5286
13549SOL    HW242089   6.108   3.097   0.483 -0.8064  0.5035 -0.4845
13550SOL     OW42090   4.057   3.409   1.026  0.0096  0.2278 -0.6630
13550SOL    HW142091   3.971   3.367   1.036  0.2974 -0.3118 -0.4195
13550SOL    HW242092   4.082   3.391   0.935  0.3333 -0.5308 -0.4323
13551SOL     OW42093   6.952   3.970   2.171  0.6769 -0.5722 -0.1976
13551SOL    HW142094   6.907   4.049   2.201 -0.2374 -0.8853 -0.7307
13551SOL    HW242095   6.900   3.898   2.206  0.2670 -0.9418 -1.5244
13552SOL     OW42096   3.839   4.039   1.146  0.2847  0.0759  0.1120
13552SOL    HW142097   3.843   3.984   1.225  0.1742 -0.3465 -0.1700
13552SOL    HW242098   3.758   4.090   1.157 -0.5796 -1.1112 -0.4376
13553SOL     OW42099   6.290   1.590   1.425 -0.3539 -0.8049  0.4477
13553SOL    HW142100   6.287   1.677   1.464  0.0972 -0.1838 -0.8814
13553SOL    HW242101   6.298   1.605   1.331  1.0601 -2.2784  0.2930
13554SOL     OW42102   5.839   2.663   2.192  0.0183  0.3625  0.2167
13554SOL    HW142103   5.813   2.750   2.224 -0.4461 -0.0512  0.9716
13554SOL    HW242104   5.928   2.676   2.159 -0.5116  1.4236 -0.8958
13555SOL     OW42105   2.924   3.010   2.266  0.1085  0.6830  0.5756
13555SOL    HW142106   2.846   2.986   2.216  0.9466  0.9277 -0.9141
13555SOL    HW242107   2.890   3.041   2.350 -1.3960  0.8141 -0.0434
13556SOL     OW42108   6.333   3.024   0.670  0.2843  0.2179  0.4629
13556SOL    HW142109   6.348   3.000   0.578  3.8576  1.5264  0.5376
13556SOL    HW242110   6.300   2.944   0.711  1.0751 -1.1601 -1.4530
13557SOL     OW42111   4.070   2.647   0.969 -0.1137  0.1210 -0.2692
13557SOL    HW142112   4.026   2.577   1.017 -1.4585  0.7436 -0.5583
13557SOL    HW242113   4.045   2.632   0.878  0.6391  0.2429 -0.5052
13558SOL     OW42114   4.320   2.539   0.091 -0.0071 -0.2905  0.1050
13558SOL    HW142115   4.385   2.602   0.063 -1.2044  1.0365  0.2308
13558SOL    HW242116   4.261   2.588   0.149 -1.1658 -1.4260 -0.0507
13559SOL     OW42117   4.714   3.830  11.817 -0.2007  0.0301  0.0516
13559SOL    HW142118   4.755   3.847  11.901 -2.0780  0.1322  1.0131
13559SOL    HW242119   4.655   3.904  11.803 -1.1297 -0.7771 -0.5181
13560SOL     OW42120   5.210   1.106  12.463 -0.0372 -0.3202  0.4377
13560SOL    HW142121   5.301   1.079  12.448 -0.3946 -1.2489 -0.1096
13560SOL    HW242122   5.204   1.115  12.558  1.1020  1.5351  0.3989
13561SOL     OW42123   3.594   1.719   0.081  0.4186 -0.2145  0.2850
13561SOL    HW142124   3.541   1.762   0.148 -0.5502  1.3287 -1.3693
13561SOL    HW242125   3.628   1.791   0.028  0.5665 -1.3958 -1.2931
13562SOL     OW42126   3.868   4.285   1.663 -0.1061 -0.0720  0.3367
13562SOL    HW142127   3.804   4.289   1.591 -0.4269 -0.3886  0.6041
13562SOL    HW242128   3.831   4.221   1.724  0.9493 -1.0073  0.0211
13563SOL     OW42129   4.910   2.393   1.207  0.3350 -0.0970 -0.0832
13563SOL    HW142130   4.859   2.363   1.131 -0.1358  1.1575 -0.2769
13563SOL    HW242131   4.997   2.354   1.193  0.2572  0.1172 -1.2745
13564SOL     OW42132   5.854   2.404  11.970  0.6248 -0.1648 -0.2079
13564SOL    HW142133   5.793   2.341  11.931  0.3211  0.1376 -0.2280
13564SOL    HW242134   5.893   2.448  11.895  0.9272 -0.4096 -0.1965
13565SOL     OW42135   4.532   2.352   2.844  0.4734 -0.2178 -0.0578
13565SOL    HW142136   4.480   2.333   2.921  0.9529 -1.2720  0.0277
13565SOL    HW242137   4.584   2.429   2.868 -0.6307  0.5191  0.0349
13566SOL     OW42138   6.116   4.261   2.413 -0.1641  0.6195 -0.2324
13566SOL    HW142139   6.143   4.291   2.326  1.1099 -0.1000 -0.1165
13566SOL    HW242140   6.047   4.196   2.395 -0.8764  1.4647 -0.6212
13567SOL     OW42141   4.758   2.320   0.977 -0.1142 -0.3486 -0.5289
13567SOL    HW142142   4.773   2.333   0.883 -0.7161 -1.4983 -0.8118
13567SOL    HW242143   4.680   2.372   0.996 -1.5108 -2.0466 -1.2674
13568SOL     OW42144   5.100   1.313   1.741  0.3973 -0.3153  0.1047
13568SOL    HW142145   5.166   1.319   1.672 -0.6291  2.5658 -0.7800
13568SOL    HW242146   5.081   1.220   1.747  1.3380 -0.8088 -2.7451
13569SOL     OW42147   4.916   4.571  12.244 -0.5297  0.4984 -0.0691
13569SOL    HW142148   4.907   4.476  12.251  1.1702  0.2698 -0.5202
13569SOL    HW242149   4.840   4.606  12.289 -1.6014 -1.0819 -0.5762
13570SOL     OW42150   5.682   5.458   1.155 -0.7567 -0.0549  0.1415
13570SOL    HW142151   5.626   5.534   1.170  1.1497  1.1030  1.8514
13570SOL    HW242152   5.723   5.475   1.070 -1.6601 -0.0643 -0.3080
13571SOL     OW42153   2.546   2.043   0.660  0.1781 -0.4192 -0.0336
13571SOL    HW142154   2.569   2.031   0.568  0.8434  0.6908 -0.0378
13571SOL    HW242155   2.452   2.059   0.659  0.5172  2.1241 -0.8659
13572SOL     OW42156   2.487   2.267   0.859 -0.0265 -0.3826 -0.0502
13572SOL    HW142157   2.501   2.218   0.778 -1.4630  0.6665 -0.9725
13572SOL    HW242158   2.575   2.296   0.885  0.3035  0.5732 -2.0832
13573SOL     OW42159   4.263   2.992  12.059 -0.5191 -0.2255 -0.4934
13573SOL    HW142160   4.355   2.976  12.078 -0.0527  1.2208 -1.3724
13573SOL    HW242161   4.224   3.013  12.144  0.0620 -0.3967 -0.1797
13574SOL     OW42162   5.484   2.926   0.140 -0.1502 -0.1228  0.5387
13574SOL    HW142163   5.472   2.844   0.092 -3.0565  1.5124 -1.8360
13574SOL    HW242164   5.409   2.931   0.199 -0.1855  0.9474  0.4185
13575SOL     OW42165   6.470   3.929   0.849 -0.2265 -0.4800  0.4879
13575SOL    HW142166   6.453   3.840   0.881 -1.6692 -0.3994  0.0396
13575SOL    HW242167   6.546   3.958   0.899  0.5490 -2.1137  0.3317
13576SOL     OW42168   5.345   2.893   1.069 -0.0672 -0.3478  0.0702
13576SOL    HW142169   5.433   2.899   1.105  1.5913 -2.2912 -3.2536
13576SOL    HW242170   5.307   2.816   1.111 -0.2715  0.5287  1.5576
13577SOL     OW42171   6.661   1.286   9.924  0.3800  0.0018 -0.0827
13577SOL    HW142172   6.574   1.254   9.900 -0.4041  0.6754  1.6838
13577SOL    HW242173   6.700   1.214   9.973  0.0055  0.4185  0.8509
13578SOL     OW42174   5.927   3.164   1.200 -0.0124 -0.2344  0.4812
13578SOL    HW142175   5.834   3.155   1.182  0.0002 -0.0016  0.2920
13578SOL    HW242176   5.932   3.208   1.284 -0.0931  1.7891 -0.5082
13579SOL     OW42177   4.643   2.366  11.796  0.5926  0.7153 -0.5249
13579SOL    HW142178   4.582   2.412  11.854 -0.1767 -0.8324 -0.0718
13579SOL    HW242179   4.722   2.355  11.848  0.4826  0.7852 -0.3433
13580SOL     OW42180   5.833   4.130   1.259  0.2988  0.3086  0.4384
13580SOL    HW142181   5.814   4.125   1.353  2.3985 -0.1959  0.8960
13580SOL    HW242182   5.776   4.065   1.220 -2.3387  2.1151  0.9830
13581SOL     OW42183   5.550   3.312   2.114 -0.0968  0.4386  0.6909
13581SOL    HW142184   5.461   3.305   2.080  0.7549 -0.6364 -1.5886
13581SOL    HW242185   5.540   3.343   2.203 -2.7203  0.7277  0.3701
13582SOL     OW42186   5.048   1.063   0.573 -0.0926 -0.3580 -0.4515
13582SOL    HW142187   5.142   1.043   0.574  0.5245  2.1731 -0.3223
13582SOL    HW242188   5.022   1.058   0.665  0.6437  1.7237 -0.0852
13583SOL     OW42189   5.167   1.625  11.369 -0.2583 -0.0191 -0.5820
13583SOL    HW142190   5.163   1.530  11.362 -2.9201 -0.0476  0.0088
13583SOL    HW242191   5.154   1.657  11.280  0.7959 -0.1866 -0.8032
13584SOL     OW42192   3.393   2.991   1.510  0.3529  0.1185 -0.0487
13584SOL    HW142193   3.391   3.071   1.562 -0.2812 -0.9120  1.6226
13584SOL    HW242194   3.485   2.963   1.513  0.5797  0.7858 -0.6626
13585SOL     OW42195   3.807   1.804   0.741  0.5667  0.4358  0.0487
13585SOL    HW142196   3.847   1.720   0.719 -1.7334 -0.6509 -0.2261
13585SOL    HW242197   3.833   1.862   0.669 -0.1858 -0.8538 -1.3170
13586SOL     OW42198   3.613   2.319   0.734 -0.0018 -0.2345 -0.6145
13586SOL    HW142199   3.602   2.232   0.771 -1.0307  0.0558 -0.1954
13586SOL    HW242200   3.574   2.378   0.799  2.3791  0.7569  0.0524
13587SOL     OW42201   4.671   1.993   1.409 -0.2878 -0.1843 -0.2870
13587SOL    HW142202   4.760   1.963   1.423 -0.7181 -0.6925  1.5712
13587SOL    HW242203   4.676   2.047   1.330  1.3824 -1.3006 -1.0019
13588SOL     OW42204   5.875   1.498   2.513 -0.1636  0.5345  0.0995
13588SOL    HW142205   5.845   1.517   2.602 -0.9648  0.7872 -0.2183
13588SOL    HW242206   5.901   1.406   2.516  0.8563  0.8265  0.8663
13589SOL     OW42207   6.843   6.214   1.108  0.8249  0.0766  0.0218
13589SOL    HW142208   6.865   6.304   1.083  0.7342  0.8767  2.4815
13589SOL    HW242209   6.812   6.173   1.028  2.7620  1.6055 -1.6225
13590SOL     OW42210   3.440   2.169   1.550 -0.0364  0.2152 -0.1736
13590SOL    HW142211   3.384   2.219   1.609 -0.5855 -0.1682 -0.3670
13590SOL    HW242212   3.507   2.131   1.606 -0.9621 -0.7321  0.3232
13591SOL     OW42213   3.687   2.711  12.388  0.1619 -0.3106 -0.0860
13591SOL    HW142214   3.703   2.734  12.480  0.5818  1.1388 -0.5052
13591SOL    HW242215   3.593   2.726  12.375 -0.3358 -2.4370  0.5987
13592SOL     OW42216   4.191   3.110   0.143 -0.9210 -0.0219  0.0675
13592SOL    HW142217   4.198   3.116   0.238 -0.0846 -0.5225  0.0517
13592SOL    HW242218   4.278   3.135   0.111 -0.5581 -1.7887 -0.4533
13593SOL     OW42219   5.644   1.971   1.714  0.3349  0.0160  0.1676
13593SOL    HW142220   5.712   2.025   1.754 -0.8218  0.3055  1.8371
13593SOL    HW242221   5.690   1.891   1.687  1.3532  0.2245  1.1839
13594SOL     OW42222   5.495   1.633   2.890 -0.3069 -0.2532 -0.6290
13594SOL    HW142223   5.484   1.549   2.934 -0.4180  0.2893  0.3974
13594SOL    HW242224   5.406   1.669   2.884 -0.0675  0.6045  0.6022
13595SOL     OW42225   6.507   1.432   0.257  0.1324 -0.3678  0.1736
13595SOL    HW142226   6.472   1.380   0.184  1.3277 -1.2666  0.2071
13595SOL    HW242227   6.445   1.504   0.267 -0.2715 -0.4515 -1.4707
13596SOL     OW42228   6.053   1.816   0.258  0.0362 -0.4026 -0.3624
13596SOL    HW142229   6.062   1.910   0.269 -1.3524 -0.5125  2.5764
13596SOL    HW242230   6.142   1.782   0.273  0.0791  0.3001  1.2019
13597SOL     OW42231   3.625   4.177   2.552 -0.2986  0.2343  0.7531
13597SOL    HW142232   3.565   4.194   2.480 -0.3177  0.7792  0.8938
13597SOL    HW242233   3.570   4.143   2.623 -0.0635 -1.9377 -0.0241
13598SOL     OW42234   5.754   2.536   1.058  0.4264  0.6278  0.4546
13598SOL    HW142235   5.752   2.613   1.001 -3.3247  0.4744  0.1229
13598SOL    HW242236   5.765   2.462   0.999 -1.4602  0.6156  0.0485
13599SOL     OW42237   3.657   3.304   0.748 -0.2747 -0.7463  0.3436
13599SOL    HW142238   3.751   3.310   0.731 -0.4640  0.7904 -0.3732
13599SOL    HW242239   3.628   3.228   0.699  0.5962 -1.2473  0.5889
13600SOL     OW42240   4.059   3.369  12.016 -0.3658 -0.5131  0.0750
13600SOL    HW142241   3.982   3.318  12.041 -1.8114  0.9397 -1.1693
13600SOL    HW242242   4.087   3.333  11.933  0.4240 -1.1344  0.5951
13601SOL     OW42243   2.996   3.288   0.293  0.3035 -0.3284 -0.1362
13601SOL    HW142244   2.952   3.360   0.339 -1.8886 -0.1219 -2.2992
13601SOL    HW242245   3.052   3.331   0.229 -1.1909 -0.4158 -1.5981
13602SOL     OW42246   6.056   1.357  11.953  0.3463  0.1143  0.0853
13602SOL    HW142247   6.103   1.274  11.966  0.6526  0.3616  0.6193
13602SOL    HW242248   6.104   1.419  12.008  0.8671  0.9221 -1.2487
13603SOL     OW42249   4.765   2.376   1.852  0.0382  0.1086 -0.0152
13603SOL    HW142250   4.715   2.306   1.894  0.1606  0.1501  0.1986
13603SOL    HW242251   4.856   2.351   1.864  0.0633 -0.5213 -1.3486
13604SOL     OW42252   5.398   2.012   0.243 -0.5400 -0.5013  0.4025
13604SOL    HW142253   5.315   1.972   0.216 -1.0422 -0.6735  2.0979
13604SOL    HW242254   5.381   2.106   0.240 -1.4824 -0.5434  2.6052
13605SOL     OW42255   6.896   4.116   0.252 -0.3650 -0.0197  0.2554
13605SOL    HW142256   6.940   4.113   0.167  1.6319 -2.3896  1.2414
13605SOL    HW242257   6.817   4.168   0.237 -0.1417 -0.4415 -3.0504
13606SOL     OW42258   3.414   3.353  11.883 -0.4789  0.2120  0.2738
13606SOL    HW142259   3.473   3.278  11.893  1.2181  1.2700 -1.2262
13606SOL    HW242260   3.360   3.352  11.962  0.7827 -1.4613  1.1807
13607SOL     OW42261   3.973   3.329   2.050 -0.2985  0.0420  0.1870
13607SOL    HW142262   3.998   3.389   2.120 -1.9764  0.1445  0.7523
13607SOL    HW242263   4.032   3.351   1.978 -0.6884  2.2411  0.4485
13608SOL     OW42264   6.327   3.369  11.961  0.0885  0.1069 -0.3000
13608SOL    HW142265   6.355   3.418  12.039  0.9315 -1.3833  0.3590
13608SOL    HW242266   6.340   3.431  11.889  1.4646  0.7517  0.4543
13609SOL     OW42267   4.183   3.100   0.414 -0.0362 -0.0826 -0.4502
13609SOL    HW142268   4.116   3.038   0.443 -0.7998  0.8511 -0.1773
13609SOL    HW242269   4.265   3.050   0.419 -0.3872 -0.5707  1.4048
13610SOL     OW42270   5.589   2.303   1.285 -0.1251 -0.4481  0.1196
13610SOL    HW142271   5.639   2.231   1.248 -0.5496  0.4880 -2.4806
13610SOL    HW242272   5.553   2.350   1.209 -1.0136  1.6824  1.7269
13611SOL     OW42273   2.391   2.313   1.604  0.0403 -0.2548  0.4636
13611SOL    HW142274   2.444   2.256   1.548 -0.0302  1.3248 -1.2954
13611SOL    HW242275   2.357   2.380   1.545 -2.0044  0.1384  1.9871
13612SOL     OW42276   3.093   3.730   0.159 -0.0633 -0.1546 -0.8226
13612SOL    HW142277   3.111   3.823   0.167 -2.0287  0.2003  0.0082
13612SOL    HW242278   3.125   3.692   0.241 -1.9669  0.3227  0.2163
13613SOL     OW42279   5.458   4.667   2.599 -0.9219 -0.1901  0.1917
13613SOL    HW142280   5.417   4.748   2.630 -0.9437 -0.6150  1.3403
13613SOL    HW242281   5.414   4.597   2.648  0.1957 -0.7647  0.4324
13614SOL     OW42282   4.288   4.790   1.272  0.6126  0.2984 -0.0934
13614SOL    HW142283   4.325   4.877   1.287  0.9427  0.3206 -0.9906
13614SOL    HW242284   4.364   4.733   1.262  0.3970 -0.0783  0.3778
13615SOL     OW42285   5.993   3.130  11.987  0.7965  0.5190 -0.0845
13615SOL    HW142286   5.923   3.119  12.051  1.1821  0.3826  0.3175
13615SOL    HW242287   5.956   3.190  11.922 -0.8712 -1.9406 -1.5903
13616SOL     OW42288   5.957   1.183   1.472  0.3012 -0.4416  0.4704
13616SOL    HW142289   5.903   1.262   1.467  1.1775  0.2955  1.9905
13616SOL    HW242290   5.918   1.132   1.544 -0.4196 -1.5563 -0.6674
13617SOL     OW42291   1.656   1.577   1.220  0.1636  0.5468  0.1583
13617SOL    HW142292   1.579   1.627   1.248 -0.5223  1.0023 -2.2885
13617SOL    HW242293   1.731   1.628   1.252 -0.5362  1.0733  1.0084
13618SOL     OW42294   5.094   2.297   0.801 -0.0349 -0.1107 -0.6889
13618SOL    HW142295   5.058   2.380   0.769 -1.1636 -0.8683 -1.4586
13618SOL    HW242296   5.102   2.243   0.722 -0.2364 -1.0657 -0.0627
13619SOL     OW42297   3.730   2.744   0.534  0.4759 -0.2618 -0.7147
13619SOL    HW142298   3.765   2.833   0.538 -1.2430  0.4091  0.6230
13619SOL    HW242299   3.778   2.696   0.601 -0.9372  0.6191  1.0158
13620SOL     OW42300   6.668   2.543   0.907  0.4869 -0.4608 -0.1237
13620SOL    HW142301   6.724   2.515   0.834 -0.1562 -0.6366 -0.5573
13620SOL    HW242302   6.605   2.603   0.868 -0.7792 -1.6679 -0.0128
13621SOL     OW42303   5.983   2.009   0.707  0.0596 -0.4734  0.1731
13621SOL    HW142304   5.899   2.019   0.662  0.0254  0.9990  0.4973
13621SOL    HW242305   5.966   2.036   0.797  0.9039 -0.0101  0.2101
13622SOL     OW42306   2.946   3.034   0.849  0.5559 -0.0923 -0.7649
13622SOL    HW142307   2.873   2.994   0.801 -0.3064  0.5082  0.0170
13622SOL    HW242308   2.909   3.111   0.891  0.9289 -1.1809  1.8304
13623SOL     OW42309   6.256   3.825   1.091 -0.1744  0.0119 -0.6644
13623SOL    HW142310   6.300   3.807   1.173  0.5814  1.9812 -0.5731
13623SOL    HW242311   6.225   3.740   1.060  0.3288 -0.8812  1.1820
13624SOL     OW42312   5.102   4.160   2.006 -0.3683 -0.3862  0.2988
13624SOL    HW142313   5.122   4.074   2.043 -0.5442 -1.3980 -1.8092
13624SOL    HW242314   5.188   4.203   1.998 -0.2107 -0.6051  0.8060
13625SOL     OW42315   3.949   1.104   1.329 -0.0387 -0.2708 -0.5053
13625SOL    HW142316   3.889   1.161   1.378 -0.2526 -0.8349 -0.1064
13625SOL    HW242317   4.030   1.106   1.379  0.0959  0.0322 -0.7323
13626SOL     OW42318   2.199   2.518   1.487 -0.4392 -0.0183 -0.1510
13626SOL    HW142319   2.276   2.568   1.461 -0.3878  0.6800  1.2671
13626SOL    HW242320   2.152   2.503   1.405  1.0755 -0.2760 -1.0231
13627SOL     OW42321   5.776   1.710   2.337 -0.0596  0.3359 -0.3228
13627SOL    HW142322   5.799   1.644   2.402 -1.2792  0.4674  0.2676
13627SOL    HW242323   5.731   1.779   2.387  1.0679  1.5650 -0.9434
13628SOL     OW42324   4.753   3.744   0.097  0.4756  0.4384 -0.0568
13628SOL    HW142325   4.776   3.699   0.015  1.0193  0.5597  0.0216
13628SOL    HW242326   4.832   3.735   0.151 -0.3631 -0.8983  1.0122
13629SOL     OW42327   3.683   2.695   3.694  0.1572  0.5260 -0.2330
13629SOL    HW142328   3.674   2.667   3.785  1.7059 -1.0846 -0.5213
13629SOL    HW242329   3.660   2.788   3.695 -2.2575 -0.0004  1.3339
13630SOL     OW42330   5.761   3.162   1.970  0.2872 -0.3900  0.1161
13630SOL    HW142331   5.703   3.230   2.006 -1.7112 -0.8933 -1.9067
13630SOL    HW242332   5.796   3.117   2.046 -0.3103  1.3171  1.4583
13631SOL     OW42333   5.853   5.037   1.606 -0.6381 -0.2096  0.1361
13631SOL    HW142334   5.769   5.008   1.569 -1.7355 -0.2568  2.4923
13631SOL    HW242335   5.848   5.132   1.606 -1.4878 -0.2087  1.8035
13632SOL     OW42336   3.186   1.917  12.025  0.0512  0.5856  0.0235
13632SOL    HW142337   3.158   1.838  11.978  1.0346 -1.4795  2.6636
13632SOL    HW242338   3.105   1.956  12.056 -0.3773 -0.9287  0.9255
13633SOL     OW42339   4.853   3.122   0.662 -0.5104  0.5441 -0.1567
13633SOL    HW142340   4.861   3.217   0.654 -0.0939  0.5977  0.7391
13633SOL    HW242341   4.838   3.107   0.756 -0.6698 -0.2672 -0.3033
13634SOL     OW42342   4.110   1.837   0.190  0.5059 -0.1571  0.5393
13634SOL    HW142343   4.173   1.856   0.121 -0.3952 -0.7360 -0.4746
13634SOL    HW242344   4.059   1.918   0.199 -1.5491 -1.0185 -1.8755
13635SOL     OW42345   6.226   3.342   2.173  0.3020 -0.1560  0.2753
13635SOL    HW142346   6.165   3.413   2.156  1.0098  0.2542 -0.6608
13635SOL    HW242347   6.307   3.386   2.201  0.7254 -0.5872 -0.2450
13636SOL     OW42348   3.116   3.628   0.776 -0.3271 -0.1679  0.5603
13636SOL    HW142349   3.096   3.534   0.776 -0.8562 -0.0579  0.2427
13636SOL    HW242350   3.031   3.671   0.771 -0.0856  0.3308  0.7046
13637SOL     OW42351   3.765   2.926   1.656  0.2190 -0.8009 -0.0878
13637SOL    HW142352   3.844   2.977   1.639  1.0027 -1.8324  0.3398
13637SOL    HW242353   3.711   2.938   1.578  0.1968  0.9677  0.1502
13638SOL     OW42354   3.756   1.657   1.106  0.1084  0.3104  0.0803
13638SOL    HW142355   3.790   1.738   1.145 -1.4974  0.2674  1.7060
13638SOL    HW242356   3.828   1.624   1.053  0.9992  2.5169 -0.2216
13639SOL     OW42357   4.318   3.591   1.402 -0.2935  0.5322 -0.2931
13639SOL    HW142358   4.311   3.501   1.370  0.9561  0.5000 -0.4893
13639SOL    HW242359   4.251   3.639   1.353 -0.9870 -0.2838 -0.1656
13640SOL     OW42360   3.537   3.521  12.402  0.2754 -0.4544  0.3482
13640SOL    HW142361   3.563   3.547  12.314 -0.0702  0.7898  0.5897
13640SOL    HW242362   3.599   3.451  12.426  0.3366 -0.8435 -0.8809
13641SOL     OW42363   5.528   1.912   2.729 -0.5728 -0.0298  0.0828
13641SOL    HW142364   5.530   1.828   2.775  0.4173 -1.7981 -2.9006
13641SOL    HW242365   5.436   1.935   2.724 -0.8915 -1.0961  0.7386
13642SOL     OW42366   7.524   4.482   2.900 -0.0108  0.1313 -0.0112
13642SOL    HW142367   7.561   4.446   2.820 -0.9663  0.3489 -0.5647
13642SOL    HW242368   7.578   4.445   2.970 -0.1444 -1.3214 -0.6387
13643SOL     OW42369   3.951   3.002   0.112 -0.2738  0.6813 -0.1355
13643SOL    HW142370   4.023   3.049   0.154  0.3878  0.8356 -1.4017
13643SOL    HW242371   3.879   3.008   0.175  1.1046 -0.4197  1.6429
13644SOL     OW42372   4.939   3.467   2.053 -0.1648 -0.1899  0.1708
13644SOL    HW142373   4.999   3.520   2.002  0.4866 -1.1010 -0.0419
13644SOL    HW242374   4.863   3.523   2.067  1.4697  1.7317  2.0910
13645SOL     OW42375   2.407   2.289   1.266 -0.1200  0.5097  0.3686
13645SOL    HW142376   2.414   2.345   1.189 -1.4512 -0.2683 -0.3736
13645SOL    HW242377   2.482   2.230   1.261 -0.6624 -0.1076 -0.8502
13646SOL     OW42378   4.331   1.439  11.728 -0.1114 -0.5117  0.2430
13646SOL    HW142379   4.373   1.504  11.784 -1.5844 -0.4604  1.3693
13646SOL    HW242380   4.237   1.449  11.747 -0.6283 -0.9090 -1.8057
13647SOL     OW42381   4.885   3.666   1.175  0.0756  0.2545  0.0373
13647SOL    HW142382   4.967   3.686   1.131  0.4222 -0.4089  0.3619
13647SOL    HW242383   4.830   3.627   1.107 -0.4094  1.7666 -0.4655
13648SOL     OW42384   6.388   3.538   0.467  0.6452  0.1417 -0.4492
13648SOL    HW142385   6.325   3.608   0.450  3.1334  2.4414 -0.8252
13648SOL    HW242386   6.346   3.459   0.432 -2.0068  1.5196 -0.6204
13649SOL     OW42387   1.723   2.712  12.435 -0.3201  0.0371  0.2602
13649SOL    HW142388   1.813   2.684  12.419  0.3192  1.8156  0.5367
13649SOL    HW242389   1.681   2.636  12.475  0.4881 -1.5113 -1.6465
13650SOL     OW42390   3.799   3.341  12.430 -0.6355 -0.2749 -0.1613
13650SOL    HW142391   3.766   3.317  12.517  0.0338 -0.8522 -0.0597
13650SOL    HW242392   3.792   3.261  12.379  0.7745 -0.4754 -0.0792
13651SOL     OW42393   6.180   2.329   0.612 -0.3259 -0.0113  0.1154
13651SOL    HW142394   6.154   2.391   0.681 -0.9812  0.0483 -0.1804
13651SOL    HW242395   6.099   2.283   0.589 -0.1569  0.1073 -0.7533
13652SOL     OW42396   3.906   1.932  11.968  0.1362  0.0526 -0.0081
13652SOL    HW142397   3.947   1.847  11.983  0.0453 -0.1881 -1.0307
13652SOL    HW242398   3.892   1.968  12.055 -0.9838 -1.5326  0.5140
13653SOL     OW42399   6.171   2.207   1.481  0.3967  0.4795 -0.4229
13653SOL    HW142400   6.255   2.198   1.437  0.7560 -0.4666  0.4074
13653SOL    HW242401   6.110   2.156   1.427  0.4996  0.5951 -0.6492
13654SOL     OW42402   3.824   3.812   0.987 -0.0949  0.5416 -0.2313
13654SOL    HW142403   3.805   3.894   1.032 -0.5050  0.0250  0.5509
13654SOL    HW242404   3.909   3.827   0.945  2.3103 -0.2155  3.8719
13655SOL     OW42405   5.630   3.645   0.118 -0.6194  0.1907  0.5164
13655SOL    HW142406   5.545   3.647   0.160 -0.3523  0.3705  1.0508
13655SOL    HW242407   5.692   3.626   0.188 -0.4186 -2.1720 -0.2142
13656SOL     OW42408   3.757   0.994   0.494  0.1599  0.3522  0.1210
13656SOL    HW142409   3.683   0.936   0.478  0.5115 -0.2435  0.5934
13656SOL    HW242410   3.808   0.950   0.563  0.2705  1.3743  0.7113
13657SOL     OW42411   4.372   2.416   0.900  0.4711  0.2946 -0.0545
13657SOL    HW142412   4.323   2.495   0.878 -0.9161 -0.6837 -0.6271
13657SOL    HW242413   4.423   2.396   0.821 -0.4156 -0.2492 -0.5084
13658SOL     OW42414   5.066   2.580  12.412  0.5416  0.0198 -0.2223
13658SOL    HW142415   5.064   2.488  12.437 -0.4457  0.1226  0.1360
13658SOL    HW242416   5.157   2.596  12.385  0.6178 -1.1591 -0.7116
13659SOL     OW42417   4.523   4.680   2.101 -0.9973  0.1915 -0.4737
13659SOL    HW142418   4.459   4.689   2.030 -1.3769 -0.6259 -0.2415
13659SOL    HW242419   4.579   4.607   2.074 -1.5419 -0.5530  0.3565
13660SOL     OW42420   4.797   2.779  11.621  0.4276 -0.4176 -0.0048
13660SOL    HW142421   4.822   2.694  11.585 -1.6612 -0.3623 -1.7502
13660SOL    HW242422   4.711   2.764  11.662 -0.5645  1.0655 -1.4220
13661SOL     OW42423   0.572   3.637   0.391 -0.1517 -0.0338  0.2211
13661SOL    HW142424   0.526   3.697   0.450  1.9760 -0.1363  2.1111
13661SOL    HW242425   0.502   3.581   0.355 -1.7454  1.2526  1.1660
13662SOL     OW42426   4.183   4.034   1.019  0.1630 -0.2456 -0.2350
13662SOL    HW142427   4.103   3.993   0.987  0.7968 -0.9210 -1.0095
13662SOL    HW242428   4.253   3.986   0.976  1.0089  0.0145  0.8009
13663SOL     OW42429   4.393   2.823   0.156 -0.0576 -0.0955 -0.0387
13663SOL    HW142430   4.362   2.881   0.087 -1.9668 -0.8808  0.0705
13663SOL    HW242431   4.462   2.771   0.115 -0.6467 -0.0406 -1.1449
13664SOL     OW42432   6.163   4.159  11.559  0.0154  0.5619  0.2652
13664SOL    HW142433   6.137   4.176  11.469 -0.2233 -0.9734  0.0126
13664SOL    HW242434   6.082   4.159  11.609  0.0836  0.7746  0.3815
13665SOL     OW42435   5.002   0.995   0.865 -0.9277 -0.1171  0.1506
13665SOL    HW142436   4.920   1.041   0.845 -1.0089 -0.3434 -0.0370
13665SOL    HW242437   5.002   0.989   0.961 -2.1391 -1.9118  0.0868
13666SOL     OW42438   2.985   4.017   2.745 -0.1757  0.2419  0.4953
13666SOL    HW142439   3.053   3.951   2.759  0.7219  0.7444 -1.1493
13666SOL    HW242440   3.007   4.056   2.660 -2.8031  0.1051 -0.3456
13667SOL     OW42441   2.912   1.806   3.526  0.1033 -0.0951  0.3592
13667SOL    HW142442   2.877   1.782   3.440  0.2152  1.1838 -0.0596
13667SOL    HW242443   2.939   1.723   3.565 -1.2182 -0.8555 -0.2649
13668SOL     OW42444   5.517   4.468   1.833  0.4180 -0.2592 -0.8530
13668SOL    HW142445   5.466   4.525   1.776  0.1051  3.0202  2.3570
13668SOL    HW242446   5.455   4.441   1.901  1.7005 -0.6514  0.1929
13669SOL     OW42447   5.206   2.879   1.647 -0.2718  0.1130 -0.0824
13669SOL    HW142448   5.119   2.876   1.687 -0.0905 -0.2991  0.2908
13669SOL    HW242449   5.248   2.955   1.687  0.0470 -0.5143  0.8276
13670SOL     OW42450   4.439   3.255   1.700  0.0698  0.1429 -0.4704
13670SOL    HW142451   4.445   3.349   1.682 -0.5362  0.1904 -0.4506
13670SOL    HW242452   4.524   3.232   1.736 -0.2793  0.9979  0.9780
13671SOL     OW42453   5.057   3.316   3.797  0.0373 -0.0516 -0.3730
13671SOL    HW142454   5.137   3.263   3.799 -0.5443 -0.9260  0.9672
13671SOL    HW242455   4.989   3.256   3.768 -0.6822 -0.1430  1.4204
13672SOL     OW42456   4.980   2.366   3.427  0.2512 -0.1981  0.2881
13672SOL    HW142457   5.015   2.354   3.516  0.7712 -1.8594 -0.1122
13672SOL    HW242458   4.885   2.368   3.439  0.2032 -2.4239  0.7293
13673SOL     OW42459   6.154   2.936   2.910 -0.1056 -0.5378  0.4722
13673SOL    HW142460   6.069   2.977   2.900 -0.5713 -1.1470  1.6791
13673SOL    HW242461   6.217   3.006   2.892 -0.8200 -0.3723 -1.5979
13674SOL     OW42462   4.716   3.488   3.813  0.5389  0.2913 -0.0294
13674SOL    HW142463   4.805   3.506   3.843  0.3132  0.3943  0.5992
13674SOL    HW242464   4.700   3.397   3.837  0.7322  0.0497 -0.8035
13675SOL     OW42465   5.268   3.163   3.620  0.3292 -0.5057  0.3135
13675SOL    HW142466   5.359   3.133   3.631  0.8390  0.9820  0.4177
13675SOL    HW242467   5.257   3.172   3.526  0.2885 -0.6610  0.3023
13676SOL     OW42468   3.575   2.914   3.177 -0.4017 -0.2294 -0.4188
13676SOL    HW142469   3.612   2.926   3.264 -1.9029 -2.3531  0.6027
13676SOL    HW242470   3.651   2.914   3.118  0.5418  2.5391  0.6415
13677SOL     OW42471   6.545   2.392   3.941 -0.3643  0.1026 -0.1771
13677SOL    HW142472   6.460   2.389   3.897 -0.3317  1.4398 -0.3719
13677SOL    HW242473   6.572   2.301   3.948 -1.3270 -0.2645 -1.0785
13678SOL     OW42474   3.774   4.975   2.309 -1.0673 -0.1263 -0.8670
13678SOL    HW142475   3.797   4.987   2.401 -1.2657 -1.1157 -0.6784
13678SOL    HW242476   3.701   5.036   2.294 -0.0408  1.1555 -0.7911
13679SOL     OW42477   5.587   4.103   4.333  0.3335  0.0362  0.2267
13679SOL    HW142478   5.535   4.056   4.269  0.7435 -2.0308  1.3092
13679SOL    HW242479   5.524   4.157   4.380 -0.3013  0.0019 -0.5587
13680SOL     OW42480   3.106   3.299   2.405 -0.0141 -0.5271  0.1369
13680SOL    HW142481   3.039   3.231   2.406 -0.1129 -0.4218  0.6205
13680SOL    HW242482   3.107   3.329   2.314 -1.0696 -0.0904  0.2500
13681SOL     OW42483   6.090   4.157   1.813 -1.0123  0.2114 -0.4763
13681SOL    HW142484   6.020   4.096   1.838 -1.7363  1.1302 -0.2224
13681SOL    HW242485   6.140   4.170   1.893 -1.5100  0.7974 -0.2619
13682SOL     OW42486   5.439   2.574   2.355  0.0245  0.4177 -0.8217
13682SOL    HW142487   5.468   2.595   2.266 -0.6724  2.8075 -0.5483
13682SOL    HW242488   5.520   2.570   2.406  0.5495 -2.1469 -1.6973
13683SOL     OW42489   3.553   2.396   2.828 -0.6723 -0.1047 -0.5142
13683SOL    HW142490   3.547   2.483   2.789 -1.1555  0.8812  1.5972
13683SOL    HW242491   3.637   2.362   2.798 -0.6997  0.8576 -1.7881
13684SOL     OW42492   5.075   3.298   1.489  0.4538  0.6776  0.1681
13684SOL    HW142493   5.021   3.264   1.417 -0.0683  1.2242  0.2823
13684SOL    HW242494   5.165   3.282   1.461  0.2398 -0.0567 -0.1318
13685SOL     OW42495   4.332   3.275   2.195  0.3633 -0.5721  0.0298
13685SOL    HW142496   4.262   3.317   2.245  0.1302 -0.2081 -0.5887
13685SOL    HW242497   4.391   3.347   2.172 -0.3779 -0.4383 -1.5997
13686SOL     OW42498   4.054   1.556   4.291  0.0782 -0.5990  0.0190
13686SOL    HW142499   4.037   1.463   4.308  1.4040 -0.7631  0.6055
13686SOL    HW242500   3.974   1.601   4.317 -0.1216 -1.4633  0.9703
13687SOL     OW42501   6.344   3.288   2.612  0.1526  0.7929 -0.1525
13687SOL    HW142502   6.436   3.299   2.635 -0.2340  0.1291  2.0319
13687SOL    HW242503   6.321   3.367   2.564  1.3045  2.1324  1.3750
13688SOL     OW42504   3.366   2.781   4.665 -0.0907 -0.4364  0.0601
13688SOL    HW142505   3.412   2.823   4.593  0.3911  0.6871  0.9726
13688SOL    HW242506   3.424   2.711   4.694 -1.0088 -1.9596 -1.6335
13689SOL     OW42507   4.177   1.241   3.516  0.2466  0.1421  0.2691
13689SOL    HW142508   4.096   1.278   3.481  1.5873  2.5472 -0.5365
13689SOL    HW242509   4.236   1.315   3.524  2.8657 -1.6895 -0.5377
13690SOL     OW42510   4.317   2.529   3.784  0.1821 -0.2977 -0.0524
13690SOL    HW142511   4.256   2.470   3.739 -0.2147  1.1838 -1.5730
13690SOL    HW242512   4.271   2.555   3.863 -0.4664 -0.5243 -0.3476
13691SOL     OW42513   4.045   3.185   2.269 -0.5986 -0.0194  0.1246
13691SOL    HW142514   4.045   3.261   2.327 -0.3520  2.0736 -2.3836
13691SOL    HW242515   4.026   3.222   2.182 -1.5164 -2.9934 -1.0805
13692SOL     OW42516   6.252   1.375   2.530 -0.0977  0.1312 -0.3726
13692SOL    HW142517   6.264   1.430   2.607 -2.0388 -0.2900  0.2811
13692SOL    HW242518   6.331   1.322   2.526  0.7310  1.2689  0.3838
13693SOL     OW42519   5.363   3.400   3.677 -0.1251  0.0412  0.0967
13693SOL    HW142520   5.317   3.320   3.652  1.7077 -1.1908  0.4368
13693SOL    HW242521   5.391   3.384   3.767  1.8705  0.2727 -0.4434
13694SOL     OW42522   3.940   2.791   3.490  0.2872  0.0232 -0.3200
13694SOL    HW142523   3.905   2.702   3.483  1.3023 -0.3029 -1.6447
13694SOL    HW242524   4.029   2.779   3.522  1.2266  0.3393 -2.6373
13695SOL     OW42525   5.679   3.413   2.351 -0.4021 -0.0164 -0.1477
13695SOL    HW142526   5.651   3.379   2.436  2.2416 -0.7610  0.5137
13695SOL    HW242527   5.737   3.346   2.316 -1.9248 -0.0456 -2.9262
13696SOL     OW42528   4.457   3.321   3.703  0.8588 -0.1875 -0.4717
13696SOL    HW142529   4.420   3.329   3.615  1.1729 -0.8747 -0.6741
13696SOL    HW242530   4.409   3.385   3.755 -0.0074 -0.4420 -0.9292
13697SOL     OW42531   2.912   1.840   1.914  0.4610  0.2032  0.5913
13697SOL    HW142532   2.969   1.820   1.989 -0.4436  0.3787  1.3457
13697SOL    HW242533   2.964   1.899   1.860  2.7543 -3.0312 -1.0805
13698SOL     OW42534   4.935   2.066   2.236  0.0246 -0.3793 -0.0479
13698SOL    HW142535   4.974   2.005   2.173  0.7096 -1.3973  1.3343
13698SOL    HW242536   4.843   2.040   2.239  0.3032 -1.3549  0.5080
13699SOL     OW42537   4.697   2.851   1.903 -0.1491  0.5320 -0.0649
13699SOL    HW142538   4.669   2.921   1.962  1.0965  0.7559  0.2829
13699SOL    HW242539   4.621   2.793   1.897 -0.7819  1.2742  0.6031
13700SOL     OW42540   3.250   0.543   3.580  0.1869  0.4228  0.1397
13700SOL    HW142541   3.291   0.616   3.625 -1.7638  0.9926  1.0795
13700SOL    HW242542   3.233   0.576   3.492  1.5788  0.2123 -0.2320
13701SOL     OW42543   5.559   2.487   3.608 -0.5537  0.2007  0.7473
13701SOL    HW142544   5.583   2.577   3.629 -0.1135  0.2248  0.1539
13701SOL    HW242545   5.493   2.495   3.539  1.0138  0.0517 -0.8546
13702SOL     OW42546   2.782   2.734   4.834  0.3160 -0.2505 -0.3470
13702SOL    HW142547   2.740   2.755   4.917  0.0586 -1.7676 -0.0647
13702SOL    HW242548   2.876   2.735   4.852  0.3924  1.8956 -0.6712
13703SOL     OW42549   5.537   2.205   1.558 -0.2334  0.1977 -0.0317
13703SOL    HW142550   5.525   2.244   1.471 -1.2237 -0.8790 -0.4184
13703SOL    HW242551   5.601   2.135   1.544  1.3649  1.4892  0.6078
13704SOL     OW42552   3.986   2.342   2.412  0.0158 -0.4965  0.0180
13704SOL    HW142553   4.047   2.297   2.470  0.4152 -0.0465 -0.0456
13704SOL    HW242554   4.014   2.433   2.414 -2.4419  0.3486  2.3271
13705SOL     OW42555   4.740   2.586  12.254  0.1654  0.8332  0.4288
13705SOL    HW142556   4.768   2.677  12.265  0.3145  0.8700 -0.2275
13705SOL    HW242557   4.821   2.536  12.245  0.1569  0.3824  2.5068
13706SOL     OW42558   3.593   2.804   2.446 -0.2911 -0.4242  0.0318
13706SOL    HW142559   3.687   2.820   2.443 -0.5030  0.9818  0.4304
13706SOL    HW242560   3.560   2.837   2.363 -0.3240 -1.8473 -0.5512
13707SOL     OW42561   6.545   4.482   3.171  0.2598 -0.4708 -0.4988
13707SOL    HW142562   6.492   4.524   3.104  1.2206  1.1739 -0.2729
13707SOL    HW242563   6.481   4.437   3.227 -0.9674  1.5222 -0.1817
13708SOL     OW42564   6.228   5.269   2.510  0.3351 -0.1714 -0.1261
13708SOL    HW142565   6.204   5.316   2.430  0.1878  1.0462  0.6026
13708SOL    HW242566   6.146   5.262   2.559  0.6332  0.1503  0.4358
13709SOL     OW42567   4.316   2.346   2.652  0.1068  0.5487 -0.0804
13709SOL    HW142568   4.390   2.312   2.601  0.9058  2.2406 -0.1313
13709SOL    HW242569   4.357   2.378   2.733 -0.6242  1.1478  0.0570
13710SOL     OW42570   4.910   3.586   1.431  0.6603 -0.4584  0.0211
13710SOL    HW142571   4.857   3.506   1.431  2.3243 -1.6136 -0.1413
13710SOL    HW242572   4.911   3.615   1.339 -0.5301  0.1880  0.1934
13711SOL     OW42573   3.111   3.945   2.414 -0.1655  1.1563  0.3775
13711SOL    HW142574   3.127   4.024   2.466 -0.6067  1.7066 -0.2862
13711SOL    HW242575   3.095   3.876   2.478 -0.4588  1.7616  0.9682
13712SOL     OW42576   4.833   3.179   3.307 -0.2950 -0.1187 -0.2031
13712SOL    HW142577   4.859   3.087   3.296  0.9253  0.0144  1.2676
13712SOL    HW242578   4.738   3.176   3.321 -0.2914 -1.1287 -0.3405
13713SOL     OW42579   4.173   2.783   4.179  0.1338 -0.0274 -0.0599
13713SOL    HW142580   4.111   2.850   4.207  1.2705  1.6265 -1.2989
13713SOL    HW242581   4.250   2.795   4.235 -0.3892 -1.6824  1.0796
13714SOL     OW42582   3.099   3.445   2.861  0.1023 -0.1151  0.3798
13714SOL    HW142583   3.045   3.398   2.924  0.6722  0.6160  1.4503
13714SOL    HW242584   3.184   3.401   2.864  0.4774  0.6283  0.9960
13715SOL     OW42585   5.331   1.316   2.956  0.2866  0.3907  0.3364
13715SOL    HW142586   5.313   1.250   2.889  3.4313  0.5542 -0.8449
13715SOL    HW242587   5.304   1.399   2.915 -1.3512  0.1606  0.8587
13716SOL     OW42588   4.027   3.214   3.567  0.0594  0.4426 -0.2154
13716SOL    HW142589   3.967   3.289   3.566 -1.1706 -0.5126 -0.6055
13716SOL    HW242590   4.013   3.171   3.483 -0.8533 -1.4336  0.8359
13717SOL     OW42591   5.674   4.502   2.630 -0.0491  0.5798 -0.0066
13717SOL    HW142592   5.745   4.566   2.634 -1.0497  1.7099  0.2557
13717SOL    HW242593   5.594   4.555   2.625 -0.8775 -0.6575 -0.3363
13718SOL     OW42594   3.866   1.231   3.573  0.4358 -0.0884  0.2082
13718SOL    HW142595   3.900   1.159   3.518  2.2749 -0.9037  2.2744
13718SOL    HW242596   3.807   1.187   3.635  1.8904  0.0309  1.7539
13719SOL     OW42597   5.049   3.831   2.352 -0.0523 -0.2299  0.4629
13719SOL    HW142598   4.955   3.838   2.333  0.2939 -0.9674 -1.9407
13719SOL    HW242599   5.054   3.817   2.446 -2.3622 -0.3141  0.6247
13720SOL     OW42600   4.394   3.073   2.022 -0.1708 -0.3233  0.5116
13720SOL    HW142601   4.489   3.063   2.018  0.0803  1.9251 -1.7895
13720SOL    HW242602   4.381   3.149   2.079 -0.3847  0.8808 -1.0990
13721SOL     OW42603   4.669   3.111   2.054  0.1892 -0.4123 -0.3740
13721SOL    HW142604   4.667   3.189   2.110 -1.3864 -0.4234 -0.3804
13721SOL    HW242605   4.743   3.126   1.996 -1.6687  2.4625 -2.2880
13722SOL     OW42606   3.579   1.792   0.914  0.0215  0.2932 -0.7965
13722SOL    HW142607   3.610   1.727   0.977 -0.1667  2.6487  1.8888
13722SOL    HW242608   3.652   1.801   0.852  0.2372 -2.0281 -0.9926
13723SOL     OW42609   6.171   3.061   2.171  0.0146  0.0690 -0.1394
13723SOL    HW142610   6.170   3.153   2.145 -0.0756  0.1547  0.1568
13723SOL    HW242611   6.234   3.019   2.112  0.1779  0.3523 -0.1656
13724SOL     OW42612   4.705   2.917   3.731 -0.8708  0.1845  0.6121
13724SOL    HW142613   4.702   2.847   3.796  1.2664  1.7524  2.5894
13724SOL    HW242614   4.615   2.948   3.724 -1.7005 -2.1070  0.3510
13725SOL     OW42615   4.509   1.040   2.821 -0.2984 -0.7388 -0.8859
13725SOL    HW142616   4.422   1.055   2.860  0.2261  0.6610 -0.2023
13725SOL    HW242617   4.570   1.071   2.888  0.7880 -2.7527 -0.8875
13726SOL     OW42618   4.752   2.513   4.351 -0.5266 -0.0671  0.2621
13726SOL    HW142619   4.836   2.553   4.327 -0.8032  0.6295  0.4399
13726SOL    HW242620   4.772   2.419   4.360 -0.0951 -0.1473 -1.2218
13727SOL     OW42621   3.363   2.884   4.196  0.3556 -0.2266 -0.2739
13727SOL    HW142622   3.453   2.902   4.169 -0.0761  0.8651 -1.0780
13727SOL    HW242623   3.332   2.967   4.233 -1.1005  0.1973 -2.2910
13728SOL     OW42624   3.371   2.076   2.395 -0.2038  0.5067 -0.0389
13728SOL    HW142625   3.361   2.167   2.369  2.6357  0.9217  0.0295
13728SOL    HW242626   3.436   2.078   2.466 -0.6593 -1.4975  0.5027
13729SOL     OW42627   4.932   4.311   1.219  0.0655 -0.5007 -0.2809
13729SOL    HW142628   4.890   4.322   1.305  0.9928 -0.5824  0.1998
13729SOL    HW242629   4.917   4.393   1.174 -0.0569 -0.2897  0.1385
13730SOL     OW42630   2.764   0.500   1.799 -0.5009  0.1960 -0.3763
13730SOL    HW142631   2.722   0.521   1.715  0.7776  1.1247 -0.8126
13730SOL    HW242632   2.758   0.581   1.850 -0.8578 -0.2238  0.2626
13731SOL     OW42633   4.335   1.245   2.881 -0.4006 -0.1329 -0.0811
13731SOL    HW142634   4.408   1.274   2.937  0.2545 -0.6231 -0.6652
13731SOL    HW242635   4.258   1.287   2.919  0.2196  0.5967  0.4061
13732SOL     OW42636   2.521   2.409   3.017  0.4038  0.3070 -0.0054
13732SOL    HW142637   2.557   2.418   2.929 -2.7610 -3.1007 -1.9977
13732SOL    HW242638   2.568   2.334   3.055 -0.4485 -0.3612 -0.2269
13733SOL     OW42639   4.395   2.874   2.656  0.1023 -0.3480 -0.3080
13733SOL    HW142640   4.404   2.890   2.750 -2.4690 -1.1831  0.1532
13733SOL    HW242641   4.359   2.955   2.621 -1.3539 -0.8559 -0.0754
13734SOL     OW42642   3.391   2.042   1.292  0.0211  0.0508 -0.1644
13734SOL    HW142643   3.361   1.952   1.306  1.3280 -0.6971 -1.7649
13734SOL    HW242644   3.418   2.072   1.379 -1.4711 -0.6782  0.5901
13735SOL     OW42645   4.712   2.567   2.821 -0.0378 -0.2840  0.2071
13735SOL    HW142646   4.776   2.515   2.774 -0.9554  0.2802 -1.7559
13735SOL    HW242647   4.679   2.630   2.757 -0.0400  1.7751  2.0810
13736SOL     OW42648   3.130   2.958   4.064  0.6726  0.1481 -0.3893
13736SOL    HW142649   3.124   3.040   4.114  0.0096 -0.3657  0.4087
13736SOL    HW242650   3.187   2.902   4.117 -2.5416 -1.5707  1.6068
13737SOL     OW42651   5.437   2.277   1.045  0.0149  0.6392 -0.1101
13737SOL    HW142652   5.409   2.286   0.954 -0.5694  0.4363  0.0437
13737SOL    HW242653   5.462   2.185   1.054 -0.5724  0.4992  0.1086
13738SOL     OW42654   4.232   1.721   2.916  0.2420 -0.4581 -0.3346
13738SOL    HW142655   4.303   1.761   2.966  0.7290 -0.9914 -0.5924
13738SOL    HW242656   4.177   1.678   2.981 -0.2012  0.4722 -0.0665
13739SOL     OW42657   5.002   3.472   3.013  0.2376 -0.2617  0.7439
13739SOL    HW142658   5.007   3.441   3.104  2.8925 -0.7324  0.5113
13739SOL    HW242659   4.923   3.526   3.011  0.4108  0.2495  3.4863
13740SOL     OW42660   0.002   3.306   4.536 -0.2624 -0.0186 -0.0985
13740SOL    HW142661  -0.068   3.361   4.502  1.9079  2.6775 -0.5840
13740SOL    HW242662   0.020   3.341   4.624  0.9471 -0.1354 -0.2818
13741SOL     OW42663   5.751   0.397   1.869 -0.0670 -0.1189  0.2417
13741SOL    HW142664   5.710   0.317   1.839  1.0352 -0.2800 -0.9170
13741SOL    HW242665   5.686   0.438   1.926  0.4397 -3.3158  3.4645
13742SOL     OW42666   4.608   3.440   1.764  0.2810 -0.5209 -0.0839
13742SOL    HW142667   4.660   3.518   1.744 -1.3996  0.3013 -1.4878
13742SOL    HW242668   4.655   3.369   1.721 -0.9447  0.5830 -3.6464
13743SOL     OW42669   6.295   2.454   2.638 -0.9495  0.9149 -0.3912
13743SOL    HW142670   6.370   2.487   2.688  0.4675  1.1332 -2.5341
13743SOL    HW242671   6.262   2.531   2.591 -1.3750  0.4422 -0.8718
13744SOL     OW42672   6.226   1.531   2.789  0.2432 -0.1631 -0.3679
13744SOL    HW142673   6.217   1.624   2.768  0.8041  0.1784  0.8236
13744SOL    HW242674   6.270   1.529   2.874  1.9585 -1.5622 -1.2222
13745SOL     OW42675   3.830   2.072   2.255 -0.1327  0.3235 -0.3447
13745SOL    HW142676   3.903   2.133   2.254  0.5589 -0.4776  0.0442
13745SOL    HW242677   3.770   2.105   2.188 -0.3418  2.0789  0.6365
13746SOL     OW42678   5.896   5.010   3.267 -0.2222 -0.6717  0.0257
13746SOL    HW142679   5.916   4.916   3.266  1.1599 -0.4252  1.0327
13746SOL    HW242680   5.857   5.025   3.353 -2.4262 -0.6625 -0.9299
13747SOL     OW42681   5.658   4.199   3.347  0.0592  0.0336 -0.0514
13747SOL    HW142682   5.616   4.131   3.399  0.0911  0.5965  0.7384
13747SOL    HW242683   5.711   4.152   3.283 -1.2971 -0.6860 -0.6914
13748SOL     OW42684   6.890   4.188   3.007  0.3385 -0.3272 -0.2501
13748SOL    HW142685   6.823   4.128   2.974 -0.4072 -0.8534  1.9815
13748SOL    HW242686   6.857   4.275   2.987  0.2771 -0.6163 -1.4605
13749SOL     OW42687   4.789   4.238   1.765  0.6911 -0.0833  0.2944
13749SOL    HW142688   4.721   4.282   1.713  0.8041 -0.3558 -0.0974
13749SOL    HW242689   4.868   4.290   1.750  0.9313 -0.6654 -0.5393
13750SOL     OW42690   5.125   2.481   2.963  0.6882  0.4146  0.4277
13750SOL    HW142691   5.190   2.455   3.028 -0.3476 -2.0227  0.5664
13750SOL    HW242692   5.176   2.510   2.888  1.9164 -0.1396  1.0298
13751SOL     OW42693   2.643   2.335   4.390 -0.5329 -0.1321 -0.2659
13751SOL    HW142694   2.561   2.334   4.439 -0.3855 -0.5036 -0.0223
13751SOL    HW242695   2.711   2.321   4.456 -0.2179  0.8377 -0.3665
13752SOL     OW42696   5.726   1.073   4.248  0.4651 -0.2293  0.4114
13752SOL    HW142697   5.752   0.989   4.287  1.5725  0.3598  1.0070
13752SOL    HW242698   5.649   1.100   4.297 -1.4024 -1.9697 -1.3156
13753SOL     OW42699   4.236   3.757   2.065 -0.0452  0.5134  0.0673
13753SOL    HW142700   4.305   3.823   2.067  0.3248  0.2464 -1.9484
13753SOL    HW242701   4.192   3.771   1.981 -0.8376 -0.9302  0.2100
13754SOL     OW42702   3.264   2.362   0.740 -0.4149  0.2704  0.2978
13754SOL    HW142703   3.322   2.415   0.795 -1.0060  0.9929  0.2521
13754SOL    HW242704   3.262   2.276   0.783 -0.3333  0.6198  1.0314
13755SOL     OW42705   4.808   2.517   3.074 -0.6512 -0.1922  0.5079
13755SOL    HW142706   4.742   2.491   3.138 -0.3112  0.2465  1.0454
13755SOL    HW242707   4.760   2.525   2.991 -1.0488 -0.9896  0.6493
13756SOL     OW42708   4.512   2.201   2.471  0.2529  0.0366 -0.1658
13756SOL    HW142709   4.532   2.178   2.380 -1.5378  3.3695 -1.5458
13756SOL    HW242710   4.574   2.270   2.493  0.9486 -1.0057  1.3933
13757SOL     OW42711   4.426   2.310   1.160  0.0210  0.2809 -0.2230
13757SOL    HW142712   4.507   2.354   1.187 -1.2076  1.4390  1.7775
13757SOL    HW242713   4.387   2.370   1.096  0.7525 -0.3505 -1.3084
13758SOL     OW42714   3.931   1.704   3.221 -0.1453  0.0454  0.0159
13758SOL    HW142715   3.988   1.770   3.182  0.1967  0.2236  0.7873
13758SOL    HW242716   3.921   1.636   3.154 -0.0436  0.6113 -0.5738
13759SOL     OW42717   5.637   3.501   4.010 -0.3208  0.0966  0.3755
13759SOL    HW142718   5.580   3.508   4.087 -1.6227 -0.9851 -0.4393
13759SOL    HW242719   5.684   3.584   4.007  0.3545 -0.1395  2.7779
13760SOL     OW42720   6.068   1.283   1.820 -0.3099  0.4425 -0.2211
13760SOL    HW142721   6.122   1.360   1.842  1.2498 -0.3947 -0.9529
13760SOL    HW242722   6.036   1.251   1.904 -2.1428  2.6262  0.0405
13761SOL     OW42723   4.333   2.393   4.147 -0.1563 -0.3744 -0.3395
13761SOL    HW142724   4.393   2.468   4.146 -3.2623  2.3021 -0.7880
13761SOL    HW242725   4.274   2.411   4.220 -0.7955 -2.6165 -0.2432
13762SOL     OW42726   3.146   7.487   3.322  0.4664 -0.7233 -0.4812
13762SOL    HW142727   3.053   7.464   3.325  0.0826  0.7484 -0.4230
13762SOL    HW242728   3.191   7.409   3.355 -0.7981 -1.1401  0.3086
13763SOL     OW42729   6.080   2.819   3.502  0.2697  0.1316 -0.3294
13763SOL    HW142730   6.011   2.759   3.531 -1.6227  1.7394 -1.2720
13763SOL    HW242731   6.116   2.855   3.583  1.0660 -1.7906  0.2318
13764SOL     OW42732   3.934   2.349   3.175 -0.1752 -0.1152  0.4651
13764SOL    HW142733   3.870   2.365   3.244  0.3361  0.8420  0.7460
13764SOL    HW242734   3.975   2.435   3.161 -1.0343 -0.0235 -1.8022
13765SOL     OW42735   3.869   1.582   2.727 -0.0691  0.0892 -0.5767
13765SOL    HW142736   3.806   1.566   2.657  0.7399  2.4728 -1.9459
13765SOL    HW242737   3.828   1.648   2.782 -0.0933 -0.7266  0.4105
13766SOL     OW42738   4.906   3.197   2.953  0.5437  0.0968 -0.1225
13766SOL    HW142739   4.954   3.180   3.034 -0.8257 -1.1004  0.4754
13766SOL    HW242740   4.817   3.169   2.971 -0.5974  2.8050 -1.0026
13767SOL     OW42741   5.420   2.868   2.961 -0.0440 -0.1740  0.4861
13767SOL    HW142742   5.385   2.800   2.903  2.6264  0.1957 -1.8271
13767SOL    HW242743   5.459   2.820   3.034  0.0991 -0.9909 -0.1170
13768SOL     OW42744   4.259   2.520   4.402 -0.5671  0.4033  0.1965
13768SOL    HW142745   4.225   2.609   4.411  0.9957  1.0115  0.4474
13768SOL    HW242746   4.349   2.526   4.434  0.5708 -0.5726 -2.5040
13769SOL     OW42747   2.577   3.407   1.957 -0.4759  0.1162 -0.2975
13769SOL    HW142748   2.604   3.497   1.975  1.2763 -0.3598 -0.3724
13769SOL    HW242749   2.651   3.353   1.987 -1.8672 -1.3736  0.6340
13770SOL     OW42750   5.330   3.130   1.700  0.0569  0.9712  0.7236
13770SOL    HW142751   5.324   3.115   1.794  0.4812 -0.8810  0.4890
13770SOL    HW242752   5.424   3.126   1.681  0.2231  3.7019  0.5203
13771SOL     OW42753   3.090   1.132   4.177  0.5468  0.1321 -0.1008
13771SOL    HW142754   3.001   1.105   4.157  0.9147  0.0961 -1.8072
13771SOL    HW242755   3.097   1.220   4.141  1.2570  0.0702 -0.1249
13772SOL     OW42756   4.438   1.937   3.481  0.1234  0.1588  0.3903
13772SOL    HW142757   4.385   1.956   3.558  2.2257  0.0300  1.9404
13772SOL    HW242758   4.410   1.850   3.453 -1.1205  0.4795  0.5832
13773SOL     OW42759   6.234   2.202   2.493 -0.2310 -0.3412 -0.4401
13773SOL    HW142760   6.258   2.286   2.533  0.3379 -0.2621 -0.9255
13773SOL    HW242761   6.261   2.211   2.401 -1.1808 -0.6502 -0.7581
13774SOL     OW42762   5.405   3.477   2.810 -0.0237  0.2480  0.0569
13774SOL    HW142763   5.392   3.528   2.730  0.3793  0.4008  0.0870
13774SOL    HW242764   5.359   3.527   2.878  0.2454  0.4987  0.0580
13775SOL     OW42765   4.518   3.219   3.374 -0.1783 -0.6239  0.1184
13775SOL    HW142766   4.569   3.298   3.355  0.1754 -1.4435 -2.8042
13775SOL    HW242767   4.434   3.252   3.407  1.3907  0.7871  3.1640
13776SOL     OW42768   5.162   3.978   4.613 -0.2344 -0.5595  0.2687
13776SOL    HW142769   5.107   3.922   4.668  0.2943 -2.1569 -0.7737
13776SOL    HW242770   5.243   3.988   4.663 -1.0721  1.0349  1.3881
13777SOL     OW42771   5.272   1.792   2.900  0.1023 -0.0829 -0.5507
13777SOL    HW142772   5.203   1.850   2.867  0.3404  0.7052  0.3008
13777SOL    HW242773   5.297   1.830   2.984 -1.7767 -2.9896  1.5433
13778SOL     OW42774   3.854   2.369   0.879 -0.1815  0.3808 -0.1580
13778SOL    HW142775   3.869   2.438   0.814 -0.1976 -0.1343 -0.7153
13778SOL    HW242776   3.790   2.311   0.838 -0.6469  0.3783  0.5704
13779SOL     OW42777   4.470   3.066   3.741 -0.1240 -0.0971  0.0913
13779SOL    HW142778   4.456   3.146   3.692 -0.4690 -1.0252 -1.3808
13779SOL    HW242779   4.489   3.095   3.830  0.0318  1.6079 -0.4745
13780SOL     OW42780   2.549   3.259   1.029  0.3875  0.0213 -0.6639
13780SOL    HW142781   2.579   3.346   1.056  0.2274  0.5729 -2.1711
13780SOL    HW242782   2.516   3.219   1.109  0.7029  1.2473  0.1057
13781SOL     OW42783   3.748   2.567   3.192 -0.4608  0.0555 -0.5866
13781SOL    HW142784   3.710   2.603   3.272  1.7690  0.2540  0.4641
13781SOL    HW242785   3.764   2.643   3.137  0.6332  0.2945  0.0152
13782SOL     OW42786   4.941   1.384   4.328  0.2372  0.6436 -0.0177
13782SOL    HW142787   5.035   1.366   4.337  0.2924  0.2956 -1.1068
13782SOL    HW242788   4.916   1.422   4.412  1.2036  0.0923  0.5447
13783SOL     OW42789   5.966   2.402   3.518 -0.1154  0.5706 -0.4838
13783SOL    HW142790   6.057   2.400   3.547 -0.3518  0.8087  0.2991
13783SOL    HW242791   5.935   2.490   3.540 -0.9367  0.0436  0.5568
13784SOL     OW42792   3.357   2.849   2.989  0.0157 -0.1443  0.6053
13784SOL    HW142793   3.308   2.849   3.072 -1.0735  0.6617 -0.0013
13784SOL    HW242794   3.443   2.882   3.012 -0.8334  1.8303  1.1485
13785SOL     OW42795   5.521   3.801   3.791 -0.2083  0.3541  0.0895
13785SOL    HW142796   5.549   3.717   3.755 -0.7555  0.4825 -0.6781
13785SOL    HW242797   5.426   3.800   3.782 -0.1011  1.8481 -1.7930
13786SOL     OW42798   4.464   1.681   2.733  0.3299  0.3291 -0.3388
13786SOL    HW142799   4.477   1.756   2.675 -0.4723  0.5714 -0.2195
13786SOL    HW242800   4.370   1.684   2.755 -0.1438 -1.7861 -1.8169
13787SOL     OW42801   2.920   2.841   3.722  0.1848 -0.4863 -0.3809
13787SOL    HW142802   2.912   2.911   3.786  0.4724 -0.1695 -0.6825
13787SOL    HW242803   2.921   2.761   3.773  1.4610 -0.1856  0.0929
13788SOL     OW42804   3.312   2.976   3.443 -0.5461 -0.6275 -0.7930
13788SOL    HW142805   3.237   2.995   3.500 -0.7366 -2.6129 -0.3103
13788SOL    HW242806   3.276   2.977   3.355 -0.9963 -0.9537 -0.6119
13789SOL     OW42807   3.748   1.591   1.416  0.0716  1.2768  0.0054
13789SOL    HW142808   3.794   1.656   1.363 -0.0188  1.6435  0.3718
13789SOL    HW242809   3.656   1.616   1.409 -0.0515  0.7018 -0.5105
13790SOL     OW42810   5.458   4.085   1.853  0.2524 -0.2636 -0.2949
13790SOL    HW142811   5.516   4.120   1.921  1.1112 -2.9200  0.4601
13790SOL    HW242812   5.374   4.128   1.868  0.9122  0.5357  1.2974
13791SOL     OW42813   4.757   1.970   2.566  0.3235  1.0141 -0.0231
13791SOL    HW142814   4.668   2.002   2.578  0.2649  0.2942  1.8068
13791SOL    HW242815   4.773   1.977   2.472 -1.6222  1.2411 -0.3691
13792SOL     OW42816   3.653   2.317   1.418  0.0217  0.1013  0.3078
13792SOL    HW142817   3.585   2.286   1.478  0.9754  0.7320  1.7578
13792SOL    HW242818   3.625   2.285   1.332 -1.0042 -1.4490  1.1699
13793SOL     OW42819   3.715   2.136   2.788 -0.4605  0.0113 -0.0111
13793SOL    HW142820   3.699   2.080   2.712 -2.2650  0.7373 -0.2321
13793SOL    HW242821   3.755   2.215   2.751 -1.3400  0.3654 -0.2385
13794SOL     OW42822   6.222   0.942   3.233  0.6299 -0.1539  0.3239
13794SOL    HW142823   6.172   0.898   3.301 -1.7092 -0.7902 -1.6657
13794SOL    HW242824   6.172   0.928   3.153  0.2491  5.0501 -0.7502
13795SOL     OW42825   3.603   3.019   1.846  0.4051 -0.1719 -0.1106
13795SOL    HW142826   3.510   2.998   1.835  0.4785 -0.6986  0.2255
13795SOL    HW242827   3.648   2.959   1.786  0.4812  0.7442 -0.9984
13796SOL     OW42828   6.099   2.860   2.334  0.5688  0.0697  0.5784
13796SOL    HW142829   6.097   2.928   2.266 -0.1837 -1.0720 -0.5822
13796SOL    HW242830   6.028   2.885   2.394  1.3054  1.1410  1.0494
13797SOL     OW42831   5.830   4.618   2.359  0.1802  0.3551  0.1830
13797SOL    HW142832   5.848   4.590   2.449 -0.5682  2.1885  0.9604
13797SOL    HW242833   5.885   4.695   2.347 -0.8729  1.0491 -0.3588
13798SOL     OW42834   5.291   2.125   2.786 -0.6579 -0.9164 -0.2700
13798SOL    HW142835   5.262   2.208   2.823 -0.3042 -1.1970  0.6633
13798SOL    HW242836   5.213   2.087   2.748 -0.6804  0.1764 -1.3773
13799SOL     OW42837   4.733   4.917   2.412  0.8173 -0.3103  0.0143
13799SOL    HW142838   4.751   4.827   2.387  2.5309  0.7666 -3.1482
13799SOL    HW242839   4.658   4.943   2.359 -0.4234 -0.1527  1.7637
13800SOL     OW42840   4.961   3.880   1.832 -0.6813 -0.2846  0.4417
13800SOL    HW142841   5.019   3.872   1.908  0.7277  0.1114 -0.5587
13800SOL    HW242842   4.949   3.789   1.803 -1.6051 -0.4834  1.3857
13801SOL     OW42843   5.421   4.153   2.622 -0.1572 -0.6322  0.1987
13801SOL    HW142844   5.422   4.123   2.713 -1.1415 -1.4845 -0.0555
13801SOL    HW242845   5.514   4.157   2.598  0.2340  1.5202  1.8177
13802SOL     OW42846   3.729   3.436   2.016 -0.0868 -0.3770 -0.1468
13802SOL    HW142847   3.746   3.502   1.948  0.6812  0.1521  0.5444
13802SOL    HW242848   3.811   3.388   2.024 -0.0353 -0.1504  0.7081
13803SOL     OW42849   5.544   4.434   3.479  0.2144 -0.0322  0.5345
13803SOL    HW142850   5.517   4.393   3.561  1.5187  1.7807  1.9770
13803SOL    HW242851   5.596   4.368   3.435  1.3080 -0.3650  2.2238
13804SOL     OW42852   5.440   1.712   1.845  1.3647  0.2608 -0.9494
13804SOL    HW142853   5.361   1.753   1.809  0.8664 -1.1493 -1.5560
13804SOL    HW242854   5.450   1.632   1.794  3.1589  0.3650 -0.8212
13805SOL     OW42855   4.627   2.441   3.269  0.1828  0.2025 -0.5125
13805SOL    HW142856   4.576   2.360   3.261 -0.5799  0.8463 -2.6170
13805SOL    HW242857   4.674   2.431   3.352 -0.7650 -1.8899 -0.1660
13806SOL     OW42858   3.376   1.569   0.090 -0.9112  0.4787 -0.4352
13806SOL    HW142859   3.470   1.583   0.092 -1.1878  2.8460  1.6328
13806SOL    HW242860   3.340   1.654   0.061 -2.4563  0.8112  2.1070
13807SOL     OW42861   5.751   3.557   2.133 -0.2255 -0.2680  0.4579
13807SOL    HW142862   5.685   3.604   2.081  0.6257 -0.7406 -1.1190
13807SOL    HW242863   5.704   3.482   2.169 -0.6492 -0.4125 -0.3624
13808SOL     OW42864   3.705   2.377   1.870  0.7099  0.9893 -0.5876
13808SOL    HW142865   3.669   2.448   1.817 -0.0883  0.1820 -1.1527
13808SOL    HW242866   3.783   2.349   1.823  0.7663  1.1817 -0.6095
13809SOL     OW42867   4.981   2.147   1.912 -0.9708  0.0842  0.2174
13809SOL    HW142868   5.040   2.073   1.925  0.2545  0.3475 -2.9740
13809SOL    HW242869   5.027   2.222   1.951  1.4931  0.4719 -3.0128
13810SOL     OW42870   4.130   2.016   2.179  0.2884 -0.2462  0.2905
13810SOL    HW142871   4.218   1.993   2.150  1.0335  1.7709  0.8367
13810SOL    HW242872   4.116   1.965   2.258  1.6619  0.6822  1.1564
13811SOL     OW42873   5.852   4.077   3.828  0.0602  0.1896 -0.5287
13811SOL    HW142874   5.800   4.139   3.778 -0.7423  1.3850  1.6357
13811SOL    HW242875   5.787   4.028   3.879  0.9080  0.6164  1.0248
13812SOL     OW42876   7.013   0.751   2.032  0.0255 -0.1108  0.1421
13812SOL    HW142877   7.036   0.844   2.037 -0.8197  0.1691 -0.8929
13812SOL    HW242878   6.944   0.740   2.097  1.4832 -0.4790  1.6961
13813SOL     OW42879   4.427   2.250   3.302 -0.9862 -0.4097 -0.8104
13813SOL    HW142880   4.463   2.162   3.289 -0.6863 -0.3623 -0.3417
13813SOL    HW242881   4.359   2.238   3.368  0.8828  0.1001  1.3504
13814SOL     OW42882   4.920   4.263   2.678  0.2097  0.6547 -0.2194
13814SOL    HW142883   4.992   4.235   2.621 -0.9053 -1.4110 -0.7384
13814SOL    HW242884   4.923   4.358   2.676  2.5767  0.6324 -0.6433
13815SOL     OW42885   5.187   3.285   4.156  0.2635  0.2710 -0.3311
13815SOL    HW142886   5.184   3.204   4.207 -0.0898  1.6303  1.9767
13815SOL    HW242887   5.163   3.353   4.219 -2.6049  1.8744 -2.8866
13816SOL     OW42888   3.834   3.712   2.561 -0.6448  0.1386  0.2193
13816SOL    HW142889   3.912   3.735   2.612 -0.6976  0.6882  0.0537
13816SOL    HW242890   3.789   3.795   2.546 -1.2282 -0.1610  0.2482
13817SOL     OW42891   3.512   3.209   3.287  0.2326 -0.2538  0.1362
13817SOL    HW142892   3.544   3.120   3.271 -1.8247 -0.7673 -1.5586
13817SOL    HW242893   3.456   3.200   3.364  1.9246  0.1259  1.4750
13818SOL     OW42894   3.752   1.293   2.758  0.2338 -0.2611 -0.2175
13818SOL    HW142895   3.712   1.226   2.702 -1.8994 -0.7045  1.6927
13818SOL    HW242896   3.682   1.354   2.777  1.4327  0.9926  0.3580
13819SOL     OW42897   1.305   3.847   0.649 -0.3805 -0.3916  0.0373
13819SOL    HW142898   1.210   3.847   0.661 -0.5570 -0.7300 -1.2327
13819SOL    HW242899   1.318   3.863   0.555  0.7714 -1.6783 -0.0556
13820SOL     OW42900   6.722   2.599   4.009  0.0015 -0.2413  0.0544
13820SOL    HW142901   6.662   2.528   3.988 -0.7494  0.2524  0.5022
13820SOL    HW242902   6.747   2.584   4.100 -0.4404  0.2660  0.2628
13821SOL     OW42903   3.059   2.376   2.689 -0.3012  0.0281 -0.1408
13821SOL    HW142904   2.974   2.333   2.680 -0.7753  0.4928  1.6767
13821SOL    HW242905   3.040   2.469   2.677  0.0427  0.0899 -0.2158
13822SOL     OW42906   5.643   3.892   2.145 -0.7155  0.0567 -0.0586
13822SOL    HW142907   5.675   3.840   2.219 -3.4463 -1.2239  0.3668
13822SOL    HW242908   5.585   3.957   2.185 -1.4109  0.0215 -0.9742
13823SOL     OW42909   3.194   2.770   3.734 -0.2374 -0.4884 -0.3610
13823SOL    HW142910   3.238   2.841   3.780 -0.3478 -0.3269 -0.5027
13823SOL    HW242911   3.114   2.810   3.699 -1.1378 -1.0810  0.9538
13824SOL     OW42912   4.170   4.629   2.418  0.2466 -0.1153 -0.1649
13824SOL    HW142913   4.236   4.692   2.449 -0.4429 -0.0904  1.3501
13824SOL    HW242914   4.218   4.547   2.408  1.0342  0.4820 -1.6077
13825SOL     OW42915   5.423   5.210   4.249  0.2425  0.2962 -0.0137
13825SOL    HW142916   5.492   5.244   4.192  1.4788 -1.4927  0.3171
13825SOL    HW242917   5.460   5.211   4.337 -0.4208 -0.0088  0.2848
13826SOL     OW42918   5.495   3.768   3.246  0.2277 -0.1827 -0.7967
13826SOL    HW142919   5.440   3.690   3.243  0.4117 -0.3091 -0.8827
13826SOL    HW242920   5.530   3.770   3.334  1.3987 -1.0113 -1.2266
13827SOL     OW42921   5.101   2.156   0.562  0.5265 -0.1343 -0.0722
13827SOL    HW142922   5.109   2.085   0.625 -1.3995 -0.3170  0.0341
13827SOL    HW242923   5.031   2.127   0.503  0.9744  0.8814 -1.1427
13828SOL     OW42924   3.576   2.652   2.677  0.3990 -0.1080  0.5064
13828SOL    HW142925   3.671   2.665   2.682  0.1662  2.3126  0.1918
13828SOL    HW242926   3.552   2.682   2.589 -0.8570  1.4275  1.2996
13829SOL     OW42927   5.385   2.802   4.506  0.2559 -0.1232  0.3733
13829SOL    HW142928   5.411   2.710   4.514 -0.0851 -0.3628 -0.9279
13829SOL    HW242929   5.290   2.799   4.495  0.2240  0.3961  0.4746
13830SOL     OW42930   5.643   2.264   3.826 -0.2662 -0.0651  0.5614
13830SOL    HW142931   5.665   2.316   3.903  0.1056 -0.9435  1.0645
13830SOL    HW242932   5.628   2.329   3.757  0.8786  0.6931  0.9839
13831SOL     OW42933   4.215   3.375   1.254  0.0991  0.7567  0.2502
13831SOL    HW142934   4.161   3.317   1.307  0.3077 -0.8638 -1.1994
13831SOL    HW242935   4.156   3.407   1.186  0.4669  0.5575 -0.1745
13832SOL     OW42936   4.942   2.507   2.607  0.1093  0.0505  0.1991
13832SOL    HW142937   4.931   2.573   2.539 -0.5962 -0.2919 -0.0232
13832SOL    HW242938   5.015   2.453   2.576 -0.0182  0.0725 -0.1413
13833SOL     OW42939   4.791   2.753   0.698 -0.0058  0.0827  0.3556
13833SOL    HW142940   4.858   2.726   0.761  1.4859 -0.4166 -1.3595
13833SOL    HW242941   4.777   2.675   0.644 -0.4290  0.8330 -0.6339
13834SOL     OW42942   6.022   4.491   3.662 -0.0783 -0.0123  0.1022
13834SOL    HW142943   5.971   4.493   3.581 -1.6742 -0.6434  1.0606
13834SOL    HW242944   6.112   4.512   3.633 -0.6793  0.2615 -1.7426
13835SOL     OW42945   4.605   2.683   3.849 -0.1953  0.1020  0.2805
13835SOL    HW142946   4.660   2.613   3.885  1.8459  0.5231 -1.8216
13835SOL    HW242947   4.535   2.637   3.803 -0.7211 -0.4667  1.5917
13836SOL     OW42948   4.612   2.896   4.058  0.2520 -1.0840  0.5477
13836SOL    HW142949   4.583   2.818   4.012  0.4734 -0.1383 -1.2744
13836SOL    HW242950   4.558   2.967   4.023  2.0231  0.0472 -0.0055
13837SOL     OW42951   2.982   1.433   1.786  0.4044  0.0602 -0.2567
13837SOL    HW142952   2.923   1.505   1.761 -0.1335  0.1675  1.2335
13837SOL    HW242953   3.070   1.469   1.774  0.1738  0.2560 -1.4858
13838SOL     OW42954   4.911   3.511   3.558  0.2275 -0.2311 -0.9372
13838SOL    HW142955   4.914   3.598   3.596  1.6358 -0.2569 -0.9265
13838SOL    HW242956   4.854   3.461   3.616 -0.2344  0.5554 -0.6987
13839SOL     OW42957   5.190   1.632   3.786 -0.1209  0.0843  0.7224
13839SOL    HW142958   5.221   1.649   3.876 -1.0517  0.7946  0.9234
13839SOL    HW242959   5.095   1.631   3.793 -0.2762  1.8474 -0.5269
13840SOL     OW42960   5.273   3.327   2.065  0.3047 -0.4498 -0.2987
13840SOL    HW142961   5.302   3.401   2.012 -0.5872  0.0613 -0.1042
13840SOL    HW242962   5.189   3.356   2.102  0.6897 -0.9597  1.0239
13841SOL     OW42963   4.874   1.935   3.439 -0.1516  0.0128 -0.0258
13841SOL    HW142964   4.947   1.976   3.484  0.5764 -1.4905  0.2279
13841SOL    HW242965   4.899   1.935   3.347  0.9067 -1.8319  0.2132
13842SOL     OW42966   5.684   1.928   3.492 -0.0138  0.4493 -0.2165
13842SOL    HW142967   5.605   1.894   3.535  0.6192 -1.3308 -0.4077
13842SOL    HW242968   5.733   1.970   3.562  0.5343 -1.5631  0.6635
13843SOL     OW42969   2.717   1.546   2.216  0.4285  0.3091  0.3247
13843SOL    HW142970   2.665   1.474   2.179  1.1434  0.0234 -0.1411
13843SOL    HW242971   2.807   1.526   2.190  0.7217  1.0090  0.7887
13844SOL     OW42972   6.235   3.555   0.985 -0.3704 -0.1499  0.7038
13844SOL    HW142973   6.164   3.495   1.007  0.0240 -0.5840  0.8242
13844SOL    HW242974   6.251   3.539   0.892  0.6613 -1.2640  1.0388
13845SOL     OW42975   5.074   0.782   2.587 -0.2334  0.3558  0.5175
13845SOL    HW142976   4.984   0.813   2.582 -0.9326 -1.7876 -1.5663
13845SOL    HW242977   5.123   0.844   2.533 -0.7670  0.5227  0.2152
13846SOL     OW42978   3.876   2.361   3.929  0.1568 -0.2344 -0.1655
13846SOL    HW142979   3.825   2.314   3.995  1.0436 -1.1503 -0.1015
13846SOL    HW242980   3.873   2.453   3.956  1.4853 -0.7263  1.8419
13847SOL     OW42981   5.610   3.527   0.660  0.3585  0.0469  0.1344
13847SOL    HW142982   5.544   3.526   0.729  0.4397 -1.3520  0.2282
13847SOL    HW242983   5.664   3.449   0.677  0.6884 -0.0413 -1.1976
13848SOL     OW42984   4.044   4.531   3.065 -0.2520 -0.1808  0.5283
13848SOL    HW142985   4.112   4.594   3.089 -0.9999  0.4461  1.0307
13848SOL    HW242986   4.059   4.456   3.122  0.9806 -0.7194 -0.4421
13849SOL     OW42987   5.518   2.260   4.416 -0.4243  0.0505  0.4301
13849SOL    HW142988   5.492   2.338   4.465  0.0468  1.2475 -1.1717
13849SOL    HW242989   5.474   2.188   4.462 -1.2118  1.2781  1.6902
13850SOL     OW42990   5.615   3.244   4.658  0.1714 -0.2440 -0.3383
13850SOL    HW142991   5.704   3.231   4.626  0.2435 -1.5754  0.3418
13850SOL    HW242992   5.581   3.155   4.670 -1.2204  0.2469 -0.5056
13851SOL     OW42993   3.232   2.346   5.262  0.3554  0.0779 -0.0678
13851SOL    HW142994   3.216   2.311   5.175 -0.7705 -0.6936  0.4094
13851SOL    HW242995   3.250   2.439   5.249 -1.9439  0.4514 -0.9709
13852SOL     OW42996   4.640   3.830   5.936  0.5055  0.1085 -0.2202
13852SOL    HW142997   4.564   3.812   5.880  1.0226 -0.2643 -0.8221
13852SOL    HW242998   4.704   3.764   5.909  0.7325 -0.1300  0.8850
13853SOL     OW42999   6.888   3.816   3.782  0.4645 -0.1256  0.1475
13853SOL    HW143000   6.816   3.879   3.773  1.4455  1.0718  0.3389
13853SOL    HW243001   6.894   3.799   3.876  1.6032  1.2559  0.3626
13854SOL     OW43002   4.024   2.369   4.192 -0.0120 -0.8613 -0.6025
13854SOL    HW143003   4.041   2.381   4.099  1.7526  0.3646 -0.1544
13854SOL    HW243004   3.973   2.446   4.218  2.3247  0.5325  0.0846
13855SOL     OW43005   4.294   3.323   3.491  0.9966 -0.3057 -0.1627
13855SOL    HW143006   4.299   3.418   3.500  3.8346 -0.2746 -1.1797
13855SOL    HW243007   4.213   3.299   3.537  1.3717  2.3431  2.1503
13856SOL     OW43008   3.516   2.742   4.964  0.4163  0.5501  0.0865
13856SOL    HW143009   3.442   2.683   4.949  1.2904 -0.5650  0.0461
13856SOL    HW243010   3.477   2.830   4.968 -0.8709  0.0008 -0.1349
13857SOL     OW43011   5.982   4.507   4.873 -0.2085 -0.0123 -0.2755
13857SOL    HW143012   5.893   4.541   4.885 -0.1000  0.5089 -0.9029
13857SOL    HW243013   6.014   4.492   4.962 -0.3556  1.3185  0.0222
13858SOL     OW43014   3.899   1.975   5.060  0.0510  0.3478 -0.3359
13858SOL    HW143015   3.912   2.034   5.134 -1.4399  0.0603  0.2043
13858SOL    HW243016   3.889   2.034   4.985  1.0081  0.6677 -0.2198
13859SOL     OW43017   3.712   2.816   4.302 -0.1004 -0.0388  0.6956
13859SOL    HW143018   3.675   2.858   4.224 -1.3280 -0.8274  0.8263
13859SOL    HW243019   3.772   2.882   4.338 -0.0625  0.6131 -0.4969
13860SOL     OW43020   4.947   4.520   4.519 -0.3789 -0.0395  0.0472
13860SOL    HW143021   4.954   4.610   4.552 -0.0624 -0.1489  0.2832
13860SOL    HW243022   5.038   4.493   4.505 -0.4770 -0.3083 -0.0610
13861SOL     OW43023   5.467   2.595   5.639 -0.8132  0.0516  1.1060
13861SOL    HW143024   5.400   2.599   5.707 -0.4164  0.8449  1.4607
13861SOL    HW243025   5.444   2.665   5.578  0.5138  1.3566  2.0261
13862SOL     OW43026   4.652   2.175   4.921 -0.0407  0.2243 -0.2333
13862SOL    HW143027   4.720   2.135   4.975  0.4185  1.3981  0.0869
13862SOL    HW243028   4.693   2.186   4.835 -0.4935 -0.8644 -0.6090
13863SOL     OW43029   4.921   3.494   5.565 -0.2925 -0.0485  0.6031
13863SOL    HW143030   4.869   3.573   5.549  2.8404  1.8838 -1.2953
13863SOL    HW243031   4.950   3.503   5.656  0.3517  1.3019  0.2958
13864SOL     OW43032   2.751   3.960   4.648 -0.4967 -0.4241 -0.2659
13864SOL    HW143033   2.793   3.923   4.726  1.5923  0.6634 -0.7931
13864SOL    HW243034   2.705   3.887   4.608  0.5039 -1.5942  0.6400
13865SOL     OW43035   4.157   3.451   4.587 -0.2550 -0.0673  0.2507
13865SOL    HW143036   4.096   3.381   4.566 -1.4806  1.4266 -1.5476
13865SOL    HW243037   4.112   3.502   4.654 -0.0946 -0.0724  0.3631
13866SOL     OW43038   3.919   2.992   3.684  0.1957  0.3963  0.0374
13866SOL    HW143039   3.962   3.073   3.658  1.3884 -0.1975  0.0704
13866SOL    HW243040   3.922   2.937   3.606  2.0850 -0.6907  0.7926
13867SOL     OW43041   6.543   0.758   3.583 -0.1421 -0.4893  0.2539
13867SOL    HW143042   6.447   0.755   3.592 -0.3338  3.3456  1.3792
13867SOL    HW243043   6.559   0.741   3.490 -2.0828  0.1307 -0.2505
13868SOL     OW43044   4.341   1.378   4.185  0.5732 -0.1080 -0.7240
13868SOL    HW143045   4.327   1.454   4.241  0.3101 -0.0803 -0.8224
13868SOL    HW243046   4.325   1.411   4.096  0.9642 -0.1558 -0.8105
13869SOL     OW43047   6.012   3.846   3.735  0.0269  0.6486  0.0873
13869SOL    HW143048   5.985   3.929   3.774 -2.1797  0.4400 -0.8780
13869SOL    HW243049   5.966   3.843   3.651 -0.3968 -1.8274  0.3522
13870SOL     OW43050   5.131   2.707   3.660 -0.2721 -0.5200 -0.7601
13870SOL    HW143051   5.100   2.640   3.721  1.8102  0.3275  1.3877
13870SOL    HW243052   5.089   2.788   3.690 -0.2635 -0.3093 -1.3081
13871SOL     OW43053   6.531   3.305   4.159  0.1847  0.3035  0.2173
13871SOL    HW143054   6.595   3.236   4.174  0.5292  0.6978  0.6196
13871SOL    HW243055   6.446   3.264   4.177  0.2225 -0.4986 -1.2892
13872SOL     OW43056   3.861   2.381   5.065 -0.2777 -0.1662  0.5019
13872SOL    HW143057   3.854   2.456   5.124 -0.2413  0.2964 -0.0825
13872SOL    HW243058   3.889   2.418   4.982 -0.5669 -0.7916  0.1245
13873SOL     OW43059   5.863   3.045   4.533  0.0746  0.3295  0.2974
13873SOL    HW143060   5.775   3.027   4.501  0.3987 -0.2942 -0.2735
13873SOL    HW243061   5.897   2.959   4.558 -0.2330  0.8173  2.5425
13874SOL     OW43062   3.086   2.731   4.779 -0.4612 -0.1320 -0.1584
13874SOL    HW143063   3.169   2.778   4.771 -0.5079 -0.0721 -0.2965
13874SOL    HW243064   3.111   2.642   4.805 -0.4716  0.4535  2.0107
13875SOL     OW43065   3.322   4.012   4.752 -0.0709  0.5575 -0.0519
13875SOL    HW143066   3.398   3.982   4.802  1.2664 -0.9777 -2.8133
13875SOL    HW243067   3.247   3.979   4.802  1.1868 -1.1928  0.7811
13876SOL     OW43068   6.038   2.912   4.195  0.3110 -0.0844  0.1922
13876SOL    HW143069   5.970   2.966   4.156 -1.5635 -1.5682  1.1981
13876SOL    HW243070   5.992   2.860   4.261  2.4038 -1.3279  0.7754
13877SOL     OW43071   4.571   4.354   6.300 -0.2033  0.3247  0.5810
13877SOL    HW143072   4.614   4.374   6.217 -0.8111 -0.6278  0.0136
13877SOL    HW243073   4.630   4.389   6.367  1.2338 -0.5544 -0.1857
13878SOL     OW43074   5.633   2.813   6.287 -0.1158  0.4150  0.1443
13878SOL    HW143075   5.586   2.777   6.212 -1.6185  1.6191  0.4500
13878SOL    HW243076   5.647   2.905   6.264 -0.8659  0.8767  1.4281
13879SOL     OW43077   5.446   2.194   6.302 -0.3092 -0.0263 -0.1296
13879SOL    HW143078   5.410   2.240   6.226 -1.5869  0.8095  0.9490
13879SOL    HW243079   5.399   2.111   6.304 -1.0280  0.3872  0.3395
13880SOL     OW43080   5.210   3.536   6.026 -0.3956  0.9881  0.0274
13880SOL    HW143081   5.126   3.536   5.981  1.2327  2.1367 -3.3383
13880SOL    HW243082   5.259   3.465   5.985  0.8475  1.4233  0.7062
13881SOL     OW43083   2.761   3.696   4.609  0.2261  0.6320 -0.1178
13881SOL    HW143084   2.824   3.703   4.537  0.7108  0.0212  0.2384
13881SOL    HW243085   2.806   3.735   4.684  0.2588  0.0276  0.1825
13882SOL     OW43086   5.204   3.072   4.341  0.8185 -0.1226 -0.5772
13882SOL    HW143087   5.142   3.045   4.408  1.6841  1.1219  0.7647
13882SOL    HW243088   5.242   2.990   4.308 -1.4884 -0.9196 -1.4597
13883SOL     OW43089   6.821   3.625   5.542 -0.1141  0.8314 -0.5087
13883SOL    HW143090   6.728   3.649   5.541  0.1542  1.9443 -1.1364
13883SOL    HW243091   6.848   3.637   5.633 -0.6472  0.2500 -0.2740
13884SOL     OW43092   2.538   2.015   4.772  0.2508  0.4062  0.0252
13884SOL    HW143093   2.478   1.954   4.730 -1.5750  2.1579 -0.0536
13884SOL    HW243094   2.525   2.098   4.725  0.5468  1.5924  1.9385
13885SOL     OW43095   4.286   2.364   6.586 -0.0342 -0.0985 -0.1060
13885SOL    HW143096   4.338   2.286   6.604 -1.8078 -1.2661  0.2952
13885SOL    HW243097   4.300   2.421   6.661  3.5780  1.4192 -1.6876
13886SOL     OW43098   3.258   2.029   4.627 -0.3703 -0.0065 -0.0232
13886SOL    HW143099   3.216   1.943   4.632 -2.9267  1.2038  1.4242
13886SOL    HW243100   3.335   2.022   4.683 -0.0373 -1.5746 -0.6393
13887SOL     OW43101   5.944   2.221   6.825  0.2024  0.3272 -0.9272
13887SOL    HW143102   5.964   2.294   6.885  4.2530 -2.4522  1.6146
13887SOL    HW243103   5.997   2.239   6.747  1.9863 -0.2044  0.0942
13888SOL     OW43104   3.954   0.942   2.898  0.5800  0.3414 -0.4811
13888SOL    HW143105   3.882   1.002   2.917 -0.7311 -1.0216 -0.9431
13888SOL    HW243106   4.013   0.992   2.842 -0.5842  1.1209 -1.0509
13889SOL     OW43107   4.785   3.117   4.735  0.2984 -0.2099 -0.3084
13889SOL    HW143108   4.695   3.099   4.709 -0.1292  0.2197  0.8376
13889SOL    HW243109   4.794   3.212   4.726  0.1607 -0.0564  0.9841
13890SOL     OW43110   4.610   3.672   5.339  0.1754  0.4863  0.0985
13890SOL    HW143111   4.521   3.640   5.327 -0.2818  0.9882  1.9024
13890SOL    HW243112   4.600   3.752   5.391  1.5669  1.5331 -1.1427
13891SOL     OW43113   4.976   1.662   2.897 -0.2768 -0.2174 -0.5988
13891SOL    HW143114   4.923   1.618   2.831 -0.4848 -0.6110 -0.1790
13891SOL    HW243115   4.994   1.748   2.861 -0.4568 -0.4024 -1.1304
13892SOL     OW43116   4.866   2.090   5.448  0.4131  1.0715 -0.3728
13892SOL    HW143117   4.908   2.021   5.396  0.2212  0.4615  0.2621
13892SOL    HW243118   4.899   2.075   5.537 -0.4326  1.1559 -0.0404
13893SOL     OW43119   4.973   5.085   3.365  0.1704 -0.4858 -0.5469
13893SOL    HW143120   4.950   5.072   3.273  0.4035 -2.2138 -0.3916
13893SOL    HW243121   5.040   5.153   3.363 -0.7960  0.4752 -1.5167
13894SOL     OW43122   5.139   2.860   5.399 -0.6163  0.6748 -0.3107
13894SOL    HW143123   5.079   2.812   5.456 -0.2592  0.6858  0.0777
13894SOL    HW243124   5.089   2.938   5.373 -0.7144  0.7556  0.1252
13895SOL     OW43125   4.217   3.186   4.938 -0.4111  0.0507 -0.4273
13895SOL    HW143126   4.219   3.276   4.973  2.1025 -0.0010 -0.2299
13895SOL    HW243127   4.259   3.193   4.852  0.4671 -1.0088 -0.1080
13896SOL     OW43128   0.204   3.879   6.690 -0.5725 -0.5788  0.0392
13896SOL    HW143129   0.197   3.793   6.733 -1.6637 -0.5513 -0.0555
13896SOL    HW243130   0.286   3.874   6.640  0.3748 -0.8603  1.5426
13897SOL     OW43131   4.461   3.504   5.090  0.3914 -0.3538 -0.3128
13897SOL    HW143132   4.436   3.500   5.182 -0.5273 -0.9440 -0.5795
13897SOL    HW243133   4.490   3.594   5.077 -1.1923  0.2567  0.1370
13898SOL     OW43134   2.960   2.697   4.492 -0.1841 -0.4672  0.4758
13898SOL    HW143135   3.019   2.639   4.541 -0.1637 -2.5201 -1.8259
13898SOL    HW243136   3.013   2.775   4.475  0.6716 -0.8127  1.4189
13899SOL     OW43137   5.285   1.845   5.364 -0.1452  0.1421 -0.2992
13899SOL    HW143138   5.328   1.798   5.293 -1.4110  0.7692 -1.5193
13899SOL    HW243139   5.284   1.782   5.437  0.7388 -0.6771 -0.9648
13900SOL     OW43140   5.002   3.290   5.414  0.2683  0.3663 -0.0757
13900SOL    HW143141   4.987   3.333   5.330 -3.9446 -1.1853 -0.3772
13900SOL    HW243142   4.970   3.353   5.479  0.1818  0.2262  0.0200
13901SOL     OW43143   5.287   4.742   4.525 -0.1127 -0.1766 -0.1117
13901SOL    HW143144   5.229   4.815   4.545  0.9315  0.8087 -0.5484
13901SOL    HW243145   5.369   4.765   4.568  0.4395 -0.7596 -0.8268
13902SOL     OW43146   3.284   2.628   5.282  0.2130  0.2224  0.4551
13902SOL    HW143147   3.267   2.672   5.198  0.5467 -0.1436  0.1919
13902SOL    HW243148   3.369   2.585   5.269 -0.5715 -1.3519  0.3559
13903SOL     OW43149   0.095   3.509   2.445 -0.0037  0.1524  0.5100
13903SOL    HW143150   0.117   3.458   2.523 -2.0969  0.3099  1.2704
13903SOL    HW243151   0.034   3.453   2.397 -2.8630  2.0393  1.6763
13904SOL     OW43152   5.386   2.857   4.243  0.1026 -0.1067  0.2097
13904SOL    HW143153   5.409   2.839   4.334  0.4384  0.3608  0.2176
13904SOL    HW243154   5.404   2.775   4.197 -0.6807 -0.5599  0.6710
13905SOL     OW43155   3.830   4.193   4.363 -0.0002  0.2596 -0.2930
13905SOL    HW143156   3.894   4.259   4.336 -0.3644  0.3197 -1.0187
13905SOL    HW243157   3.846   4.119   4.304 -0.1371  0.0083 -0.0159
13906SOL     OW43158   5.432   1.802   4.184 -0.2774 -0.2886 -0.0970
13906SOL    HW143159   5.495   1.871   4.165 -1.5218  1.8951  2.9108
13906SOL    HW243160   5.459   1.767   4.268 -1.2290 -1.6257 -0.3146
13907SOL     OW43161   5.956   7.925   4.331 -0.2335  0.6119 -0.2224
13907SOL    HW143162   5.862   7.914   4.340 -0.4737  1.6972 -1.1876
13907SOL    HW243163   5.990   7.836   4.321 -1.3545  0.3118 -1.6236
13908SOL     OW43164   5.306   2.998   4.028  0.3724  0.2719 -0.0039
13908SOL    HW143165   5.303   2.941   4.105 -1.8658  1.3599  0.8024
13908SOL    HW243166   5.349   3.078   4.059 -1.6767  1.2196  0.5740
13909SOL     OW43167   5.084   2.318   4.846 -0.1196  0.3763 -0.0456
13909SOL    HW143168   5.033   2.384   4.894 -0.0378 -0.1200  0.7390
13909SOL    HW243169   5.175   2.348   4.854 -0.1708  0.6416 -0.4509
13910SOL     OW43170   3.202   3.449   4.391  0.5750 -0.7558 -0.5236
13910SOL    HW143171   3.270   3.507   4.425  1.0374 -2.4599  1.6791
13910SOL    HW243172   3.239   3.413   4.311  0.4965  1.4602 -1.6483
13911SOL     OW43173   6.680   0.862   4.864  0.5568  0.1962 -0.0479
13911SOL    HW143174   6.689   0.794   4.931  1.8774 -0.2392 -0.6247
13911SOL    HW243175   6.596   0.843   4.822  0.6757 -0.7962  0.1274
13912SOL     OW43176   3.417   3.869   4.441  0.5007 -0.1042  0.1364
13912SOL    HW143177   3.484   3.920   4.486 -0.5199  0.5729  0.9394
13912SOL    HW243178   3.444   3.868   4.350  0.5114  1.9629  0.0798
13913SOL     OW43179   5.820   4.366   4.506 -0.2160 -0.1300 -0.0205
13913SOL    HW143180   5.751   4.347   4.442 -1.3258  1.4790  0.6406
13913SOL    HW243181   5.891   4.307   4.482 -0.9594 -0.2478 -2.1329
13914SOL     OW43182   3.459   1.972   4.783  0.1184  0.2068 -0.1496
13914SOL    HW143183   3.469   1.892   4.835  1.0905  1.5527  1.8977
13914SOL    HW243184   3.549   2.000   4.766 -0.1781 -0.1105 -2.5521
13915SOL     OW43185   6.350   2.902   4.653  0.3459  0.1271  0.3051
13915SOL    HW143186   6.330   2.810   4.673  1.4601  0.3385  2.6754
13915SOL    HW243187   6.295   2.922   4.577  2.0909 -3.2806 -2.1768
13916SOL     OW43188   3.936   0.679   2.895  0.1059  0.1132 -0.2339
13916SOL    HW143189   3.932   0.774   2.902  0.0812  0.1673 -0.9083
13916SOL    HW243190   4.014   0.654   2.943  0.3711  0.5184 -0.4546
13917SOL     OW43191   4.332   3.274   4.681 -0.5508  0.2972 -0.3847
13917SOL    HW143192   4.263   3.316   4.628 -1.6231 -2.6311 -1.4992
13917SOL    HW243193   4.411   3.325   4.661 -1.8185  2.0165 -1.3101
13918SOL     OW43194   4.293   2.054   3.707  0.1793 -0.0656 -0.4365
13918SOL    HW143195   4.280   2.114   3.780  2.2043  0.4221 -0.4193
13918SOL    HW243196   4.269   2.105   3.630  2.5130  1.0951 -0.4873
13919SOL     OW43197   3.941   2.809   5.362 -0.0168 -0.7703  0.1392
13919SOL    HW143198   4.036   2.811   5.367  0.1156 -0.1799 -1.9225
13919SOL    HW243199   3.916   2.896   5.331 -1.2631 -0.8653  0.7804
13920SOL     OW43200   4.792   3.829   3.961 -0.1834  0.8127  0.2384
13920SOL    HW143201   4.698   3.811   3.959 -0.2879  1.2775  0.9452
13920SOL    HW243202   4.820   3.803   4.049  0.5488 -0.2943 -0.2943
13921SOL     OW43203   5.622   3.810   4.249 -0.2390  0.8656 -0.4002
13921SOL    HW143204   5.544   3.755   4.259  0.2102  0.3650  0.4613
13921SOL    HW243205   5.668   3.803   4.333  0.0827  2.1808 -0.4379
13922SOL     OW43206   3.948   2.021   5.799  0.5661 -0.1914  0.0357
13922SOL    HW143207   3.974   2.102   5.757  1.4978 -0.5255 -0.0594
13922SOL    HW243208   3.963   2.036   5.892  0.6994 -0.2409  0.0221
13923SOL     OW43209   4.928   3.489   4.898 -0.2164 -0.3370  0.5450
13923SOL    HW143210   4.866   3.453   4.834  0.3381 -1.4021  0.5784
13923SOL    HW243211   4.873   3.535   4.961 -0.8569 -0.1325 -0.1467
13924SOL     OW43212   4.824   3.104   4.195 -0.4665 -0.7587 -0.1787
13924SOL    HW143213   4.866   3.159   4.261  1.4216 -1.0292 -1.0909
13924SOL    HW243214   4.761   3.051   4.244 -0.7446  0.6309  1.0305
13925SOL     OW43215   6.286   1.077   5.276 -0.4454 -0.0153 -0.0227
13925SOL    HW143216   6.357   1.053   5.335 -1.0820 -2.2549 -0.0560
13925SOL    HW243217   6.226   1.129   5.330 -0.6461 -1.3926  1.1586
13926SOL     OW43218   4.200   2.243   3.536 -0.3144  0.4138  0.2056
13926SOL    HW143219   4.140   2.284   3.598 -0.1130  2.7981 -1.0711
13926SOL    HW243220   4.144   2.214   3.464 -0.2319  0.2018  0.2264
13927SOL     OW43221   5.269   3.633   4.574 -0.5896  0.2942 -0.2476
13927SOL    HW143222   5.235   3.704   4.519 -1.3691  0.2071  0.1160
13927SOL    HW243223   5.223   3.643   4.657 -1.5286 -1.2975 -0.5340
13928SOL     OW43224   7.917   5.178   5.735 -0.4379 -0.2919 -1.0305
13928SOL    HW143225   8.007   5.204   5.753  0.2123 -1.5614 -2.2572
13928SOL    HW243226   7.875   5.175   5.821  0.7146  0.1817 -0.4223
13929SOL     OW43227   6.352   2.692   2.975 -0.2671  0.1244 -0.0446
13929SOL    HW143228   6.310   2.606   2.973  0.5130 -0.3341  1.5035
13929SOL    HW243229   6.322   2.731   3.058 -1.9175  2.0691 -1.4577
13930SOL     OW43230   5.902   3.027   2.889  0.1693  0.0207 -0.3263
13930SOL    HW143231   5.826   2.969   2.895  0.2213 -0.1109 -0.8475
13930SOL    HW243232   5.868   3.108   2.850  0.6215 -0.7008 -2.3307
13931SOL     OW43233   4.040   3.152   3.296  0.8168 -0.1488  0.2765
13931SOL    HW143234   4.014   3.076   3.243  0.2760  1.1424 -1.4104
13931SOL    HW243235   4.006   3.227   3.247  2.7894  1.2903  1.0188
13932SOL     OW43236   5.471   1.883   5.113 -0.1180 -0.5724 -0.1370
13932SOL    HW143237   5.408   1.954   5.126 -0.0319 -0.3762 -0.7253
13932SOL    HW243238   5.542   1.903   5.174 -1.0112 -1.2853  1.1682
13933SOL     OW43239   3.997   3.674   4.739 -0.2178  0.6112  0.5183
13933SOL    HW143240   3.986   3.762   4.702  0.9727  0.4644 -0.2538
13933SOL    HW243241   4.059   3.686   4.811  1.8229  0.1188 -1.0506
13934SOL     OW43242   4.433   3.370   5.342 -0.1683  0.1443 -0.4289
13934SOL    HW143243   4.353   3.422   5.351  1.4568  2.9230 -0.7427
13934SOL    HW243244   4.455   3.343   5.431 -1.0082  0.0898 -0.2365
13935SOL     OW43245   3.686   3.252   5.026  0.1312  0.1295  0.0804
13935SOL    HW143246   3.609   3.306   5.045  0.7183  1.4164 -1.0039
13935SOL    HW243247   3.756   3.291   5.078  0.1103 -0.9168  0.9148
13936SOL     OW43248   5.268   3.598   3.004  0.1886 -0.1461  0.4521
13936SOL    HW143249   5.179   3.565   3.002 -0.9369  2.6372 -0.6400
13936SOL    HW243250   5.277   3.636   3.092  0.5046 -0.8901  0.7467
13937SOL     OW43251   4.898   1.225   7.221 -0.0723 -0.0970 -0.7858
13937SOL    HW143252   4.971   1.164   7.205  0.5025 -0.3618  2.2931
13937SOL    HW243253   4.841   1.179   7.282 -1.1282  1.3865 -0.6025
13938SOL     OW43254   4.629   3.933   5.447  0.2109  0.3817  0.1982
13938SOL    HW143255   4.628   4.013   5.499  0.8018 -0.4787  1.5797
13938SOL    HW243256   4.661   3.961   5.361 -1.9043  2.0296 -0.1088
13939SOL     OW43257   5.719   2.273   3.108  0.1743  0.0454  0.5190
13939SOL    HW143258   5.677   2.214   3.170  0.6922  0.0667  0.8991
13939SOL    HW243259   5.763   2.338   3.163  2.0413 -0.8851  0.2175
13940SOL     OW43260   4.018   2.501   6.544 -0.0340  0.4178 -0.2926
13940SOL    HW143261   4.029   2.406   6.536  0.7034  0.3572  1.1713
13940SOL    HW243262   4.089   2.538   6.493 -1.3174  0.2388 -2.2963
13941SOL     OW43263   4.598   2.388   5.099  0.6442 -0.3445  0.3884
13941SOL    HW143264   4.627   2.464   5.048  1.6046 -0.1058  1.2691
13941SOL    HW243265   4.612   2.314   5.040  2.0860 -0.1124  0.3881
13942SOL     OW43266   2.914   2.946   5.317  0.3066  0.1714 -0.3714
13942SOL    HW143267   2.901   2.962   5.411 -1.7127 -0.2200 -0.5439
13942SOL    HW243268   2.990   2.999   5.294 -1.3382  3.2140  0.7378
13943SOL     OW43269   3.545   2.138   3.824 -0.1982 -0.2486  0.3376
13943SOL    HW143270   3.528   2.232   3.832  0.5523 -0.0255 -0.5051
13943SOL    HW243271   3.466   2.096   3.858 -2.2572  0.7206 -2.8427
13944SOL     OW43272   4.505   3.159   3.998 -0.3314 -0.3285  0.5817
13944SOL    HW143273   4.468   3.245   4.020 -1.4711 -0.9282  1.1165
13944SOL    HW243274   4.599   3.172   3.999 -0.3507  1.9852 -3.5638
13945SOL     OW43275   4.529   3.050   4.965  0.1602  0.0096  0.2265
13945SOL    HW143276   4.542   3.143   4.949 -1.7848  0.4237  0.8458
13945SOL    HW243277   4.503   3.045   5.057 -0.4058 -1.0753  0.0269
13946SOL     OW43278   5.324   2.425   3.140 -0.0523 -0.1249  0.0155
13946SOL    HW143279   5.268   2.379   3.203  1.9173 -0.8008  1.3773
13946SOL    HW243280   5.374   2.356   3.097 -2.0425  0.2312 -3.1573
13947SOL     OW43281   4.061   3.733   5.406  0.1604  0.5696  0.0051
13947SOL    HW143282   3.985   3.730   5.347 -0.8891  1.3959  1.2743
13947SOL    HW243283   4.060   3.821   5.443  1.2645  0.3178  0.6796
13948SOL     OW43284   4.639   2.840   4.804  0.1591  0.1581  0.2482
13948SOL    HW143285   4.586   2.911   4.840 -1.0654 -0.1315 -0.9322
13948SOL    HW243286   4.712   2.884   4.762 -1.2540  0.8599 -1.5999
13949SOL     OW43287   6.553   2.559   4.617 -0.5625 -0.1306  0.0132
13949SOL    HW143288   6.574   2.506   4.694  1.0266 -1.1388 -1.0615
13949SOL    HW243289   6.575   2.648   4.641  0.9121 -0.5804  0.4061
13950SOL     OW43290   3.901   2.803   5.628  0.2572  0.1539 -0.3767
13950SOL    HW143291   3.939   2.880   5.585  0.3554 -0.1823 -0.9068
13950SOL    HW243292   3.822   2.783   5.578  0.5317 -0.4219 -0.6003
13951SOL     OW43293   4.275   1.703   5.430  0.3733  0.3640  0.3688
13951SOL    HW143294   4.320   1.758   5.493 -0.0815  1.0009  0.1450
13951SOL    HW243295   4.280   1.615   5.467  3.4673  0.0364 -0.5334
13952SOL     OW43296   3.093   3.139   5.264  0.1997 -0.0712  0.1972
13952SOL    HW143297   3.016   3.194   5.274 -0.9175 -1.5240 -0.1086
13952SOL    HW243298   3.142   3.179   5.192 -2.0682 -1.0730 -2.0310
13953SOL     OW43299   5.798   3.906   4.889 -0.2637 -0.0384 -0.2455
13953SOL    HW143300   5.759   3.977   4.939  0.3542  0.3935 -0.3693
13953SOL    HW243301   5.798   3.937   4.799  0.2059 -0.0974 -0.2702
13954SOL     OW43302   5.621   2.379   4.772 -0.0629 -0.4579  0.2149
13954SOL    HW143303   5.624   2.365   4.866 -1.9687 -0.3592  0.3202
13954SOL    HW243304   5.708   2.352   4.741  0.6591 -0.3149  1.9989
13955SOL     OW43305   5.907   2.554   6.510  0.5842  0.0080  0.7275
13955SOL    HW143306   5.887   2.561   6.603  0.5605  1.3098  0.6373
13955SOL    HW243307   5.822   2.555   6.467  0.6169 -0.1282  0.6586
13956SOL     OW43308   3.395   4.218   4.231  0.0056  0.4430 -0.8170
13956SOL    HW143309   3.334   4.226   4.304  0.7326  1.4561 -0.3065
13956SOL    HW243310   3.459   4.287   4.245  1.5698 -0.8940 -1.0648
13957SOL     OW43311   4.370   2.809   4.339 -0.0896 -0.3548  0.0526
13957SOL    HW143312   4.424   2.772   4.409 -0.8329 -0.4207  0.5976
13957SOL    HW243313   4.336   2.891   4.375 -0.6334 -0.4842 -0.1608
13958SOL     OW43314   6.523   1.834   4.942  0.0626  0.3056 -0.2675
13958SOL    HW143315   6.468   1.769   4.898  1.0879 -1.5188  0.9867
13958SOL    HW243316   6.462   1.899   4.975 -0.7984  1.5111 -3.8236
13959SOL     OW43317   4.106   0.709   3.246 -0.0564 -0.8777 -0.0806
13959SOL    HW143318   4.088   0.773   3.314 -0.7231  1.5617 -2.3999
13959SOL    HW243319   4.202   0.710   3.238 -0.1248  1.6362 -1.5820
13960SOL     OW43320   7.082   3.031   4.101 -0.4094 -0.3851  0.4104
13960SOL    HW143321   7.140   3.066   4.169 -0.1617  0.7956 -0.3865
13960SOL    HW243322   7.011   3.095   4.096  0.2019  0.1931 -1.2865
13961SOL     OW43323   5.884   3.075   4.055 -0.2600  0.7399  0.2868
13961SOL    HW143324   5.850   3.064   3.966  4.6260 -1.4335 -1.6833
13961SOL    HW243325   5.888   3.170   4.067  0.1862  1.1621 -2.4863
13962SOL     OW43326   4.489   3.041   4.611  0.0545  0.1479 -0.0171
13962SOL    HW143327   4.416   3.026   4.551 -1.3079 -1.8685  1.9893
13962SOL    HW243328   4.461   3.115   4.665 -0.7203 -0.8115  0.9486
13963SOL     OW43329   6.463   3.155   6.600 -0.1294  0.0729 -1.0120
13963SOL    HW143330   6.556   3.139   6.587 -0.3390 -0.0624 -2.4227
13963SOL    HW243331   6.456   3.249   6.615  0.7044 -0.3797  3.7556
13964SOL     OW43332   5.270   3.270   5.446  0.4730  0.3231 -0.5098
13964SOL    HW143333   5.176   3.256   5.458  0.8155 -1.1570  0.7385
13964SOL    HW243334   5.290   3.231   5.361  0.5238 -2.6946  0.7551
13965SOL     OW43335   4.755   2.911   2.572  0.0748 -0.4766 -0.2676
13965SOL    HW143336   4.730   2.997   2.605 -0.0012 -0.2684 -0.8588
13965SOL    HW243337   4.766   2.923   2.478  2.2780 -0.5902 -0.0796
13966SOL     OW43338   4.318   1.650   3.488  0.4536 -0.0649  0.1839
13966SOL    HW143339   4.233   1.606   3.495  1.6500 -2.3897  1.6308
13966SOL    HW243340   4.327   1.698   3.570 -0.1160  1.6025 -0.6809
13967SOL     OW43341   4.347   3.677   5.286 -0.1402  0.8300  0.0413
13967SOL    HW143342   4.321   3.761   5.247  0.2719  1.1716  0.4887
13967SOL    HW243343   4.267   3.643   5.326 -1.2396 -0.7042 -3.1016
13968SOL     OW43344   3.729   1.837   5.205  0.8373  0.1113 -0.4170
13968SOL    HW143345   3.647   1.884   5.201 -0.1213 -1.5602 -2.2045
13968SOL    HW243346   3.786   1.881   5.142  0.4775 -0.1794 -0.9459
13969SOL     OW43347   3.947   2.564   5.464  0.3124 -0.5892  0.3191
13969SOL    HW143348   3.938   2.657   5.444  0.9875 -0.3662  1.0013
13969SOL    HW243349   3.867   2.542   5.512 -0.0774 -0.4831 -0.2773
13970SOL     OW43350   4.672   2.914   4.319 -0.4418 -0.2833  0.3171
13970SOL    HW143351   4.630   2.841   4.364 -2.2542  1.7425  2.1220
13970SOL    HW243352   4.637   2.911   4.230 -0.7264 -1.3845  0.4548
13971SOL     OW43353   5.106   1.955   5.973 -0.6404  0.7963 -0.0781
13971SOL    HW143354   5.068   1.982   5.889 -0.4313  0.0383 -0.4211
13971SOL    HW243355   5.036   1.971   6.036 -1.0899  0.6175 -0.5168
13972SOL     OW43356   4.878   4.113   5.575 -0.3106 -0.3082  1.2188
13972SOL    HW143357   4.783   4.125   5.568 -0.3055 -0.2409  1.2607
13972SOL    HW243358   4.905   4.181   5.637 -0.0760  0.4438  0.3201
13973SOL     OW43359   4.721   2.480   4.006 -0.0305  0.7597 -0.2848
13973SOL    HW143360   4.648   2.517   4.057 -0.5436  0.4394 -0.7732
13973SOL    HW243361   4.791   2.467   4.070 -1.5113 -2.0630  0.9352
13974SOL     OW43362   6.924   3.501   4.728 -0.4220  0.3496 -0.0451
13974SOL    HW143363   6.936   3.588   4.691 -2.6833  0.3235 -0.9891
13974SOL    HW243364   6.870   3.455   4.664 -0.2436 -1.3760  0.9823
13975SOL     OW43365   2.241   1.633   4.929  1.0621  0.0842 -0.3603
13975SOL    HW143366   2.279   1.557   4.884 -1.8640 -1.4580 -0.4634
13975SOL    HW243367   2.248   1.612   5.022  1.2643  0.2369 -0.3394
13976SOL     OW43368   5.758   2.406   6.144 -0.3341 -0.1678 -0.2027
13976SOL    HW143369   5.720   2.471   6.086  1.2034  1.2205  0.2463
13976SOL    HW243370   5.748   2.443   6.232  2.7979  0.7969 -0.1245
13977SOL     OW43371   4.086   2.954   5.006  0.3033 -0.2618 -0.1095
13977SOL    HW143372   4.132   2.973   5.088  0.2225 -0.9471  0.0993
13977SOL    HW243373   4.117   3.021   4.945  0.1717  0.4092  0.5507
13978SOL     OW43374   4.159   2.594   3.984  0.2153 -0.4503 -0.4255
13978SOL    HW143375   4.097   2.650   3.938 -3.1431 -2.3405  1.4143
13978SOL    HW243376   4.177   2.641   4.065  0.3427 -0.3847 -0.4918
13979SOL     OW43377   6.850   4.982   6.311  0.1055  0.0150  0.4819
13979SOL    HW143378   6.922   5.044   6.305 -2.3196  3.0779  0.0473
13979SOL    HW243379   6.841   4.947   6.222  0.2677  0.6301  0.2180
13980SOL     OW43380   4.827   0.971   5.077 -0.6818  0.0886 -0.2379
13980SOL    HW143381   4.830   1.045   5.138 -1.9662 -0.7509  0.9184
13980SOL    HW243382   4.855   0.896   5.129  0.4883 -0.2910 -1.3618
13981SOL     OW43383   6.526   4.529   4.958 -0.6773 -0.1170 -0.1080
13981SOL    HW143384   6.576   4.479   4.893  0.4985  0.8379  0.0472
13981SOL    HW243385   6.505   4.465   5.026 -0.3879 -0.7090 -0.5641
13982SOL     OW43386   4.037   1.271   2.798 -0.2388  0.6228 -0.0581
13982SOL    HW143387   3.946   1.299   2.791  0.1816  2.0608 -0.1261
13982SOL    HW243388   4.081   1.312   2.724  0.2669 -1.0284 -0.7247
13983SOL     OW43389   5.642   2.431   7.009 -0.1691 -0.0412 -0.1060
13983SOL    HW143390   5.625   2.517   6.969  0.2671 -0.5299 -1.3805
13983SOL    HW243391   5.656   2.372   6.935  0.3086 -1.0584  0.7665
13984SOL     OW43392   2.954   2.587   3.819  0.3006 -0.1282  0.0977
13984SOL    HW143393   2.963   2.523   3.889  0.1762 -0.8393 -0.5167
13984SOL    HW243394   3.042   2.591   3.779 -0.0688 -1.1185 -0.8656
13985SOL     OW43395   5.791   3.079   5.373 -0.4424 -0.2682  0.0275
13985SOL    HW143396   5.813   3.117   5.288 -0.0080 -1.5627 -0.4674
13985SOL    HW243397   5.715   3.129   5.403 -0.0809  0.7593 -0.7284
13986SOL     OW43398   5.607   3.754   5.019  0.4252 -0.4690 -0.1541
13986SOL    HW143399   5.659   3.710   5.085 -1.4416 -0.9967  1.0195
13986SOL    HW243400   5.670   3.809   4.972  1.9902 -0.9317  1.3128
13987SOL     OW43401   4.887   1.331   4.701 -0.4082  0.5168  0.3244
13987SOL    HW143402   4.833   1.252   4.710 -1.7720  1.0449 -2.1893
13987SOL    HW243403   4.976   1.298   4.688 -1.0883 -0.7288 -1.6301
13988SOL     OW43404   5.660   2.575   6.381  0.0578  0.0051 -0.3985
13988SOL    HW143405   5.582   2.525   6.357 -0.8989  0.0156  2.3606
13988SOL    HW243406   5.657   2.653   6.325 -0.9240 -0.8222 -1.5376
13989SOL     OW43407   4.054   1.510   4.911  0.1532 -0.4864 -0.4502
13989SOL    HW143408   4.072   1.442   4.976  1.2978 -0.9544 -1.2246
13989SOL    HW243409   4.102   1.587   4.942 -1.6591  0.2094  0.7652
13990SOL     OW43410   4.245   3.003   3.590 -0.3072 -0.6479 -0.2250
13990SOL    HW143411   4.172   3.064   3.606 -0.7631 -1.4792  0.9996
13990SOL    HW243412   4.315   3.034   3.648  0.0208 -0.3620 -0.7681
13991SOL     OW43413   4.122   2.578   2.314 -0.2454  0.6770  0.1442
13991SOL    HW143414   4.200   2.523   2.302 -0.2479 -0.3065  3.5587
13991SOL    HW243415   4.157   2.661   2.346 -0.5207  0.5786  0.7132
13992SOL     OW43416   5.991   3.297   4.523 -0.0539  0.9171 -0.1416
13992SOL    HW143417   5.950   3.212   4.511 -1.3167  1.5669 -0.5694
13992SOL    HW243418   6.071   3.278   4.573 -1.4036 -0.2493  1.6822
13993SOL     OW43419   4.885   2.743   5.218  0.6076 -0.3296 -0.9344
13993SOL    HW143420   4.849   2.800   5.150  0.3455  0.8450  0.1656
13993SOL    HW243421   4.974   2.776   5.233  1.1268 -1.3745 -1.5551
13994SOL     OW43422   5.922   0.657   4.720  0.0293 -0.3452 -0.3013
13994SOL    HW143423   5.986   0.588   4.739 -1.1132 -1.1686  0.7116
13994SOL    HW243424   5.850   0.640   4.781 -0.1549  1.9413  0.1991
13995SOL     OW43425   3.948   1.175   4.004  0.1902  0.5084 -0.4192
13995SOL    HW143426   3.989   1.166   3.918 -1.2893 -0.2217 -1.0896
13995SOL    HW243427   3.918   1.087   4.026 -0.7687  0.9554  0.1393
13996SOL     OW43428   5.771   2.961   3.199  0.4091  0.1559  0.2552
13996SOL    HW143429   5.842   2.968   3.263 -1.4965 -1.2159  2.7066
13996SOL    HW243430   5.794   2.885   3.146  0.5888 -0.5996  1.3643
13997SOL     OW43431   5.556   3.255   5.406 -0.4988 -0.4083  0.0566
13997SOL    HW143432   5.563   3.349   5.394  0.4344 -0.2698  1.4954
13997SOL    HW243433   5.502   3.244   5.484  1.3088 -0.9471  1.3090
13998SOL     OW43434   4.974   2.648   4.274  0.2024  0.3014 -0.1156
13998SOL    HW143435   4.954   2.726   4.222 -1.1139  0.8889  1.1817
13998SOL    HW243436   5.017   2.682   4.353  1.1645 -0.4664 -0.2856
13999SOL     OW43437   7.563   3.338   4.935 -0.1869 -0.4876  0.7269
13999SOL    HW143438   7.646   3.381   4.954  0.6939 -1.4918 -0.6394
13999SOL    HW243439   7.587   3.258   4.889 -1.8889 -1.1746  0.9273
14000SOL     OW43440   3.669   1.401   3.314 -0.0863  0.2500 -0.2920
14000SOL    HW143441   3.759   1.395   3.284  0.0385 -0.0844  0.1425
14000SOL    HW243442   3.644   1.492   3.299  0.0685  0.1543 -1.1309
14001SOL     OW43443   5.776   4.504   5.307  0.5384  0.4759 -0.0586
14001SOL    HW143444   5.765   4.409   5.300  1.3971  0.4443 -1.2944
14001SOL    HW243445   5.693   4.540   5.276  0.2853  0.1344  0.2146
14002SOL     OW43446   5.546   3.475   4.836 -0.0026 -0.2052  0.5767
14002SOL    HW143447   5.543   3.398   4.779  1.5530  0.5078 -0.5286
14002SOL    HW243448   5.574   3.546   4.778 -1.8951  1.3385  1.4379
14003SOL     OW43449   6.067   2.294   6.543  0.2780  0.0844 -0.3872
14003SOL    HW143450   6.031   2.367   6.494 -1.3502 -0.0640  0.5123
14003SOL    HW243451   6.128   2.335   6.605  1.8641  0.3223 -2.0174
14004SOL     OW43452   6.206   4.692   6.291 -0.0729 -0.1755 -0.2618
14004SOL    HW143453   6.146   4.681   6.365 -0.6735  0.9201 -0.5713
14004SOL    HW243454   6.274   4.626   6.306 -0.4198 -0.2712  1.0209
14005SOL     OW43455   3.101   2.314   4.990 -0.2563 -0.0622  0.3138
14005SOL    HW143456   3.047   2.236   5.006 -0.3335  0.0555  0.6323
14005SOL    HW243457   3.049   2.386   5.026 -2.0116  0.7104 -3.3218
14006SOL     OW43458   4.600   1.401   5.649 -0.3297  0.2196  0.0197
14006SOL    HW143459   4.639   1.388   5.735  2.7725  2.1724 -0.9376
14006SOL    HW243460   4.655   1.350   5.589 -0.5426  1.3300 -1.1654
14007SOL     OW43461   3.833   0.422   3.806  0.0993  0.0753 -0.0023
14007SOL    HW143462   3.798   0.502   3.766 -0.7257 -0.6357 -0.7365
14007SOL    HW243463   3.896   0.388   3.743 -0.2735 -0.3739 -0.1379
14008SOL     OW43464   4.998   4.423   5.463 -0.2974  0.2299 -0.5261
14008SOL    HW143465   4.927   4.403   5.524 -0.3146 -1.8700 -1.1673
14008SOL    HW243466   4.959   4.416   5.376  0.3825  0.3962 -0.8539
14009SOL     OW43467   2.767   2.792   3.983 -0.4198  0.0246 -0.1020
14009SOL    HW143468   2.788   2.796   4.076  0.1029  1.7106 -0.2660
14009SOL    HW243469   2.778   2.699   3.960 -0.5059 -0.4063  1.4815
14010SOL     OW43470   4.136   2.068   4.322 -0.5867 -0.3666  0.3126
14010SOL    HW143471   4.153   2.036   4.233  2.0004 -0.5082  0.7838
14010SOL    HW243472   4.148   1.991   4.378 -1.0691 -0.0283  0.8897
14011SOL     OW43473   4.496   2.168   4.428 -0.1212  0.2418  0.1948
14011SOL    HW143474   4.576   2.128   4.460  0.4845  0.4361 -1.0227
14011SOL    HW243475   4.521   2.212   4.347 -0.8859  2.6196  1.1578
14012SOL     OW43476   6.327   3.608   5.159 -0.2791 -0.4008  0.0163
14012SOL    HW143477   6.371   3.534   5.201  1.7400 -0.3479 -1.8697
14012SOL    HW243478   6.356   3.685   5.209 -0.8685 -0.6592  0.7842
14013SOL     OW43479   5.105   3.770   5.178  0.1205 -0.1499 -0.1510
14013SOL    HW143480   5.078   3.813   5.097  2.3628  0.1886 -0.7886
14013SOL    HW243481   5.036   3.791   5.241  0.6295  3.7224 -0.6373
14014SOL     OW43482   4.867   2.235   5.203  0.4661 -0.4235  0.4009
14014SOL    HW143483   4.895   2.315   5.248  1.9197 -0.6938  0.0082
14014SOL    HW243484   4.840   2.176   5.273  1.3666 -0.3266  0.8444
14015SOL     OW43485   4.210   2.929   4.707  0.3844  0.7430 -0.5557
14015SOL    HW143486   4.281   2.983   4.740  0.5701  0.5797 -0.6829
14015SOL    HW243487   4.181   2.973   4.627 -0.0672  1.1399 -0.1813
14016SOL     OW43488   2.972   1.740   4.117 -0.0624  0.8673  0.3388
14016SOL    HW143489   2.927   1.819   4.146  0.4573  1.1392  0.3996
14016SOL    HW243490   2.914   1.668   4.143 -1.6708  1.3145 -1.7210
14017SOL     OW43491   7.478   1.898   3.469  0.3049  0.4472 -0.0728
14017SOL    HW143492   7.456   1.812   3.504  0.2900 -0.5410 -2.2874
14017SOL    HW243493   7.566   1.915   3.502  1.2219 -1.4898 -1.3023
14018SOL     OW43494   5.516   2.980   4.684 -0.4817  0.0057  0.1869
14018SOL    HW143495   5.463   2.979   4.764  1.6377 -1.2102  1.7059
14018SOL    HW243496   5.467   2.927   4.622 -2.5658  1.6275  0.3576
14019SOL     OW43497   3.389   2.955   6.276  0.1291  0.0211 -0.3733
14019SOL    HW143498   3.437   3.038   6.285 -0.1814  0.1619 -0.0200
14019SOL    HW243499   3.305   2.981   6.239  0.3187 -0.2281 -0.9930
14020SOL     OW43500   6.068   4.026   5.514 -0.0179 -0.2381  0.5149
14020SOL    HW143501   6.143   3.969   5.534  0.1748 -0.1292  0.1175
14020SOL    HW243502   6.093   4.111   5.549 -0.6535 -0.5734  1.8512
14021SOL     OW43503   4.472   1.382   3.422 -0.0087  0.7393 -0.3333
14021SOL    HW143504   4.495   1.460   3.472  1.9224  0.9482 -1.4681
14021SOL    HW243505   4.413   1.413   3.354 -0.7461  0.8560  0.3418
14022SOL     OW43506   4.386   3.608   4.669 -0.3793  0.2607 -0.3355
14022SOL    HW143507   4.308   3.553   4.657  0.0283 -0.0443 -1.7081
14022SOL    HW243508   4.458   3.546   4.677 -0.0841  0.5666 -0.6042
14023SOL     OW43509   4.587   3.300   4.948 -0.1008  0.2969 -0.1426
14023SOL    HW143510   4.538   3.354   5.011 -1.1056 -1.2292  0.4236
14023SOL    HW243511   4.580   3.348   4.866  1.4868  2.4973  0.8984
14024SOL     OW43512   4.236   2.233   4.552  0.0095  0.1065 -0.5259
14024SOL    HW143513   4.319   2.220   4.505 -1.1774 -0.3704 -2.6165
14024SOL    HW243514   4.259   2.290   4.625  3.0057 -3.2209  1.5118
14025SOL     OW43515   5.478   3.345   3.052  0.4499 -0.1704  0.0971
14025SOL    HW143516   5.448   3.329   2.963  0.8112 -2.5417  0.3293
14025SOL    HW243517   5.530   3.425   3.046 -1.2930  0.9184 -1.3603
14026SOL     OW43518   2.716   0.844   2.628  0.3871 -0.8178  0.0697
14026SOL    HW143519   2.661   0.917   2.601 -0.1367 -0.8148  1.1254
14026SOL    HW243520   2.802   0.865   2.592 -0.2817 -0.8457 -1.6325
14027SOL     OW43521   5.964   3.628   4.781  0.9688  0.5432  0.2138
14027SOL    HW143522   5.894   3.589   4.833  0.7573  3.0381  1.9597
14027SOL    HW243523   6.037   3.638   4.843  1.8377  0.7054 -0.8119
14028SOL     OW43524   6.022   1.252   2.515  0.0880  0.2171  0.0486
14028SOL    HW143525   6.019   1.240   2.610 -0.7108  3.8310  0.6098
14028SOL    HW243526   6.104   1.298   2.499  0.7215 -1.2820 -1.2147
14029SOL     OW43527   4.002   2.502   4.820  0.5341  0.6705 -0.4080
14029SOL    HW143528   4.052   2.427   4.853 -1.2847 -1.3151 -1.8569
14029SOL    HW243529   4.032   2.576   4.873  3.3907 -0.7707  0.1964
14030SOL     OW43530   5.721   3.750   4.497 -0.4953  0.2240 -0.3021
14030SOL    HW143531   5.668   3.693   4.553 -1.1604  0.3114 -0.8341
14030SOL    HW243532   5.804   3.704   4.488 -0.3507  0.2520  0.8216
14031SOL     OW43533   3.519   2.246   4.230  0.2724  0.3748 -0.0526
14031SOL    HW143534   3.537   2.315   4.294  0.1638  1.3024 -0.9961
14031SOL    HW243535   3.469   2.180   4.279 -0.7923  1.5901  0.5459
14032SOL     OW43536   6.167   2.017   4.840  0.3026 -0.9278  0.1014
14032SOL    HW143537   6.157   2.045   4.748  2.2117 -0.9357 -0.1330
14032SOL    HW243538   6.149   1.923   4.839  2.8115 -1.4674 -0.7798
14033SOL     OW43539   4.093   2.366   3.747 -0.5662  0.0931  0.5599
14033SOL    HW143540   4.165   2.330   3.800 -0.6124 -2.3079 -0.8595
14033SOL    HW243541   4.016   2.360   3.803  0.0456  1.4627  1.6231
14034SOL     OW43542   5.498   3.210   6.600 -0.2907 -0.4521  0.5633
14034SOL    HW143543   5.404   3.210   6.582  0.0069  1.2118 -1.3104
14034SOL    HW243544   5.513   3.291   6.649  0.0926 -1.1114  1.5789
14035SOL     OW43545   4.907   2.834   4.068  0.6344  0.3014 -0.9318
14035SOL    HW143546   4.811   2.845   4.063  0.5375 -0.7879 -1.7999
14035SOL    HW243547   4.941   2.920   4.043 -0.0939  1.0983  0.6251
14036SOL     OW43548   5.074   1.671   5.112  0.2891 -0.3988  0.2080
14036SOL    HW143549   5.112   1.712   5.034  1.1954 -0.6613  0.4932
14036SOL    HW243550   5.148   1.624   5.152 -0.5880 -1.8749  0.1752
14037SOL     OW43551   5.242   1.840   4.761  0.2076 -0.1881 -0.3060
14037SOL    HW143552   5.183   1.905   4.799 -0.9414 -1.4206  0.1167
14037SOL    HW243553   5.303   1.891   4.708 -1.4219  1.1251 -1.0196
14038SOL     OW43554   2.435   1.457   5.715  0.6934  0.4529  0.4405
14038SOL    HW143555   2.342   1.434   5.708  1.1284 -1.0498 -0.9772
14038SOL    HW243556   2.464   1.466   5.624  2.2093 -0.3870  0.8145
14039SOL     OW43557   5.008   3.004   7.071 -0.1258  0.0426 -0.0305
14039SOL    HW143558   4.991   3.013   6.977  1.1953  1.1507 -0.1818
14039SOL    HW243559   4.935   2.951   7.103 -2.0051  1.7475 -1.2351
14040SOL     OW43560   3.578   0.441   6.450  0.1259 -0.8496 -0.3204
14040SOL    HW143561   3.499   0.394   6.425 -0.7737  0.0075  0.8292
14040SOL    HW243562   3.557   0.533   6.437  0.8146 -0.5936  0.2873
14041SOL     OW43563   5.258   3.197   6.526  0.0940  0.3899 -0.3557
14041SOL    HW143564   5.202   3.273   6.541 -0.2389  1.0401 -3.9566
14041SOL    HW243565   5.217   3.151   6.453  1.7138 -1.8170  0.0140
14042SOL     OW43566   5.260   4.095   6.415  0.3018  0.8398 -0.0661
14042SOL    HW143567   5.305   4.090   6.330 -1.5348  0.7480 -1.0919
14042SOL    HW243568   5.172   4.128   6.394 -0.4527  0.1021  1.7071
14043SOL     OW43569   3.480   0.336   6.997 -0.3621  0.5669  0.0599
14043SOL    HW143570   3.400   0.287   6.977 -0.1426 -0.4061  1.4567
14043SOL    HW243571   3.549   0.269   7.002  0.3260  1.2600  0.0253
14044SOL     OW43572   2.781   1.898   6.427  0.8730  0.0214  0.5204
14044SOL    HW143573   2.798   1.810   6.461  2.2717 -0.8191 -2.1015
14044SOL    HW243574   2.866   1.928   6.395 -0.3127  0.5653 -2.4293
14045SOL     OW43575   5.767   3.752   6.876 -0.3352 -0.4725 -0.7770
14045SOL    HW143576   5.715   3.742   6.796 -1.0715 -1.4104 -0.2052
14045SOL    HW243577   5.708   3.723   6.946 -0.4194  2.1780  0.3689
14046SOL     OW43578   4.140   3.080   6.613  0.3425 -0.0614 -0.0208
14046SOL    HW143579   4.126   3.138   6.538 -0.6230 -1.9261 -1.3725
14046SOL    HW243580   4.123   3.135   6.690 -0.7795  1.3730 -1.2306
14047SOL     OW43581   5.670   3.776   7.426 -0.0600 -0.4274 -0.2471
14047SOL    HW143582   5.667   3.683   7.448  2.9231 -0.5789  0.0411
14047SOL    HW243583   5.674   3.821   7.510  1.2191 -0.2957 -0.3469
14048SOL     OW43584   5.525   1.099   7.142  0.0140 -0.0864  0.0307
14048SOL    HW143585   5.508   1.021   7.090 -2.5725  0.9747 -0.8546
14048SOL    HW243586   5.519   1.171   7.079  0.2758  0.9798  1.2002
14049SOL     OW43587   3.482   1.387   7.831  1.2801 -0.4739  0.3174
14049SOL    HW143588   3.547   1.456   7.836  0.9168 -0.2051  1.5779
14049SOL    HW243589   3.398   1.432   7.844  0.5515 -0.4605 -3.3509
14050SOL     OW43590   4.090   3.184   6.346 -0.3302 -0.4526  0.3686
14050SOL    HW143591   4.096   3.250   6.277  0.0093  0.1830  0.9896
14050SOL    HW243592   4.180   3.155   6.359 -0.4588 -0.9253  0.2088
14051SOL     OW43593   1.506   2.148   5.686  0.2598 -0.0194  0.0108
14051SOL    HW143594   1.460   2.183   5.762  2.5393  0.0817  1.4235
14051SOL    HW243595   1.486   2.054   5.687  1.1554 -0.2319  1.4703
14052SOL     OW43596   5.038   3.102   5.658 -0.0672  0.1642  0.0349
14052SOL    HW143597   4.961   3.133   5.610  0.5169  1.6546  0.0072
14052SOL    HW243598   5.024   3.132   5.748  1.3344  2.2073 -0.3537
14053SOL     OW43599   4.656   0.642   5.513  0.3335  0.3307 -0.2063
14053SOL    HW143600   4.737   0.604   5.548 -0.3296 -0.6006  0.3765
14053SOL    HW243601   4.674   0.657   5.420  1.7624  1.8086  0.2775
14054SOL     OW43602   3.359   2.688   5.831 -0.0822 -0.2699 -0.0678
14054SOL    HW143603   3.266   2.666   5.837 -0.0823 -1.1251 -2.2804
14054SOL    HW243604   3.361   2.774   5.790  0.1082  0.0980  0.6924
14055SOL     OW43605   5.938   2.982   6.613  0.2845 -0.1328  0.0379
14055SOL    HW143606   5.858   2.981   6.561  0.5947  0.3960 -0.4642
14055SOL    HW243607   5.945   3.073   6.644  0.1943 -0.3996  0.8630
14056SOL     OW43608   6.982   2.748   6.673  0.3144 -0.3696 -0.2908
14056SOL    HW143609   6.950   2.833   6.643 -1.3535  0.1951  2.6980
14056SOL    HW243610   7.064   2.767   6.717  0.5521 -0.5116 -0.6683
14057SOL     OW43611   6.732   3.608   5.921  0.4377  0.1584 -0.3948
14057SOL    HW143612   6.672   3.682   5.913  0.1656 -0.0719 -0.5272
14057SOL    HW243613   6.730   3.585   6.014 -0.7736 -0.7392 -0.6214
14058SOL     OW43614   3.165   3.139   7.705 -0.6646 -0.8131  0.0666
14058SOL    HW143615   3.257   3.160   7.723 -0.5270  0.3345 -1.7180
14058SOL    HW243616   3.120   3.159   7.787  0.7077 -1.8148  1.1199
14059SOL     OW43617   4.525   2.511   5.437 -0.2968  0.2002  0.9789
14059SOL    HW143618   4.557   2.537   5.351  1.1015 -0.6157  1.2215
14059SOL    HW243619   4.456   2.447   5.419 -0.2360  0.2798  0.4631
14060SOL     OW43620   2.711   1.769   6.762 -0.3746 -0.1105  0.3814
14060SOL    HW143621   2.751   1.733   6.683  0.3702 -0.0893  0.7362
14060SOL    HW243622   2.617   1.769   6.744 -0.3178 -1.4005  0.0386
14061SOL     OW43623   3.260   2.245   6.043  0.0466  0.7203  0.0439
14061SOL    HW143624   3.348   2.266   6.013  0.9457 -0.5664  1.5880
14061SOL    HW243625   3.202   2.282   5.976  1.8297 -0.9347 -2.6304
14062SOL     OW43626   5.151   3.262   4.872  0.3791  0.0530  0.2274
14062SOL    HW143627   5.083   3.316   4.833  1.8810  1.4046 -0.6438
14062SOL    HW243628   5.104   3.203   4.930 -1.4017  2.1836  1.1187
14063SOL     OW43629   4.100   1.335   7.441  0.3387  0.7216  0.3920
14063SOL    HW143630   4.160   1.321   7.515  0.1780  1.0320  0.5826
14063SOL    HW243631   4.149   1.391   7.381 -0.5660  2.9086  1.5898
14064SOL     OW43632   5.654   3.849   5.732  0.7102 -0.0875  0.3600
14064SOL    HW143633   5.652   3.834   5.637 -1.8896 -0.4091  0.3986
14064SOL    HW243634   5.598   3.925   5.745  1.4392  0.2576  1.6287
14065SOL     OW43635   6.056   2.448   6.975 -0.0416 -0.1124  0.0401
14065SOL    HW143636   6.005   2.435   7.055  0.3022 -0.7294  0.1625
14065SOL    HW243637   6.141   2.482   7.006 -1.0136  2.9735 -0.2770
14066SOL     OW43638   3.434   1.602   6.162  0.4543 -0.1293  0.0320
14066SOL    HW143639   3.368   1.565   6.102  0.8960  0.9830 -1.1905
14066SOL    HW243640   3.393   1.682   6.196  0.7294 -0.0471  0.1724
14067SOL     OW43641   4.803   2.169   6.411  0.2580  0.1035 -0.3168
14067SOL    HW143642   4.759   2.223   6.346  2.7198  1.4472 -1.0084
14067SOL    HW243643   4.831   2.231   6.479 -0.4640 -0.9673  0.9989
14068SOL     OW43644   6.030   3.508   5.667  0.3357  0.4612  0.1594
14068SOL    HW143645   5.983   3.431   5.701 -1.0656  0.6163 -1.3208
14068SOL    HW243646   6.107   3.515   5.724 -0.8259 -0.4895  1.9704
14069SOL     OW43647   6.291   1.537   6.581  0.4525 -0.1353  0.2407
14069SOL    HW143648   6.345   1.508   6.506 -2.2330 -2.9538 -0.8043
14069SOL    HW243649   6.205   1.552   6.543 -0.1346  1.9856  2.2547
14070SOL     OW43650   4.258   0.761   7.802 -0.2569  0.2118 -0.5337
14070SOL    HW143651   4.318   0.825   7.842 -1.9544  0.7525  1.2813
14070SOL    HW243652   4.292   0.676   7.830 -1.2112  0.5642  1.9148
14071SOL     OW43653   3.795   2.385   8.199 -0.1662 -0.0404  0.5328
14071SOL    HW143654   3.865   2.325   8.174  0.7464  1.4371 -0.6654
14071SOL    HW243655   3.725   2.368   8.136  0.6508  1.0532 -0.7516
14072SOL     OW43656   5.399   3.214   5.670 -0.0197 -0.1319 -0.0178
14072SOL    HW143657   5.316   3.232   5.627  0.0337  0.0077 -0.0620
14072SOL    HW243658   5.409   3.119   5.663  0.2226 -0.0618 -0.7462
14073SOL     OW43659   4.216   2.859   5.256  0.0820  0.0213 -0.3196
14073SOL    HW143660   4.266   2.852   5.337 -0.0658  0.1424 -0.2150
14073SOL    HW243661   4.226   2.951   5.230 -0.9487  0.3244  0.2754
14074SOL     OW43662   2.643   7.666   5.903  0.4495 -0.1536 -0.4552
14074SOL    HW143663   2.581   7.607   5.945 -0.5929  2.2157  1.6101
14074SOL    HW243664   2.593   7.707   5.833  0.6893 -0.5447 -0.8608
14075SOL     OW43665   3.938   3.880   7.675  0.1142 -0.0730 -0.4325
14075SOL    HW143666   3.856   3.911   7.715  0.1575 -1.8879  1.2748
14075SOL    HW243667   3.920   3.880   7.581 -1.5478  0.3800 -0.1618
14076SOL     OW43668   6.590   2.469   6.449  0.3799 -0.1195  0.5681
14076SOL    HW143669   6.549   2.535   6.394  2.0449  0.1991 -0.3697
14076SOL    HW243670   6.684   2.483   6.437  0.7934 -2.6139  0.3549
14077SOL     OW43671   4.548   3.582   8.634  0.3329 -0.7441  1.3725
14077SOL    HW143672   4.556   3.622   8.547 -0.5691 -1.1741  1.0802
14077SOL    HW243673   4.547   3.488   8.616  0.5822 -0.8499  1.8965
14078SOL     OW43674   5.112   2.697   8.079 -0.2696  0.2534 -0.7157
14078SOL    HW143675   5.136   2.736   7.995 -2.1989  3.2050 -0.0339
14078SOL    HW243676   5.021   2.722   8.093 -0.4157 -1.2516  1.7095
14079SOL     OW43677   4.120   1.875   7.220 -0.0700 -0.0191  0.1345
14079SOL    HW143678   4.213   1.875   7.197  0.2869 -2.2175  1.3702
14079SOL    HW243679   4.084   1.799   7.175 -1.1678  0.4746  0.1497
14080SOL     OW43680   7.322   4.831   4.807 -0.0693  0.3179 -0.4638
14080SOL    HW143681   7.393   4.895   4.801 -0.1529  0.4673  0.0863
14080SOL    HW243682   7.255   4.874   4.860 -0.6514  0.2445 -1.1253
14081SOL     OW43683   5.017   3.700   6.646  0.7997  0.1965 -0.2788
14081SOL    HW143684   4.973   3.692   6.731  1.2421  2.8630  0.2994
14081SOL    HW243685   4.951   3.739   6.589  1.5627  1.7472 -0.1354
14082SOL     OW43686   4.394   2.396   4.768  0.4599 -0.0540 -0.4134
14082SOL    HW143687   4.487   2.414   4.754  0.5217 -0.5921 -0.7299
14082SOL    HW243688   4.354   2.482   4.782  0.8831  0.2412 -1.0055
14083SOL     OW43689   6.851   2.318   6.701  0.5002 -0.2792  0.1671
14083SOL    HW143690   6.841   2.406   6.739  0.9344  0.6979 -1.8881
14083SOL    HW243691   6.889   2.266   6.772  0.4643  1.2403  1.3533
14084SOL     OW43692   4.752   1.876   7.147  0.0013 -0.1055 -0.4161
14084SOL    HW143693   4.694   1.824   7.093  0.2138 -0.8697  0.0782
14084SOL    HW243694   4.797   1.813   7.203  1.6271  0.4266 -1.0732
14085SOL     OW43695   5.970   3.876   4.077  0.4470  0.2369  0.2074
14085SOL    HW143696   5.906   3.805   4.079  1.3022 -0.5749  0.0625
14085SOL    HW243697   5.929   3.948   4.124 -1.2315  0.3433 -1.3339
14086SOL     OW43698   3.073   1.435   6.710 -0.2672 -0.0499 -0.1524
14086SOL    HW143699   3.019   1.376   6.762  1.2001 -0.9430  0.4313
14086SOL    HW243700   3.154   1.443   6.761  0.6388  0.2218 -1.6021
14087SOL     OW43701   3.469   1.984   5.267 -0.0232  0.1967  0.3114
14087SOL    HW143702   3.394   1.961   5.212  0.0593 -1.1059  0.7116
14087SOL    HW243703   3.443   1.957   5.355  1.9114 -2.8170  0.0754
14088SOL     OW43704   4.504   2.549   6.188  0.0236 -0.5600  0.3606
14088SOL    HW143705   4.549   2.470   6.218 -0.1167 -0.1461  1.7150
14088SOL    HW243706   4.470   2.590   6.268 -1.8013 -0.2657 -0.4945
14089SOL     OW43707   4.249   1.006   5.452  0.1383  0.0012  0.5130
14089SOL    HW143708   4.160   1.037   5.467 -0.8735 -2.5503  0.3561
14089SOL    HW243709   4.287   1.000   5.540 -0.5157 -0.6570  0.7597
14090SOL     OW43710   5.247   2.709   6.946  0.1987  0.0156 -0.2633
14090SOL    HW143711   5.199   2.639   6.991 -2.4651  1.3645 -0.8481
14090SOL    HW243712   5.312   2.738   7.010 -2.7289  1.1286  2.4279
14091SOL     OW43713   4.857   3.454   6.799 -0.2533 -0.3125 -0.0725
14091SOL    HW143714   4.860   3.549   6.814  1.7325 -0.2519 -0.5359
14091SOL    HW243715   4.920   3.418   6.862  0.1326 -1.1486 -0.9065
14092SOL     OW43716   4.990   2.607   6.831  0.1719  0.2703  0.5183
14092SOL    HW143717   4.934   2.647   6.764  0.7522  2.4580  1.2412
14092SOL    HW243718   5.078   2.608   6.793  0.5433  1.7371  1.3345
14093SOL     OW43719   5.469   4.018   5.914  0.0789 -0.2364 -0.1304
14093SOL    HW143720   5.460   4.042   6.006  0.1145 -1.3617  0.1915
14093SOL    HW243721   5.381   4.026   5.878 -0.0929 -0.5248  0.2080
14094SOL     OW43722   4.316   2.191   7.049  0.0841  0.1529 -0.0132
14094SOL    HW143723   4.312   2.285   7.063 -0.6471  0.5125 -2.2753
14094SOL    HW243724   4.232   2.169   7.008  0.6677 -1.3034 -0.5045
14095SOL     OW43725   2.882   2.103   5.855 -0.1337 -0.0257 -0.3234
14095SOL    HW143726   2.875   2.167   5.784 -0.0698  0.6433  0.2530
14095SOL    HW243727   2.973   2.073   5.851  0.7580  2.1830  1.2450
14096SOL     OW43728   5.798   3.394   3.418  0.6347  0.1371 -0.4263
14096SOL    HW143729   5.880   3.346   3.409  0.2663 -0.2021 -2.9134
14096SOL    HW243730   5.733   3.337   3.376 -0.9872  0.2056  1.8505
14097SOL     OW43731   5.648   1.481   4.357 -0.2546  0.6040  0.1615
14097SOL    HW143732   5.610   1.566   4.379  1.2182  1.2700  0.2891
14097SOL    HW243733   5.612   1.460   4.271 -1.1084  1.0496  0.3935
14098SOL     OW43734   5.003   0.976   6.000  0.3371 -0.3480 -0.3035
14098SOL    HW143735   4.973   0.996   6.089  0.1972 -1.0201 -0.1947
14098SOL    HW243736   5.073   1.040   5.983  0.0222  0.1053  0.0979
14099SOL     OW43737   7.101   2.775   5.976  0.4643 -0.1053  0.5578
14099SOL    HW143738   7.183   2.798   5.933 -0.9414 -1.4828 -3.2584
14099SOL    HW243739   7.079   2.688   5.943 -1.1646 -1.0769  3.7527
14100SOL     OW43740   5.588   3.721   7.082  0.4756 -0.4471 -0.9041
14100SOL    HW143741   5.637   3.742   7.162 -1.0840 -0.2849  0.0494
14100SOL    HW243742   5.541   3.640   7.103 -0.6742  0.0937 -1.2963
14101SOL     OW43743   3.402   1.944   5.547 -0.4081  0.4751  0.0644
14101SOL    HW143744   3.443   1.943   5.633 -0.5493 -2.1353  0.1795
14101SOL    HW243745   3.348   2.022   5.547 -1.3303 -0.0694  2.8116
14102SOL     OW43746   5.034   3.197   5.905 -0.3603  0.3620 -0.2635
14102SOL    HW143747   5.006   3.285   5.879  0.2231  0.3071 -1.1257
14102SOL    HW243748   5.115   3.212   5.954 -1.7273  0.5114  2.1176
14103SOL     OW43749   2.665   3.219   5.558 -0.2575 -0.1295 -0.3191
14103SOL    HW143750   2.726   3.146   5.569 -0.5782 -0.3976 -0.2891
14103SOL    HW243751   2.635   3.212   5.467  2.2083  1.9420 -1.4021
14104SOL     OW43752   4.224   1.900   6.881  0.0408 -0.6211 -0.3906
14104SOL    HW143753   4.154   1.886   6.945  0.8943  0.3601  0.8112
14104SOL    HW243754   4.193   1.973   6.827  0.4438  0.3781  0.6752
14105SOL     OW43755   2.683   0.663   5.876 -0.0038 -0.5685 -0.0505
14105SOL    HW143756   2.718   0.727   5.815 -0.8639 -0.4478 -0.4384
14105SOL    HW243757   2.760   0.620   5.913  0.5696  0.4420 -0.0445
14106SOL     OW43758   4.705   0.987   7.428 -0.6406  0.6174 -0.1643
14106SOL    HW143759   4.679   0.990   7.336  1.9343  1.4296 -0.9602
14106SOL    HW243760   4.777   0.923   7.430 -0.8249  0.4205  1.3395
14107SOL     OW43761   4.519   2.871   6.248  0.2109 -0.0151  0.1529
14107SOL    HW143762   4.607   2.864   6.212  0.1342  1.6147 -0.4631
14107SOL    HW243763   4.462   2.873   6.171 -0.2015  0.6052  0.4629
14108SOL     OW43764   5.856   2.120   5.244 -0.4409 -0.0554 -0.6686
14108SOL    HW143765   5.932   2.067   5.267 -0.4588 -0.7177 -2.0646
14108SOL    HW243766   5.850   2.114   5.148 -0.4189  2.4915 -0.9008
14109SOL     OW43767   6.029   2.963   9.105 -0.1005  0.6795 -0.1550
14109SOL    HW143768   5.962   3.031   9.103 -2.1524 -1.1958  0.0729
14109SOL    HW243769   6.059   2.957   9.014 -1.5548  0.3972 -0.6514
14110SOL     OW43770   6.211   3.965   6.668 -0.0655  0.1912  0.2598
14110SOL    HW143771   6.131   3.937   6.712 -0.0081  1.0739  0.9542
14110SOL    HW243772   6.192   3.954   6.575 -1.1571  0.7898  0.3921
14111SOL     OW43773   6.032   2.539   4.808 -0.5249  0.4320 -0.2063
14111SOL    HW143774   5.940   2.523   4.787 -1.4658  2.4733  1.9148
14111SOL    HW243775   6.052   2.474   4.875 -0.7368  0.6008  0.0237
14112SOL     OW43776   4.020   1.677   5.978  0.2963 -0.3982  0.1001
14112SOL    HW143777   4.072   1.730   5.917  1.4578 -0.4565  0.9973
14112SOL    HW243778   3.934   1.720   5.980  0.1574 -0.5044 -1.6900
14113SOL     OW43779   5.451   3.119   7.480 -0.0779  0.3285  0.1453
14113SOL    HW143780   5.426   3.173   7.555 -0.8147  0.9399 -0.5181
14113SOL    HW243781   5.368   3.097   7.438 -0.0479 -3.0407  1.5013
14114SOL     OW43782   5.609   1.912   7.751 -0.5501  0.7148 -0.0412
14114SOL    HW143783   5.562   1.902   7.834  0.7657  0.1780  0.6564
14114SOL    HW243784   5.689   1.960   7.774  0.1221  0.0168 -0.8895
14115SOL     OW43785   5.291   3.995   4.963 -0.2687 -0.2261 -0.2042
14115SOL    HW143786   5.201   3.961   4.956 -0.6774  1.0468 -1.7468
14115SOL    HW243787   5.281   4.077   5.011  0.1877 -0.4286  0.2446
14116SOL     OW43788   3.373   1.940   6.932  0.7243 -0.2933  0.9066
14116SOL    HW143789   3.384   1.988   6.850  1.5038  0.2250  1.3060
14116SOL    HW243790   3.315   1.995   6.985  0.1368 -0.6770  0.6766
14117SOL     OW43791   5.401   3.818   8.063  0.5831  0.2625  0.1582
14117SOL    HW143792   5.338   3.876   8.021 -0.2093 -1.6030 -1.3973
14117SOL    HW243793   5.353   3.736   8.076  1.9360 -0.3741  1.3658
14118SOL     OW43794   4.868   3.240   7.907  0.5657  0.1340 -0.1073
14118SOL    HW143795   4.838   3.296   7.979 -0.7607 -1.0424  0.3165
14118SOL    HW243796   4.860   3.294   7.829 -0.6527  0.5537  0.2902
14119SOL     OW43797   3.266   2.101   7.109  0.1606  0.0693 -0.2691
14119SOL    HW143798   3.254   2.187   7.149 -0.4448  0.4830 -1.3213
14119SOL    HW243799   3.258   2.039   7.182 -2.3244  0.7024  0.0922
14120SOL     OW43800   3.862   2.683   7.058 -0.0730  0.1430  0.3951
14120SOL    HW143801   3.846   2.777   7.067 -1.6638  0.2181 -2.1298
14120SOL    HW243802   3.820   2.644   7.134 -2.7330  1.2762 -0.3671
14121SOL     OW43803   4.561   0.792   6.971 -0.1688  0.3728  0.0114
14121SOL    HW143804   4.482   0.739   6.978  0.4553 -0.9043 -1.8442
14121SOL    HW243805   4.551   0.838   6.888  1.7508 -1.1603 -1.1500
14122SOL     OW43806   5.156   3.438   6.634 -0.0142  0.9089  0.4590
14122SOL    HW143807   5.091   3.508   6.649 -2.2247 -1.3224  2.1105
14122SOL    HW243808   5.218   3.449   6.706 -0.9174  0.6037  1.3055
14123SOL     OW43809   4.333   4.021   7.788  0.1121 -0.2870  0.4973
14123SOL    HW143810   4.284   4.064   7.858  0.5163  0.4356  0.3382
14123SOL    HW243811   4.398   4.085   7.761 -0.4316 -0.3242 -0.9691
14124SOL     OW43812   3.783   2.391   7.015  0.2344  0.0530  0.0247
14124SOL    HW143813   3.858   2.426   7.063  1.3960 -0.2334 -1.4755
14124SOL    HW243814   3.822   2.347   6.939 -1.4422 -0.4479 -0.5972
14125SOL     OW43815   3.731   2.800   6.739  0.5845  0.0471  0.3219
14125SOL    HW143816   3.700   2.865   6.802  0.7890  0.3582  0.1051
14125SOL    HW243817   3.808   2.840   6.699  1.8892 -1.1272  1.5614
14126SOL     OW43818   4.881   2.601   6.058 -0.1175 -0.2822  0.4437
14126SOL    HW143819   4.920   2.536   5.999  0.0615  1.2367 -1.1664
14126SOL    HW243820   4.846   2.549   6.130  0.3659 -2.1338 -0.5914
14127SOL     OW43821   5.952   1.841   5.548  0.0774 -0.0618  0.1225
14127SOL    HW143822   6.040   1.811   5.568 -0.7932 -1.6507  1.9428
14127SOL    HW243823   5.900   1.761   5.539 -1.2390  0.8298 -0.6281
14128SOL     OW43824   5.395   2.137   5.598 -0.2148  0.2176  0.1614
14128SOL    HW143825   5.479   2.103   5.629 -0.6113  0.3812  1.5063
14128SOL    HW243826   5.330   2.078   5.638 -0.7791  0.8047  0.1193
14129SOL     OW43827   3.147   2.368   5.799 -0.4215  0.6154  0.4058
14129SOL    HW143828   3.122   2.453   5.834 -0.7312  1.0181 -0.7366
14129SOL    HW243829   3.066   2.332   5.762  0.2201  1.0433 -1.5262
14130SOL     OW43830   4.768   2.825   6.154  0.2484  0.1907 -0.0170
14130SOL    HW143831   4.790   2.896   6.094  0.9441  0.3537  0.4192
14130SOL    HW243832   4.792   2.745   6.108  0.4148  0.2960 -0.1145
14131SOL     OW43833   3.803   1.037   6.660 -0.0033 -0.0699  0.5904
14131SOL    HW143834   3.719   1.019   6.617  1.3525  0.2231 -2.4889
14131SOL    HW243835   3.838   0.950   6.682 -0.2824 -0.3056  0.1215
14132SOL     OW43836   4.013   7.559   8.226  0.8683 -0.1762  0.4780
14132SOL    HW143837   3.950   7.511   8.279 -0.4772  0.2542 -0.6640
14132SOL    HW243838   3.962   7.629   8.185  1.8878 -0.3515 -1.1928
14133SOL     OW43839   3.978   2.710   6.154  0.3342  0.4690  0.1671
14133SOL    HW143840   3.977   2.800   6.121 -1.4191 -0.2519 -2.0030
14133SOL    HW243841   4.055   2.670   6.115 -1.4449 -0.2311 -3.0135
14134SOL     OW43842   4.822   2.242   4.344 -0.7927 -0.3159 -0.1690
14134SOL    HW143843   4.815   2.164   4.398  1.6070  0.9111  2.1516
14134SOL    HW243844   4.889   2.221   4.279 -0.2829 -0.2810  0.3381
14135SOL     OW43845   4.004   2.390   6.037 -0.0948  0.4570  0.0693
14135SOL    HW143846   3.927   2.431   6.076 -0.0140  2.3639 -1.6248
14135SOL    HW243847   4.076   2.450   6.059 -0.0663  1.6988 -3.0010
14136SOL     OW43848   4.294   1.610   6.812 -0.1891 -0.4037  0.0414
14136SOL    HW143849   4.232   1.633   6.743 -0.9161  0.7197  1.0374
14136SOL    HW243850   4.307   1.691   6.862  2.0130 -0.6304 -0.0606
14137SOL     OW43851   5.060   3.338   7.285 -0.0184  0.5984 -0.0023
14137SOL    HW143852   5.136   3.341   7.344 -0.7177  2.7220  0.8692
14137SOL    HW243853   4.985   3.341   7.344 -0.7754  0.2476 -0.9325
14138SOL     OW43854   4.382   2.918   5.989  0.2169  0.5931 -0.7010
14138SOL    HW143855   4.350   3.007   5.971 -0.6971 -0.2318 -3.6215
14138SOL    HW243856   4.303   2.864   5.990  0.9737 -0.5800 -1.8970
14139SOL     OW43857   2.168   0.332   5.309 -0.3644  0.1630 -0.6885
14139SOL    HW143858   2.243   0.382   5.342 -0.4123 -0.3761  0.2669
14139SOL    HW243859   2.110   0.322   5.385 -1.2610  0.3095 -1.3448
14140SOL     OW43860   5.399   7.724   5.887  0.1466 -0.6709  0.0515
14140SOL    HW143861   5.386   7.777   5.966  0.7226  1.5302 -1.2208
14140SOL    HW243862   5.311   7.694   5.863 -0.6156  1.7237 -0.4331
14141SOL     OW43863   5.005   3.726   7.140  0.2292  0.1134 -0.4197
14141SOL    HW143864   5.004   3.820   7.159 -1.3311  0.0632 -0.0902
14141SOL    HW243865   4.957   3.687   7.213  2.2546 -1.1644  0.3404
14142SOL     OW43866   5.429   2.813   7.117 -0.0779 -0.1294 -0.1385
14142SOL    HW143867   5.374   2.883   7.153  1.3493  0.7106  0.5320
14142SOL    HW243868   5.507   2.859   7.085 -0.7651 -0.9781 -3.3350
14143SOL     OW43869   3.909   3.428   7.840 -0.1440 -0.5088  0.3590
14143SOL    HW143870   3.833   3.474   7.875  0.0296  0.5121 -0.5598
14143SOL    HW243871   3.921   3.465   7.752  0.4352 -1.8029 -0.1372
14144SOL     OW43872   5.085   3.947   5.504  0.2297 -0.6054 -0.7311
14144SOL    HW143873   5.050   4.032   5.530 -0.7883 -1.4297  0.7491
14144SOL    HW243874   5.016   3.908   5.450  0.8302 -0.3901 -1.6847
14145SOL     OW43875   4.150   2.203   5.150  0.2330 -0.0934 -0.2071
14145SOL    HW143876   4.156   2.289   5.193  2.8305  0.7740 -2.0582
14145SOL    HW243877   4.106   2.147   5.214  0.9097  1.9310  2.1758
14146SOL     OW43878   4.421   2.746   6.481 -0.0426  0.6313 -0.5343
14146SOL    HW143879   4.418   2.810   6.552  0.4693  0.8168 -0.6746
14146SOL    HW243880   4.455   2.795   6.406  1.4209 -0.0496 -0.3633
14147SOL     OW43881   3.020   2.444   6.388 -0.6481 -0.1682  0.3788
14147SOL    HW143882   2.933   2.416   6.361 -0.8122 -0.5283  1.2532
14147SOL    HW243883   3.016   2.447   6.484 -0.0394  0.9317  0.3866
14148SOL     OW43884   3.706   1.957   6.059  0.1431  0.2437 -0.0980
14148SOL    HW143885   3.692   1.877   6.110 -1.8676  1.0778  0.7611
14148SOL    HW243886   3.801   1.967   6.055  0.3939 -0.5352  2.4160
14149SOL     OW43887   4.123   2.835   5.914  0.0709  0.0019 -0.1604
14149SOL    HW143888   4.063   2.880   5.974 -1.0183  0.9626 -1.8758
14149SOL    HW243889   4.067   2.776   5.864  0.4911  0.9409 -1.8245
14150SOL     OW43890   5.412   1.494   4.666 -0.0406  0.1237  0.0333
14150SOL    HW143891   5.426   1.586   4.641 -1.6906  0.1642 -0.8317
14150SOL    HW243892   5.317   1.484   4.668  0.1212 -1.5409  0.2594
14151SOL     OW43893   6.668   3.454   6.849  0.4309  0.1809 -0.1875
14151SOL    HW143894   6.597   3.512   6.822 -1.6600 -1.5578  1.1979
14151SOL    HW243895   6.699   3.490   6.932 -0.4505 -0.3123  0.3686
14152SOL     OW43896   4.343   1.131   5.706 -0.3524  0.2002 -0.1517
14152SOL    HW143897   4.283   1.203   5.691  0.5937  0.8890 -0.7791
14152SOL    HW243898   4.427   1.173   5.724  0.3815 -0.7327 -1.2471
14153SOL     OW43899   3.074   1.722   7.457  0.2668  0.1947 -0.3502
14153SOL    HW143900   3.083   1.630   7.431  0.9294 -0.2716  1.4035
14153SOL    HW243901   2.980   1.738   7.454  0.1750 -0.4061 -1.0877
14154SOL     OW43902   4.615   2.294   6.236  0.2762 -0.1238  0.3613
14154SOL    HW143903   4.527   2.259   6.249 -0.3906  1.7411  1.1729
14154SOL    HW243904   4.631   2.284   6.142 -1.3358  0.6558 -0.0404
14155SOL     OW43905   5.408   2.475   7.143  0.2140 -0.1363 -0.6318
14155SOL    HW143906   5.486   2.450   7.095 -1.1959 -1.8703 -2.1637
14155SOL    HW243907   5.417   2.570   7.155  1.2105  0.2142 -3.3371
14156SOL     OW43908   5.236   2.631   6.071  0.3216  0.9231  0.6260
14156SOL    HW143909   5.168   2.689   6.037 -1.9910 -2.0983 -0.4706
14156SOL    HW243910   5.194   2.586   6.145  0.6755 -1.6176 -0.5827
14157SOL     OW43911   4.512   3.301   8.305 -0.0669  0.2514  0.1892
14157SOL    HW143912   4.425   3.337   8.319 -0.9684 -2.4051  2.1435
14157SOL    HW243913   4.549   3.292   8.393  2.2291  1.2719 -0.5786
14158SOL     OW43914   5.310   2.930   5.670 -0.2621  0.1606  0.2767
14158SOL    HW143915   5.215   2.932   5.676 -0.4677  1.2030 -2.1448
14158SOL    HW243916   5.328   2.887   5.586  1.3805  0.5491  0.3919
14159SOL     OW43917   4.220   2.547   6.127 -0.5961 -0.3276  0.6652
14159SOL    HW143918   4.309   2.560   6.094 -1.2354  0.7301 -0.7692
14159SOL    HW243919   4.230   2.541   6.222  0.9854 -0.1550  0.5381
14160SOL     OW43920   6.645   2.171   6.437  0.5562 -0.0448  0.2576
14160SOL    HW143921   6.573   2.232   6.419 -1.0878 -1.4515  1.6866
14160SOL    HW243922   6.717   2.227   6.466 -0.1335  1.3652 -0.6173
14161SOL     OW43923   5.816   3.421   6.845  0.1481  0.0587  0.5094
14161SOL    HW143924   5.727   3.417   6.812  0.6105  1.1543 -0.9183
14161SOL    HW243925   5.812   3.482   6.919 -0.5052 -0.8893  1.2843
14162SOL     OW43926   4.800   4.662   7.260 -0.2016 -0.3637 -0.4385
14162SOL    HW143927   4.757   4.707   7.187  0.4877 -1.5892 -1.6437
14162SOL    HW243928   4.774   4.712   7.337 -3.4452 -0.8095 -1.1137
14163SOL     OW43929   4.998   4.528   6.165 -0.3711  0.3444 -0.0584
14163SOL    HW143930   4.945   4.568   6.234 -0.1204 -0.6213  0.7143
14163SOL    HW243931   4.937   4.472   6.118 -0.2736  0.0386  0.1747
14164SOL     OW43932   5.305   1.525   5.107 -0.4993 -0.1653  0.4596
14164SOL    HW143933   5.337   1.514   5.196  0.7272  0.9343  0.1765
14164SOL    HW243934   5.374   1.488   5.052 -0.8392 -0.0212 -0.0721
14165SOL     OW43935   6.275   2.966   4.397 -0.2858  0.3301 -0.1998
14165SOL    HW143936   6.343   3.033   4.389 -0.6485  0.7324  0.0473
14165SOL    HW243937   6.215   2.983   4.324  0.2562 -0.4705 -0.8446
14166SOL     OW43938   3.016   4.949   6.288 -0.0683  0.1089 -0.1532
14166SOL    HW143939   2.949   4.889   6.321 -0.2366 -0.4683 -1.4788
14166SOL    HW243940   3.098   4.903   6.302 -0.0831  0.1474  0.0594
14167SOL     OW43941   5.089   3.121   6.302 -0.0674 -0.2081 -0.0912
14167SOL    HW143942   5.072   3.202   6.254 -1.6820  0.5753  1.6642
14167SOL    HW243943   5.137   3.066   6.240  1.4835  2.2136 -1.2017
14168SOL     OW43944   5.665   4.919   6.191  0.5920 -0.2123  0.0630
14168SOL    HW143945   5.640   4.998   6.143  2.0003  0.3851  0.2949
14168SOL    HW243946   5.599   4.854   6.165  0.2714  0.6117 -1.2803
14169SOL     OW43947   5.445   2.504   6.224 -0.4324 -0.6482  0.2251
14169SOL    HW143948   5.365   2.549   6.250 -1.1396 -2.2045  0.8446
14169SOL    HW243949   5.415   2.426   6.177  0.7577 -0.5233 -0.8233
14170SOL     OW43950   5.408   2.339   5.238 -0.6122  0.8143 -0.1166
14170SOL    HW143951   5.453   2.379   5.313 -1.1964 -0.1580  0.7910
14170SOL    HW243952   5.321   2.376   5.240 -0.5139  1.0689 -0.5483
14171SOL     OW43953   5.118   3.649   4.805  0.2454 -0.2339  0.0879
14171SOL    HW143954   5.078   3.724   4.848  0.5612  0.0012 -0.0210
14171SOL    HW243955   5.062   3.575   4.827 -1.8878  0.5056 -2.3309
14172SOL     OW43956   5.320   3.469   6.831  0.1135  0.0744  0.3254
14172SOL    HW143957   5.296   3.395   6.887 -0.7968  0.4963  0.5049
14172SOL    HW243958   5.310   3.546   6.887  1.3104  0.3204  0.2167
14173SOL     OW43959   4.368   2.833   5.495 -0.4131  0.1371 -0.0458
14173SOL    HW143960   4.415   2.906   5.534 -0.5381  0.2511 -0.1104
14173SOL    HW243961   4.379   2.761   5.557 -0.9290  0.4222  0.3789
14174SOL     OW43962   4.319   4.808   5.756 -0.3412  0.2026  0.5114
14174SOL    HW143963   4.278   4.740   5.702  1.6081  1.3919 -2.7556
14174SOL    HW243964   4.249   4.870   5.775 -1.7806 -1.7693  2.1802
14175SOL     OW43965   6.002   3.703   8.290 -0.0981 -0.3773 -0.5528
14175SOL    HW143966   6.052   3.705   8.208 -2.7700 -3.1784 -2.4856
14175SOL    HW243967   5.940   3.776   8.282 -1.2931 -1.4776 -1.8027
14176SOL     OW43968   4.322   1.992   5.846 -0.3012  0.0208  0.6503
14176SOL    HW143969   4.239   2.035   5.868  0.4596  0.6790  2.3916
14176SOL    HW243970   4.384   2.064   5.833  0.2495 -0.4880  0.4001
14177SOL     OW43971   4.387   3.127   6.380 -0.2247  0.5044  0.1321
14177SOL    HW143972   4.393   3.034   6.356  0.9004  0.6074 -0.0104
14177SOL    HW243973   4.478   3.156   6.385 -0.4554  0.9827  2.5819
14178SOL     OW43974   5.107   0.232   6.551  0.0280  0.3296  0.3069
14178SOL    HW143975   5.039   0.299   6.545 -0.2869 -0.0507 -0.6177
14178SOL    HW243976   5.156   0.241   6.469  0.1804 -0.3515  0.3190
14179SOL     OW43977   4.908   3.634   7.882 -0.3102  0.1416  0.4573
14179SOL    HW143978   4.882   3.622   7.791 -1.1316  1.3774  0.5155
14179SOL    HW243979   4.933   3.726   7.889  0.4288 -0.1054  1.3194
14180SOL     OW43980   3.560   2.578   5.942  0.3171 -0.0673 -0.3396
14180SOL    HW143981   3.553   2.622   6.026 -1.1009  0.2756 -0.6224
14180SOL    HW243982   3.481   2.604   5.894  1.0654 -0.2925 -1.7547
14181SOL     OW43983   2.518   1.969   3.506  0.0381  0.1833 -0.6473
14181SOL    HW143984   2.522   1.999   3.597  0.1830  1.0846 -0.9393
14181SOL    HW243985   2.574   2.030   3.459 -0.8568  0.3506 -1.5140
14182SOL     OW43986   4.598   2.894   5.829  0.0512  0.4024 -0.0286
14182SOL    HW143987   4.540   2.904   5.905 -1.6882 -3.7960 -0.5310
14182SOL    HW243988   4.552   2.939   5.758 -1.0208 -0.1621  0.2873
14183SOL     OW43989   3.896   1.896   4.037 -0.0062 -0.0070 -0.1107
14183SOL    HW143990   3.819   1.903   3.981 -0.6447  0.4498  0.7857
14183SOL    HW243991   3.860   1.898   4.126  1.1230  1.5076  0.3506
14184SOL     OW43992   5.785   3.664   6.012  0.0976 -0.4273 -0.4551
14184SOL    HW143993   5.789   3.684   5.919 -0.3889 -1.3477 -0.6801
14184SOL    HW243994   5.691   3.668   6.033  0.2792  0.8574  0.2498
14185SOL     OW43995   4.219   2.689   7.213 -0.0692 -0.2985 -0.0900
14185SOL    HW143996   4.176   2.666   7.295 -1.7809  0.1283 -0.8342
14185SOL    HW243997   4.171   2.765   7.180  3.3081  2.3662  0.6246
14186SOL     OW43998   5.549   3.299   6.146  0.2068  0.1514 -0.9421
14186SOL    HW143999   5.614   3.345   6.199 -0.2476  0.5647 -0.7354
14186SOL    HW244000   5.558   3.338   6.059 -1.0938  1.6203 -0.4613
14187SOL     OW44001   3.962   2.407   7.894 -0.1220 -0.9981 -0.5887
14187SOL    HW144002   3.869   2.423   7.881 -0.6018 -1.8482  1.3712
14187SOL    HW244003   3.996   2.488   7.932 -0.1496 -0.8524 -0.8704
14188SOL     OW44004   5.306   3.715   6.224 -0.5188  0.0949  0.3080
14188SOL    HW144005   5.338   3.639   6.273 -0.4211 -0.8978 -1.2286
14188SOL    HW244006   5.255   3.677   6.153  1.7011  1.3081 -2.0816
14189SOL     OW44007   4.088   4.382   6.688  0.0900 -0.0896  0.4214
14189SOL    HW144008   4.120   4.468   6.715  0.3967 -0.4394  1.2178
14189SOL    HW244009   4.028   4.401   6.616 -1.9872  1.1093  2.2816
14190SOL     OW44010   4.309   1.686   7.850  0.0517 -0.1862  0.0334
14190SOL    HW144011   4.309   1.688   7.945 -1.2099 -0.2345  0.0551
14190SOL    HW244012   4.366   1.759   7.824  1.3238 -0.8681  0.8016
14191SOL     OW44013   5.412   3.956   5.572 -0.1371  0.4217  0.2472
14191SOL    HW144014   5.352   4.026   5.599 -0.0039  0.2917  0.8821
14191SOL    HW244015   5.385   3.880   5.623 -0.2311  0.0222 -0.3843
14192SOL     OW44016   4.337   2.673   4.795 -0.0654  0.7526  0.2068
14192SOL    HW144017   4.293   2.754   4.771  1.0067  1.1872 -0.3279
14192SOL    HW244018   4.347   2.679   4.890  0.9520  1.7441  0.0550
14193SOL     OW44019   6.208   4.991   5.778 -0.1928 -0.0262 -0.2226
14193SOL    HW144020   6.157   4.920   5.817  0.5700 -0.6701 -0.3804
14193SOL    HW244021   6.247   4.952   5.700  0.9012  0.3338  0.1307
14194SOL     OW44022   6.242   3.170   6.791 -0.0169  0.3539 -0.0587
14194SOL    HW144023   6.288   3.167   6.707 -0.0543  0.5158 -0.0860
14194SOL    HW244024   6.303   3.215   6.850  0.3443 -0.4892  0.2143
14195SOL     OW44025   4.943   1.969   6.289  0.2438  0.1337  0.0962
14195SOL    HW144026   4.921   1.976   6.196 -1.5434 -3.1484  0.0883
14195SOL    HW244027   4.897   2.042   6.330  0.3983  1.1675 -1.4837
14196SOL     OW44028   6.107   3.531   5.039  0.0763  0.0227 -0.4220
14196SOL    HW144029   6.182   3.563   5.090  0.0330 -1.0405  0.3285
14196SOL    HW244030   6.039   3.597   5.055  1.1857  1.7170 -2.1543
14197SOL     OW44031   7.084   3.489   6.335 -0.1535  0.0981 -0.7583
14197SOL    HW144032   7.051   3.434   6.407  0.5937  1.1595  0.4209
14197SOL    HW244033   7.041   3.453   6.257 -1.7952 -0.4336  0.3316
14198SOL     OW44034   3.738   2.095   7.106 -0.5959 -0.0482 -0.4560
14198SOL    HW144035   3.793   2.102   7.184 -1.2908  0.1311  0.0341
14198SOL    HW244036   3.720   2.186   7.082  0.5127 -0.0779 -1.4957
14199SOL     OW44037   4.150   2.607   7.471 -0.2820  0.0045 -0.9151
14199SOL    HW144038   4.096   2.677   7.507  1.5777  2.0221 -1.7747
14199SOL    HW244039   4.129   2.530   7.523 -2.0994  1.3073  0.3781
14200SOL     OW44040   5.660   2.473   7.424 -0.0875  0.2227  0.1128
14200SOL    HW144041   5.690   2.415   7.355  0.4766  1.6535 -0.8838
14200SOL    HW244042   5.614   2.543   7.379 -1.1914  0.3257  1.3226
14201SOL     OW44043   3.089   3.309   6.223 -0.0085  0.3689 -0.2517
14201SOL    HW144044   3.096   3.313   6.128 -0.6156  0.7752 -0.2836
14201SOL    HW244045   3.035   3.385   6.246  0.7759  0.7208  0.4800
14202SOL     OW44046   5.886   3.934   6.388  0.4353 -0.2575 -0.2044
14202SOL    HW144047   5.924   3.960   6.304  1.7323  0.4595  0.5755
14202SOL    HW244048   5.840   4.013   6.418 -0.2439 -0.5922 -0.3364
14203SOL     OW44049   4.031   2.145   6.983  0.3564 -0.2394  0.1268
14203SOL    HW144050   4.015   2.184   6.898 -2.2210  0.4274  0.8370
14203SOL    HW244051   3.966   2.075   6.991 -1.1020  1.2523  2.4281
14204SOL     OW44052   6.345   2.459   6.024  0.0903 -0.1140 -0.1612
14204SOL    HW144053   6.381   2.430   5.941 -0.3736 -0.6527 -0.1740
14204SOL    HW244054   6.422   2.474   6.079  0.4484  1.1107 -0.9549
14205SOL     OW44055   5.432   1.482   6.935  0.1007  0.2144  0.1814
14205SOL    HW144056   5.403   1.507   7.023  1.5020 -1.6987  1.2542
14205SOL    HW244057   5.472   1.562   6.900  0.5662  0.7251  1.7528
14206SOL     OW44058   5.521   7.963   5.205  0.9550 -0.6394  0.2772
14206SOL    HW144059   5.590   8.024   5.177  1.3136 -0.9301  0.5023
14206SOL    HW244060   5.458   8.018   5.251  1.6618 -0.5331  1.1637
14207SOL     OW44061   0.055   2.704   6.370  0.4677 -0.4610  0.5214
14207SOL    HW144062  -0.033   2.742   6.370 -0.0469 -1.5068 -1.2106
14207SOL    HW244063   0.098   2.742   6.446 -1.8120 -0.6808  2.0214
14208SOL     OW44064   4.487   1.362   5.933  0.5809 -0.3835  0.4129
14208SOL    HW144065   4.399   1.400   5.936  0.1756 -1.2722 -0.0006
14208SOL    HW244066   4.535   1.408   6.002 -0.4698 -0.5644  1.2845
14209SOL     OW44067   3.790   2.807   5.868 -0.1731  0.3868 -0.0146
14209SOL    HW144068   3.695   2.801   5.858 -0.1283 -0.9571  0.0939
14209SOL    HW244069   3.824   2.801   5.778 -0.1988  1.4389 -0.1037
14210SOL     OW44070   3.999   3.118   7.351 -0.5425 -0.0991 -0.3967
14210SOL    HW144071   4.081   3.158   7.381 -0.6342 -0.4534  0.3426
14210SOL    HW244072   3.975   3.169   7.273  0.0526  0.4014 -0.2654
14211SOL     OW44073   4.044   2.242   8.689  0.0195 -0.5706  0.7644
14211SOL    HW144074   3.985   2.279   8.623 -0.0498  0.0251  1.1494
14211SOL    HW244075   3.987   2.191   8.746 -0.1864  0.2401  1.3064
14212SOL     OW44076   4.443   2.679   8.622  0.2159 -0.0834 -0.3781
14212SOL    HW144077   4.412   2.622   8.551  1.4417 -0.7769 -0.3765
14212SOL    HW244078   4.390   2.654   8.698 -0.0485 -0.4095 -0.6647
14213SOL     OW44079   5.738   4.299   8.570  0.3622 -0.7262 -0.4243
14213SOL    HW144080   5.647   4.292   8.600  0.2461 -0.0460 -0.5966
14213SOL    HW244081   5.743   4.385   8.530  1.1396 -0.6773 -0.2373
14214SOL     OW44082   2.957   1.000   8.478  0.2990  0.4053  0.0237
14214SOL    HW144083   2.958   0.905   8.493 -2.8620  0.3532  0.5227
14214SOL    HW244084   2.943   1.009   8.384 -0.4678  0.3198  0.1203
14215SOL     OW44085   6.769   2.341   8.170  0.1684  0.3282 -0.0491
14215SOL    HW144086   6.744   2.345   8.262 -0.8973 -0.2656 -0.2943
14215SOL    HW244087   6.774   2.432   8.141 -2.1863  0.5037 -0.0786
14216SOL     OW44088   2.458   3.141   8.943 -0.2928  0.4656 -0.7845
14216SOL    HW144089   2.367   3.139   8.972 -0.3344  1.2659 -0.8551
14216SOL    HW244090   2.505   3.186   9.014  0.0896 -0.1032 -0.6604
14217SOL     OW44091   5.982   2.496   8.072 -0.4006  0.4058 -0.5463
14217SOL    HW144092   5.987   2.523   7.980 -1.6629 -1.9361 -1.3823
14217SOL    HW244093   5.927   2.562   8.114 -0.1697  1.2688 -1.5741
14218SOL     OW44094   5.410   2.347   9.625 -0.1057  0.1845 -0.1817
14218SOL    HW144095   5.379   2.435   9.646 -3.1511 -0.6389 -0.7786
14218SOL    HW244096   5.501   2.347   9.654  0.2613  3.7380 -0.8377
14219SOL     OW44097   4.700   2.696   8.269 -0.2915 -0.1362 -0.5084
14219SOL    HW144098   4.634   2.626   8.265  0.3112 -1.2008  3.5951
14219SOL    HW244099   4.652   2.771   8.305  0.2111 -0.2050  0.3248
14220SOL     OW44100   4.312   2.276   7.657  0.3143 -0.2835 -0.3674
14220SOL    HW144101   4.360   2.350   7.620 -0.3494 -0.0138 -0.7049
14220SOL    HW244102   4.220   2.296   7.639  0.1185 -1.1014 -0.2888
14221SOL     OW44103   4.352   2.195   6.153 -0.4298  0.0656  0.3335
14221SOL    HW144104   4.398   2.111   6.159 -1.0254 -0.3289 -0.3303
14221SOL    HW244105   4.327   2.201   6.060 -2.3282 -0.0973  0.7777
14222SOL     OW44106   4.266   2.547   6.795 -0.7347  0.4554 -0.7664
14222SOL    HW144107   4.180   2.590   6.789 -0.6869  0.9962  1.4887
14222SOL    HW244108   4.327   2.618   6.811 -0.3129 -0.1570  0.5579
14223SOL     OW44109   5.718   2.738  11.717 -0.2758 -0.3098  0.3364
14223SOL    HW144110   5.660   2.679  11.669 -0.5498  0.0748  0.1811
14223SOL    HW244111   5.797   2.687  11.732 -0.7266 -0.9084  0.7243
14224SOL     OW44112   3.779   4.157   7.493  0.2132 -0.1107 -0.2218
14224SOL    HW144113   3.866   4.196   7.499 -0.3317  0.9653  1.4520
14224SOL    HW244114   3.741   4.170   7.580 -1.9764  0.2990 -1.1780
14225SOL     OW44115   4.803   2.119   7.021  0.0976 -0.2443  0.2954
14225SOL    HW144116   4.894   2.143   7.004  0.3271 -0.8118  0.6909
14225SOL    HW244117   4.807   2.065   7.099 -0.8733  1.7811  1.8194
14226SOL     OW44118   4.912   0.804   8.948 -0.4608  0.2418  0.7385
14226SOL    HW144119   5.000   0.820   8.915  0.3408 -1.0481  2.1670
14226SOL    HW244120   4.870   0.890   8.946  0.5458  0.7397 -0.6889
14227SOL     OW44121   3.532   2.083   6.231 -0.3488 -0.3507  0.1209
14227SOL    HW144122   3.562   2.168   6.200 -3.2071  0.6813 -0.1695
14227SOL    HW244123   3.583   2.019   6.181  0.9065  1.2026 -0.6537
14228SOL     OW44124   5.985   4.825   5.928 -0.2410  0.2402  0.6232
14228SOL    HW144125   5.962   4.799   5.839 -0.7238 -1.4617  1.2192
14228SOL    HW244126   5.920   4.781   5.984  1.6087 -0.8715  2.0077
14229SOL     OW44127   4.575   3.642   8.357 -0.3775  0.0960 -0.1813
14229SOL    HW144128   4.488   3.633   8.317 -0.5747  0.8314  0.0635
14229SOL    HW244129   4.627   3.574   8.315 -1.0231 -0.2347 -0.4703
14230SOL     OW44130   4.984   2.361   9.322  0.7321  0.0730  0.1886
14230SOL    HW144131   4.938   2.359   9.238  1.1203 -0.8557 -0.0138
14230SOL    HW244132   4.937   2.426   9.374 -0.5735 -0.5739 -0.1533
14231SOL     OW44133   5.678   3.303   8.606 -0.2397 -0.2300  0.1384
14231SOL    HW144134   5.667   3.384   8.557 -1.0664 -0.2747  0.2465
14231SOL    HW244135   5.656   3.234   8.544  2.1727 -0.5044 -0.5096
14232SOL     OW44136   3.705   2.255   7.612 -0.1108 -0.1458 -0.0167
14232SOL    HW144137   3.684   2.286   7.523 -0.1516  0.6207  0.2512
14232SOL    HW244138   3.625   2.210   7.640 -1.2053  2.0658  0.6892
14233SOL     OW44139   3.659   1.851   6.809 -0.5404 -0.5004  0.0781
14233SOL    HW144140   3.614   1.845   6.894  0.9186 -0.4938  0.8886
14233SOL    HW244141   3.703   1.937   6.811 -0.1171 -0.6971 -0.4750
14234SOL     OW44142   4.676   3.091   9.258  0.0794 -0.0602 -0.3939
14234SOL    HW144143   4.640   3.126   9.176  0.6009 -0.4400 -0.7932
14234SOL    HW244144   4.769   3.110   9.253 -0.0460  0.9287  0.6406
14235SOL     OW44145   3.077   0.044   7.333 -0.1387  0.0030 -0.0395
14235SOL    HW144146   3.083  -0.027   7.268  3.2556 -0.9447  1.0841
14235SOL    HW244147   3.005   0.017   7.391 -0.0356 -1.6426 -0.6211
14236SOL     OW44148   4.266   1.642   7.594  0.2513  0.3806  0.6418
14236SOL    HW144149   4.274   1.650   7.689 -0.9141  2.1202  0.6445
14236SOL    HW244150   4.206   1.713   7.569  0.9040  0.2560 -1.4554
14237SOL     OW44151   4.768   2.976   7.886 -0.1173  0.1897  0.1053
14237SOL    HW144152   4.805   3.065   7.884  0.0615  0.1959  1.9026
14237SOL    HW244153   4.674   2.990   7.899 -0.3438  0.1080 -1.2342
14238SOL     OW44154   3.941   1.913  10.106 -0.0900  0.1395 -0.3568
14238SOL    HW144155   3.994   1.906  10.185  0.4851 -0.2251 -0.7688
14238SOL    HW244156   3.932   2.007  10.091 -0.7392  0.2233  0.4906
14239SOL     OW44157   5.394   2.254   8.190  0.3633 -0.0380 -0.8077
14239SOL    HW144158   5.380   2.335   8.141  2.2282  1.2289  0.6079
14239SOL    HW244159   5.482   2.226   8.165  1.0222  0.1871  1.1309
14240SOL     OW44160   6.129   2.026   8.535 -0.3296 -0.4751  0.4039
14240SOL    HW144161   6.083   2.057   8.457 -0.7747  2.4096  1.6776
14240SOL    HW244162   6.207   2.081   8.541  0.8908 -2.1787  0.8197
14241SOL     OW44163   4.551   2.884   8.382 -0.2681 -0.4293 -0.5036
14241SOL    HW144164   4.481   2.923   8.329  0.5942  1.1502 -0.5508
14241SOL    HW244165   4.572   2.952   8.447  1.6137 -0.6056 -0.8766
14242SOL     OW44166   5.338   2.807   8.734  0.1898 -0.6107 -0.0007
14242SOL    HW144167   5.304   2.892   8.761  0.3694 -0.6065  0.2142
14242SOL    HW244168   5.262   2.750   8.734  0.4153 -0.9617  1.9386
14243SOL     OW44169   5.000   3.382   7.024  0.2105  0.5180  0.1719
14243SOL    HW144170   4.982   3.296   7.063  0.5212  0.1435 -0.4916
14243SOL    HW244171   5.020   3.439   7.099  0.3570 -0.0759  0.5908
14244SOL     OW44172   4.474   1.724   7.423  0.1252 -0.1271  0.1980
14244SOL    HW144173   4.437   1.769   7.347 -0.4526 -0.4176  0.3000
14244SOL    HW244174   4.400   1.679   7.463  1.0404 -3.4786 -1.4540
14245SOL     OW44175   6.084   3.328   9.695 -0.1970 -0.5273  0.2947
14245SOL    HW144176   6.103   3.265   9.626 -0.4791  0.4012 -0.6561
14245SOL    HW244177   6.046   3.277   9.765 -1.3518 -1.2754 -0.8470
14246SOL     OW44178   4.356   4.439   8.981  0.0527 -0.5323 -0.7082
14246SOL    HW144179   4.362   4.534   8.974 -0.9719 -0.4089 -0.1152
14246SOL    HW244180   4.385   4.406   8.896 -0.2111  0.3440 -1.1404
14247SOL     OW44181   4.865   2.658   8.684  0.2752  0.7474  0.3763
14247SOL    HW144182   4.882   2.715   8.609  0.7121 -0.1355 -0.2234
14247SOL    HW244183   4.817   2.712   8.746 -0.2617  1.4389 -0.6277
14248SOL     OW44184   4.417   2.506   7.505 -0.0540  0.5901  0.2148
14248SOL    HW144185   4.331   2.547   7.496  0.5132  1.7005 -0.2573
14248SOL    HW244186   4.458   2.550   7.579 -0.8482 -1.7417  2.2107
14249SOL     OW44187   3.051   2.830   7.321  0.5956  0.0919 -0.2137
14249SOL    HW144188   2.997   2.845   7.243 -1.4227 -0.6314  0.9415
14249SOL    HW244189   3.081   2.917   7.347  0.7058  0.4206 -1.3837
14250SOL     OW44190   4.574   2.463   7.845  0.2489 -0.5789 -0.3783
14250SOL    HW144191   4.567   2.533   7.780  1.4353  0.4061  0.5151
14250SOL    HW244192   4.665   2.465   7.874 -0.3846 -0.5664  1.7614
14251SOL     OW44193   4.523   1.836   7.796 -0.4893 -0.6492 -0.0051
14251SOL    HW144194   4.512   1.921   7.839  0.3664 -1.2003  1.3630
14251SOL    HW244195   4.550   1.858   7.707  2.4669  0.5614  1.0481
14252SOL     OW44196   1.747   3.981   7.635 -0.4986  0.1066  0.0443
14252SOL    HW144197   1.786   4.066   7.655 -0.5732 -0.1063  1.1368
14252SOL    HW244198   1.808   3.918   7.672  0.4868 -0.4248 -2.3027
14253SOL     OW44199   5.230   0.833   7.272  0.1985 -0.2785 -0.0686
14253SOL    HW144200   5.237   0.754   7.325 -0.7197 -0.9744 -0.9500
14253SOL    HW244201   5.232   0.802   7.182  3.9566  1.0319 -0.6380
14254SOL     OW44202   6.697   5.017   8.100  0.0998 -0.5911  0.5687
14254SOL    HW144203   6.612   5.058   8.118  0.5569 -0.0281  1.5755
14254SOL    HW244204   6.708   5.023   8.005 -0.9868 -0.6769  0.4295
14255SOL     OW44205   3.961   3.740   8.303 -0.4778 -0.4481  0.1059
14255SOL    HW144206   3.978   3.677   8.233 -2.3682 -0.3898 -0.4893
14255SOL    HW244207   3.866   3.756   8.297 -0.4524  0.5861  1.8222
14256SOL     OW44208   7.201   3.747   6.844 -0.3230  0.1737  0.2945
14256SOL    HW144209   7.170   3.678   6.904 -0.2455 -0.0136  0.1210
14256SOL    HW244210   7.123   3.776   6.799 -0.4866  0.7712  0.9503
14257SOL     OW44211   3.609   3.020   7.385 -0.6547  0.0771  0.3659
14257SOL    HW144212   3.659   3.054   7.459 -0.8178  0.0447  0.4923
14257SOL    HW244213   3.659   3.046   7.307  1.7188 -3.3518  0.5625
14258SOL     OW44214   4.807   3.182   6.653  0.6187  0.5030  0.4003
14258SOL    HW144215   4.806   3.251   6.719  0.3366  1.2492 -0.3713
14258SOL    HW244216   4.764   3.220   6.577  0.8021 -0.3956 -0.1756
14259SOL     OW44217   3.737   1.688   9.320 -0.1524  0.0989  0.5343
14259SOL    HW144218   3.740   1.782   9.339 -2.3439  0.1488  1.0110
14259SOL    HW244219   3.718   1.682   9.227 -1.9391  0.2409  0.8463
14260SOL     OW44220   2.826   1.874   7.525  0.5098  0.3111 -0.4103
14260SOL    HW144221   2.762   1.942   7.549 -0.2082 -0.4064 -0.2400
14260SOL    HW244222   2.906   1.899   7.572  0.5044  1.4729 -0.9801
14261SOL     OW44223   5.032   3.931   8.599  0.0178  0.2438  0.0191
14261SOL    HW144224   4.939   3.917   8.581  0.1138  0.3002 -0.5439
14261SOL    HW244225   5.035   3.962   8.689 -0.5747  0.8961 -0.1782
14262SOL     OW44226   2.500   3.722   7.796 -0.1628 -0.3517 -0.2752
14262SOL    HW144227   2.474   3.812   7.811  0.8651  0.0836 -0.9217
14262SOL    HW244228   2.582   3.729   7.747  1.0267 -1.6228  1.4075
14263SOL     OW44229   4.159   0.142   7.486 -0.5683  0.2188  0.1119
14263SOL    HW144230   4.176   0.063   7.537 -0.9929 -0.7780 -1.2233
14263SOL    HW244231   4.225   0.204   7.515 -0.3939 -0.5320  1.3919
14264SOL     OW44232   4.713   4.032   8.278 -0.2058  0.2007  0.0104
14264SOL    HW144233   4.635   4.087   8.286  0.7424  1.8219 -1.1776
14264SOL    HW244234   4.752   4.058   8.194 -0.5615 -3.4982 -1.4638
14265SOL     OW44235   2.921   1.550   8.301 -0.3364 -0.0842 -0.0673
14265SOL    HW144236   3.017   1.556   8.300 -0.2933 -0.3379  1.1236
14265SOL    HW244237   2.892   1.637   8.274  0.2345  0.0316 -0.3318
14266SOL     OW44238   5.164   2.164   8.083 -0.4127 -0.0963  0.1477
14266SOL    HW144239   5.134   2.073   8.081 -0.9255  0.0810 -0.7025
14266SOL    HW244240   5.253   2.159   8.116 -0.3123 -0.9461 -0.2164
14267SOL     OW44241   4.012   2.641   6.815 -0.3571  0.1772  0.3185
14267SOL    HW144242   3.983   2.721   6.771 -0.2416  0.5675  0.9318
14267SOL    HW244243   3.968   2.644   6.900  0.7725  0.3305  0.9171
14268SOL     OW44244   4.145   0.694   9.545 -0.9866 -0.0085 -0.7288
14268SOL    HW144245   4.150   0.785   9.574 -0.5316 -0.2416 -0.0502
14268SOL    HW244246   4.162   0.698   9.450  0.8173  0.4449 -0.4198
14269SOL     OW44247   3.543   2.948   8.746 -0.0757  0.1046  0.1402
14269SOL    HW144248   3.468   2.994   8.709 -1.7692 -1.8913  0.8339
14269SOL    HW244249   3.571   2.889   8.677 -1.3742 -1.5370  0.9273
14270SOL     OW44250   4.758   4.094   8.554  0.2768 -0.1914 -0.0070
14270SOL    HW144251   4.735   4.004   8.576 -1.2517  0.0559 -0.4760
14270SOL    HW244252   4.765   4.094   8.459 -0.6738  0.3662 -0.0915
14271SOL     OW44253   3.879   2.135   7.952 -0.0190  0.0127  0.1029
14271SOL    HW144254   3.932   2.207   7.919 -0.6033  0.7125  0.6603
14271SOL    HW244255   3.794   2.174   7.971 -1.1122 -1.2975 -1.7730
14272SOL     OW44256   5.161   1.829   7.215 -0.1038  0.6283 -0.4349
14272SOL    HW144257   5.197   1.862   7.132  0.3804  0.8646 -0.1347
14272SOL    HW244258   5.195   1.740   7.223 -1.0195  0.2018 -1.0064
14273SOL     OW44259   5.365   1.916   6.734 -0.3835  0.0068  0.0693
14273SOL    HW144260   5.455   1.882   6.731 -0.8455 -1.2706 -2.7603
14273SOL    HW244261   5.368   1.996   6.682 -0.6723  0.6145  0.9720
14274SOL     OW44262   5.051   1.466   7.199  0.2806 -0.3966 -0.2264
14274SOL    HW144263   5.061   1.454   7.294 -0.1225 -0.4731 -0.1933
14274SOL    HW244264   5.053   1.377   7.164 -3.6379 -0.7822  0.1053
14275SOL     OW44265   7.528   2.628   4.764 -0.3930 -0.5297 -0.0907
14275SOL    HW144266   7.592   2.672   4.820  1.1906 -1.0942 -1.3758
14275SOL    HW244267   7.542   2.666   4.678 -1.0432 -1.4474 -0.6222
14276SOL     OW44268   4.416   3.271   8.006  0.3305  0.1756 -0.1064
14276SOL    HW144269   4.458   3.273   8.092  1.3510  1.1026 -0.6087
14276SOL    HW244270   4.330   3.233   8.023  0.6253  0.0605  1.2748
14277SOL     OW44271   5.267   3.569   8.110  0.2223  0.4574 -0.3777
14277SOL    HW144272   5.277   3.529   8.196  0.1449  0.7163 -0.2453
14277SOL    HW244273   5.190   3.626   8.119  0.2458  0.5257 -0.6028
14278SOL     OW44274   3.950   1.808   6.979  0.2275 -0.1603 -0.1696
14278SOL    HW144275   3.909   1.757   7.049  0.2019 -0.0670 -0.1167
14278SOL    HW244276   3.952   1.749   6.904 -0.6531  0.0675 -0.3819
14279SOL     OW44277   4.321   1.843   8.346  0.1616 -0.5030  0.7457
14279SOL    HW144278   4.358   1.799   8.424  2.0375  0.6743  0.5858
14279SOL    HW244279   4.255   1.903   8.381 -1.5201 -2.4378  1.0749
14280SOL     OW44280   3.674   2.839   9.152 -0.7732 -0.0847  0.3171
14280SOL    HW144281   3.712   2.883   9.076  0.3742  1.2627  1.6158
14280SOL    HW244282   3.750   2.806   9.201 -1.3771  0.6044  1.7724
14281SOL     OW44283   2.626   2.250   9.524 -0.1246  0.1730  0.2960
14281SOL    HW144284   2.702   2.307   9.512  0.8024 -0.7520  1.4574
14281SOL    HW244285   2.551   2.304   9.499  0.7226  1.8716  1.2415
14282SOL     OW44286   4.506   2.836   7.365  0.9725  0.1986  0.0683
14282SOL    HW144287   4.485   2.928   7.351 -0.2373 -0.1774 -0.7769
14282SOL    HW244288   4.441   2.807   7.430 -0.0774 -0.5534 -1.2643
14283SOL     OW44289   4.029   7.554   7.671  0.2399 -0.1304 -0.7300
14283SOL    HW144290   4.055   7.490   7.738  1.5647  1.8212  0.7219
14283SOL    HW244291   4.095   7.545   7.603  0.7435  0.0576 -0.2737
14284SOL     OW44292   5.445   3.079   7.865 -0.1659  0.7390 -0.7862
14284SOL    HW144293   5.455   3.119   7.952 -1.5568  0.2972 -0.3930
14284SOL    HW244294   5.411   3.149   7.810  0.3847  0.9231 -0.9044
14285SOL     OW44295   4.501   2.997   7.953  0.8192 -0.0569  0.4269
14285SOL    HW144296   4.437   3.010   7.883  1.9293 -0.5359 -0.7171
14285SOL    HW244297   4.470   3.052   8.025 -1.5651 -1.2121  0.4037
14286SOL     OW44298   5.424   3.321   7.690  0.1215 -0.1078  0.3954
14286SOL    HW144299   5.518   3.306   7.677  0.1598 -0.8749  1.4817
14286SOL    HW244300   5.419   3.377   7.768 -0.0723  4.8653 -2.6861
14287SOL     OW44301   5.410   3.636   7.615  0.5770  0.2560 -0.4897
14287SOL    HW144302   5.357   3.596   7.683  3.0748  0.4680  1.7607
14287SOL    HW244303   5.393   3.730   7.623 -0.8273  0.1479 -1.7724
14288SOL     OW44304   4.875   2.256   7.277  0.4066 -0.3931 -0.0500
14288SOL    HW144305   4.856   2.344   7.243 -0.0337 -0.5691 -0.2717
14288SOL    HW244306   4.912   2.209   7.202  1.6024 -0.0983  0.3377
14289SOL     OW44307   3.521   1.265   7.132 -0.3281  0.2358 -0.1368
14289SOL    HW144308   3.475   1.287   7.051 -0.5386  0.1892 -0.0316
14289SOL    HW244309   3.571   1.343   7.154  1.6234 -0.5161 -1.5756
14290SOL     OW44310   4.986   1.815   7.542 -0.0452  0.2459 -0.3269
14290SOL    HW144311   5.013   1.905   7.525 -1.0075  0.7562  0.7173
14290SOL    HW244312   4.996   1.771   7.458 -0.0630  1.4511 -0.9839
14291SOL     OW44313   5.593   3.018   8.403 -0.1587  0.0447 -0.1800
14291SOL    HW144314   5.499   3.038   8.396 -0.1535  1.6326  2.8829
14291SOL    HW244315   5.597   2.941   8.459  0.4061  0.7255  0.7210
14292SOL     OW44316   4.953   3.060   8.132 -0.3767 -0.2377  0.7027
14292SOL    HW144317   4.864   3.031   8.152 -0.1672 -1.3894  0.0946
14292SOL    HW244318   4.961   3.050   8.037  0.8647 -1.6167  0.9044
14293SOL     OW44319   4.404   2.772   6.856  0.3928 -0.3681  0.3280
14293SOL    HW144320   4.445   2.789   6.941  1.2851  0.0100 -0.1582
14293SOL    HW244321   4.435   2.844   6.801 -0.1038 -0.6641 -0.3441
14294SOL     OW44322   3.358   1.230   9.115 -0.0630 -0.6413  0.3641
14294SOL    HW144323   3.308   1.207   9.194 -0.1882 -0.0424  0.4635
14294SOL    HW244324   3.356   1.151   9.061 -0.3666 -0.9050  0.7603
14295SOL     OW44325   4.375   3.842  10.014  0.6324 -0.3362 -0.3019
14295SOL    HW144326   4.285   3.870  10.032  0.2370 -0.9992 -1.1260
14295SOL    HW244327   4.372   3.813   9.922  1.8679  0.3403 -0.5753
14296SOL     OW44328   3.313   2.334   7.235  0.4456 -0.2914  0.2962
14296SOL    HW144329   3.377   2.318   7.304  1.6521 -0.7566 -0.8976
14296SOL    HW244330   3.306   2.430   7.231  1.1719 -0.2306  0.3511
14297SOL     OW44331   4.187   2.296   9.443 -0.0616  0.0176 -0.4624
14297SOL    HW144332   4.140   2.216   9.420 -1.5302  0.9869 -0.9953
14297SOL    HW244333   4.173   2.355   9.369 -0.0596  1.1982  0.4366
14298SOL     OW44334   4.480   2.147   8.414  0.3146 -0.6319  0.1571
14298SOL    HW144335   4.488   2.062   8.458  1.0170 -0.7303 -0.1389
14298SOL    HW244336   4.388   2.170   8.422 -0.0082 -1.7225 -0.2917
14299SOL     OW44337   3.754   3.121   7.565  0.3717  0.3018 -0.1233
14299SOL    HW144338   3.832   3.160   7.526 -0.7853  0.8789 -1.9857
14299SOL    HW244339   3.781   3.099   7.654  1.8168  3.1176  0.2490
14300SOL     OW44340   4.989   0.583   7.647 -0.3865 -0.5838  0.5085
14300SOL    HW144341   4.913   0.536   7.612 -1.0904  0.6828  0.2371
14300SOL    HW244342   4.952   0.665   7.680  0.9046  0.1712  0.1314
14301SOL     OW44343   4.860   2.723   7.047  0.4058 -0.0279 -0.3336
14301SOL    HW144344   4.867   2.654   7.114 -2.7639 -0.5834 -0.4459
14301SOL    HW244345   4.902   2.685   6.970  3.0261  0.1494  0.8787
14302SOL     OW44346   5.429   4.345   8.607 -0.0512  0.5532 -0.6505
14302SOL    HW144347   5.407   4.427   8.562 -0.8758  0.3544 -0.6386
14302SOL    HW244348   5.408   4.276   8.544  1.5056  0.3716 -0.9949
14303SOL     OW44349   5.023   1.427   7.859 -0.1922  0.4550  0.0933
14303SOL    HW144350   4.983   1.413   7.773 -0.0158 -0.0831  0.0943
14303SOL    HW244351   4.952   1.410   7.922 -0.6512  2.0045  0.0419
14304SOL     OW44352   4.269   1.195   8.343  0.7291 -0.2276 -0.1156
14304SOL    HW144353   4.355   1.194   8.384  0.8086 -1.2475 -0.2880
14304SOL    HW244354   4.288   1.201   8.249  0.5742  0.8838 -0.0891
14305SOL     OW44355   4.860   3.026   7.569 -0.0841  0.1818 -0.1424
14305SOL    HW144356   4.884   3.117   7.585 -1.4499  0.8190 -1.5351
14305SOL    HW244357   4.765   3.024   7.580 -0.1521 -0.9223 -0.8246
14306SOL     OW44358   7.254   3.420   9.811 -0.0168  0.2245 -0.4881
14306SOL    HW144359   7.247   3.452   9.901  1.9432 -2.1340  0.6155
14306SOL    HW244360   7.173   3.371   9.797 -0.2964  0.5326  0.0234
14307SOL     OW44361   3.238   1.147  10.074 -0.2124 -0.1471 -0.0021
14307SOL    HW144362   3.207   1.192   9.995 -0.1053  0.1055  0.1005
14307SOL    HW244363   3.175   1.076  10.087 -0.5715  0.1750  0.0292
14308SOL     OW44364   5.317   3.054   8.415 -0.4460  0.2978  0.3690
14308SOL    HW144365   5.231   3.089   8.393 -0.5727  0.4760  1.1310
14308SOL    HW244366   5.307   3.018   8.503  0.1881  0.0840  0.3569
14309SOL     OW44367   5.053   2.479  10.987 -0.1831 -0.4250 -0.2495
14309SOL    HW144368   5.119   2.409  10.988 -0.3406 -0.5704  0.1959
14309SOL    HW244369   5.048   2.505  10.895  2.0124  1.0562 -0.0249
14310SOL     OW44370   4.128   2.896   8.061 -0.4386 -0.0815  0.5440
14310SOL    HW144371   4.115   2.980   8.016  0.3859 -0.0020  0.4522
14310SOL    HW244372   4.080   2.906   8.144 -1.3810  0.0244  0.0097
14311SOL     OW44373   4.615   2.035   8.889 -0.8631 -0.2947  0.3617
14311SOL    HW144374   4.697   2.033   8.839 -0.8571 -0.4219  0.3768
14311SOL    HW244375   4.551   2.075   8.830 -1.5912 -3.0066 -0.8412
14312SOL     OW44376   5.044   2.557   9.013  0.9060  0.1797 -0.5868
14312SOL    HW144377   4.955   2.524   9.027  0.1856  1.2517 -2.2584
14312SOL    HW244378   5.086   2.551   9.098 -0.6691 -0.6290  0.1777
14313SOL     OW44379   4.894   3.050   8.551  0.8302  0.5060 -0.0972
14313SOL    HW144380   4.907   3.144   8.535  0.3385  0.3328 -1.6508
14313SOL    HW244381   4.802   3.043   8.576  1.2724  0.6108  1.6817
14314SOL     OW44382   3.523   1.711   8.606  0.6043 -0.0138 -0.0811
14314SOL    HW144383   3.592   1.771   8.579  0.7712 -0.8455 -1.6265
14314SOL    HW244384   3.443   1.748   8.570  0.0613  1.3480  2.3399
14315SOL     OW44385   5.022   2.098   7.515  1.0545  0.0132 -0.0188
14315SOL    HW144386   5.013   2.106   7.610  0.4483 -0.5564 -0.0175
14315SOL    HW244387   4.989   2.181   7.480  0.3219 -0.1609  0.2297
14316SOL     OW44388   4.332   1.116   7.426 -0.0400  0.1274 -0.0318
14316SOL    HW144389   4.348   1.143   7.336 -0.4044  0.6410  0.0564
14316SOL    HW244390   4.340   1.196   7.477  0.0731 -0.1444  0.3828
14317SOL     OW44391   5.703   3.101   8.172  0.0961 -0.3872 -0.4708
14317SOL    HW144392   5.675   3.036   8.107  0.4567 -1.0931  0.0600
14317SOL    HW244393   5.658   3.074   8.253 -0.5748  0.6474 -0.4824
14318SOL     OW44394   4.202   2.552   8.730  0.2699 -0.2941  0.7185
14318SOL    HW144395   4.216   2.460   8.708  0.4077 -0.3356  0.9722
14318SOL    HW244396   4.110   2.558   8.754 -0.0189 -0.1373 -0.3967
14319SOL     OW44397   6.878   1.258   6.070  0.1083  0.8680  0.1650
14319SOL    HW144398   6.867   1.195   5.999 -1.1104  1.2827 -0.0394
14319SOL    HW244399   6.890   1.342   6.025  2.3995  0.7313  0.4189
14320SOL     OW44400   4.960   2.209   7.829 -0.5857  0.2912 -0.4527
14320SOL    HW144401   4.879   2.182   7.872 -0.2400 -1.1403 -0.6293
14320SOL    HW244402   5.028   2.160   7.874 -0.0362  0.0233 -1.5404
14321SOL     OW44403   4.543   3.275   7.661 -0.8961  0.0401 -0.1443
14321SOL    HW144404   4.486   3.337   7.616 -1.1063 -0.2417 -0.2692
14321SOL    HW244405   4.623   3.324   7.680 -0.8109  0.1653 -0.8109
14322SOL     OW44406   4.337   1.389   7.911 -0.7985  0.0437 -0.2747
14322SOL    HW144407   4.316   1.482   7.915  0.5154  0.3280  2.4927
14322SOL    HW244408   4.418   1.386   7.860  0.3322  0.7507  1.3863
14323SOL     OW44409   3.830   1.670   8.161  0.0966  0.2838 -0.0585
14323SOL    HW144410   3.879   1.611   8.218 -0.5677  0.4968  0.7589
14323SOL    HW244411   3.895   1.733   8.130  0.4488  0.2391  0.5739
14324SOL     OW44412   3.325   1.074   8.434  0.1007 -0.1498 -0.1699
14324SOL    HW144413   3.273   1.149   8.463 -0.2719 -0.1485 -0.8462
14324SOL    HW244414   3.383   1.109   8.367  0.9675 -0.1560  0.5515
14325SOL     OW44415   6.447   4.169  10.822  0.0154 -0.8837 -0.1835
14325SOL    HW144416   6.433   4.261  10.800 -0.4385 -1.0950 -0.7800
14325SOL    HW244417   6.382   4.150  10.890  0.1781 -0.7406  0.0139
14326SOL     OW44418   3.566   2.338   7.390  0.2321  0.2367  0.1120
14326SOL    HW144419   3.532   2.400   7.455 -0.6380  0.1623 -0.2676
14326SOL    HW244420   3.619   2.392   7.331 -0.3982  0.5997 -0.1281
14327SOL     OW44421   3.835   3.884   8.011  0.6009 -0.2700  0.3717
14327SOL    HW144422   3.924   3.918   8.019  1.2913 -2.0975  0.9171
14327SOL    HW244423   3.779   3.954   8.045  1.8178  0.8854  0.0654
14328SOL     OW44424   5.509   3.464   8.428 -0.1410 -0.0374 -0.4159
14328SOL    HW144425   5.548   3.462   8.341  1.3956  0.9688  0.2151
14328SOL    HW244426   5.414   3.469   8.412  0.0980 -0.1891 -2.0025
14329SOL     OW44427   4.493   2.524   8.113  0.1214 -0.0618 -0.4267
14329SOL    HW144428   4.459   2.613   8.104 -1.5226 -0.6520 -0.3342
14329SOL    HW244429   4.511   2.496   8.023 -0.8571 -0.1793 -0.5961
14330SOL     OW44430   3.600   2.284   8.012  0.0005 -1.0251  0.8303
14330SOL    HW144431   3.611   2.332   7.930 -1.8304 -1.5392  0.2278
14330SOL    HW244432   3.526   2.226   7.995  0.6202 -2.3126  2.3340
14331SOL     OW44433   2.412   3.999   8.204  0.5918  0.2405  0.0743
14331SOL    HW144434   2.506   4.013   8.194  0.6328  0.0937  0.2504
14331SOL    HW244435   2.405   3.922   8.261  0.4231 -1.7571 -2.4232
14332SOL     OW44436   5.475   1.038   9.056  0.3738 -0.0451 -0.0647
14332SOL    HW144437   5.424   1.116   9.034 -1.6538 -0.9500  1.0999
14332SOL    HW244438   5.557   1.072   9.091  0.7278  1.4739 -2.1541
14333SOL     OW44439   4.126   2.912   7.441 -0.5131  0.2137 -0.4883
14333SOL    HW144440   4.062   2.979   7.416 -1.0799  0.7789  2.2014
14333SOL    HW244441   4.211   2.954   7.425 -0.8623  1.1569  0.0195
14334SOL     OW44442   3.806   0.849  10.134 -0.0620  0.2735 -0.0065
14334SOL    HW144443   3.840   0.846  10.044  1.9450  1.3261  0.6543
14334SOL    HW244444   3.856   0.919  10.176  0.0567 -1.1252  2.3360
14335SOL     OW44445   5.355   3.171  10.469 -0.5841 -0.4931  0.7252
14335SOL    HW144446   5.330   3.165  10.377 -0.9315 -0.4442  0.8173
14335SOL    HW244447   5.306   3.246  10.503 -0.8337 -0.8115  1.0730
14336SOL     OW44448   3.697   2.667   7.618  0.4984  0.4786  0.2402
14336SOL    HW144449   3.782   2.693   7.583  0.4465  1.5328  0.8553
14336SOL    HW244450   3.667   2.743   7.667 -0.3133 -0.2676  0.9398
14337SOL     OW44451   4.167   2.459   9.212 -0.2571 -0.2127 -0.2464
14337SOL    HW144452   4.197   2.549   9.198 -0.0611 -0.4540 -1.5133
14337SOL    HW244453   4.211   2.408   9.144  0.5238 -1.4807  1.1273
14338SOL     OW44454   7.572   2.888   8.500 -0.4977  0.0134 -0.1414
14338SOL    HW144455   7.609   2.872   8.413  0.2125 -2.5490  0.5582
14338SOL    HW244456   7.646   2.877   8.560 -1.3741 -0.1998  0.9308
14339SOL     OW44457   4.119   3.225   7.662  0.1781 -0.1047 -0.5006
14339SOL    HW144458   4.170   3.234   7.582  0.0976  2.0013 -0.3589
14339SOL    HW244459   4.098   3.314   7.688  2.5133 -0.4703  3.3848
14340SOL     OW44460   5.243   3.795   8.530  0.3972 -0.2129  0.3658
14340SOL    HW144461   5.179   3.865   8.541  0.5435  0.1266 -0.7862
14340SOL    HW244462   5.191   3.715   8.521  0.0283  0.2049 -1.7331
14341SOL     OW44463   4.551   4.167   9.302 -0.0200  0.6476  0.6516
14341SOL    HW144464   4.553   4.077   9.333 -0.8595  0.6869  0.8391
14341SOL    HW244465   4.469   4.203   9.336 -0.2255  1.1551 -0.3185
14342SOL     OW44466   5.062   2.426   7.512  0.1992  0.3366  0.0441
14342SOL    HW144467   5.156   2.422   7.492  0.7548  0.5251  2.3253
14342SOL    HW244468   5.033   2.507   7.470  1.0793  0.3400 -0.5947
14343SOL     OW44469   5.604   2.719   7.340 -0.6649  0.8830 -0.0448
14343SOL    HW144470   5.645   2.789   7.391 -0.3456  0.9406 -0.3829
14343SOL    HW244471   5.576   2.762   7.260  2.4034  0.0042 -1.7283
14344SOL     OW44472   6.000   3.972   8.004 -0.0910 -0.3915 -0.6870
14344SOL    HW144473   6.004   3.982   8.099  0.0324 -0.0070 -0.7343
14344SOL    HW244474   5.977   4.059   7.971 -0.1844 -0.5356 -1.0069
14345SOL     OW44475   5.671   3.732   8.041  0.5678 -0.0278  1.0062
14345SOL    HW144476   5.576   3.722   8.043  0.4731  0.6800  0.5679
14345SOL    HW244477   5.687   3.817   8.082  0.6729  1.7259 -2.3277
14346SOL     OW44478   5.382   4.565   9.829  0.1005 -0.5351 -0.1886
14346SOL    HW144479   5.302   4.514   9.841  0.9760 -1.9748 -0.2158
14346SOL    HW244480   5.417   4.575   9.917 -0.3450  0.5322 -0.1178
14347SOL     OW44481   4.387   2.502   8.364  0.5519 -0.0885  0.1338
14347SOL    HW144482   4.414   2.525   8.275  2.2684 -0.4684  0.5152
14347SOL    HW244483   4.294   2.522   8.366  0.4458 -0.1543 -1.7748
14348SOL     OW44484   5.671   3.727   8.508  0.0723 -0.0797  0.3400
14348SOL    HW144485   5.619   3.796   8.466  1.3951  0.7445 -0.0032
14348SOL    HW244486   5.607   3.676   8.557 -0.9822  1.2814  0.4584
14349SOL     OW44487   3.957   1.890   8.605 -0.2443 -0.0298 -0.4672
14349SOL    HW144488   3.972   1.840   8.525 -0.0098  0.8433 -0.9829
14349SOL    HW244489   4.019   1.854   8.668 -0.5817 -0.8731 -0.5993
14350SOL     OW44490   5.324   3.490   6.420  0.2709  0.1267  0.1960
14350SOL    HW144491   5.365   3.403   6.418 -1.9824 -1.0199 -1.0938
14350SOL    HW244492   5.240   3.476   6.464 -0.3147  1.5671 -0.3993
14351SOL     OW44493   5.423   2.550   9.032 -0.0707 -0.2123 -0.0040
14351SOL    HW144494   5.334   2.533   9.063 -0.2861  0.5506 -0.1862
14351SOL    HW244495   5.452   2.466   8.995 -0.1914 -0.8448  1.2743
14352SOL     OW44496   4.321   3.751   7.935  0.0236  0.0318  0.0610
14352SOL    HW144497   4.370   3.687   7.883  0.8255 -0.9846  1.9477
14352SOL    HW244498   4.230   3.723   7.929  0.3778 -1.4679  0.9938
14353SOL     OW44499   5.344   1.558   8.444 -0.3540 -0.3258  0.4981
14353SOL    HW144500   5.323   1.544   8.352 -2.4958 -2.4004  1.2112
14353SOL    HW244501   5.260   1.557   8.489  0.5568  1.4184  2.4519
14354SOL     OW44502   4.606   3.636   7.724 -0.0784 -0.2160  0.1097
14354SOL    HW144503   4.523   3.610   7.764 -0.5290 -1.2626 -1.4136
14354SOL    HW244504   4.655   3.554   7.715  0.6216  0.2181 -0.1066
14355SOL     OW44505   5.431   2.670   7.876  0.0342 -0.1588 -0.5876
14355SOL    HW144506   5.368   2.742   7.875 -0.5060 -0.6154 -0.1638
14355SOL    HW244507   5.503   2.700   7.820 -0.1021  0.7780 -0.2771
14356SOL     OW44508   4.703   3.035   8.200  0.0126  0.1292  0.4237
14356SOL    HW144509   4.663   2.976   8.264  0.4415 -0.9886 -0.3027
14356SOL    HW244510   4.691   3.123   8.237 -0.3453 -0.4338  1.6993
14357SOL     OW44511   3.962   3.045   9.158  0.1623 -0.4455  0.0730
14357SOL    HW144512   3.965   2.968   9.101  0.1887 -0.3844 -0.0068
14357SOL    HW244513   4.001   3.014   9.241  2.8287  0.2320 -0.8238
14358SOL     OW44514   5.108   1.032   8.806  0.1047  0.0677  0.0090
14358SOL    HW144515   5.172   0.961   8.800 -1.7939 -1.7168 -0.1436
14358SOL    HW244516   5.127   1.088   8.732  0.2777 -1.5038 -1.1813
14359SOL     OW44517   2.170   0.474   7.623  0.2122  0.2921 -0.5790
14359SOL    HW144518   2.245   0.446   7.675 -0.2062  2.1288  1.1336
14359SOL    HW244519   2.095   0.428   7.662 -0.1862  2.0954  0.9578
14360SOL     OW44520   5.163   3.171   7.960 -0.0467  0.0429  0.2339
14360SOL    HW144521   5.085   3.225   7.971 -0.9221 -0.9909 -0.6938
14360SOL    HW244522   5.226   3.207   8.022 -0.9342  1.4977  0.3353
14361SOL     OW44523   3.220   1.926   7.334 -0.0785 -0.1527  0.1391
14361SOL    HW144524   3.174   1.855   7.379 -0.1677 -0.7897 -0.9250
14361SOL    HW244525   3.289   1.952   7.394  0.4861 -1.7121  0.2027
14362SOL     OW44526   4.270   2.453   7.064 -0.0812 -0.1277  0.0737
14362SOL    HW144527   4.247   2.467   6.972 -0.3215  0.5235  0.2272
14362SOL    HW244528   4.267   2.541   7.103 -1.4975 -0.5808  1.0530
14363SOL     OW44529   4.927   1.665   8.294  0.1901 -0.3813 -0.2874
14363SOL    HW144530   4.885   1.746   8.265  0.5083 -0.0988  0.0273
14363SOL    HW244531   4.913   1.603   8.222 -1.4035 -0.5246  0.1046
14364SOL     OW44532   4.188   3.945   8.728  0.5065  0.2341 -0.2623
14364SOL    HW144533   4.121   3.916   8.790  1.3609  0.5511  0.8442
14364SOL    HW244534   4.257   3.879   8.734  0.8309  0.5445 -0.4829
14365SOL     OW44535   4.219   1.737   8.613 -0.1200  0.0567 -0.3718
14365SOL    HW144536   4.238   1.673   8.682 -1.0580  1.3952  1.2085
14365SOL    HW244537   4.193   1.684   8.538  1.5628 -1.4689  0.0662
14366SOL     OW44538   4.360   3.107   9.724 -0.2943 -0.0623 -0.2301
14366SOL    HW144539   4.304   3.031   9.706  0.6879 -1.1558  1.1591
14366SOL    HW244540   4.382   3.141   9.637 -2.2178 -0.2386 -0.8353
14367SOL     OW44541   4.881   2.075   8.844 -0.4737 -0.0348  0.0859
14367SOL    HW144542   4.951   2.085   8.909  0.6277 -1.1259 -0.8751
14367SOL    HW244543   4.903   2.138   8.776  2.0924 -3.0820 -2.2443
14368SOL     OW44544   5.660   2.116   8.149  0.8158  0.2265  0.0745
14368SOL    HW144545   5.688   2.130   8.239  0.4613 -0.9058  0.3761
14368SOL    HW244546   5.704   2.035   8.122 -0.2342 -0.2546 -0.2516
14369SOL     OW44547   4.777   3.811   8.645  0.1488 -0.4489 -0.5846
14369SOL    HW144548   4.827   3.768   8.714  0.4216 -1.1365 -1.2061
14369SOL    HW244549   4.696   3.761   8.639  0.4030 -0.8008 -1.2040
14370SOL     OW44550   5.971   1.955   8.871  0.7174 -0.0174 -0.1648
14370SOL    HW144551   6.012   2.024   8.923  2.6051 -0.7512 -0.5639
14370SOL    HW244552   6.031   1.880   8.881 -1.4158 -1.7406  0.5364
14371SOL     OW44553   4.760   1.915   8.254 -0.2497  0.1432 -0.4753
14371SOL    HW144554   4.787   1.948   8.340 -1.4565 -2.3391  1.0052
14371SOL    HW244555   4.703   1.983   8.219  2.1192  2.2674 -0.4651
14372SOL     OW44556   4.194   3.852   8.419 -0.4285  0.0405 -0.7299
14372SOL    HW144557   4.264   3.820   8.363 -1.2107 -0.7060 -1.3089
14372SOL    HW244558   4.113   3.821   8.377 -1.0355 -0.7440  0.9205
14373SOL     OW44559   4.285   3.394   8.419  0.2483 -0.3569 -0.0810
14373SOL    HW144560   4.243   3.479   8.408 -0.6104 -0.8308 -0.5885
14373SOL    HW244561   4.223   3.332   8.381  0.2713 -1.3583  1.4386
14374SOL     OW44562   4.505   3.289   6.662 -0.8229  0.2004  0.2848
14374SOL    HW144563   4.485   3.370   6.709 -1.8728 -0.3991  0.9213
14374SOL    HW244564   4.542   3.318   6.579  2.3060  1.3013  1.8966
14375SOL     OW44565   6.643   3.132   9.121  0.0606  0.1840 -0.1310
14375SOL    HW144566   6.549   3.151   9.122  0.1857  0.8273 -0.0861
14375SOL    HW244567   6.683   3.204   9.170  0.5306 -0.3769  0.3166
14376SOL     OW44568   2.489   3.228   7.327  0.3121  0.2693 -0.1788
14376SOL    HW144569   2.574   3.255   7.363  0.3892 -1.0387  0.7071
14376SOL    HW244570   2.499   3.237   7.232  2.1815 -1.7816 -0.2524
14377SOL     OW44571   5.010   1.525   6.935  0.1490 -0.1290  0.2265
14377SOL    HW144572   5.025   1.512   7.029  1.3847  2.6064  0.5063
14377SOL    HW244573   5.087   1.574   6.906 -1.6504  1.8308 -1.5166
14378SOL     OW44574   4.290   3.143   9.406  0.0624  0.1275  0.4918
14378SOL    HW144575   4.246   3.220   9.441 -2.0064 -1.2246  1.0497
14378SOL    HW244576   4.287   3.154   9.311  2.7889  2.2489  0.5389
14379SOL     OW44577   5.293   3.374   9.302 -0.2882 -0.3494 -0.5017
14379SOL    HW144578   5.262   3.461   9.328  0.3915 -0.4144  0.5627
14379SOL    HW244579   5.278   3.371   9.207 -1.0809  0.6067 -0.4254
14380SOL     OW44580   2.666   2.586   7.680 -0.4922 -0.0425  1.0238
14380SOL    HW144581   2.616   2.615   7.756 -1.5044 -0.3700  0.5026
14380SOL    HW244582   2.627   2.634   7.607 -0.7435 -1.0799  0.4602
14381SOL     OW44583   4.196   3.886   7.621  0.3220 -0.3294 -0.2889
14381SOL    HW144584   4.105   3.875   7.650  0.5739  0.4650  0.8472
14381SOL    HW244585   4.238   3.936   7.691  1.0089  1.5055 -1.9193
14382SOL     OW44586   4.797   2.320   7.548 -0.4586 -0.2416  0.2743
14382SOL    HW144587   4.823   2.342   7.458 -1.3873  0.8493  0.2559
14382SOL    HW244588   4.728   2.254   7.537  0.0313 -0.7540  0.2257
14383SOL     OW44589   3.866   1.845   7.472  0.3150 -0.0097  0.5134
14383SOL    HW144590   3.897   1.924   7.427  0.5123  0.2339  1.0704
14383SOL    HW244591   3.915   1.773   7.431 -1.8247 -0.2324 -1.9630
14384SOL     OW44592   5.234   3.330   7.500 -0.4840 -0.3786 -0.0447
14384SOL    HW144593   5.159   3.340   7.559 -0.9546 -1.5861 -0.4095
14384SOL    HW244594   5.306   3.305   7.557 -1.2782 -3.0139 -0.0780
14385SOL     OW44595   4.460   3.011   6.697 -0.4497  0.3996  0.2951
14385SOL    HW144596   4.492   3.101   6.685  0.3142 -0.1191 -2.1631
14385SOL    HW244597   4.366   3.016   6.682 -0.5769  0.9199  1.1834
14386SOL     OW44598   5.607   2.046   7.033 -0.5815 -0.7356 -0.2164
14386SOL    HW144599   5.636   2.030   6.943 -1.7381 -2.3257 -0.3494
14386SOL    HW244600   5.528   2.100   7.023 -1.3690 -1.8595 -0.2549
14387SOL     OW44601   5.167   2.478   7.794 -0.1880 -0.1023 -0.2142
14387SOL    HW144602   5.228   2.539   7.837 -0.5222 -0.7228  1.1966
14387SOL    HW244603   5.222   2.406   7.765 -0.1840 -0.5636  0.8751
14388SOL     OW44604   3.873   2.084   8.248 -0.1882  0.2844 -0.5567
14388SOL    HW144605   3.799   2.025   8.265 -0.2924  0.2191 -1.2357
14388SOL    HW244606   3.893   2.072   8.156 -1.4500  2.7444 -1.2218
14389SOL     OW44607   2.736   2.208  10.216  0.2988  0.0867  0.5034
14389SOL    HW144608   2.640   2.205  10.211  0.2536  0.2456  1.1537
14389SOL    HW244609   2.766   2.163  10.137 -0.3074 -0.9914  0.8731
14390SOL     OW44610   3.892   1.610  11.351  0.1384 -0.1611  0.1109
14390SOL    HW144611   3.802   1.620  11.380 -0.1860 -0.4763 -0.7573
14390SOL    HW244612   3.886   1.596  11.257  0.9837 -1.7721  0.2571
14391SOL     OW44613   4.413   3.662  10.820 -0.3935  0.5343 -0.3241
14391SOL    HW144614   4.324   3.630  10.828 -0.6780  1.5008  0.6529
14391SOL    HW244615   4.468   3.585  10.833 -1.0660 -0.3842 -2.5534
14392SOL     OW44616   5.042   4.963  12.207  0.1416 -0.6205  0.8619
14392SOL    HW144617   4.972   4.910  12.169  0.7762 -2.7744  2.4972
14392SOL    HW244618   5.117   4.904  12.211  1.7329  1.2632  0.2784
14393SOL     OW44619   5.484   3.422  10.643 -0.4359 -0.3141 -0.3058
14393SOL    HW144620   5.398   3.422  10.601 -1.9794 -0.6114  2.5557
14393SOL    HW244621   5.470   3.471  10.725  2.4099  0.5077 -0.2109
14394SOL     OW44622   4.956   1.807   8.809  0.6067 -0.5693 -0.3348
14394SOL    HW144623   5.037   1.844   8.775  1.0229  0.6794  1.8337
14394SOL    HW244624   4.892   1.878   8.805  0.6059 -0.4596  1.1854
14395SOL     OW44625   4.391   1.489   9.924 -0.6001 -0.3138  0.4097
14395SOL    HW144626   4.331   1.504   9.997 -1.0916  0.2491 -0.1031
14395SOL    HW244627   4.451   1.563   9.926 -0.0134 -0.7906  0.8189
14396SOL     OW44628   5.878   2.284  11.098 -0.3842  0.0614  0.4656
14396SOL    HW144629   5.792   2.267  11.135 -0.9772  0.9152 -0.4843
14396SOL    HW244630   5.863   2.347  11.028  0.9991  0.1541  0.2121
14397SOL     OW44631   6.389   2.451  11.524  0.2680  0.5118  0.1423
14397SOL    HW144632   6.329   2.509  11.571  0.4732  0.6666  0.2155
14397SOL    HW244633   6.423   2.505  11.452  3.3042  1.7647  2.3086
14398SOL     OW44634   5.733   2.815   9.103 -0.2764  0.1065 -0.0603
14398SOL    HW144635   5.660   2.784   9.049 -0.7092  0.0051  0.5661
14398SOL    HW244636   5.732   2.910   9.093 -1.6220  0.2831  1.2968
14399SOL     OW44637   4.330   2.838  10.577 -0.1683 -0.5183  0.0979
14399SOL    HW144638   4.389   2.804  10.645 -1.7952 -0.4754  1.6028
14399SOL    HW244639   4.272   2.765  10.556  0.3184 -0.5314 -1.2864
14400SOL     OW44640   4.512   2.981  11.862 -0.2245  0.6484  0.2313
14400SOL    HW144641   4.475   2.921  11.927  1.9217 -1.0907  0.0046
14400SOL    HW244642   4.459   2.968  11.783 -1.1316  0.6870  0.8313
14401SOL     OW44643   6.006   3.810  11.923 -0.2464  0.2474 -0.0385
14401SOL    HW144644   5.943   3.864  11.972  0.8034  1.2179  0.3031
14401SOL    HW244645   6.003   3.725  11.966  0.1167  0.8670  1.2659
14402SOL     OW44646   4.984   2.885  11.805  0.3092 -0.2668 -0.2967
14402SOL    HW144647   4.923   2.857  11.736  0.1828  0.0707 -0.3244
14402SOL    HW244648   5.070   2.861  11.772  0.5185  2.1745 -1.7650
14403SOL     OW44649   5.508   2.914  10.083 -0.5970 -0.2921 -0.3656
14403SOL    HW144650   5.543   2.825  10.080  4.2853  1.1986  2.2406
14403SOL    HW244651   5.444   2.912  10.154 -0.3822 -1.6580 -0.1767
14404SOL     OW44652   6.174   5.160  11.185 -0.5552  0.1449 -0.0828
14404SOL    HW144653   6.169   5.066  11.171  0.7805 -0.1599  1.1761
14404SOL    HW244654   6.098   5.181  11.238 -0.5814 -0.3213  0.0670
14405SOL     OW44655   2.753   2.160   9.955  0.0640 -0.3755  0.1028
14405SOL    HW144656   2.797   2.131   9.874 -0.4723  1.5191 -0.9436
14405SOL    HW244657   2.664   2.182   9.927 -0.0542  0.5427  1.1460
14406SOL     OW44658   4.909   3.152  11.735  0.5539  0.1017  0.0936
14406SOL    HW144659   4.909   3.060  11.763  0.0592  0.4486  1.2615
14406SOL    HW244660   5.001   3.170  11.714  1.0521 -0.0633  1.9518
14407SOL     OW44661   4.740   2.471   8.870 -0.0161 -0.6125  0.4485
14407SOL    HW144662   4.782   2.523   8.802 -0.3648 -0.7986  0.0863
14407SOL    HW244663   4.710   2.392   8.825  0.8950 -1.3421  1.0777
14408SOL     OW44664   6.375   0.534  11.033 -0.2934  1.1810 -0.4973
14408SOL    HW144665   6.409   0.601  11.093 -1.0444 -0.2803  1.6790
14408SOL    HW244666   6.437   0.534  10.960  1.3806  2.2075  0.8298
14409SOL     OW44667   4.702   2.436   9.664 -0.1742  0.3191  0.2775
14409SOL    HW144668   4.738   2.398   9.584  0.3262  0.2213  0.5462
14409SOL    HW244669   4.719   2.530   9.655 -1.2926  0.4882 -0.3248
14410SOL     OW44670   4.978   3.943   8.935 -0.1622 -0.1306  0.4030
14410SOL    HW144671   4.970   3.850   8.917 -1.4413 -0.3987  2.0443
14410SOL    HW244672   4.889   3.970   8.961  0.8621  0.6855  3.4972
14411SOL     OW44673   4.315   4.044   9.746  0.1861  0.1172 -0.2696
14411SOL    HW144674   4.373   4.061   9.672  0.5895 -0.6021 -0.1224
14411SOL    HW244675   4.346   3.962   9.784 -2.3385 -1.6134 -1.6099
14412SOL     OW44676   6.315   2.982  10.311 -0.7678  0.0945 -0.7853
14412SOL    HW144677   6.241   3.040  10.326  0.0693  1.3103 -1.1910
14412SOL    HW244678   6.352   3.010  10.227  0.2196 -0.3929 -0.5373
14413SOL     OW44679   5.306   0.213   9.267 -0.8031 -0.5034 -0.1343
14413SOL    HW144680   5.319   0.285   9.329 -2.5135 -1.2602  1.1956
14413SOL    HW244681   5.283   0.256   9.185  2.0424  0.5439 -0.4951
14414SOL     OW44682   4.354   2.854   9.401  0.0454 -0.3353 -0.3163
14414SOL    HW144683   4.320   2.943   9.408  0.4730 -0.2547  0.9623
14414SOL    HW244684   4.449   2.865   9.399  0.2007 -0.8161  1.7898
14415SOL     OW44685   5.923   3.955  11.468 -0.3467  0.3107 -0.0710
14415SOL    HW144686   5.913   3.881  11.528 -0.5321 -0.6749 -1.2661
14415SOL    HW244687   6.009   3.943  11.429 -0.5667  0.4593 -0.6079
14416SOL     OW44688   4.923   0.974  11.146 -0.3035  0.0355 -0.0653
14416SOL    HW144689   4.933   1.063  11.113  1.6039  0.4469  1.4802
14416SOL    HW244690   4.934   0.918  11.069 -1.0936  1.0754 -0.9720
14417SOL     OW44691   4.723   2.711  10.438  0.5739  0.0555  0.1465
14417SOL    HW144692   4.700   2.623  10.408  0.2202 -0.3828  1.6117
14417SOL    HW244693   4.669   2.769  10.384  1.0240 -0.5872 -1.0378
14418SOL     OW44694   4.616   2.822   9.408 -0.0454 -0.6514 -0.2877
14418SOL    HW144695   4.662   2.879   9.346 -1.1085  0.9578  0.3261
14418SOL    HW244696   4.650   2.848   9.493 -3.0909  1.8080  0.3790
14419SOL     OW44697   6.774   1.833  10.241 -0.0921  0.7033  0.0472
14419SOL    HW144698   6.816   1.912  10.206  1.1031  0.3597  0.6459
14419SOL    HW244699   6.798   1.833  10.334  0.3208 -0.5918 -0.0384
14420SOL     OW44700   4.810   1.203   9.844 -0.2707 -0.1225  0.0271
14420SOL    HW144701   4.737   1.229   9.901  0.5032  0.7491  0.6484
14420SOL    HW244702   4.857   1.284   9.826  0.1870 -0.5769 -0.8969
14421SOL     OW44703   4.869   3.784   9.719 -0.1657  0.3299  0.2247
14421SOL    HW144704   4.940   3.836   9.757 -0.4215 -0.3073  1.6250
14421SOL    HW244705   4.810   3.765   9.792  0.2018 -2.3988 -0.0691
14422SOL     OW44706   6.058   2.705   9.902  0.3470 -0.7388 -0.1187
14422SOL    HW144707   6.112   2.770   9.858  1.2393 -1.3935 -0.0283
14422SOL    HW244708   5.987   2.755   9.941  0.4170  0.0446 -0.9577
14423SOL     OW44709   5.020   0.890  10.147  0.4347 -0.8914 -0.6311
14423SOL    HW144710   4.973   0.809  10.167 -0.4749 -0.0477  0.8152
14423SOL    HW244711   5.111   0.871  10.168 -0.1186 -0.8399  2.1470
14424SOL     OW44712   4.657   2.236  10.946 -0.3207 -0.1808 -0.0805
14424SOL    HW144713   4.626   2.187  11.021 -0.0847  1.3419  1.0587
14424SOL    HW244714   4.579   2.277  10.909 -0.4236 -0.8552 -0.6259
14425SOL     OW44715   4.941   3.113   9.216  0.1383  0.4423 -0.3489
14425SOL    HW144716   4.981   3.028   9.197 -2.9773 -1.1886 -0.2506
14425SOL    HW244717   4.975   3.136   9.303  1.4052 -0.4366 -0.5810
14426SOL     OW44718   3.355   0.380  10.047 -0.4404  0.6967  0.1588
14426SOL    HW144719   3.415   0.426  10.104  0.9677  0.2087 -0.8823
14426SOL    HW244720   3.398   0.379   9.961 -1.4477 -0.5732 -0.3736
14427SOL     OW44721   5.460   3.587  10.877 -0.0222  0.0341 -0.1114
14427SOL    HW144722   5.460   3.682  10.878 -0.6872  0.1419 -2.6291
14427SOL    HW244723   5.382   3.562  10.926 -0.3566  0.8309 -0.2342
14428SOL     OW44724   6.347   3.731  11.119 -0.2311  0.1666  0.0552
14428SOL    HW144725   6.293   3.700  11.047 -0.1251 -0.2945  0.1703
14428SOL    HW244726   6.313   3.687  11.196  1.4616 -1.5896 -0.1361
14429SOL     OW44727   5.174   2.852   9.881 -0.3594  0.0849 -0.1912
14429SOL    HW144728   5.267   2.861   9.903 -0.1912  0.5585 -1.0704
14429SOL    HW244729   5.174   2.810   9.795 -1.0019 -1.4965  0.5381
14430SOL     OW44730   3.956   2.787  10.399 -0.0992 -0.2617 -0.6542
14430SOL    HW144731   3.920   2.768  10.313 -1.8549  0.3818 -0.1046
14430SOL    HW244732   3.881   2.817  10.451  1.3063  1.6632  0.4199
14431SOL     OW44733   5.166   4.141  12.442  0.2480 -0.1286  0.0660
14431SOL    HW144734   5.099   4.179  12.499  0.6958  0.5898  0.1298
14431SOL    HW244735   5.224   4.093  12.501  0.1371 -0.2304  0.0909
14432SOL     OW44736   4.723   4.634  10.551 -0.1977  0.3318  0.0782
14432SOL    HW144737   4.777   4.695  10.601 -1.7245 -0.2076  2.5445
14432SOL    HW244738   4.633   4.661  10.570 -0.8823  0.1735 -2.5790
14433SOL     OW44739   2.844   1.245   9.646 -0.2170  0.4515 -0.6742
14433SOL    HW144740   2.851   1.331   9.605  1.2379  0.3487 -0.6819
14433SOL    HW244741   2.840   1.263   9.740 -0.0054  0.5311 -0.6807
14434SOL     OW44742   4.150   2.282  10.459  0.0591 -0.1577 -0.0583
14434SOL    HW144743   4.091   2.339  10.410 -0.2158 -0.4812 -0.1008
14434SOL    HW244744   4.138   2.195  10.421  2.3656  0.1696 -1.7791
14435SOL     OW44745   5.115   1.201   9.785  0.2387  0.0391  0.4516
14435SOL    HW144746   5.131   1.211   9.879 -0.4631  2.2682  0.3838
14435SOL    HW244747   5.020   1.194   9.777  0.1875  1.2143 -0.1623
14436SOL     OW44748   5.762   2.377  11.453  0.4242  0.1578  0.0982
14436SOL    HW144749   5.708   2.314  11.405  0.2700 -1.3704  2.1157
14436SOL    HW244750   5.832   2.400  11.392 -0.6855 -0.3601 -1.4259
14437SOL     OW44751   4.780   3.313  10.428 -0.5936  0.1799 -0.3033
14437SOL    HW144752   4.783   3.363  10.509  0.0391 -0.5487  0.1328
14437SOL    HW244753   4.743   3.228  10.454 -0.9301  0.1376 -0.8897
14438SOL     OW44754   3.689   3.201  10.463  0.0318  0.1309 -0.1806
14438SOL    HW144755   3.681   3.172  10.554  1.9417 -1.4666 -0.4559
14438SOL    HW244756   3.747   3.278  10.468 -0.5574  0.5690  0.0170
14439SOL     OW44757   5.508   1.745  11.736  0.3635 -0.7660  0.2924
14439SOL    HW144758   5.429   1.691  11.731 -0.7114  0.8503 -3.2746
14439SOL    HW244759   5.491   1.805  11.809  0.6426 -3.5751  2.8750
14440SOL     OW44760   3.817   3.229  11.511  0.3360  0.0361 -0.1281
14440SOL    HW144761   3.856   3.292  11.450 -0.7843 -0.2320 -1.1541
14440SOL    HW244762   3.784   3.283  11.583 -2.0536  0.8716 -1.7517
14441SOL     OW44763   4.027   3.565  11.032 -0.5146 -0.0972  0.1478
14441SOL    HW144764   3.985   3.548  11.116 -1.7725 -1.5492 -0.7238
14441SOL    HW244765   4.099   3.502  11.027 -1.0320 -0.6783 -0.2341
14442SOL     OW44766   3.758   3.310  10.173 -0.0797  0.4398 -0.5022
14442SOL    HW144767   3.741   3.220  10.146 -0.8504  0.1455  0.8693
14442SOL    HW244768   3.672   3.351  10.176  0.0703  0.7002  0.6232
14443SOL     OW44769   3.476   1.058  10.354 -0.1387 -0.3523 -0.9066
14443SOL    HW144770   3.522   1.142  10.354  0.0768 -0.3347  2.1465
14443SOL    HW244771   3.536   0.998  10.310  0.4177  0.7614 -1.7082
14444SOL     OW44772   3.830   2.321  12.317  0.3829  0.0673 -0.0886
14444SOL    HW144773   3.831   2.337  12.411  0.9032 -1.7374  0.2636
14444SOL    HW244774   3.922   2.328  12.290  0.2715  0.3135 -0.4112
14445SOL     OW44775   5.274   1.533   9.425  0.3037  0.6644  0.0999
14445SOL    HW144776   5.191   1.485   9.418  0.3767  0.5596 -0.0408
14445SOL    HW244777   5.252   1.612   9.476  0.1689  0.5198  0.2663
14446SOL     OW44778   6.047   2.648  10.611  0.5696 -0.2390 -0.3418
14446SOL    HW144779   6.142   2.644  10.607  0.7080  1.1367  0.6964
14446SOL    HW244780   6.020   2.664  10.521  1.2960 -0.9638 -0.6966
14447SOL     OW44781   4.885   4.968  11.883  0.5683 -0.5128  0.1358
14447SOL    HW144782   4.920   4.884  11.911 -0.2014 -0.2053  2.1574
14447SOL    HW244783   4.821   4.992  11.950 -0.7389  0.7361 -1.4308
14448SOL     OW44784   4.335   4.465  11.206  0.2006 -0.4129 -0.0829
14448SOL    HW144785   4.258   4.500  11.161 -0.3571 -1.7346 -0.1909
14448SOL    HW244786   4.324   4.370  11.203  1.3033 -0.5928  0.8478
14449SOL     OW44787   3.727   2.321   9.303  0.3449  0.0594  0.2696
14449SOL    HW144788   3.782   2.283   9.372  0.3994 -1.0196 -0.3504
14449SOL    HW244789   3.761   2.410   9.292 -1.6451  1.4336  3.7729
14450SOL     OW44790   7.311   1.400  11.872 -0.9040 -0.1793  0.1240
14450SOL    HW144791   7.258   1.452  11.812 -1.9723  0.4888  1.5875
14450SOL    HW244792   7.282   1.426  11.960 -0.7430 -2.4656  0.9332
14451SOL     OW44793   4.705   7.836   8.245  0.2930 -0.1860  0.4093
14451SOL    HW144794   4.699   7.833   8.150 -1.9510  1.8532  0.3920
14451SOL    HW244795   4.764   7.910   8.263  1.2922 -1.0102  0.6609
14452SOL     OW44796   4.495   3.632  10.114  0.3200  0.4503 -0.0028
14452SOL    HW144797   4.438   3.555  10.117  1.0704 -0.2060 -1.3158
14452SOL    HW244798   4.437   3.704  10.088 -0.1197  0.0111 -0.2646
14453SOL     OW44799   4.760   3.186  11.224  0.1470 -0.2450  0.3380
14453SOL    HW144800   4.676   3.231  11.230  0.0351 -0.4389  0.2396
14453SOL    HW244801   4.762   3.128  11.300  0.6003  0.4416  0.8612
14454SOL     OW44802   6.881   3.778  11.808 -0.1730  0.0934 -0.6758
14454SOL    HW144803   6.968   3.814  11.795 -0.5865  0.7236 -1.7896
14454SOL    HW244804   6.895   3.699  11.860  1.0426  0.2170 -0.7995
14455SOL     OW44805   4.365   4.246  12.193  0.2580  0.2375 -0.1678
14455SOL    HW144806   4.292   4.209  12.144  1.7077 -1.1374 -1.4205
14455SOL    HW244807   4.338   4.241  12.285 -1.5347  0.5832 -0.6345
14456SOL     OW44808   4.685   3.243   9.982  0.2283 -0.6850  0.7443
14456SOL    HW144809   4.674   3.177  10.051 -0.4378 -0.9099  0.4290
14456SOL    HW244810   4.596   3.271   9.962  0.2748 -1.7499 -1.1198
14457SOL     OW44811   4.394   1.973   8.610 -0.2349 -0.4556  0.0939
14457SOL    HW144812   4.350   2.031   8.672  0.0914  0.2222 -0.2940
14457SOL    HW244813   4.345   1.891   8.615 -1.1113  0.0548  0.1888
14458SOL     OW44814   5.002   2.884   7.774 -0.3625  0.4235 -0.1055
14458SOL    HW144815   4.938   2.915   7.838  0.0889  1.3406 -0.0773
14458SOL    HW244816   4.990   2.940   7.698  1.5308  1.7901  0.5243
14459SOL     OW44817   4.520   2.457   9.330 -0.4349 -0.5876 -0.0718
14459SOL    HW144818   4.493   2.518   9.261 -0.1794  0.2146  0.5249
14459SOL    HW244819   4.489   2.371   9.300 -0.6768 -0.1886 -0.9886
14460SOL     OW44820   3.871   1.576   9.538 -0.0959  0.0379 -0.2046
14460SOL    HW144821   3.904   1.503   9.487 -0.4193 -0.1290 -0.1789
14460SOL    HW244822   3.817   1.626   9.476 -0.9337 -0.4640  0.0982
14461SOL     OW44823   5.005   3.615  10.430  0.3362  0.5209 -0.3801
14461SOL    HW144824   5.061   3.692  10.425 -1.0977  1.5257 -1.6971
14461SOL    HW244825   5.015   3.584  10.520  3.4790  0.2334 -0.7204
14462SOL     OW44826   5.273   2.826  10.251  0.2276 -0.1071  0.1756
14462SOL    HW144827   5.308   2.781  10.328  2.6484 -0.4485 -1.0345
14462SOL    HW244828   5.261   2.756  10.186  0.3524  0.4720 -0.4862
14463SOL     OW44829   4.026   2.797  11.113  0.2519 -0.3255 -0.4021
14463SOL    HW144830   3.939   2.836  11.101 -0.0546 -1.2104 -1.2045
14463SOL    HW244831   4.024   2.762  11.202  0.1187  0.4534 -0.0888
14464SOL     OW44832   4.703   3.570  10.312  0.7391 -0.6395 -0.5749
14464SOL    HW144833   4.664   3.601  10.393  0.4085  0.0316 -0.9803
14464SOL    HW244834   4.642   3.599  10.244 -0.5757 -3.6947 -0.8759
14465SOL     OW44835   2.913   1.443  11.943 -0.5377  0.2817 -0.0475
14465SOL    HW144836   2.976   1.402  12.003 -1.7311 -0.1599  0.9651
14465SOL    HW244837   2.925   1.398  11.860  1.6132  1.3475 -0.3925
14466SOL     OW44838   5.379   2.712  11.153  0.0506 -0.3214  0.1678
14466SOL    HW144839   5.387   2.617  11.145 -3.3957 -0.6010 -1.8624
14466SOL    HW244840   5.386   2.745  11.064  0.5134  1.2953  0.7601
14467SOL     OW44841   4.961   2.640  10.008 -0.5502  0.2284  0.1017
14467SOL    HW144842   4.989   2.567   9.952 -0.6897 -0.9863  1.5541
14467SOL    HW244843   5.012   2.714   9.978  2.9134 -1.4376  1.3502
14468SOL     OW44844   4.493   3.075  10.187 -0.1932  0.8017 -0.0701
14468SOL    HW144845   4.541   2.994  10.173 -2.7989 -0.7458 -0.8507
14468SOL    HW244846   4.472   3.075  10.281 -1.6980 -0.4364 -0.3622
14469SOL     OW44847   5.460   2.826  10.918  0.2415  0.2291  0.5568
14469SOL    HW144848   5.545   2.822  10.873  0.3213 -1.0785  0.8044
14469SOL    HW244849   5.472   2.894  10.984  1.1869 -0.1082  0.7524
14470SOL     OW44850   6.318   1.070   0.271 -0.2185 -0.9187 -0.4726
14470SOL    HW144851   6.269   0.994   0.241  0.1736 -1.0607 -0.7712
14470SOL    HW244852   6.408   1.038   0.280  0.3991  0.0022 -2.6350
14471SOL     OW44853   6.499   2.871  10.880  0.0548 -0.7600 -0.0163
14471SOL    HW144854   6.448   2.907  10.807  0.9536 -0.8377 -0.6867
14471SOL    HW244855   6.515   2.947  10.937  0.0457 -0.5384 -0.3060
14472SOL     OW44856   5.346   3.041   9.578 -0.1174  0.0906  0.1230
14472SOL    HW144857   5.407   3.017   9.648 -0.0745  0.7588  0.3225
14472SOL    HW244858   5.262   3.052   9.622  0.5274  3.7514  0.7075
14473SOL     OW44859   4.365   3.057   8.287 -0.1490 -0.2645  0.1041
14473SOL    HW144860   4.271   3.075   8.293  0.2063  1.6051  0.6440
14473SOL    HW244861   4.407   3.142   8.298  1.6060 -0.9241 -0.9467
14474SOL     OW44862   4.474   1.793  10.537  0.0514 -0.4324  0.0128
14474SOL    HW144863   4.426   1.754  10.464  1.4260 -1.0799 -0.5864
14474SOL    HW244864   4.429   1.876  10.554 -1.7629 -1.3663  0.0456
14475SOL     OW44865   5.931   2.877  11.464 -0.9518 -0.7999 -0.5446
14475SOL    HW144866   5.852   2.824  11.463 -0.6338 -1.5555  2.7839
14475SOL    HW244867   5.999   2.820  11.428 -1.5209 -0.8369 -1.5941
14476SOL     OW44868   4.513   1.139   8.930  0.6346 -0.0344 -0.3765
14476SOL    HW144869   4.465   1.058   8.947  1.4850 -0.8531 -1.6395
14476SOL    HW244870   4.591   1.133   8.986 -0.4756  1.1001  1.3645
14477SOL     OW44871   6.257   4.472  11.211 -0.1204 -0.4963  0.0462
14477SOL    HW144872   6.255   4.446  11.119  1.4819  0.1678 -0.2045
14477SOL    HW244873   6.247   4.567  11.210 -0.2049 -0.4932  0.5707
14478SOL     OW44874   4.319   3.421  10.172 -0.1651  0.4271 -0.5263
14478SOL    HW144875   4.260   3.403  10.245 -0.1230 -0.0865 -0.6144
14478SOL    HW244876   4.390   3.358  10.182 -0.4149  0.0008 -1.2906
14479SOL     OW44877   5.500   2.279  11.581 -0.5888 -0.3361  0.5184
14479SOL    HW144878   5.405   2.269  11.588 -0.6188  0.2679  1.0249
14479SOL    HW244879   5.522   2.241  11.496 -1.1254 -1.5898  0.9124
14480SOL     OW44880   4.580   1.681   9.905 -0.7442 -0.1972 -0.4860
14480SOL    HW144881   4.669   1.716   9.905 -0.4876 -0.7715  0.7283
14480SOL    HW244882   4.533   1.735   9.969 -1.4154  0.4107 -1.4667
14481SOL     OW44883   5.529   4.798   0.404 -0.3686 -0.1491 -0.3536
14481SOL    HW144884   5.595   4.867   0.413 -0.4551 -0.1946  0.8554
14481SOL    HW244885   5.571   4.719   0.439 -0.8616 -0.3097 -0.1039
14482SOL     OW44886   5.244   2.860   7.883  0.0028 -0.2245 -0.4592
14482SOL    HW144887   5.295   2.938   7.862 -0.5653  0.2291 -0.1520
14482SOL    HW244888   5.163   2.870   7.833 -0.3753 -0.2651  0.1370
14483SOL     OW44889   2.693   3.647  10.041  0.4816 -0.6902 -0.0914
14483SOL    HW144890   2.740   3.710  10.096  0.4265 -0.9728  0.2851
14483SOL    HW244891   2.643   3.700   9.980  0.8431 -0.3771 -0.1188
14484SOL     OW44892   6.027   3.419  11.119 -0.3331 -0.1647 -0.2875
14484SOL    HW144893   6.036   3.466  11.202 -0.6412 -0.9467  0.2022
14484SOL    HW244894   6.005   3.487  11.055 -0.0285  0.4565  0.2561
14485SOL     OW44895   3.556   5.370   9.994  0.5251 -0.2384 -0.6313
14485SOL    HW144896   3.591   5.459   9.985 -1.1270  0.2994 -2.4568
14485SOL    HW244897   3.589   5.324   9.917 -0.5079 -0.5046 -0.9276
14486SOL     OW44898   5.432   0.336  10.025  0.4011 -0.0953 -1.3115
14486SOL    HW144899   5.523   0.357  10.005  0.5795 -0.9138 -1.3906
14486SOL    HW244900   5.437   0.261  10.084 -0.1725  1.3649  0.6662
14487SOL     OW44901   3.795   2.565  11.594  0.5876  0.4068  0.5717
14487SOL    HW144902   3.720   2.508  11.577 -0.8464  2.2972  0.2885
14487SOL    HW244903   3.842   2.567  11.510 -0.0338  0.5955  0.2178
14488SOL     OW44904   4.564   4.674   9.890  0.4195  0.1489 -0.6716
14488SOL    HW144905   4.528   4.587   9.903 -0.5047  0.4278 -1.2853
14488SOL    HW244906   4.594   4.675   9.799 -0.7864  0.8669 -1.0963
14489SOL     OW44907   4.000   2.809   8.708  0.4246  0.0712 -0.5397
14489SOL    HW144908   3.960   2.763   8.634  2.5490 -1.8830 -0.5650
14489SOL    HW244909   4.003   2.901   8.679  2.3601 -0.7783 -3.5521
14490SOL     OW44910   4.344   1.666   8.846 -0.7311 -0.0002 -0.0647
14490SOL    HW144911   4.342   1.747   8.897 -2.5125  1.0498 -1.6833
14490SOL    HW244912   4.372   1.599   8.909 -1.1187  1.5239  1.8245
14491SOL     OW44913   6.040   3.540  10.229 -0.1845 -0.2556  0.5141
14491SOL    HW144914   6.134   3.520  10.226 -0.6984 -3.0896  1.2123
14491SOL    HW244915   5.997   3.461  10.197 -2.3753  1.1697 -0.3378
14492SOL     OW44916   7.424   3.452  12.228 -0.3876 -0.0233  0.5631
14492SOL    HW144917   7.373   3.471  12.150  0.9977 -1.7758 -0.8670
14492SOL    HW244918   7.467   3.535  12.250  0.7097  0.0789 -1.7281
14493SOL     OW44919   4.872   1.628  10.271  0.0957  0.1735 -0.0272
14493SOL    HW144920   4.862   1.719  10.242 -0.2574  0.1318 -0.0383
14493SOL    HW244921   4.953   1.598  10.229 -1.3589 -0.4787 -2.5936
14494SOL     OW44922   5.398   2.440  11.191 -0.3987  0.0899  0.0790
14494SOL    HW144923   5.464   2.371  11.199 -0.8205 -0.3789 -0.3895
14494SOL    HW244924   5.327   2.412  11.249 -1.3333 -0.7937 -1.4293
14495SOL     OW44925   2.544   2.465  11.071 -0.7820  0.7154 -0.2649
14495SOL    HW144926   2.639   2.452  11.075 -0.6198  1.9235  0.0838
14495SOL    HW244927   2.508   2.381  11.100  0.1557 -0.0388 -1.1776
14496SOL     OW44928   5.505   3.449  11.776  0.2470 -0.2581  0.0186
14496SOL    HW144929   5.541   3.361  11.767 -1.1323 -0.8191 -0.1770
14496SOL    HW244930   5.434   3.441  11.840  0.7055  0.9073  0.7098
14497SOL     OW44931   3.172   2.053  10.898  0.7932 -0.5009  0.2749
14497SOL    HW144932   3.142   2.055  10.989  0.0714  4.4723  0.2142
14497SOL    HW244933   3.265   2.031  10.904  1.1907  1.3843  2.4939
14498SOL     OW44934   5.129   0.679  11.422  0.2293 -0.2253 -0.4067
14498SOL    HW144935   5.138   0.771  11.400 -0.3205 -0.1107 -0.1723
14498SOL    HW244936   5.049   0.651  11.378  1.3695 -1.0907 -2.0462
14499SOL     OW44937   4.677   1.952   9.490 -0.0764 -0.0421  0.2209
14499SOL    HW144938   4.597   1.915   9.451  0.5354  0.6684 -1.8218
14499SOL    HW244939   4.699   2.027   9.434  2.3543 -0.5799  0.3498
14500SOL     OW44940   5.336   1.553   9.832 -0.4138  0.1801 -0.5549
14500SOL    HW144941   5.276   1.578   9.902 -0.0010  0.2031 -0.2033
14500SOL    HW244942   5.344   1.632   9.778  0.2058  0.5402  0.0563
14501SOL     OW44943   6.231   3.847  10.645  0.2114  0.1158  0.4810
14501SOL    HW144944   6.180   3.838  10.564 -0.7121  2.0857  0.7729
14501SOL    HW244945   6.305   3.902  10.620  0.5184 -0.1715  0.7529
14502SOL     OW44946   4.684   2.061  10.405 -0.2656  0.2275 -0.3721
14502SOL    HW144947   4.707   2.025  10.319 -1.2553  2.8100 -1.8496
14502SOL    HW244948   4.763   2.108  10.433 -0.5631  1.0520 -0.8681
14503SOL     OW44949   6.944   2.963   9.851 -0.4510 -0.0299 -0.7589
14503SOL    HW144950   6.853   2.943   9.830 -0.4541  0.2253 -1.0020
14503SOL    HW244951   6.948   2.962   9.946 -0.2461 -2.0842 -0.7529
14504SOL     OW44952   3.615   4.386   0.313  0.0713 -0.6914  0.6611
14504SOL    HW144953   3.521   4.367   0.316 -0.4150  1.5239  1.0621
14504SOL    HW244954   3.638   4.409   0.403  0.3634  1.4057  0.1002
14505SOL     OW44955   5.758   2.305  12.210 -0.3783 -0.2666 -0.0439
14505SOL    HW144956   5.681   2.268  12.166 -0.6867  0.3412 -0.0249
14505SOL    HW244957   5.812   2.339  12.140 -0.2098 -0.5296 -0.0439
14506SOL     OW44958   6.092   3.051  11.322 -0.0261  0.2808 -0.2302
14506SOL    HW144959   6.130   3.128  11.363 -0.6159  0.6153 -0.3061
14506SOL    HW244960   6.043   3.008  11.392  1.6877 -0.9933  0.2831
14507SOL     OW44961   3.158   0.409  11.984 -0.4406  0.2227 -0.0810
14507SOL    HW144962   3.186   0.356  12.058  1.5592  0.6651 -0.4798
14507SOL    HW244963   3.063   0.397  11.982 -0.3306 -1.3806  1.3155
14508SOL     OW44964   6.074   1.171  10.015 -0.2723  0.6716  0.2493
14508SOL    HW144965   6.154   1.121  10.031 -0.2402  0.7893  0.4505
14508SOL    HW244966   6.104   1.258   9.988 -0.2363 -0.1967 -2.9734
14509SOL     OW44967   6.055   3.594   9.549  0.2581  0.3996 -0.4169
14509SOL    HW144968   6.087   3.524   9.606  1.3963  0.3257 -1.1237
14509SOL    HW244969   5.965   3.609   9.578 -0.4224 -2.1434 -1.0190
14510SOL     OW44970   5.233   2.819   9.383  0.0908 -0.1419 -0.0197
14510SOL    HW144971   5.182   2.841   9.305  0.7677  4.2965  0.5583
14510SOL    HW244972   5.322   2.806   9.351  0.0902  0.1749 -0.1526
14511SOL     OW44973   2.999   1.736  10.295 -0.7026  0.7326  0.2357
14511SOL    HW144974   2.965   1.778  10.374  1.0382  1.2870  0.7297
14511SOL    HW244975   2.961   1.786  10.223  1.2749  3.2907  0.8044
14512SOL     OW44976   4.797   2.573   9.375 -0.0795 -0.2810 -0.1726
14512SOL    HW144977   4.705   2.559   9.352 -0.4052  1.0605  0.1952
14512SOL    HW244978   4.834   2.616   9.298  0.1146 -0.3769 -0.1313
14513SOL     OW44979   4.961   2.417   9.850  0.4175 -0.2568  0.3227
14513SOL    HW144980   4.948   2.345   9.912  0.0878 -0.5469 -0.0751
14513SOL    HW244981   4.892   2.405   9.785  1.9321 -1.1485 -1.2139
14514SOL     OW44982   5.343   1.537  11.097  0.2372 -0.7937  0.5812
14514SOL    HW144983   5.285   1.476  11.143  1.1725 -0.8404  1.7813
14514SOL    HW244984   5.422   1.539  11.152  0.6603  0.6301 -0.0414
14515SOL     OW44985   3.085   3.700   9.925 -0.9972  0.5056  0.3429
14515SOL    HW144986   3.163   3.730   9.971 -1.0205 -0.3660  0.9876
14515SOL    HW244987   3.098   3.727   9.834  0.5573 -0.5451  0.2182
14516SOL     OW44988   4.464   1.838  10.106 -0.3335 -0.3990  0.0392
14516SOL    HW144989   4.394   1.809  10.165 -0.2135 -0.7010  0.0368
14516SOL    HW244990   4.459   1.933  10.108 -1.6299 -0.4099 -0.9920
14517SOL     OW44991   4.556   4.894  10.295 -0.6904 -0.1462 -0.1059
14517SOL    HW144992   4.565   4.980  10.336 -0.8350 -0.9314  1.6239
14517SOL    HW244993   4.550   4.914  10.201  0.0150  1.6755  0.1792
14518SOL     OW44994   3.779   2.841  10.603 -0.2796  0.3109  0.5490
14518SOL    HW144995   3.755   2.753  10.631  0.6197 -0.1372 -0.0318
14518SOL    HW244996   3.796   2.889  10.684 -0.5934 -0.0972  0.8602
14519SOL     OW44997   5.528   4.351  11.122  0.0743 -0.2030  0.4278
14519SOL    HW144998   5.580   4.310  11.191 -0.9472 -2.5943 -0.1451
14519SOL    HW244999   5.488   4.427  11.165  2.3702  0.5315  1.4092
14520SOL     OW45000   5.278   2.153  10.179  0.2807 -0.0088 -0.3119
14520SOL    HW145001   5.267   2.070  10.131  1.9589 -0.6025  0.2430
14520SOL    HW245002   5.200   2.160  10.233 -0.2555 -0.8280 -0.9421
14521SOL     OW45003   3.963   2.706   9.149  0.0622 -0.4098 -0.1485
14521SOL    HW145004   4.024   2.643   9.188  0.4321 -0.2965 -0.5428
14521SOL    HW245005   4.013   2.748   9.080  0.5309  1.8243  1.4431
14522SOL     OW45006   5.305   2.704  10.474 -0.0477  0.2548 -0.3086
14522SOL    HW145007   5.210   2.706  10.471 -0.1082  2.5782  0.9794
14522SOL    HW245008   5.325   2.637  10.540 -0.8290  0.6240  0.3136
14523SOL     OW45009   2.267   5.245  10.264  0.1359  0.1451  0.3573
14523SOL    HW145010   2.302   5.315  10.209 -0.9978  1.1051  0.8158
14523SOL    HW245011   2.190   5.213  10.217 -0.1763  0.1909  0.8265
14524SOL     OW45012   5.469   1.097   9.820  0.1049 -0.6219  0.2099
14524SOL    HW145013   5.401   1.032   9.839  0.2050 -0.9957 -0.6583
14524SOL    HW245014   5.472   1.101   9.725  1.7451 -1.0869  0.2134
14525SOL     OW45015   6.167   4.909  11.575  0.5753 -0.5100 -0.1092
14525SOL    HW145016   6.249   4.911  11.625  1.8108 -2.3717 -1.8809
14525SOL    HW245017   6.123   4.829  11.605 -0.0915 -0.0852  0.0633
14526SOL     OW45018   3.841   2.161  11.511  0.3745 -0.2415 -0.1585
14526SOL    HW145019   3.781   2.235  11.520  0.1440 -0.4247 -0.1861
14526SOL    HW245020   3.830   2.112  11.592  1.0756  0.1520  0.1883
14527SOL     OW45021   2.655   1.976   9.346 -0.2788 -0.1199 -0.2474
14527SOL    HW145022   2.723   1.936   9.400 -1.6576 -3.5741 -0.7940
14527SOL    HW245023   2.623   2.050   9.398  1.5867 -0.4298  1.4785
14528SOL     OW45024   4.952   3.204  10.646  0.0968 -0.0709 -0.5928
14528SOL    HW145025   5.008   3.154  10.587 -0.5116 -0.6953 -0.6597
14528SOL    HW245026   4.867   3.160  10.641  0.3178 -0.9000  1.6389
14529SOL     OW45027   5.831   0.525   9.317 -0.1119  0.1601  0.1040
14529SOL    HW145028   5.774   0.601   9.319  1.0270  1.0342  0.1309
14529SOL    HW245029   5.851   0.512   9.224  0.5685  0.5807  0.1836
14530SOL     OW45030   6.463   3.383   9.415  0.1446  0.0243  0.0122
14530SOL    HW145031   6.515   3.391   9.335 -0.4980  0.1755 -0.3984
14530SOL    HW245032   6.428   3.471   9.429 -0.4842 -0.2164 -0.0469
14531SOL     OW45033   6.180   3.247   8.869  0.0099 -0.0466  0.3209
14531SOL    HW145034   6.113   3.219   8.806 -1.5815 -1.6078  2.5550
14531SOL    HW245035   6.232   3.168   8.885  3.6217  1.4505 -2.5137
14532SOL     OW45036   4.234   2.169   9.979  0.2959 -0.0387 -0.1987
14532SOL    HW145037   4.138   2.162   9.977  0.0183  1.7968  2.3117
14532SOL    HW245038   4.252   2.262   9.965  1.6893 -0.2702 -0.0736
14533SOL     OW45039   5.611   3.490   9.246  0.2295 -0.3688 -0.4457
14533SOL    HW145040   5.565   3.574   9.238  0.5989 -0.2709 -1.9540
14533SOL    HW245041   5.542   3.424   9.239 -0.1855 -0.2203  1.7024
14534SOL     OW45042   5.428   2.457  10.189 -0.1703  0.0202  0.9851
14534SOL    HW145043   5.444   2.380  10.135 -0.2612  1.2881 -0.9659
14534SOL    HW245044   5.333   2.467  10.191 -0.1147  1.2186 -0.5588
14535SOL     OW45045   5.952   2.305  10.478  0.3961  0.0691 -0.5679
14535SOL    HW145046   5.905   2.260  10.408 -0.7515  0.8814 -0.3599
14535SOL    HW245047   6.007   2.238  10.518 -1.6784 -1.3464  0.1126
14536SOL     OW45048   3.394   4.440  11.803 -0.0788 -0.5210 -0.1246
14536SOL    HW145049   3.346   4.460  11.883  0.1292 -1.9160  0.3939
14536SOL    HW245050   3.424   4.350  11.816 -0.1400 -0.8205 -1.8344
14537SOL     OW45051   5.727   2.737  11.364 -0.2311  0.5267 -0.3713
14537SOL    HW145052   5.743   2.719  11.272  1.7493 -1.2289  0.2420
14537SOL    HW245053   5.695   2.654  11.399 -0.9695  1.1726  0.5478
14538SOL     OW45054   3.799   2.132   0.056  0.1331 -0.5006 -0.1438
14538SOL    HW145055   3.791   2.220   0.091  1.7369 -0.5027  0.3322
14538SOL    HW245056   3.882   2.099   0.093 -0.3191 -2.1212 -0.4699
14539SOL     OW45057   6.697   4.554  12.027 -0.1236  0.2421 -0.2757
14539SOL    HW145058   6.762   4.489  12.001  0.1815 -0.8158  2.7412
14539SOL    HW245059   6.619   4.532  11.976 -0.0868 -2.7066  0.7746
14540SOL     OW45060   7.213   1.128   8.893  0.0984  0.1739 -0.0986
14540SOL    HW145061   7.291   1.183   8.898  1.4561 -1.7036  0.6006
14540SOL    HW245062   7.144   1.181   8.932  1.5649  1.0505  1.4613
14541SOL     OW45063   2.747   2.252   8.923  0.2485 -0.2624 -0.7432
14541SOL    HW145064   2.787   2.241   9.009  0.8230  0.9978 -0.8252
14541SOL    HW245065   2.780   2.178   8.871  0.1007 -0.8809  0.0259
14542SOL     OW45066   5.803   3.818  12.443 -0.4213  0.0394  0.5581
14542SOL    HW145067   5.717   3.781  12.422  0.3297 -0.2905 -2.3655
14542SOL    HW245068   5.844   3.752  12.500 -1.2849 -0.8468  0.1788
14543SOL     OW45069   4.811   3.015  10.266  0.0400  0.4729 -0.1099
14543SOL    HW145070   4.905   3.028  10.261  0.2844 -0.9920  0.2642
14543SOL    HW245071   4.786   3.051  10.352  0.5379 -0.6310  0.5125
14544SOL     OW45072   4.964   3.433   9.781 -0.0218  0.0994  0.0459
14544SOL    HW145073   4.995   3.499   9.719 -1.0094  1.7408  1.2151
14544SOL    HW245074   4.902   3.381   9.731 -1.8558  2.2525 -0.1089
14545SOL     OW45075   4.850   3.091   9.788  0.1547 -0.4809 -0.4884
14545SOL    HW145076   4.927   3.085   9.846  1.0280 -0.4417 -1.6052
14545SOL    HW245077   4.800   3.164   9.823  0.5660 -0.5754  0.3326
14546SOL     OW45078   5.751   2.019   0.543  0.0641  0.0313  0.6141
14546SOL    HW145079   5.665   2.048   0.512 -2.5842 -2.9148  4.1358
14546SOL    HW245080   5.764   1.934   0.501  0.0611 -0.5694  1.7763
14547SOL     OW45081   6.473   2.925  10.553  0.3256  0.1784  0.2701
14547SOL    HW145082   6.523   2.848  10.527 -0.6734 -1.3370  2.4600
14547SOL    HW245083   6.413   2.941  10.480  1.3625 -0.3760 -0.7246
14548SOL     OW45084   6.869   3.085  10.117 -0.0311  0.5965  0.0889
14548SOL    HW145085   6.889   3.179  10.114 -3.0982  1.3722  0.6987
14548SOL    HW245086   6.895   3.058  10.205 -0.7834  1.3515  0.5641
14549SOL     OW45087   6.223   2.796   9.644  0.3749 -0.3324 -0.0028
14549SOL    HW145088   6.291   2.799   9.577  0.7400  0.2674  0.3760
14549SOL    HW245089   6.147   2.756   9.601  0.3948  0.6227 -0.9690
14550SOL     OW45090   4.955   2.447  10.394  0.0481  0.0713  0.1057
14550SOL    HW145091   4.864   2.457  10.369 -0.6119 -1.4366  1.7072
14550SOL    HW245092   4.953   2.432  10.488  2.0538  1.0852  0.3800
14551SOL     OW45093   4.586   1.745  12.147 -0.3297  0.0689 -0.1260
14551SOL    HW145094   4.590   1.777  12.057  1.2909  2.5454  0.7330
14551SOL    HW245095   4.502   1.775  12.179 -0.6100 -0.2136 -0.5732
14552SOL     OW45096   6.060   0.628  11.065 -0.3030  0.4256  0.2723
14552SOL    HW145097   5.978   0.642  11.114  0.7207  0.0898  2.1879
14552SOL    HW245098   6.125   0.679  11.113  0.6441  0.6837 -1.2223
14553SOL     OW45099   2.845   3.477   7.875  0.1501 -0.1351  0.4444
14553SOL    HW145100   2.857   3.454   7.783  0.4579 -1.6247  0.8305
14553SOL    HW245101   2.903   3.553   7.889  0.0685  0.1269 -0.5846
14554SOL     OW45102   6.107   3.904  11.036  0.2968  0.5466 -0.1927
14554SOL    HW145103   6.162   3.983  11.038  0.3625  0.5518  2.5100
14554SOL    HW245104   6.084   3.889  11.128 -2.4573 -0.7296 -0.9898
14555SOL     OW45105   3.535   2.312   8.842  0.3296  0.1781  0.0308
14555SOL    HW145106   3.586   2.375   8.791  0.3460  0.3149  0.2194
14555SOL    HW245107   3.474   2.366   8.892  0.5617  0.0633  0.4372
14556SOL     OW45108   5.502   2.482   9.310 -0.2694 -0.1209  0.3251
14556SOL    HW145109   5.452   2.504   9.231  0.6104  0.8196  0.0062
14556SOL    HW245110   5.463   2.537   9.379  0.0746  0.3467  0.1542
14557SOL     OW45111   4.940   3.175   1.266  0.4765  0.2101 -0.1103
14557SOL    HW145112   4.886   3.103   1.234 -0.3949  1.1506 -0.8669
14557SOL    HW245113   5.014   3.178   1.206 -1.1060  1.9062 -2.1349
14558SOL     OW45114   4.695   5.163   9.231  0.8728  0.0526  0.5741
14558SOL    HW145115   4.674   5.075   9.200  0.9392  0.2547 -0.0729
14558SOL    HW245116   4.618   5.215   9.208  0.3767 -0.0415  1.9244
14559SOL     OW45117   5.802   3.040  11.167 -0.3481 -0.1976  0.2657
14559SOL    HW145118   5.816   2.957  11.213  0.1680  0.1220  0.6914
14559SOL    HW245119   5.707   3.045  11.157 -0.4316 -0.5240  0.8320
14560SOL     OW45120   2.486   4.555  11.038 -0.2094 -0.3856 -0.2906
14560SOL    HW145121   2.403   4.530  11.079  0.1036 -2.4854 -0.8070
14560SOL    HW245122   2.545   4.483  11.059  1.7850  1.4558  0.7915
14561SOL     OW45123   4.622   4.399  10.973  0.2768 -0.6408 -0.1478
14561SOL    HW145124   4.669   4.324  11.010  1.5038  0.9177  1.6355
14561SOL    HW245125   4.631   4.468  11.039  0.8157  1.6883 -2.4800
14562SOL     OW45126   5.942   3.358  11.845  0.9532  0.0013 -0.2493
14562SOL    HW145127   5.975   3.431  11.898  0.0545  1.0958 -1.1367
14562SOL    HW245128   6.003   3.352  11.772  0.6797  0.2958 -0.5066
14563SOL     OW45129   5.137   3.553   9.619  0.0137  0.2411  0.7802
14563SOL    HW145130   5.228   3.522   9.621 -0.0279 -0.4378 -2.6935
14563SOL    HW245131   5.144   3.645   9.592 -0.3435  0.1039  0.2229
14564SOL     OW45132   5.937   7.755   8.833 -0.2989  0.0176  0.1186
14564SOL    HW145133   6.021   7.757   8.787 -0.5727 -0.1887 -0.3858
14564SOL    HW245134   5.892   7.678   8.799 -1.4232  1.0787 -0.8853
14565SOL     OW45135   4.769   3.886  10.377 -0.2624 -0.2667 -0.1935
14565SOL    HW145136   4.695   3.830  10.401 -0.6200  0.3165  0.1097
14565SOL    HW245137   4.778   3.947  10.451 -0.8989  1.0729 -1.1615
14566SOL     OW45138   5.176   2.133  12.119  0.2359 -0.9714  0.1593
14566SOL    HW145139   5.207   2.082  12.045  2.0338 -1.1185  0.9599
14566SOL    HW245140   5.186   2.075  12.194  0.3713 -0.1346  0.8030
14567SOL     OW45141   4.407   2.821   8.968 -0.2766  0.0924  0.4566
14567SOL    HW145142   4.469   2.886   8.935 -0.0352 -0.2908  0.1634
14567SOL    HW245143   4.460   2.744   8.989 -0.6140 -0.1422  0.4575
14568SOL     OW45144   4.237   3.373  11.056  0.0680  0.1889 -0.3567
14568SOL    HW145145   4.194   3.290  11.075 -2.1257  1.5048  0.7764
14568SOL    HW245146   4.284   3.395  11.137  0.7417  0.0288 -0.6942
14569SOL     OW45147   5.252   4.753  10.041  0.0682  0.2916 -0.0122
14569SOL    HW145148   5.214   4.694  10.106 -0.2262  2.3593  1.7969
14569SOL    HW245149   5.347   4.743  10.051  0.0485 -1.0737 -0.9262
14570SOL     OW45150   4.135   5.441  10.541  0.4980  0.6046 -0.0610
14570SOL    HW145151   4.046   5.454  10.508  0.7353  2.5345 -0.0644
14570SOL    HW245152   4.131   5.359  10.590 -1.6152  1.2605  0.9908
14571SOL     OW45153   6.890   2.706  10.423  0.0697  0.1952  0.2294
14571SOL    HW145154   6.891   2.616  10.454 -0.6697  0.5148  1.2484
14571SOL    HW245155   6.911   2.758  10.500 -0.1520  0.9362 -0.1986
14572SOL     OW45156   6.911   3.109  11.736 -0.1642 -0.6920  0.1652
14572SOL    HW145157   6.825   3.125  11.775  0.0160  1.7237 -0.2944
14572SOL    HW245158   6.891   3.083  11.645 -0.4323  1.3095 -0.3905
14573SOL     OW45159   4.131   2.094   8.403  0.2354 -0.3706 -0.3696
14573SOL    HW145160   4.067   2.116   8.335  1.5504 -0.2339 -1.6023
14573SOL    HW245161   4.078   2.073   8.479 -1.4744 -3.0862 -2.1248
14574SOL     OW45162   5.895   3.116  11.584 -0.1585 -0.0262  0.2202
14574SOL    HW145163   5.844   3.100  11.664  0.7087  0.5236  0.9090
14574SOL    HW245164   5.906   3.030  11.545 -0.6895 -0.2923  0.6417
14575SOL     OW45165   5.077   2.759  12.073 -0.1036  0.2391  0.3419
14575SOL    HW145166   5.060   2.806  12.154  0.3922 -0.7329  1.0213
14575SOL    HW245167   5.079   2.827  12.006  0.8894  1.2290  1.3374
14576SOL     OW45168   5.034   4.648  10.693 -0.4236 -0.6969 -0.3343
14576SOL    HW145169   4.962   4.591  10.718  0.3157 -0.9162  1.4603
14576SOL    HW245170   5.101   4.588  10.659 -1.0735 -0.4894 -2.0385
14577SOL     OW45171   4.788   4.198  11.092 -0.3600 -0.3195 -0.1661
14577SOL    HW145172   4.732   4.149  11.152  0.1633  0.9368  1.4317
14577SOL    HW245173   4.817   4.133  11.028 -0.4635 -1.8793  1.2835
14578SOL     OW45174   5.949   0.846   9.330  0.0552  0.0294 -0.0018
14578SOL    HW145175   5.950   0.904   9.254  0.0578 -0.6464 -0.5187
14578SOL    HW245176   5.860   0.810   9.331  0.6208 -1.4449 -0.8190
14579SOL     OW45177   5.257   1.917   8.868 -0.0488  0.3933  0.0726
14579SOL    HW145178   5.252   1.964   8.784 -3.5085  2.0697  1.0145
14579SOL    HW245179   5.283   1.828   8.844 -2.5523  0.3172 -3.1088
14580SOL     OW45180   7.048   2.399   0.861 -0.1593 -0.1179  0.1908
14580SOL    HW145181   7.009   2.316   0.889 -0.0052 -0.2683 -0.0293
14580SOL    HW245182   6.978   2.444   0.814 -0.4118  0.1269  0.7932
14581SOL     OW45183   4.394   2.046   8.128  0.1732  0.0061 -0.3846
14581SOL    HW145184   4.465   2.105   8.154  1.0684 -0.5718 -1.4244
14581SOL    HW245185   4.351   2.022   8.210 -0.9519  2.9616 -0.0137
14582SOL     OW45186   5.010   3.199   9.478 -0.0331  0.5106 -0.1987
14582SOL    HW145187   4.949   3.241   9.537  0.3331 -0.0888  0.6306
14582SOL    HW245188   5.033   3.267   9.414 -0.9245  0.9717 -0.0400
14583SOL     OW45189   5.732   2.308   9.319 -0.4911 -0.1067 -0.4763
14583SOL    HW145190   5.643   2.333   9.342 -1.3522 -1.9410 -1.5663
14583SOL    HW245191   5.743   2.338   9.228  0.2798  0.7055 -0.1369
14584SOL     OW45192   4.921   2.161  10.485 -0.5060 -0.0256  0.5411
14584SOL    HW145193   4.988   2.100  10.516  0.9013  1.0175 -0.3475
14584SOL    HW245194   4.925   2.234  10.547 -0.5073  0.2307  0.2436
14585SOL     OW45195   5.309   3.206   0.572 -0.3052  0.6915  0.5076
14585SOL    HW145196   5.252   3.131   0.587  0.3262  0.0239 -0.3823
14585SOL    HW245197   5.388   3.187   0.624 -0.4741  1.1470  0.9468
14586SOL     OW45198   4.395   1.890  12.263 -0.0434 -0.6756  0.1156
14586SOL    HW145199   4.403   1.916  12.355  1.9235 -0.8358  0.0439
14586SOL    HW245200   4.302   1.898  12.243 -0.1305  2.3725  1.2294
14587SOL     OW45201   4.709   5.194  12.484 -0.0613 -0.2418  0.4007
14587SOL    HW145202   4.761   5.195  12.404 -1.1690  0.5908 -0.3223
14587SOL    HW245203   4.772   5.167  12.552  0.3950 -3.3196 -1.0523
14588SOL     OW45204   7.283   3.437  11.985  0.0305 -0.4741  0.6189
14588SOL    HW145205   7.191   3.459  11.973  0.2051  0.1958  0.4237
14588SOL    HW245206   7.309   3.396  11.902  0.4463  1.3344 -0.2050
14589SOL     OW45207   5.830   1.785   0.414  0.3798 -0.2404 -0.5328
14589SOL    HW145208   5.856   1.708   0.465  0.8481 -0.1564 -0.6484
14589SOL    HW245209   5.902   1.799   0.353  0.3727  0.3972 -0.3945
14590SOL     OW45210   7.616   3.123  11.661 -0.3965  0.1147  0.5300
14590SOL    HW145211   7.535   3.163  11.632 -0.7538 -0.6573  0.4446
14590SOL    HW245212   7.589   3.050  11.718  0.2405  0.1995  0.9631
14591SOL     OW45213   4.826   3.672  12.317 -0.5693  0.0654  0.4747
14591SOL    HW145214   4.879   3.652  12.239 -0.7352 -0.3436  0.4644
14591SOL    HW245215   4.739   3.640  12.295 -1.0346  1.4404  0.1761
14592SOL     OW45216   5.660   3.479  11.408  0.0764 -0.1820  0.3903
14592SOL    HW145217   5.660   3.436  11.493  0.2174 -0.2804  0.3415
14592SOL    HW245218   5.671   3.572  11.428  1.4598 -0.3256  0.4271
14593SOL     OW45219   5.262   3.354   1.021 -0.4123 -0.4148  0.2356
14593SOL    HW145220   5.223   3.305   1.094 -1.0805  1.9528  1.5670
14593SOL    HW245221   5.339   3.396   1.058 -0.6462  0.6596 -0.4479
14594SOL     OW45222   4.311   2.745  12.281 -0.6415 -0.1237  0.5755
14594SOL    HW145223   4.251   2.677  12.248 -1.2257  0.0336  1.2927
14594SOL    HW245224   4.279   2.765  12.369 -0.9681  1.6473  0.0902
14595SOL     OW45225   3.731   3.663   9.971  0.1711 -0.2268  0.0109
14595SOL    HW145226   3.681   3.596   9.926 -0.8899  0.8187 -0.4188
14595SOL    HW245227   3.674   3.740   9.971  1.7315  1.0003 -0.4437
14596SOL     OW45228   5.371   3.816  12.141 -0.1812 -0.1544 -0.0570
14596SOL    HW145229   5.303   3.835  12.077 -0.5023 -1.7699 -0.2381
14596SOL    HW245230   5.344   3.733  12.182  0.7999  0.0435  1.0800
14597SOL     OW45231   4.501   3.244  11.245  0.8301  0.0697  0.1684
14597SOL    HW145232   4.462   3.331  11.243  3.0760  1.1385 -1.6150
14597SOL    HW245233   4.462   3.199  11.170 -0.5799 -0.6572  1.2808
14598SOL     OW45234   5.296   0.897  10.576 -0.1604 -0.5384  0.1097
14598SOL    HW145235   5.235   0.961  10.539  0.8935  0.1363 -0.5084
14598SOL    HW245236   5.338   0.857  10.500 -1.2897 -2.5012  0.4544
14599SOL     OW45237   2.569   1.587  12.322  0.1188 -0.2329 -0.1579
14599SOL    HW145238   2.645   1.553  12.276 -0.5874 -0.1063 -1.4698
14599SOL    HW245239   2.501   1.520  12.309 -0.0011 -0.3688  1.0340
14600SOL     OW45240   5.727   4.583  12.234  0.2492  0.3916  0.1768
14600SOL    HW145241   5.681   4.584  12.318  1.6724 -1.2749  1.0437
14600SOL    HW245242   5.675   4.527  12.178 -1.2229  2.2698 -0.4277
14601SOL     OW45243   3.546   5.402  11.728 -0.1824 -0.0606 -0.2536
14601SOL    HW145244   3.488   5.326  11.725  0.6272 -0.6624 -1.7123
14601SOL    HW245245   3.625   5.369  11.770 -0.1898  0.2547  0.0111
14602SOL     OW45246   6.163   3.158  10.987  0.2382  0.1647 -0.5335
14602SOL    HW145247   6.249   3.140  11.027 -0.0476  1.5961  0.8180
14602SOL    HW245248   6.184   3.207  10.908  0.7083 -0.7044 -0.9703
14603SOL     OW45249   6.380   1.362   0.007  0.1426 -0.3381  0.0325
14603SOL    HW145250   6.396   1.269  -0.014  0.2035 -0.6902  1.5234
14603SOL    HW245251   6.291   1.378  -0.022 -0.3092 -1.2257  0.8644
14604SOL     OW45252   3.639   0.734  11.721 -0.4226 -0.1268 -0.2744
14604SOL    HW145253   3.654   0.681  11.643 -0.1381 -0.4210 -0.0202
14604SOL    HW245254   3.709   0.798  11.721 -0.1038 -0.4726  0.0332
14605SOL     OW45255   5.120   4.006  11.245 -0.7830  1.0110 -0.2053
14605SOL    HW145256   5.176   4.084  11.249  1.4495 -0.0595 -4.4905
14605SOL    HW245257   5.174   3.936  11.283  0.5379  0.2440 -3.1650
14606SOL     OW45258   4.815   0.955  11.974  0.7591  0.4482 -0.1936
14606SOL    HW145259   4.770   0.964  12.058 -0.5705 -0.7241 -0.7415
14606SOL    HW245260   4.798   0.864  11.947  1.6833  0.6160 -1.4350
14607SOL     OW45261   4.454   3.350  11.808 -0.2776  0.0167  0.2325
14607SOL    HW145262   4.471   3.444  11.815 -1.0529  0.1354  0.7733
14607SOL    HW245263   4.358   3.344  11.803 -0.1757 -0.6690 -1.3264
14608SOL     OW45264   4.685   1.775  10.886  0.3899  0.3345  0.3182
14608SOL    HW145265   4.638   1.717  10.828  0.4303  0.5463  0.0718
14608SOL    HW245266   4.728   1.838  10.828  2.3388 -0.8336  0.4224
14609SOL     OW45267   6.132   2.854  12.440 -0.2576  0.5042 -0.1706
14609SOL    HW145268   6.188   2.913  12.490 -0.3943  1.2678 -0.9087
14609SOL    HW245269   6.044   2.890  12.450 -0.8252 -1.2063  1.7647
14610SOL     OW45270   4.832   0.613  11.876  0.0240 -0.5942 -0.1574
14610SOL    HW145271   4.749   0.579  11.910  0.2079  0.8373  1.8752
14610SOL    HW245272   4.899   0.557  11.916  0.1725  0.2127  0.7479
14611SOL     OW45273   5.696   2.282  11.768  0.1725  0.2026 -0.0217
14611SOL    HW145274   5.623   2.275  11.707 -0.6769 -0.7715  1.0557
14611SOL    HW245275   5.763   2.223  11.733 -1.1753 -2.1411  1.0869
14612SOL     OW45276   5.608   3.178  10.075 -0.4901 -0.6700  0.2225
14612SOL    HW145277   5.553   3.231  10.017  2.0467 -0.4500 -2.2077
14612SOL    HW245278   5.563   3.094  10.081 -2.1242  0.1494  0.1431
14613SOL     OW45279   5.562   2.274  12.016  0.0264  0.8636  0.3864
14613SOL    HW145280   5.575   2.186  11.979 -1.3462  1.2071 -0.9923
14613SOL    HW245281   5.575   2.333  11.942  0.1188  1.7895  1.1259
14614SOL     OW45282   5.704   2.335   0.335  0.5299 -0.0074  0.0362
14614SOL    HW145283   5.731   2.400   0.270  0.9789 -0.6055 -0.3890
14614SOL    HW245284   5.724   2.251   0.294 -2.5499 -0.5444 -0.5724
14615SOL     OW45285   5.124   2.558  11.307 -0.1776  0.1560 -0.1302
14615SOL    HW145286   5.125   2.463  11.319  1.1982  0.0240 -1.0643
14615SOL    HW245287   5.147   2.593  11.393  0.2515 -0.3962 -0.0129
14616SOL     OW45288   5.337   1.961  11.936 -0.1590 -0.2070  0.4135
14616SOL    HW145289   5.331   1.930  12.026  1.4163 -0.1329  0.5694
14616SOL    HW245290   5.426   1.995  11.928 -0.5216  0.5069 -0.9488
14617SOL     OW45291   6.703   1.337  12.100 -0.3848  0.7914 -0.3968
14617SOL    HW145292   6.688   1.246  12.126 -0.1447  0.1063 -2.4506
14617SOL    HW245293   6.796   1.341  12.078 -0.5514  1.3039 -1.0574
14618SOL     OW45294   6.247   4.128  11.040  0.3870 -0.0106 -0.1124
14618SOL    HW145295   6.282   4.116  11.128  1.1986 -2.1412 -0.6687
14618SOL    HW245296   6.203   4.213  11.043  2.6458  1.2018  1.5967
14619SOL     OW45297   4.292   2.177  11.193  0.2013  0.6392 -0.0842
14619SOL    HW145298   4.222   2.209  11.250 -0.5821  2.8164 -2.1202
14619SOL    HW245299   4.272   2.084  11.181 -1.6285  0.9326  0.3773
14620SOL     OW45300   4.475   2.158  11.647 -0.2547 -0.3803 -0.5311
14620SOL    HW145301   4.531   2.221  11.693 -1.0341  0.5970 -0.8882
14620SOL    HW245302   4.412   2.212  11.599 -1.7135 -1.4475  0.1025
14621SOL     OW45303   6.593   1.909  12.141  0.2803  0.3499 -0.4456
14621SOL    HW145304   6.541   1.863  12.207  1.8656 -1.2705 -0.2485
14621SOL    HW245305   6.578   1.859  12.061 -0.7583  1.6531 -1.0985
14622SOL     OW45306   4.734   2.877  12.280  0.0127 -0.5422 -0.1639
14622SOL    HW145307   4.809   2.846  12.331 -0.3047 -1.8289 -0.4444
14622SOL    HW245308   4.768   2.892  12.192  0.3476  0.7506  0.1661
14623SOL     OW45309   5.244   0.924   9.814  0.0710 -0.1710  0.0952
14623SOL    HW145310   5.181   0.858   9.842  0.3865 -1.0021 -1.0663
14623SOL    HW245311   5.202   0.967   9.739  0.6146 -0.3298 -0.3143
14624SOL     OW45312   5.759   1.995  11.420  0.6904 -0.1376 -0.2900
14624SOL    HW145313   5.714   2.044  11.351 -0.5860 -2.2413 -1.0467
14624SOL    HW245314   5.850   1.992  11.392  0.6231  1.0132 -0.6708
14625SOL     OW45315   5.230   3.629  12.269  0.6337  0.2057  0.0525
14625SOL    HW145316   5.147   3.615  12.224  0.5299 -0.7073  0.5192
14625SOL    HW245317   5.215   3.597  12.358  2.1588 -2.2067 -0.4560
14626SOL     OW45318   4.110   4.126  10.915  0.3319 -0.1626  0.0107
14626SOL    HW145319   4.062   4.075  10.850  1.5510 -2.0512  0.4952
14626SOL    HW245320   4.200   4.127  10.883  0.6476  0.2650  0.8753
14627SOL     OW45321   6.660   0.373  11.238 -0.2163 -0.1800  0.4967
14627SOL    HW145322   6.711   0.324  11.302 -0.2328  1.5190  1.8858
14627SOL    HW245323   6.625   0.306  11.179  2.3267 -1.5511  0.3864
14628SOL     OW45324   2.557   3.920   0.742 -0.0688  1.1134  0.0632
14628SOL    HW145325   2.486   3.893   0.801  0.7146 -1.3663 -0.0200
14628SOL    HW245326   2.610   3.979   0.795 -0.6548  0.7490  1.0928
14629SOL     OW45327   4.120   2.414  11.254  0.2718 -0.5822 -0.7640
14629SOL    HW145328   4.072   2.339  11.220  0.4586 -1.0351 -0.0600
14629SOL    HW245329   4.164   2.451  11.178 -2.8434  1.1802 -1.8749
14630SOL     OW45330   5.807   1.917  11.764  0.2307  0.5059 -0.0013
14630SOL    HW145331   5.818   1.982  11.694 -1.0799 -0.0934 -0.8005
14630SOL    HW245332   5.886   1.863  11.760  0.2565  0.5975 -0.9133
14631SOL     OW45333   4.626   2.599  12.002 -0.6876  0.6420 -0.2019
14631SOL    HW145334   4.638   2.592  12.096 -3.1268  2.0671  0.3106
14631SOL    HW245335   4.674   2.525  11.965  1.2152  0.6558  2.0313
14632SOL     OW45336   5.639   1.935   0.093  0.2904 -0.0794  0.7385
14632SOL    HW145337   5.573   1.948   0.161 -0.1517 -0.9887  0.4955
14632SOL    HW245338   5.711   1.993   0.118  0.0440 -0.2375  1.8624
14633SOL     OW45339   5.365   2.539  10.672 -0.3416  0.0827  0.0640
14633SOL    HW145340   5.308   2.565  10.744  0.2409 -0.8980  0.9064
14633SOL    HW245341   5.339   2.449  10.651  0.9563 -0.4501  0.5769
14634SOL     OW45342   5.213   2.354  11.629  0.3566 -0.2059  0.3451
14634SOL    HW145343   5.149   2.291  11.661  1.0212 -1.0621  0.0527
14634SOL    HW245344   5.231   2.410  11.704 -0.4366 -0.1966  0.5375
14635SOL     OW45345   6.010   3.568  12.026  0.6427 -0.1507  0.3423
14635SOL    HW145346   6.068   3.497  12.051 -0.4702 -0.4950  2.1325
14635SOL    HW245347   5.954   3.582  12.103 -1.8604 -0.0681 -1.3615
14636SOL     OW45348   4.996   2.191  11.655  0.4514  0.2490 -0.1175
14636SOL    HW145349   4.942   2.152  11.586  1.0508  1.3751 -1.2696
14636SOL    HW245350   5.018   2.118  11.712 -0.6495 -0.5860 -0.7159
14637SOL     OW45351   5.825   0.893   8.887 -0.1679  0.4942 -0.0664
14637SOL    HW145352   5.802   0.956   8.819 -0.3458 -0.4130 -0.8599
14637SOL    HW245353   5.866   0.946   8.956 -2.4505  1.8346  0.3618
14638SOL     OW45354   5.032   3.265  12.469  0.9797  0.5570 -0.5000
14638SOL    HW145355   5.015   3.199  12.536  0.0528 -0.0758 -1.3338
14638SOL    HW245356   5.099   3.225  12.412  2.1051  1.2761  0.2770
14639SOL     OW45357   5.853   3.952  12.124 -0.0195 -0.3969  0.5332
14639SOL    HW145358   5.814   3.891  12.185 -0.0455 -0.4848  0.4292
14639SOL    HW245359   5.805   4.034  12.137 -1.2344 -0.8905 -0.6114
14640SOL     OW45360   5.418   3.528   0.867 -0.4934  0.7791  0.1708
14640SOL    HW145361   5.339   3.474   0.871 -0.0520  0.1729  1.5203
14640SOL    HW245362   5.432   3.555   0.958  1.7077 -0.4417  0.2717
14641SOL     OW45363   4.460   4.500  12.095 -0.1625 -0.0902 -0.0957
14641SOL    HW145364   4.469   4.525  12.187  0.3127  0.5080 -0.2996
14641SOL    HW245365   4.422   4.412  12.098  1.3090 -0.7266  0.7116
14642SOL     OW45366   4.480   0.820  12.496  0.3772  0.2113  0.6292
14642SOL    HW145367   4.452   0.790  12.410  1.2023 -0.9200  0.7330
14642SOL    HW245368   4.571   0.847  12.483  0.4431  0.2190  1.1064
14643SOL     OW45369   4.792   2.013  11.955 -0.5664  0.2324 -0.3783
14643SOL    HW145370   4.853   2.030  11.884 -0.4601  1.0928 -0.0917
14643SOL    HW245371   4.723   1.959  11.916  1.1767 -2.2062 -0.3260
14644SOL     OW45372   6.127   2.842   0.739  0.1530  0.4434 -0.2937
14644SOL    HW145373   6.119   2.918   0.682  1.2855  0.9664  0.2045
14644SOL    HW245374   6.052   2.787   0.717 -0.1755  1.2684 -1.3130
14645SOL     OW45375   3.059   1.251  11.172  0.4265 -0.1720  0.0360
14645SOL    HW145376   3.013   1.171  11.198 -1.3178  0.5429 -0.6799
14645SOL    HW245377   3.017   1.277  11.089  0.7640  1.6000  0.3710
14646SOL     OW45378   5.788   1.413  12.091  0.4969 -0.1831 -0.3326
14646SOL    HW145379   5.791   1.498  12.135 -0.4576 -0.7091  0.7820
14646SOL    HW245380   5.872   1.407  12.046 -0.0689  2.0925 -1.8631
14647SOL     OW45381   5.039   1.594  11.598 -0.4550  0.2952 -0.1113
14647SOL    HW145382   5.094   1.621  11.525  0.3572 -1.4948 -0.2206
14647SOL    HW245383   5.087   1.624  11.676  1.0085 -1.6921 -0.1875
14648SOL     OW45384   5.507   1.958  11.049 -0.4395 -0.9957 -0.0964
14648SOL    HW145385   5.551   2.024  11.103 -1.1230 -1.7847  1.4945
14648SOL    HW245386   5.456   2.009  10.987 -0.4554 -0.0209  0.6834
14649SOL     OW45387   6.066   3.448  11.607  0.0306 -0.3995  0.2868
14649SOL    HW145388   6.072   3.535  11.648 -0.4807 -0.2694  0.0922
14649SOL    HW245389   5.986   3.452  11.555 -0.7819 -1.4658  1.4116
14650SOL     OW45390   6.684   3.088  10.958  0.2851 -0.0821  0.3931
14650SOL    HW145391   6.654   3.138  11.035  1.7962  0.6429  0.5385
14650SOL    HW245392   6.716   3.155  10.898 -0.2305 -0.7068 -0.5940
14651SOL     OW45393   5.168   0.714  11.077  0.3911 -0.2286 -0.0526
14651SOL    HW145394   5.217   0.646  11.123 -0.0350 -1.2500 -1.0469
14651SOL    HW245395   5.224   0.791  11.081  0.0498 -0.0318  2.8012
14652SOL     OW45396   4.240   3.147  12.344  0.1934 -0.3562 -0.3198
14652SOL    HW145397   4.249   3.169  12.436  0.3094 -1.7539  0.0265
14652SOL    HW245398   4.146   3.143  12.328  0.1738 -0.1838 -0.2477
14653SOL     OW45399   7.519   2.258  12.369  0.0625  0.4410  0.5108
14653SOL    HW145400   7.603   2.295  12.342 -0.4723 -0.1195 -2.1821
14653SOL    HW245401   7.516   2.171  12.328 -1.3928 -0.0076  1.4583
14654SOL     OW45402   5.855   0.674   8.633  0.2016 -0.6625  0.0821
14654SOL    HW145403   5.924   0.714   8.687  0.0025  0.0446 -0.1760
14654SOL    HW245404   5.826   0.745   8.575 -0.3111 -1.1288 -0.2386
14655SOL     OW45405   4.669   3.197   0.265  0.4005  0.0344  0.1866
14655SOL    HW145406   4.636   3.252   0.335 -0.8750  0.2425 -0.5477
14655SOL    HW245407   4.717   3.257   0.208 -1.4737  0.5767 -0.9236
14656SOL     OW45408   4.031   4.040   0.510 -0.3645  0.2463 -0.2679
14656SOL    HW145409   4.081   4.014   0.432  0.8178  2.5695 -0.3576
14656SOL    HW245410   3.967   3.970   0.521  0.6304 -1.0765 -2.2401
14657SOL     OW45411   4.114   3.221  11.279  0.1120  0.0076  0.2786
14657SOL    HW145412   4.116   3.156  11.349  0.1622  0.1976  0.4573
14657SOL    HW245413   4.043   3.194  11.222 -0.2952  0.1630  0.7054
14658SOL     OW45414   5.137   3.233  11.096 -0.2885  0.0249  0.1834
14658SOL    HW145415   5.126   3.175  11.171  0.3797 -1.1548 -0.5980
14658SOL    HW245416   5.066   3.297  11.105 -1.5087 -1.3398  0.6893
14659SOL     OW45417   6.691   3.459  12.315 -0.6536  0.0408 -0.2319
14659SOL    HW145418   6.775   3.504  12.308 -1.2008  1.1509  0.1441
14659SOL    HW245419   6.629   3.517  12.270 -1.6498  0.4215  1.5316
14660SOL     OW45420   5.229   2.479  11.866  0.2602 -0.1467 -0.4607
14660SOL    HW145421   5.169   2.483  11.940  1.1738  0.4804  0.2627
14660SOL    HW245422   5.316   2.491  11.904  0.6108  2.0810 -1.8203
14661SOL     OW45423   5.753   0.644   1.262  0.0215  0.1587  0.3932
14661SOL    HW145424   5.675   0.651   1.207  0.5978  1.6712 -0.2668
14661SOL    HW245425   5.723   0.599   1.341 -0.7491 -2.4292 -1.2563
14662SOL     OW45426   4.725   5.389  12.142 -0.1150  0.2233  0.2160
14662SOL    HW145427   4.814   5.420  12.128 -0.0204  0.6533  1.6650
14662SOL    HW245428   4.736   5.304  12.185 -0.4037  0.3983  0.6363
14663SOL     OW45429   5.605   1.755  11.474  0.1847 -0.5809  0.6148
14663SOL    HW145430   5.645   1.842  11.467  0.0707 -0.5980 -0.4090
14663SOL    HW245431   5.561   1.756  11.559 -0.0088  0.4603  0.5221
14664SOL     OW45432   6.645   2.624   1.723 -0.3605  0.1517 -0.5730
14664SOL    HW145433   6.728   2.605   1.767  0.2232  1.2965 -1.1261
14664SOL    HW245434   6.656   2.589   1.635 -0.2834  0.7198 -0.7897
14665SOL     OW45435   5.146   2.858  10.877  0.3000 -0.7351 -0.4917
14665SOL    HW145436   5.221   2.893  10.828  1.3539 -1.1562  0.7714
14665SOL    HW245437   5.084   2.930  10.880  0.4826 -0.4863 -1.8590
14666SOL     OW45438   4.127   1.732  12.213  0.5465  0.2386 -0.4483
14666SOL    HW145439   4.120   1.676  12.290 -1.5103 -0.0462 -0.7911
14666SOL    HW245440   4.184   1.683  12.153 -3.4239 -3.1754 -1.9593
14667SOL     OW45441   4.068   3.044  11.480  0.7167 -0.4580  0.0049
14667SOL    HW145442   3.996   3.035  11.541  0.4698 -0.4686 -0.2866
14667SOL    HW245443   4.078   2.957  11.441  0.6529 -0.3664 -0.2175
14668SOL     OW45444   6.902   2.893   0.335 -0.3296  0.3486  0.8041
14668SOL    HW145445   6.993   2.918   0.351 -0.7103  0.4145  3.3296
14668SOL    HW245446   6.861   2.972   0.301  0.2366  0.7718  1.0859
14669SOL     OW45447   4.134   7.135  12.070  0.4092 -0.2483  0.5245
14669SOL    HW145448   4.184   7.054  12.079 -0.4139 -0.8648 -0.2274
14669SOL    HW245449   4.056   7.109  12.022  0.1844  1.0258  0.1733
14670SOL     OW45450   5.626   1.869  10.566 -0.0807 -0.1908  0.1430
14670SOL    HW145451   5.631   1.909  10.480 -2.6239  1.5190  0.6895
14670SOL    HW245452   5.574   1.790  10.553 -1.1396  0.4814  0.2031
14671SOL     OW45453   4.257   2.289  11.483 -0.0926 -0.3910 -0.0478
14671SOL    HW145454   4.211   2.344  11.547  1.9467  3.5443 -1.6283
14671SOL    HW245455   4.217   2.310  11.399 -0.1769 -2.5426 -0.6092
14672SOL     OW45456   6.949   1.850  10.527 -0.2636 -0.4357 -0.5938
14672SOL    HW145457   6.926   1.760  10.547 -0.8469 -0.2580 -0.4452
14672SOL    HW245458   6.990   1.882  10.608 -0.7153 -0.3499 -0.3978
14673SOL     OW45459   5.651   4.565   0.290 -0.4355 -0.2601 -0.3762
14673SOL    HW145460   5.650   4.496   0.356  0.0232  1.3095  1.3298
14673SOL    HW245461   5.564   4.561   0.250 -0.5042 -1.6407 -0.1443
14674SOL     OW45462   6.447   1.865   0.749  0.5946  0.1208 -0.2706
14674SOL    HW145463   6.355   1.856   0.776  0.0605  0.1913 -1.9939
14674SOL    HW245464   6.473   1.949   0.785 -0.6116  0.9912 -1.3537
14675SOL     OW45465   4.634   1.489  12.249 -0.2802  0.4482 -0.4124
14675SOL    HW145466   4.560   1.429  12.243  0.7454 -0.9933  0.6783
14675SOL    HW245467   4.602   1.571  12.211 -2.4278 -0.1212  0.0448
14676SOL     OW45468   6.783   1.062   0.728 -0.1932 -0.1788  0.5574
14676SOL    HW145469   6.737   1.130   0.678 -0.8818 -2.0182 -1.4307
14676SOL    HW245470   6.716   0.996   0.746  0.9004 -1.3101  0.6153
14677SOL     OW45471   3.847   0.923  11.697  0.2710  0.5371  0.1557
14677SOL    HW145472   3.855   0.933  11.602  0.9423 -1.2405 -0.0115
14677SOL    HW245473   3.934   0.944  11.730 -0.1336  1.8142  0.4813
14678SOL     OW45474   4.329   2.571   9.485 -0.0496 -0.3798 -0.0467
14678SOL    HW145475   4.317   2.478   9.467 -0.0286 -0.1804 -1.1443
14678SOL    HW245476   4.406   2.596   9.435 -2.2786  1.0898 -3.0585
14679SOL     OW45477   4.993   3.875  10.713 -0.4029  0.6178  0.0340
14679SOL    HW145478   5.065   3.883  10.651 -0.4269 -0.7152 -0.2027
14679SOL    HW245479   5.034   3.846  10.794 -0.7259 -1.0421 -0.3505
14680SOL     OW45480   5.044   3.382   0.330 -0.2761 -0.1961 -0.3032
14680SOL    HW145481   5.055   3.371   0.424 -0.9729 -0.1538 -0.2101
14680SOL    HW245482   4.960   3.427   0.321 -0.3418 -0.4415 -0.9578
14681SOL     OW45483   5.075   1.928   2.767  0.1918 -0.2309  0.2009
14681SOL    HW145484   5.020   1.985   2.820 -0.0699 -0.6927  0.4270
14681SOL    HW245485   5.021   1.905   2.692  0.6056  0.5245 -0.3389
14682SOL     OW45486   4.364   1.166   0.686  0.1159  0.5052  0.3273
14682SOL    HW145487   4.354   1.242   0.629 -0.1501  0.5219  0.3943
14682SOL    HW245488   4.302   1.181   0.757  2.0792  1.6144  1.8690
14683SOL     OW45489   4.825   2.389  11.975 -0.0432 -0.3507 -0.3706
14683SOL    HW145490   4.902   2.442  11.995 -0.4074 -0.4438  1.4042
14683SOL    HW245491   4.837   2.310  12.027 -1.1425 -0.5423 -0.3975
14684SOL     OW45492   5.749   4.233  12.127  0.2672  0.1637  0.5018
14684SOL    HW145493   5.681   4.296  12.106  0.5603  0.1928 -0.4155
14684SOL    HW245494   5.716   4.186  12.203  0.1208  1.5150  1.2955
14685SOL     OW45495   3.172   2.166  11.550 -0.6320 -0.3804 -0.0251
14685SOL    HW145496   3.212   2.174  11.636 -0.5927  0.4838 -0.1191
14685SOL    HW245497   3.104   2.099  11.561  1.5407 -2.7466 -0.1230
14686SOL     OW45498   3.427   2.706   1.369 -0.5836  0.8781  0.4080
14686SOL    HW145499   3.394   2.749   1.448 -0.5774  0.1943  0.7883
14686SOL    HW245500   3.506   2.660   1.399 -0.2924  1.0344 -0.1106
14687SOL     OW45501   4.692   2.340   0.313  0.1109  0.0711 -0.1294
14687SOL    HW145502   4.607   2.376   0.289 -0.4285  1.9071  3.8328
14687SOL    HW245503   4.676   2.246   0.320 -1.1176  0.1792 -1.0755
14688SOL     OW45504   4.335   3.620   1.707 -0.6264 -0.1922  0.2106
14688SOL    HW145505   4.360   3.579   1.624 -0.8127  0.7854 -0.3501
14688SOL    HW245506   4.415   3.664   1.737 -0.3656 -1.1139  0.9202
14689SOL     OW45507   5.664   1.949  10.291  0.1971  0.1695 -0.1186
14689SOL    HW145508   5.588   1.910  10.247  1.1082  2.1003 -3.8761
14689SOL    HW245509   5.718   1.982  10.219  3.9242  0.1727  2.4498
14690SOL     OW45510   7.700   5.135  11.719  1.0611  0.5382  0.3512
14690SOL    HW145511   7.699   5.102  11.809  1.1502 -0.1886  0.0939
14690SOL    HW245512   7.608   5.147  11.696  1.0123  0.2106  0.3634
14691SOL     OW45513   6.431   2.713   1.533 -0.1685 -0.1973  0.3421
14691SOL    HW145514   6.501   2.649   1.521  0.0671 -0.1001  1.1431
14691SOL    HW245515   6.392   2.723   1.446  1.0538  0.0285 -0.1966
14692SOL     OW45516   6.343   2.341   0.115  0.2585 -0.2781 -0.2167
14692SOL    HW145517   6.253   2.372   0.104  0.7440  1.1803 -0.3246
14692SOL    HW245518   6.352   2.327   0.210  0.5754  1.7937  0.0937
14693SOL     OW45519   7.291   1.933  12.405 -0.1883  0.5828 -0.1338
14693SOL    HW145520   7.271   2.025  12.423  0.0123  0.5471  0.2807
14693SOL    HW245521   7.387   1.931  12.395 -0.1334  0.3238  0.4232
14694SOL     OW45522   6.757   3.684   0.844  0.9918 -0.0553 -0.2664
14694SOL    HW145523   6.668   3.671   0.875  1.1811  1.8260  1.2843
14694SOL    HW245524   6.779   3.604   0.797 -1.2135 -0.8754  0.0075
14695SOL     OW45525   6.433   1.711  10.251  0.1554 -0.4898  0.1365
14695SOL    HW145526   6.357   1.769  10.254  0.7329  0.3147 -0.3257
14695SOL    HW245527   6.424   1.656  10.328  0.2746  1.1104  1.3407
14696SOL     OW45528   6.009   3.663   9.945 -0.0112 -0.7500 -0.3593
14696SOL    HW145529   6.020   3.660  10.040  2.1590 -0.2883 -0.5474
14696SOL    HW245530   5.942   3.598   9.926 -2.3478  0.8707  1.6919
14697SOL     OW45531   6.182   4.392   1.010 -0.0805 -0.4688  0.4606
14697SOL    HW145532   6.105   4.386   1.067 -0.2875 -1.7455  0.0726
14697SOL    HW245533   6.219   4.304   1.011  0.6509 -0.1813 -0.3831
14698SOL     OW45534   6.589   0.486  10.399 -0.4050  0.5191 -0.4731
14698SOL    HW145535   6.590   0.534  10.481 -0.3839  0.5699 -0.5026
14698SOL    HW245536   6.632   0.545  10.336 -2.0275  1.2604 -0.9557
14699SOL     OW45537   5.080   1.140   1.393  0.0187  0.5413 -0.1283
14699SOL    HW145538   4.990   1.161   1.418  0.5037  0.7631  1.5388
14699SOL    HW245539   5.080   1.147   1.298 -1.9109 -0.2392 -0.2332
14700SOL     OW45540   5.990   4.948  10.701 -0.0422  0.3240 -0.3323
14700SOL    HW145541   5.957   4.993  10.778  0.4615  0.2737 -0.0834
14700SOL    HW245542   6.045   4.878  10.735  1.5288  1.3094 -0.7185
14701SOL     OW45543   5.778   3.714   0.349  0.3802  0.2041  0.3308
14701SOL    HW145544   5.783   3.801   0.388  1.5704  0.8607 -1.1704
14701SOL    HW245545   5.868   3.693   0.325 -0.1978 -0.4293 -1.4448
14702SOL     OW45546   4.589   3.631  12.178 -0.0236 -0.4132  0.1767
14702SOL    HW145547   4.611   3.553  12.127 -0.2353  0.0196 -0.5896
14702SOL    HW245548   4.650   3.698  12.149 -0.7973  0.1241 -0.2500
14703SOL     OW45549   5.692   4.623   1.517 -0.0832  0.9557  0.2664
14703SOL    HW145550   5.626   4.558   1.539  2.8013 -1.6467  2.1362
14703SOL    HW245551   5.774   4.587   1.553  1.9335  5.1961  0.5638
14704SOL     OW45552   6.914   2.549  11.299 -0.3481  0.0587 -0.4891
14704SOL    HW145553   6.995   2.501  11.317 -0.7166 -0.8798 -1.2292
14704SOL    HW245554   6.860   2.535  11.377 -0.7911 -1.4993 -1.0408
14705SOL     OW45555   4.709   1.968  12.262  0.0845  0.3148 -0.2052
14705SOL    HW145556   4.661   1.886  12.252  0.7404 -0.2418  0.9353
14705SOL    HW245557   4.702   2.011  12.177  0.9389 -1.5994 -1.3068
14706SOL     OW45558   5.623   4.069  12.289  0.2596  0.2712 -0.1638
14706SOL    HW145559   5.627   4.082  12.384  0.2639 -1.3378  0.0754
14706SOL    HW245560   5.541   4.023  12.274  0.5052  0.0468 -0.8834
14707SOL     OW45561   5.335   3.366  12.244 -0.0272 -0.4171 -0.4974
14707SOL    HW145562   5.273   3.439  12.242 -0.2907 -0.5548  1.2382
14707SOL    HW245563   5.408   3.398  12.297  1.0945 -0.5205 -1.9060
14708SOL     OW45564   4.530   3.545   9.783 -0.0135 -0.4283 -0.5039
14708SOL    HW145565   4.593   3.494   9.731 -0.1469 -0.8773 -0.2380
14708SOL    HW245566   4.492   3.480   9.843 -1.6017 -0.4242 -1.4536
14709SOL     OW45567   5.824   1.002  11.011 -0.3998 -0.1679  0.5776
14709SOL    HW145568   5.743   0.991  10.962  1.6411 -0.7944 -2.9754
14709SOL    HW245569   5.823   0.931  11.075 -2.5687 -0.2076  0.5840
14710SOL     OW45570   5.807   1.339   1.193  0.3377  0.1766  0.6138
14710SOL    HW145571   5.737   1.389   1.152 -2.1713 -2.6284  1.1312
14710SOL    HW245572   5.824   1.384   1.276 -1.8809  0.1853  1.1064
14711SOL     OW45573   5.128   1.704   9.615 -0.4321  0.7172 -0.2761
14711SOL    HW145574   5.172   1.774   9.664 -1.1599  0.3367  0.9687
14711SOL    HW245575   5.041   1.740   9.596 -0.7721  0.1922  0.2734
14712SOL     OW45576   3.682   1.775  12.175  0.0459  0.5350 -0.6256
14712SOL    HW145577   3.649   1.803  12.090 -1.3124 -0.7257 -0.5657
14712SOL    HW245578   3.622   1.815  12.239 -0.1521 -0.1254 -0.3880
14713SOL     OW45579   6.070   2.716  11.849 -0.0866  0.0403 -0.2930
14713SOL    HW145580   6.009   2.684  11.916 -0.3601  0.3148 -0.4097
14713SOL    HW245581   6.086   2.807  11.873 -0.8621  0.3928 -1.0940
14714SOL     OW45582   5.030   2.113   9.485  0.3991  0.7738 -0.0204
14714SOL    HW145583   5.115   2.128   9.444  1.1239  0.2224  1.2098
14714SOL    HW245584   4.979   2.192   9.465  1.1423  1.0382 -0.9019
14715SOL     OW45585   6.436   1.768  12.314 -0.0763  0.2011  0.2811
14715SOL    HW145586   6.369   1.773  12.382 -1.4184 -0.4441 -0.9467
14715SOL    HW245587   6.495   1.699  12.344 -0.8758 -0.3533  0.6122
14716SOL     OW45588   0.039   2.381   0.013  0.6119  0.5003  0.1810
14716SOL    HW145589  -0.036   2.346   0.061  1.0861 -0.4467  0.2445
14716SOL    HW245590   0.011   2.468  -0.015 -1.6997 -0.9565 -2.4403
14717SOL     OW45591   5.782   3.967  10.066 -0.5848 -0.0115  0.3182
14717SOL    HW145592   5.796   3.893  10.125 -0.6616 -0.9399 -0.7912
14717SOL    HW245593   5.860   3.968  10.011 -0.4351  0.9561  0.5362
14718SOL     OW45594   5.150   4.510  12.396  0.1661  0.0916 -0.0476
14718SOL    HW145595   5.078   4.523  12.334 -0.0552  1.1032  0.3935
14718SOL    HW245596   5.108   4.484  12.477  0.5717 -3.0999 -0.7422
14719SOL     OW45597   5.330   4.345  12.213 -0.1054 -0.1634  0.3327
14719SOL    HW145598   5.324   4.252  12.235 -1.2011 -0.0649  0.5240
14719SOL    HW245599   5.285   4.389  12.284  0.8479  0.5674  0.5007
14720SOL     OW45600   4.335   3.736   0.787 -0.6058  0.3902  0.1436
14720SOL    HW145601   4.340   3.685   0.868  0.0118 -1.3400 -0.9274
14720SOL    HW245602   4.252   3.708   0.748 -0.7822  1.0380  0.0527
14721SOL     OW45603   6.125   4.004   0.823 -0.1451 -0.1437  0.1815
14721SOL    HW145604   6.128   3.949   0.902  2.2120 -0.2798  0.0711
14721SOL    HW245605   6.111   3.942   0.752 -2.5721  0.0087  0.4510
14722SOL     OW45606   4.527   5.455  11.587  0.2573  0.3877 -0.4649
14722SOL    HW145607   4.606   5.500  11.616 -0.7931  1.0262  1.5637
14722SOL    HW245608   4.560   5.381  11.536  2.2233  0.1277  1.0388
14723SOL     OW45609   5.647   4.967  11.536 -0.3902  1.3324 -0.4074
14723SOL    HW145610   5.692   5.032  11.483 -2.6510  0.9279 -3.1029
14723SOL    HW245611   5.620   4.900  11.473 -1.6265 -0.1630  1.6012
14724SOL     OW45612   4.380   1.978  10.871  0.5239 -0.4241 -0.0946
14724SOL    HW145613   4.319   1.905  10.879  1.2144 -0.9262  0.9620
14724SOL    HW245614   4.465   1.941  10.898  1.0650  0.5390 -0.4238
14725SOL     OW45615   6.579   2.846  11.542  0.2414 -0.5843 -0.4529
14725SOL    HW145616   6.498   2.883  11.577  1.3529  1.9946 -0.3634
14725SOL    HW245617   6.585   2.759  11.582 -1.5975 -0.1508  0.9054
14726SOL     OW45618   4.884   3.612  10.079 -0.2109 -0.5093  0.0921
14726SOL    HW145619   4.921   3.574  10.000  0.0341  0.1198 -0.1032
14726SOL    HW245620   4.811   3.665  10.048 -0.2130 -0.3862  0.3013
14727SOL     OW45621   6.331   2.265  11.759  0.2658  0.2447 -0.1496
14727SOL    HW145622   6.294   2.341  11.714 -1.2466  0.1039  0.7928
14727SOL    HW245623   6.396   2.230  11.697  0.6634  2.0006 -0.7899
14728SOL     OW45624   7.292   2.175   0.048  0.6650 -0.0911 -0.2329
14728SOL    HW145625   7.225   2.242   0.056  0.6705 -0.3264  3.1364
14728SOL    HW245626   7.362   2.217  -0.003 -0.0790  1.8142  0.2480
14729SOL     OW45627   5.307   2.597  12.309 -0.0012  0.0537  1.0544
14729SOL    HW145628   5.358   2.661  12.260 -1.3058  0.6524  0.4128
14729SOL    HW245629   5.326   2.514  12.266  1.0283  0.1310  1.3334
14730SOL     OW45630   5.725   1.519  10.523  0.1073  0.2502 -0.0535
14730SOL    HW145631   5.646   1.567  10.496 -0.9778 -1.2551  0.3074
14730SOL    HW245632   5.698   1.471  10.601  0.2980 -2.9242 -1.7554
14731SOL     OW45633   4.482   2.856  12.106  0.0628 -0.0685 -0.0359
14731SOL    HW145634   4.423   2.821  12.174  0.4084  0.2016  0.4129
14731SOL    HW245635   4.569   2.846  12.144  0.5568 -2.5013 -1.5465
14732SOL     OW45636   4.800   2.527  11.361 -0.7436 -0.5593  0.2851
14732SOL    HW145637   4.715   2.493  11.333 -1.0336 -0.0558  0.5285
14732SOL    HW245638   4.815   2.488  11.447 -2.1522  1.6168  1.6251
14733SOL     OW45639   3.896   2.818  11.920  0.2187 -0.3005 -0.2804
14733SOL    HW145640   3.869   2.819  11.828 -1.0546  0.0155  0.0677
14733SOL    HW245641   3.894   2.726  11.944 -0.6438 -0.2841 -0.2555
14734SOL     OW45642   4.730   5.204  11.688 -0.1923  0.6080  0.2095
14734SOL    HW145643   4.732   5.212  11.592  1.4926 -0.0248  0.1436
14734SOL    HW245644   4.719   5.110  11.704  4.1385 -0.0866  0.4529
14735SOL     OW45645   2.582   2.725   0.388  0.3971  0.0817  0.6016
14735SOL    HW145646   2.594   2.656   0.453 -2.6875 -1.1094  0.0982
14735SOL    HW245647   2.630   2.694   0.311 -1.2394 -1.8041  0.2567
14736SOL     OW45648   4.098   3.427   1.720  0.1548  0.6330 -0.3027
14736SOL    HW145649   4.153   3.468   1.654  0.4159 -1.0532 -1.1894
14736SOL    HW245650   4.143   3.443   1.802  2.0617 -0.7513 -1.0096
14737SOL     OW45651   3.244   2.990   0.028 -0.0419  0.0138  0.9995
14737SOL    HW145652   3.240   2.987   0.124 -0.3757 -0.3512  0.9770
14737SOL    HW245653   3.171   3.047   0.003  0.0370  0.0981  0.9604
14738SOL     OW45654   4.284   5.241   0.868  0.0348  0.0406 -0.0229
14738SOL    HW145655   4.367   5.217   0.828  0.3684  0.0198  0.6723
14738SOL    HW245656   4.301   5.240   0.962 -0.1158  2.2743  0.0947
14739SOL     OW45657   3.858   6.000   0.433 -0.1899 -0.0492 -0.1344
14739SOL    HW145658   3.948   5.972   0.420  0.1880  0.8702  0.3944
14739SOL    HW245659   3.855   6.025   0.526 -0.4171  1.9004 -0.6334
14740SOL     OW45660   3.699   5.409   0.581  0.2111 -0.5441  0.1369
14740SOL    HW145661   3.698   5.372   0.669 -1.7156  0.9135  0.7854
14740SOL    HW245662   3.704   5.333   0.523  1.1973 -1.5399  1.4608
14741SOL     OW45663   5.574   4.143   0.622  0.2342  0.0629  0.4608
14741SOL    HW145664   5.579   4.128   0.717  0.1512  0.5245  0.5400
14741SOL    HW245665   5.605   4.061   0.584  0.8279  0.0768  0.8927
14742SOL     OW45666   4.242   6.332   1.896 -0.0881  0.0399 -0.2467
14742SOL    HW145667   4.196   6.337   1.981  0.4977 -0.5611  0.1145
14742SOL    HW245668   4.213   6.410   1.849 -0.2401  0.5128  0.6039
14743SOL     OW45669   7.273   5.784   0.728 -0.7926  0.0514  0.2541
14743SOL    HW145670   7.347   5.756   0.782 -0.2988  1.2472  0.2110
14743SOL    HW245671   7.217   5.706   0.723  0.4002 -0.8358  0.3678
14744SOL     OW45672   4.247   4.884   1.580  0.0655 -0.7974  0.0269
14744SOL    HW145673   4.187   4.901   1.653  1.1084 -0.9551  0.9444
14744SOL    HW245674   4.236   4.790   1.563 -1.0318 -0.5343 -0.8137
14745SOL     OW45675   5.182   3.990   1.683  0.1759  0.0632 -0.2406
14745SOL    HW145676   5.222   3.920   1.735 -0.5876  0.0911  0.3996
14745SOL    HW245677   5.088   3.984   1.702 -0.1236  0.1190 -1.5654
14746SOL     OW45678   6.091   4.253   0.552 -0.1484 -0.1182 -0.3527
14746SOL    HW145679   6.048   4.231   0.635  1.1974 -2.1541 -0.1154
14746SOL    HW245680   6.123   4.342   0.564 -0.1242 -0.3198  1.2775
14747SOL     OW45681   4.191   6.592   2.469 -0.7287 -0.2144  0.0761
14747SOL    HW145682   4.226   6.655   2.531 -1.1728 -0.0287  0.1454
14747SOL    HW245683   4.105   6.627   2.445  0.3029  0.8267 -2.3116
14748SOL     OW45684   5.546   3.607   1.675  0.1496 -0.1490 -0.2052
14748SOL    HW145685   5.588   3.526   1.704 -0.4966 -0.4376 -0.0583
14748SOL    HW245686   5.618   3.668   1.662  0.5318 -0.1968  1.4325
14749SOL     OW45687   6.440   4.131   2.219 -0.2695 -0.5026  0.0368
14749SOL    HW145688   6.379   4.205   2.214  1.0558  0.5962 -0.6089
14749SOL    HW245689   6.509   4.162   2.277 -0.2536 -1.6958  0.6796
14750SOL     OW45690   5.656   4.365   0.525  0.1257  0.6064  0.4333
14750SOL    HW145691   5.595   4.294   0.548 -0.1380  0.6250 -0.2008
14750SOL    HW245692   5.653   4.424   0.601  0.0338  0.1569  0.7877
14751SOL     OW45693   5.958   4.935   2.529 -0.2871 -0.0800  0.0458
14751SOL    HW145694   6.004   4.910   2.449  1.7371 -1.1132  1.4278
14751SOL    HW245695   5.918   4.854   2.560  0.4278 -0.1223  0.9361
14752SOL     OW45696   4.171   4.133  12.038  0.3953  0.1481 -0.4738
14752SOL    HW145697   4.086   4.095  12.058  0.1554  0.2619 -1.2375
14752SOL    HW245698   4.154   4.191  11.963  1.1243  0.2298 -0.5829
14753SOL     OW45699   4.063   5.140   1.366 -0.0238  0.3996  0.1490
14753SOL    HW145700   4.061   5.102   1.278 -0.3975  0.7192  0.0175
14753SOL    HW245701   4.028   5.071   1.423  1.1865 -0.2073  0.2127
14754SOL     OW45702   4.914   7.167   2.759 -0.4034  0.3304 -0.5560
14754SOL    HW145703   4.947   7.252   2.790 -0.2748  0.0590  0.0696
14754SOL    HW245704   4.821   7.182   2.745 -0.3914  0.5689 -0.4001
14755SOL     OW45705   3.981   5.471   0.185 -0.2883 -0.1217 -0.0513
14755SOL    HW145706   3.922   5.546   0.181 -1.2622 -0.8623 -0.0669
14755SOL    HW245707   3.924   5.395   0.172  0.1314 -1.1062  3.0185
14756SOL     OW45708   4.022   4.443   0.352 -0.2030  0.0453  0.3473
14756SOL    HW145709   3.942   4.474   0.309 -1.0197 -1.0332  1.0512
14756SOL    HW245710   4.092   4.480   0.299 -1.1683 -0.0995 -1.1037
14757SOL     OW45711   5.785   5.637   0.304  0.5538  0.1346 -0.5857
14757SOL    HW145712   5.790   5.544   0.280 -0.9207 -0.5383  1.3926
14757SOL    HW245713   5.691   5.653   0.316  0.8715  1.6242  0.0388
14758SOL     OW45714   4.610   4.625   1.632 -0.3765  0.0376  0.3306
14758SOL    HW145715   4.584   4.696   1.573  2.1898  0.0063 -0.9913
14758SOL    HW245716   4.654   4.669   1.705 -0.5609 -0.1064  0.5299
14759SOL     OW45717   5.474   6.658   1.495 -0.1773 -0.4274 -0.2328
14759SOL    HW145718   5.483   6.704   1.579 -0.9093  0.7678 -0.7747
14759SOL    HW245719   5.560   6.664   1.455  0.1364 -0.8628  0.3556
14760SOL     OW45720   6.473   4.091   0.374 -0.6825  0.4696 -0.6402
14760SOL    HW145721   6.434   4.178   0.373  3.2841  2.6525  2.9376
14760SOL    HW245722   6.421   4.042   0.438 -0.3886  1.7472  0.6250
14761SOL     OW45723   4.131   6.550   1.363  0.2724  0.1695 -0.3169
14761SOL    HW145724   4.166   6.536   1.275 -0.8951 -0.2473 -0.7318
14761SOL    HW245725   4.176   6.628   1.395  0.9523  0.1268 -1.1558
14762SOL     OW45726   5.587   6.976   1.454  0.3630  0.2195 -0.0231
14762SOL    HW145727   5.491   6.975   1.458  0.3555 -0.1147 -0.2504
14762SOL    HW245728   5.608   6.935   1.370  0.6785  1.6731 -0.6809
14763SOL     OW45729   0.143   4.615  12.171  0.0414  0.0938  0.3407
14763SOL    HW145730   0.099   4.659  12.244  0.4005  2.1457 -0.6212
14763SOL    HW245731   0.234   4.608  12.198 -0.2953 -1.6550  1.1797
14764SOL     OW45732   5.001   4.364   1.652 -0.0633  0.3927  0.2121
14764SOL    HW145733   4.944   4.361   1.575  1.1726 -0.2348 -0.7213
14764SOL    HW245734   5.068   4.428   1.630  1.1662 -0.8737  0.0881
14765SOL     OW45735   4.301   4.669  11.875 -0.4612 -0.2418  0.3518
14765SOL    HW145736   4.264   4.756  11.862 -0.5971 -0.2208  0.8427
14765SOL    HW245737   4.241   4.626  11.936  0.0699 -0.3715  0.7925
14766SOL     OW45738   5.889   6.232   0.616 -0.2574  0.3931  0.3621
14766SOL    HW145739   5.825   6.219   0.546 -0.4769 -2.4152  0.9923
14766SOL    HW245740   5.839   6.269   0.688 -0.7829 -0.0169  0.2146
14767SOL     OW45741   5.496   5.546   2.300  0.5921 -0.1208 -0.9345
14767SOL    HW145742   5.562   5.616   2.301 -0.1945  0.6848 -2.0457
14767SOL    HW245743   5.461   5.545   2.388  0.2030  1.3233 -1.0493
14768SOL     OW45744   3.430   3.552   2.033  0.1776 -0.8946  1.0296
14768SOL    HW145745   3.395   3.618   2.093 -2.3689 -0.2181 -1.0039
14768SOL    HW245746   3.353   3.503   2.004  1.6338 -2.7617  0.1373
14769SOL     OW45747   4.312   5.172   1.134  0.3185 -0.0523  0.2410
14769SOL    HW145748   4.238   5.116   1.157  0.7245  0.2245  2.4258
14769SOL    HW245749   4.378   5.154   1.201  1.2053  1.5966 -0.1301
14770SOL     OW45750   5.280   4.372  11.936  0.1482  0.4628  0.1212
14770SOL    HW145751   5.186   4.361  11.926  0.4505 -2.4589 -0.4078
14770SOL    HW245752   5.296   4.365  12.030  0.1143 -3.6902  0.0209
14771SOL     OW45753   3.923   4.193  11.100 -0.0160  0.4363 -0.2875
14771SOL    HW145754   3.978   4.156  11.169  0.2015 -0.0916 -0.7291
14771SOL    HW245755   3.976   4.184  11.020 -1.3318 -1.6138 -1.0235
14772SOL     OW45756   6.641   4.007   2.027 -0.3991 -0.0178 -0.1625
14772SOL    HW145757   6.651   3.943   2.098 -0.1910 -0.3616 -0.5015
14772SOL    HW245758   6.626   3.955   1.949  0.9348  0.2880 -0.6504
14773SOL     OW45759   6.425   4.835   0.955 -0.0689 -0.0732 -0.4580
14773SOL    HW145760   6.519   4.835   0.938 -0.1737  0.2682 -1.1000
14773SOL    HW245761   6.413   4.896   1.028  0.4017 -1.5985  0.9551
14774SOL     OW45762   4.319   4.100   2.549 -0.5056  0.3659 -0.3890
14774SOL    HW145763   4.413   4.118   2.555  0.0368 -1.6238 -1.7953
14774SOL    HW245764   4.290   4.089   2.639  1.0622 -0.9063  0.0051
14775SOL     OW45765   5.296   3.771   1.016  0.1072  0.0629 -0.0456
14775SOL    HW145766   5.326   3.854   0.979 -0.6150  0.4645  0.2502
14775SOL    HW245767   5.217   3.794   1.065 -0.0229 -0.7798  0.1514
14776SOL     OW45768   4.127   4.948   1.851 -0.1543 -0.2900 -0.7510
14776SOL    HW145769   4.188   5.014   1.882 -0.0082  0.4825 -2.5605
14776SOL    HW245770   4.045   4.968   1.896  0.4787 -0.3323  0.4617
14777SOL     OW45771   3.895   4.695   1.161 -0.1423 -0.0497  0.2537
14777SOL    HW145772   3.913   4.635   1.233  0.5937  0.0673  0.1666
14777SOL    HW245773   3.850   4.640   1.096 -0.3698 -0.2693  0.5922
14778SOL     OW45774   4.742   3.226   1.667 -0.3912 -0.0792  0.0782
14778SOL    HW145775   4.818   3.169   1.655  0.4321  1.0276 -0.1815
14778SOL    HW245776   4.726   3.263   1.580 -2.3950 -1.6622 -0.2967
14779SOL     OW45777   2.552   2.998  12.405  0.2762 -0.0290 -0.0197
14779SOL    HW145778   2.521   2.923  12.455  2.8392 -0.4229  1.1408
14779SOL    HW245779   2.516   2.985  12.317 -1.3532 -1.2547  0.7814
14780SOL     OW45780   3.286   5.412   2.258  0.3303 -0.4380  0.0370
14780SOL    HW145781   3.239   5.330   2.273  1.1388 -0.5165  2.7117
14780SOL    HW245782   3.378   5.387   2.262  0.6150  0.2714 -1.5294
14781SOL     OW45783   4.700   6.091  11.417  0.4145 -0.0468 -0.3593
14781SOL    HW145784   4.639   6.090  11.343 -0.5037 -1.8659  0.3655
14781SOL    HW245785   4.655   6.141  11.484  0.7411  0.6047 -0.6219
14782SOL     OW45786   4.911   5.403   1.413  0.2425 -0.3192  0.9241
14782SOL    HW145787   4.818   5.382   1.407  0.3891 -0.6331 -1.2308
14782SOL    HW245788   4.955   5.323   1.385  1.1727 -0.1497  1.8619
14783SOL     OW45789   6.030   6.056   1.999 -0.1503 -0.1636 -0.2038
14783SOL    HW145790   6.117   6.075   2.033  0.3002 -0.0101 -1.3999
14783SOL    HW245791   6.023   6.110   1.920 -0.4014 -1.9222 -1.4335
14784SOL     OW45792   5.235   5.178  12.336  0.3830  0.2376 -0.5799
14784SOL    HW145793   5.169   5.117  12.303  1.9797 -1.6469 -0.4726
14784SOL    HW245794   5.298   5.123  12.383  2.4052  1.8328 -1.2536
14785SOL     OW45795   3.885   6.667   1.384 -0.2519  0.0502 -0.1220
14785SOL    HW145796   3.960   6.610   1.393  1.3910  1.7543 -1.9632
14785SOL    HW245797   3.832   6.627   1.315  0.3933  0.2101 -0.7212
14786SOL     OW45798   3.874   4.915   0.911  0.0833  0.2314  0.8222
14786SOL    HW145799   3.862   5.010   0.912  1.2879  0.4095  2.1094
14786SOL    HW245800   3.861   4.888   1.002 -0.2468 -0.8373  0.4704
14787SOL     OW45801   4.242   4.596   0.840  0.0688  0.1944  0.0603
14787SOL    HW145802   4.194   4.547   0.907 -1.5352  2.3888  0.6652
14787SOL    HW245803   4.226   4.688   0.863  0.7964  1.0173 -2.4504
14788SOL     OW45804   7.104   5.458   2.281 -0.1862 -0.7156  0.4189
14788SOL    HW145805   7.036   5.446   2.348 -0.0069  0.2790  0.8087
14788SOL    HW245806   7.186   5.451   2.330 -0.0498  2.2783  0.8233
14789SOL     OW45807   5.643   4.331  11.467 -0.2860 -0.1570  0.1902
14789SOL    HW145808   5.660   4.333  11.561 -0.5148  1.0876  0.2257
14789SOL    HW245809   5.553   4.299  11.459 -0.0976 -0.7393  0.3592
14790SOL     OW45810   5.145   4.213  11.638 -0.1468  0.0217  0.5147
14790SOL    HW145811   5.131   4.255  11.723 -0.0187 -1.9449  1.5530
14790SOL    HW245812   5.108   4.125  11.648  0.5031 -0.4922 -1.2490
14791SOL     OW45813   2.293   5.450   1.920  0.3238 -0.2023 -0.2520
14791SOL    HW145814   2.309   5.359   1.894 -1.6784 -0.6952  0.1451
14791SOL    HW245815   2.321   5.501   1.843 -0.2196 -1.2648 -1.1911
14792SOL     OW45816   4.874   5.648   0.832  0.0476 -0.3270 -0.2920
14792SOL    HW145817   4.822   5.728   0.827 -0.9301 -0.7475  2.0333
14792SOL    HW245818   4.849   5.599   0.753 -0.2502  1.1077 -1.1176
14793SOL     OW45819   2.509   5.181   2.825  0.4370  0.0261 -0.4362
14793SOL    HW145820   2.487   5.271   2.845  0.9072  0.3577 -1.3188
14793SOL    HW245821   2.427   5.133   2.832  0.5083  0.1347  1.8971
14794SOL     OW45822   6.603   6.317   1.266  0.2652 -0.0973 -0.4705
14794SOL    HW145823   6.672   6.311   1.200 -1.3719 -0.5464 -2.2433
14794SOL    HW245824   6.564   6.404   1.252  0.5902  0.2563  0.6807
14795SOL     OW45825   3.871   6.765   1.053  0.3433  0.4532 -0.2716
14795SOL    HW145826   3.886   6.841   1.110  0.2409 -0.4338  0.9952
14795SOL    HW245827   3.783   6.735   1.076 -0.3048  0.9498 -2.0033
14796SOL     OW45828   7.803   4.780   2.138  0.8307  1.0130 -0.4268
14796SOL    HW145829   7.738   4.753   2.074  1.3923 -1.1875 -0.1345
14796SOL    HW245830   7.757   4.780   2.222  0.1767  3.5953 -0.6944
14797SOL     OW45831   2.541   7.085   1.446  0.2215 -0.1520  0.3544
14797SOL    HW145832   2.457   7.041   1.461  0.6852 -1.9607 -1.7626
14797SOL    HW245833   2.604   7.035   1.498  0.2894 -0.0663  0.3548
14798SOL     OW45834   6.059   5.700   0.269 -0.0236 -0.0167 -0.2886
14798SOL    HW145835   6.103   5.625   0.228  0.1677  0.0257 -0.1616
14798SOL    HW245836   5.966   5.676   0.270  0.0824 -0.4210  0.1125
14799SOL     OW45837   4.105   3.148   1.363 -0.1542  0.3169 -0.2076
14799SOL    HW145838   4.075   3.062   1.333 -0.6471  0.7667 -1.0671
14799SOL    HW245839   4.029   3.185   1.407 -0.8285  1.3389 -2.1229
14800SOL     OW45840   4.580   3.733   1.296 -0.6676 -0.3697 -0.1303
14800SOL    HW145841   4.540   3.679   1.363 -1.8343  0.6550  0.0249
14800SOL    HW245842   4.589   3.674   1.220  1.0507 -1.6514  0.9916
14801SOL     OW45843   4.279   4.939   0.454 -0.6085  0.1699  0.1017
14801SOL    HW145844   4.224   4.967   0.528 -0.7560 -3.4560  1.5870
14801SOL    HW245845   4.231   4.865   0.416  1.0393 -0.0956 -1.5660
14802SOL     OW45846   4.456   4.003   1.380 -0.3753  0.0310 -0.0815
14802SOL    HW145847   4.506   3.921   1.388  0.1118  0.3805  0.5143
14802SOL    HW245848   4.490   4.043   1.300 -0.7685 -0.4491 -0.4938
14803SOL     OW45849   4.739   6.067   2.993 -0.1292 -0.3010  0.0306
14803SOL    HW145850   4.664   6.124   3.011  0.9423  1.8098 -1.6908
14803SOL    HW245851   4.708   6.006   2.927 -0.4744  0.2944 -0.3686
14804SOL     OW45852   4.511   4.880   1.533 -0.3923  0.2227  0.2959
14804SOL    HW145853   4.533   4.920   1.617 -0.5075  0.6538  0.1267
14804SOL    HW245854   4.415   4.872   1.535 -0.2536 -1.5868  1.0051
14805SOL     OW45855   4.948   5.904   1.472  0.5480 -0.2005  0.2806
14805SOL    HW145856   4.931   5.885   1.380 -0.0976 -1.1664  0.5750
14805SOL    HW245857   5.034   5.945   1.473 -0.2326  1.5969 -0.9359
14806SOL     OW45858   4.098   6.295   1.544 -0.3373  0.1282  0.0158
14806SOL    HW145859   4.124   6.357   1.612 -1.9799  0.0272  0.7930
14806SOL    HW245860   4.063   6.349   1.474 -3.1136  0.1292  1.2824
14807SOL     OW45861   3.694   4.535   0.575  0.3696 -0.2623 -0.2735
14807SOL    HW145862   3.777   4.488   0.578  0.8622  0.5786 -0.3607
14807SOL    HW245863   3.710   4.616   0.623 -0.4226 -0.1214 -0.2273
14808SOL     OW45864   4.963   4.854  11.476  0.0230  0.0063  0.3990
14808SOL    HW145865   5.054   4.825  11.472  0.5923  1.5735  1.2773
14808SOL    HW245866   4.958   4.926  11.413 -0.0168  1.3797  1.9328
14809SOL     OW45867   3.042   3.162   1.954  0.2967  0.1538 -0.3198
14809SOL    HW145868   2.961   3.209   1.975 -0.1557 -0.7064 -0.0813
14809SOL    HW245869   3.110   3.229   1.957 -0.0464  0.4956  1.8149
14810SOL     OW45870   4.210   2.062   0.575  0.5681 -0.2885 -0.3388
14810SOL    HW145871   4.295   2.082   0.536  2.9026 -1.2268  3.7418
14810SOL    HW245872   4.202   2.121   0.649 -2.7650  0.2153 -0.9450
14811SOL     OW45873   5.599   4.842   2.382 -0.0228 -0.1032 -0.4476
14811SOL    HW145874   5.682   4.827   2.428  0.3343  1.1963 -0.6204
14811SOL    HW245875   5.553   4.759   2.388 -0.3938  0.1836  3.0720
14812SOL     OW45876   7.106   6.505   0.688  0.2663  0.1064  0.4424
14812SOL    HW145877   7.013   6.486   0.686  0.5363 -1.2512 -0.5685
14812SOL    HW245878   7.136   6.473   0.773  0.4753 -3.2011 -0.7083
14813SOL     OW45879   2.786   5.363   0.517  0.2269 -0.1943  0.2242
14813SOL    HW145880   2.867   5.314   0.502  1.6556  2.4338 -1.4132
14813SOL    HW245881   2.744   5.368   0.431  0.5112  1.9496  0.1493
14814SOL     OW45882   4.593   4.902   0.187 -0.3861 -0.4570 -0.3342
14814SOL    HW145883   4.676   4.919   0.231 -1.0493  1.0586  0.3932
14814SOL    HW245884   4.542   4.851   0.250 -0.8397  0.5612  0.1288
14815SOL     OW45885   4.222   5.011  11.874 -0.2943 -0.1877  0.3526
14815SOL    HW145886   4.194   4.970  11.792  1.2625 -1.0047  0.2089
14815SOL    HW245887   4.307   5.050  11.853 -0.4209  0.6157  1.2797
14816SOL     OW45888   4.716   4.960   1.267 -0.8386 -0.6294 -0.1528
14816SOL    HW145889   4.728   4.878   1.316 -0.9091 -0.9446 -0.6561
14816SOL    HW245890   4.794   5.011   1.287 -1.3397 -0.3314  1.0954
14817SOL     OW45891   5.053   6.452   1.935 -0.0881  0.0596  0.5166
14817SOL    HW145892   5.014   6.471   2.021  0.7099 -0.9865  1.1315
14817SOL    HW245893   5.141   6.488   1.940 -0.3046  0.7023 -0.1681
14818SOL     OW45894   4.251   4.213   0.265 -0.1698 -0.2128  0.2334
14818SOL    HW145895   4.272   4.251   0.351  0.0138  1.8670 -0.6595
14818SOL    HW245896   4.193   4.278   0.225  1.7049  0.1021 -2.1784
14819SOL     OW45897   6.194   6.235  12.050 -0.2538  0.1004 -0.1494
14819SOL    HW145898   6.187   6.140  12.052 -2.7930  0.2285  0.5832
14819SOL    HW245899   6.209   6.256  11.958 -1.9751 -0.9315 -0.7046
14820SOL     OW45900   4.493   3.389   0.408 -0.1400  0.1128 -0.5388
14820SOL    HW145901   4.462   3.465   0.359 -4.7864  0.0787  1.7810
14820SOL    HW245902   4.532   3.425   0.487  0.7443  0.1048 -0.9695
14821SOL     OW45903   0.736   3.550  11.923 -0.1116  0.2660  0.3272
14821SOL    HW145904   0.657   3.508  11.888 -0.4733  1.2456 -0.0650
14821SOL    HW245905   0.780   3.480  11.971 -0.4202 -0.7106 -0.7383
14822SOL     OW45906   4.298   5.008  12.306  0.5203 -0.0082 -0.0863
14822SOL    HW145907   4.313   4.986  12.214  1.2231  0.0738 -0.0001
14822SOL    HW245908   4.229   4.948  12.335  1.6766 -1.4177 -0.1247
14823SOL     OW45909   6.402   6.108   1.237  0.0017 -0.1371  0.6345
14823SOL    HW145910   6.402   6.063   1.322  0.8073  0.6544  1.0783
14823SOL    HW245911   6.486   6.155   1.235  0.2727 -0.6424 -0.8776
14824SOL     OW45912   4.575   4.153   0.834 -0.0649  0.3766 -0.5855
14824SOL    HW145913   4.565   4.238   0.793  0.9363  0.9087  0.2311
14824SOL    HW245914   4.641   4.166   0.903 -0.7473 -0.7720  0.3417
14825SOL     OW45915   5.343   4.587   3.325 -0.0346  0.4960 -0.5571
14825SOL    HW145916   5.268   4.527   3.329  0.5093 -0.1282  0.9276
14825SOL    HW245917   5.419   4.530   3.321  0.6161  0.9284  2.6346
14826SOL     OW45918   6.442   4.549   1.139 -0.2806 -0.0519  0.0950
14826SOL    HW145919   6.536   4.566   1.142 -0.4654  1.0757 -0.2722
14826SOL    HW245920   6.433   4.462   1.178  0.9255 -0.2450 -0.0097
14827SOL     OW45921   4.471   5.030   1.779 -0.1344 -0.3285  0.0379
14827SOL    HW145922   4.566   5.045   1.783  0.1504 -1.7035 -0.9760
14827SOL    HW245923   4.441   5.047   1.869  0.7943  1.6092  0.0513
14828SOL     OW45924   5.128   4.021   0.399  0.4316  0.2297 -0.4330
14828SOL    HW145925   5.185   4.043   0.473  0.6506  0.9773 -0.8171
14828SOL    HW245926   5.074   4.099   0.386  1.3506  0.6464 -1.9398
14829SOL     OW45927   5.191   4.919   0.352 -0.5215 -0.2989 -0.0622
14829SOL    HW145928   5.121   4.922   0.417  0.9490 -0.0988  1.5763
14829SOL    HW245929   5.267   4.955   0.396  0.4623  0.1966 -2.0350
14830SOL     OW45930   6.658   5.543   1.666  0.7196 -0.2832 -0.2952
14830SOL    HW145931   6.627   5.453   1.674 -0.0114  0.0990  2.3452
14830SOL    HW245932   6.631   5.571   1.579 -0.4540 -2.1215 -0.5700
14831SOL     OW45933   7.206   3.585   0.899  0.0262 -0.4494 -0.2500
14831SOL    HW145934   7.150   3.641   0.845 -0.4073 -0.7729 -0.1450
14831SOL    HW245935   7.263   3.541   0.837  0.0270 -0.2676 -0.3786
14832SOL     OW45936   4.843   4.979   1.763 -0.3023 -0.0201  0.1662
14832SOL    HW145937   4.808   5.055   1.717  1.2130 -0.0191 -1.0781
14832SOL    HW245938   4.896   5.015   1.834 -0.9929  0.0295  0.6623
14833SOL     OW45939   4.830   5.512   0.602  0.5802 -0.2570 -0.1343
14833SOL    HW145940   4.776   5.466   0.537 -0.9684  0.8433  0.3167
14833SOL    HW245941   4.854   5.594   0.559 -0.4514  0.4780  0.6433
14834SOL     OW45942   3.601   4.215  11.841  0.2608  0.1786  0.1551
14834SOL    HW145943   3.652   4.275  11.896 -1.5406  0.1453  2.0174
14834SOL    HW245944   3.636   4.128  11.861  0.5993  0.3020  0.1013
14835SOL     OW45945   4.720   6.063   1.476  0.3764 -0.3620  0.0743
14835SOL    HW145946   4.774   5.988   1.497  1.3654  0.4186  0.4042
14835SOL    HW245947   4.769   6.139   1.509 -0.2240  0.4972 -0.9203
14836SOL     OW45948   3.858   5.368   2.043  0.5502 -0.0513  0.2901
14836SOL    HW145949   3.840   5.297   1.982 -0.1704  0.6551 -0.3415
14836SOL    HW245950   3.927   5.334   2.100  2.2487 -0.2607 -1.7619
14837SOL     OW45951   4.880   4.040  11.375  0.2913  0.2317  0.6101
14837SOL    HW145952   4.966   4.037  11.334 -0.4159 -1.0720 -0.9012
14837SOL    HW245953   4.821   4.002  11.310 -1.4601  1.1898  1.5528
14838SOL     OW45954   4.395   6.112   0.212  0.5404 -0.0315  0.4646
14838SOL    HW145955   4.409   6.180   0.278  0.0425  1.3533 -0.8016
14838SOL    HW245956   4.354   6.040   0.260  0.3967  0.8395  1.6942
14839SOL     OW45957   6.017   6.434   0.966  0.4871 -0.0073 -0.5888
14839SOL    HW145958   5.939   6.381   0.947 -0.1345  1.1573 -1.3478
14839SOL    HW245959   6.041   6.473   0.883  1.7693 -0.1653 -0.3136
14840SOL     OW45960   4.442   4.931   0.856 -0.1984 -0.1893 -0.6516
14840SOL    HW145961   4.393   4.875   0.916 -0.0466  0.4912  0.1207
14840SOL    HW245962   4.512   4.968   0.909 -1.8300  2.8304 -0.3889
14841SOL     OW45963   3.250   5.390   1.068  0.4933 -0.1584  0.8544
14841SOL    HW145964   3.297   5.456   1.118  1.4421  1.9921 -2.5345
14841SOL    HW245965   3.313   5.319   1.057  0.5789 -0.2503  1.8961
14842SOL     OW45966   4.377   5.068   2.026 -0.0845 -0.0999 -0.4033
14842SOL    HW145967   4.324   5.147   2.020 -1.0625 -0.7589 -0.7548
14842SOL    HW245968   4.352   5.029   2.109  0.3049 -0.0967 -0.2868
14843SOL     OW45969   6.016   4.034   0.412 -0.1366  0.1391  0.6590
14843SOL    HW145970   6.038   3.953   0.459 -2.0220  0.2789  1.8914
14843SOL    HW245971   6.044   4.104   0.470 -0.0868  0.3511  0.3804
14844SOL     OW45972   5.112   4.000   2.954 -0.1309  0.6844 -0.0331
14844SOL    HW145973   5.045   3.968   2.895  0.4313 -0.1934 -0.2067
14844SOL    HW245974   5.064   4.051   3.019 -0.9399  0.2387 -0.2646
14845SOL     OW45975   3.607   4.270   1.872  0.1010 -0.1191 -0.5877
14845SOL    HW145976   3.686   4.320   1.891  1.8330 -2.3506 -1.3829
14845SOL    HW245977   3.556   4.326   1.813  1.2209  1.2740 -0.2699
14846SOL     OW45978   5.835   3.991   0.123 -0.4431 -0.5698 -0.3150
14846SOL    HW145979   5.927   3.995   0.149 -0.3527 -1.2128 -0.5016
14846SOL    HW245980   5.835   3.934   0.046 -1.0696 -1.0514  0.0345
14847SOL     OW45981   5.437   4.621   2.328  0.1881 -0.1964  0.0095
14847SOL    HW145982   5.349   4.588   2.312 -0.8036  2.2539 -0.1217
14847SOL    HW245983   5.434   4.653   2.419  0.1457  2.0089 -0.7125
14848SOL     OW45984   4.260   2.605  11.925 -0.2921 -0.1796  0.2107
14848SOL    HW145985   4.260   2.527  11.981 -0.2613  0.2839  0.8762
14848SOL    HW245986   4.274   2.678  11.986 -1.4859  0.4576 -0.2290
14849SOL     OW45987   2.966   2.881   2.984  0.1633  0.7585  0.0379
14849SOL    HW145988   3.002   2.884   2.896 -0.9802 -1.7960 -0.5974
14849SOL    HW245989   3.043   2.870   3.041  0.7055 -0.9704 -0.9608
14850SOL     OW45990   2.355   4.511   1.258  0.6942  0.0970 -0.6907
14850SOL    HW145991   2.323   4.584   1.312 -0.3916  0.1266 -1.3382
14850SOL    HW245992   2.448   4.507   1.276  0.7160  1.4350 -0.3795
14851SOL     OW45993   4.280   5.993   1.286 -0.0108  0.2894  0.2053
14851SOL    HW145994   4.280   6.088   1.299 -1.6936  0.3763 -0.1613
14851SOL    HW245995   4.329   5.958   1.360  0.4375  1.4277  0.4642
14852SOL     OW45996   5.440   4.583   0.914  0.4531 -0.1510  0.5003
14852SOL    HW145997   5.411   4.503   0.958 -0.4981 -0.0634  0.0567
14852SOL    HW245998   5.452   4.647   0.984 -2.0545  0.3043  0.6075
14853SOL     OW45999   3.059   3.181  12.449  0.1845  0.1417 -0.4416
14853SOL    HW146000   3.025   3.267  12.476 -1.0571 -0.2167 -0.7752
14853SOL    HW246001   3.047   3.180  12.354  0.0913 -0.4358 -0.4249
14854SOL     OW46002   5.874   6.162   0.140 -0.4472 -0.2870 -0.1868
14854SOL    HW146003   5.868   6.199   0.228 -0.0218 -0.3942 -0.1103
14854SOL    HW246004   5.955   6.110   0.141 -0.5994 -0.5389 -0.5465
14855SOL     OW46005   6.553   3.693   0.107 -0.5415 -0.4570 -0.3141
14855SOL    HW146006   6.557   3.601   0.081 -0.9882 -0.4916 -0.2612
14855SOL    HW246007   6.485   3.696   0.175 -1.5374  0.1499 -1.3034
14856SOL     OW46008   6.354   6.328   1.911  0.4886 -0.4351 -0.2242
14856SOL    HW146009   6.354   6.349   1.818  1.3563  1.8075  0.2058
14856SOL    HW246010   6.279   6.376   1.947  1.6746  0.9193  0.5803
14857SOL     OW46011   4.530   6.923   1.943 -0.2747  0.0172 -0.3058
14857SOL    HW146012   4.560   6.928   2.034 -1.1703 -0.0213  0.0027
14857SOL    HW246013   4.610   6.917   1.892  0.2338 -3.6360  0.6656
14858SOL     OW46014   2.886   2.800   1.506  0.2236  0.3671 -0.0311
14858SOL    HW146015   2.798   2.765   1.492  0.1187  0.3128  0.7160
14858SOL    HW246016   2.872   2.893   1.524 -0.0708 -0.2094  3.5290
14859SOL     OW46017   4.413   3.593   0.251  0.5941 -0.4180  0.6078
14859SOL    HW146018   4.336   3.618   0.304 -0.3223 -1.0759 -0.3684
14859SOL    HW246019   4.463   3.674   0.243 -1.6053  0.9030 -1.3238
14860SOL     OW46020   5.029   4.075   1.302  0.1060  0.4847 -0.2730
14860SOL    HW146021   4.995   4.158   1.269  0.8760  1.1035  0.4820
14860SOL    HW246022   4.954   4.036   1.348 -0.0732  1.0492 -0.0781
14861SOL     OW46023   4.554   3.747   1.768  0.2125 -0.4563  0.1467
14861SOL    HW146024   4.626   3.779   1.712 -0.1306 -1.0363 -0.6528
14861SOL    HW246025   4.569   3.789   1.852  0.9862  0.1309 -0.2635
14862SOL     OW46026   5.824   6.150  12.269  0.3918  0.4346  0.3176
14862SOL    HW146027   5.852   6.084  12.206  0.1859  0.6728 -0.0217
14862SOL    HW246028   5.752   6.196  12.226 -0.5724 -0.1914  1.1780
14863SOL     OW46029   4.299   6.798   0.441 -0.2110  0.2216 -0.0043
14863SOL    HW146030   4.377   6.841   0.477  0.1844 -0.5418  0.0825
14863SOL    HW246031   4.243   6.784   0.517  0.8923 -1.9567  0.5045
14864SOL     OW46032   5.335   4.356   1.093  0.0704  0.1127 -0.0233
14864SOL    HW146033   5.301   4.269   1.114 -2.3240  0.7670 -0.8983
14864SOL    HW246034   5.347   4.398   1.177 -3.3413  0.5127  0.4025
14865SOL     OW46035   6.288   4.231   1.365  0.0785 -0.1337  0.7424
14865SOL    HW146036   6.278   4.136   1.374 -1.2383 -0.1489 -0.4799
14865SOL    HW246037   6.382   4.246   1.372  0.6221 -1.8512 -1.6509
14866SOL     OW46038   3.395   0.576   0.770  0.6669  0.3333  0.5428
14866SOL    HW146039   3.488   0.592   0.786  0.4354  1.1338  1.1655
14866SOL    HW246040   3.353   0.659   0.792 -0.4158 -0.5984  2.2049
14867SOL     OW46041   3.820   6.151   0.639  0.1287 -0.4336 -0.2441
14867SOL    HW146042   3.862   6.232   0.612 -0.3407  0.0670  0.4633
14867SOL    HW246043   3.732   6.156   0.601  0.2388 -0.8170 -0.5551
14868SOL     OW46044   5.757   5.738   1.633 -1.1521  0.9557 -0.1174
14868SOL    HW146045   5.849   5.729   1.607 -0.9428  1.6691  0.3671
14868SOL    HW246046   5.712   5.765   1.553 -0.7146  1.9276 -0.0371
14869SOL     OW46047   3.315   3.329  12.152 -0.5631  0.3434  0.1276
14869SOL    HW146048   3.356   3.274  12.219 -1.8835  0.4293  1.0285
14869SOL    HW246049   3.241   3.277  12.120 -1.4535  1.3323  0.5449
14870SOL     OW46050   1.929   6.163   0.756  0.0261  0.4722  0.3741
14870SOL    HW146051   1.917   6.219   0.833  0.9709  0.2980  0.6719
14870SOL    HW246052   1.946   6.223   0.684 -0.2551  0.6175  0.4294
14871SOL     OW46053   6.243   3.687   0.066 -0.2279  0.1428 -0.3013
14871SOL    HW146054   6.304   3.616   0.047  1.1621  0.9881  0.8647
14871SOL    HW246055   6.221   3.723  -0.020 -1.0897 -1.7682 -0.9265
14872SOL     OW46056   3.544   4.556   0.891  0.2565 -0.0426  0.0616
14872SOL    HW146057   3.454   4.523   0.881 -0.2089  0.8235  1.2123
14872SOL    HW246058   3.592   4.482   0.927 -0.2557 -0.1751  0.4917
14873SOL     OW46059   5.965   5.823   2.154  0.6531  0.0635 -0.4003
14873SOL    HW146060   6.009   5.765   2.092  1.0180  0.6199 -0.6725
14873SOL    HW246061   6.009   5.907   2.143 -0.0564  0.4678 -0.2224
14874SOL     OW46062   3.789   3.081   2.306 -0.2228  0.0624  0.1779
14874SOL    HW146063   3.755   3.034   2.230 -2.4671  2.3816 -0.4054
14874SOL    HW246064   3.884   3.081   2.293 -0.4098 -1.1634 -1.6649
14875SOL     OW46065   1.798   3.796   0.744 -0.4867  0.6302  0.2005
14875SOL    HW146066   1.824   3.871   0.798  0.1464 -0.9203  2.1854
14875SOL    HW246067   1.822   3.719   0.797 -2.0701 -0.9728 -1.2818
14876SOL     OW46068   4.842   4.803   2.687 -0.4668  0.2274 -0.6623
14876SOL    HW146069   4.818   4.799   2.595  0.5471  2.0795 -1.0638
14876SOL    HW246070   4.764   4.838   2.731 -1.3958 -1.8261 -0.5624
14877SOL     OW46071   4.802   4.957   0.343 -0.1603 -0.4692 -0.2423
14877SOL    HW146072   4.807   4.872   0.386  1.6093 -0.7132 -0.8639
14877SOL    HW246073   4.837   5.019   0.408 -0.6061 -0.3294 -0.1271
14878SOL     OW46074   2.792   5.363   1.731 -0.1806  0.4642 -0.3736
14878SOL    HW146075   2.703   5.351   1.697 -0.5228  1.8194 -0.0222
14878SOL    HW246076   2.787   5.443   1.784  1.9907  2.5750 -3.0672
14879SOL     OW46077   4.824   4.549   0.301 -0.2657 -0.5017  0.0182
14879SOL    HW146078   4.829   4.510   0.388  0.0777  0.3593  0.3963
14879SOL    HW246079   4.732   4.571   0.290 -0.0629  0.9764  0.9081
14880SOL     OW46080   5.374   2.268   0.784 -0.3792  0.3550  0.0188
14880SOL    HW146081   5.394   2.179   0.753 -1.2307  0.1176  0.1469
14880SOL    HW246082   5.279   2.275   0.777 -0.2058  1.8149 -1.4892
14881SOL     OW46083   4.634   5.410   2.072 -0.2292 -0.4156  0.1929
14881SOL    HW146084   4.688   5.403   2.151  0.3302 -0.9945 -0.2276
14881SOL    HW246085   4.641   5.324   2.030 -0.2599 -0.0216 -0.6541
14882SOL     OW46086   5.274   4.117   1.184 -0.0145 -0.0218 -0.6792
14882SOL    HW146087   5.196   4.079   1.226 -0.5021 -0.3949 -1.8862
14882SOL    HW246088   5.343   4.053   1.201 -0.1719 -0.1041 -0.3337
14883SOL     OW46089   2.827   4.570   1.971  0.3594  0.1654 -0.5413
14883SOL    HW146090   2.890   4.641   1.956  1.0340 -0.4850 -0.8768
14883SOL    HW246091   2.805   4.539   1.883  0.3214 -0.2532 -0.3844
14884SOL     OW46092   5.687   5.277   1.601 -0.2533 -0.5115  0.0406
14884SOL    HW146093   5.684   5.353   1.543 -0.2471 -0.3750  0.2183
14884SOL    HW246094   5.596   5.247   1.604 -0.6137  0.5983  1.4260
14885SOL     OW46095   6.035   4.239  12.216 -0.0210 -0.2774 -0.2986
14885SOL    HW146096   5.947   4.205  12.195 -0.2410 -0.4061  0.7987
14885SOL    HW246097   6.091   4.204  12.146 -0.9399  0.2849 -1.3469
14886SOL     OW46098   6.808   4.432   2.520  0.0443 -0.0727  0.0766
14886SOL    HW146099   6.836   4.492   2.451  1.0225 -0.8518 -0.2358
14886SOL    HW246100   6.867   4.452   2.593  0.6068 -0.8732 -0.1481
14887SOL     OW46101   6.894   7.414  11.592  0.1568 -0.3755 -0.1073
14887SOL    HW146102   6.966   7.392  11.533  0.4417  0.6923 -0.1849
14887SOL    HW246103   6.929   7.484  11.647 -0.2592 -1.0250  1.0191
14888SOL     OW46104   3.126   4.843   1.343 -0.1307  0.2102 -0.3717
14888SOL    HW146105   3.158   4.823   1.431 -0.5622 -3.7965 -0.9604
14888SOL    HW246106   3.201   4.826   1.286 -0.4347  0.8569 -0.9759
14889SOL     OW46107   3.093   4.404   0.385 -0.2645 -0.6102  0.0801
14889SOL    HW146108   3.092   4.499   0.391 -1.8470 -0.6380  0.6806
14889SOL    HW246109   3.006   4.381   0.353 -0.2154 -1.8907  0.7867
14890SOL     OW46110   5.565   4.835   3.248  0.1728 -0.3509  0.0073
14890SOL    HW146111   5.500   4.770   3.222  1.5024 -1.9820  0.5992
14890SOL    HW246112   5.554   4.907   3.185 -1.9749 -0.6978 -0.0612
14891SOL     OW46113   2.879   4.701   0.707 -0.4545  0.0184  0.2885
14891SOL    HW146114   2.859   4.756   0.631 -0.5297 -1.1449 -0.5761
14891SOL    HW246115   2.884   4.612   0.671  0.5445 -0.4427  1.4728
14892SOL     OW46116   6.424   3.755   1.298  0.3333  0.3178  0.2477
14892SOL    HW146117   6.397   3.674   1.341 -0.9048  1.3987  1.6217
14892SOL    HW246118   6.518   3.744   1.282 -0.3604 -2.8562 -3.0203
14893SOL     OW46119   7.059   4.456   2.127 -0.1923  0.4029 -0.3846
14893SOL    HW146120   7.140   4.464   2.178 -0.2607  0.7648 -0.3310
14893SOL    HW246121   6.991   4.495   2.182 -0.3568  0.3317 -0.5371
14894SOL     OW46122   2.719   3.951  11.388 -0.3378 -0.1552  0.5824
14894SOL    HW146123   2.660   4.021  11.415 -0.1600 -0.1099  0.8586
14894SOL    HW246124   2.675   3.871  11.416 -0.7454 -0.1852 -0.1172
14895SOL     OW46125   5.525   5.338   0.370  0.0058  0.6423  0.3975
14895SOL    HW146126   5.601   5.393   0.388 -0.1956  0.7907  0.8227
14895SOL    HW246127   5.547   5.292   0.289  0.5099  0.7446  0.4719
14896SOL     OW46128   4.180   4.972   0.717  0.7840 -0.3314 -0.0026
14896SOL    HW146129   4.136   4.919   0.783 -0.7191 -0.9714 -1.4557
14896SOL    HW246130   4.199   5.055   0.762 -0.2958 -0.7026  1.1999
14897SOL     OW46131   6.767   3.869   0.053  0.2234  0.2054 -0.6634
14897SOL    HW146132   6.780   3.880   0.147  0.8252  1.6634 -0.8905
14897SOL    HW246133   6.691   3.812   0.046  0.7088 -0.6516  0.6997
14898SOL     OW46134   4.822   6.200   0.561 -0.3858 -0.4447 -0.2473
14898SOL    HW146135   4.758   6.234   0.623 -1.7972 -3.0070 -0.1946
14898SOL    HW246136   4.842   6.275   0.505 -3.0228  0.6079  0.0717
14899SOL     OW46137   3.711   2.680   1.094  0.2205 -0.2055 -0.4922
14899SOL    HW146138   3.766   2.610   1.129 -0.1620  0.5227  1.7573
14899SOL    HW246139   3.767   2.727   1.033  0.3458 -2.6751 -2.4525
14900SOL     OW46140   4.640   4.757   1.033 -0.2851 -0.9621  0.0583
14900SOL    HW146141   4.705   4.695   1.001 -0.9150 -1.7000  0.1676
14900SOL    HW246142   4.605   4.716   1.112  0.4421  0.3029  1.0749
14901SOL     OW46143   4.110   5.635   0.535  0.1649 -0.1780  0.3595
14901SOL    HW146144   4.154   5.586   0.604  1.2247  0.5187  0.2096
14901SOL    HW246145   4.153   5.607   0.455 -1.2950 -1.2447 -0.0970
14902SOL     OW46146   4.680   3.049   1.156  0.3144 -0.6197 -0.3711
14902SOL    HW146147   4.641   3.004   1.231  0.5692  0.0101  0.1514
14902SOL    HW246148   4.608   3.097   1.116  0.5540  0.7245  0.7251
14903SOL     OW46149   5.350   4.927   2.107 -0.3496  0.1215 -0.3368
14903SOL    HW146150   5.377   4.985   2.179 -1.6700  0.1254  0.1861
14903SOL    HW246151   5.410   4.853   2.112 -0.6634 -0.0820  1.0699
14904SOL     OW46152   4.803   5.118   0.755 -0.2921 -0.2440  0.3611
14904SOL    HW146153   4.882   5.153   0.794 -0.2047  0.1929 -0.1897
14904SOL    HW246154   4.742   5.105   0.828 -0.3469  1.1081  0.5647
14905SOL     OW46155   3.972   4.429   1.287  0.1119  0.1209  0.6382
14905SOL    HW146156   3.976   4.463   1.376 -1.0415 -0.4402  0.9170
14905SOL    HW246157   4.029   4.351   1.289 -0.9480 -0.6560  1.2500
14906SOL     OW46158   3.587   4.593   1.760  0.5673 -0.5741 -0.3995
14906SOL    HW146159   3.560   4.534   1.690  1.7426  0.0091 -1.3790
14906SOL    HW246160   3.646   4.541   1.814  2.1883 -0.1266 -1.6776
14907SOL     OW46161   3.182   3.796   1.783 -0.3606  0.2618 -0.4359
14907SOL    HW146162   3.198   3.852   1.859  2.0719 -0.2361 -0.5007
14907SOL    HW246163   3.252   3.731   1.787  0.0129  0.3984 -3.2900
14908SOL     OW46164   4.730   4.101   2.873 -0.1399 -0.7209 -0.4891
14908SOL    HW146165   4.724   4.138   2.961 -1.4280  1.8060 -1.5429
14908SOL    HW246166   4.794   4.156   2.828  1.6960 -2.9191 -0.8010
14909SOL     OW46167   2.846   3.126  10.718 -0.1475  0.4036 -0.4621
14909SOL    HW146168   2.822   3.047  10.670 -0.4322  0.6395 -0.7107
14909SOL    HW246169   2.808   3.197  10.667  0.0735  0.6979 -0.2178
14910SOL     OW46170   4.523   6.063   1.820  0.0486 -0.1209 -0.0913
14910SOL    HW146171   4.615   6.087   1.834  0.4405 -1.2227 -0.6580
14910SOL    HW246172   4.526   5.999   1.749 -1.2389  0.3664 -0.6092
14911SOL     OW46173   5.081   5.303   1.739  0.5344 -0.4640 -0.0393
14911SOL    HW146174   5.158   5.277   1.687 -0.1074 -1.1749 -0.6560
14911SOL    HW246175   5.059   5.224   1.789 -0.1001 -0.4209 -0.2523
14912SOL     OW46176   4.533   6.042  12.126  0.2021  0.3651  0.7020
14912SOL    HW146177   4.481   6.088  12.060 -0.4083 -4.2954 -2.6280
14912SOL    HW246178   4.622   6.071  12.113 -0.2374  1.1538 -0.6547
14913SOL     OW46179   4.168   3.412   2.386 -0.3843  0.3457 -0.4404
14913SOL    HW146180   4.173   3.507   2.386 -0.4973  0.3550 -1.2343
14913SOL    HW246181   4.205   3.386   2.471 -0.8744  1.1176  0.0285
14914SOL     OW46182   5.194   4.819   2.457 -0.6137 -0.3859  0.6139
14914SOL    HW146183   5.103   4.788   2.459 -0.6211 -0.3923  0.3261
14914SOL    HW246184   5.206   4.864   2.540 -1.2671  0.6762  0.1584
14915SOL     OW46185   4.021   5.265   2.241 -0.3107 -0.3340  0.0314
14915SOL    HW146186   4.013   5.173   2.265  2.2857 -0.3543  1.1830
14915SOL    HW246187   4.094   5.297   2.293 -0.1098  1.9830 -1.5169
14916SOL     OW46188   5.504   4.881   1.792 -0.0821 -0.3233 -0.4211
14916SOL    HW146189   5.580   4.874   1.849 -1.0036 -1.4525  0.7373
14916SOL    HW246190   5.476   4.973   1.801 -0.4898 -0.5858  1.3868
14917SOL     OW46191   3.965   4.517   1.570 -0.3367  0.3570 -0.3753
14917SOL    HW146192   3.925   4.439   1.606  0.2760  0.4265  0.4813
14917SOL    HW246193   4.048   4.526   1.616 -0.6746  1.8765  0.0120
14918SOL     OW46194   4.538   4.676   1.296 -0.2179 -0.7932 -0.5527
14918SOL    HW146195   4.626   4.686   1.333 -0.5548 -2.7055  0.8994
14918SOL    HW246196   4.523   4.582   1.293 -1.7603 -0.5513 -1.9583
14919SOL     OW46197   3.989   6.016   3.265  0.1979 -0.2626 -0.4216
14919SOL    HW146198   3.960   6.099   3.303  1.4169 -0.1027  0.1989
14919SOL    HW246199   4.067   5.993   3.314 -0.4764 -2.1384 -0.1396
14920SOL     OW46200   6.728   2.672   1.154 -0.8859  0.0719 -0.4561
14920SOL    HW146201   6.648   2.705   1.194  0.5721  0.7153  2.1847
14920SOL    HW246202   6.720   2.577   1.160  0.2020  0.0317  3.8742
14921SOL     OW46203   4.930   3.404  11.175 -0.1605 -0.1850 -0.7011
14921SOL    HW146204   4.870   3.472  11.206 -0.7814 -0.6398 -0.9003
14921SOL    HW246205   4.874   3.329  11.157  0.3678 -0.3720 -1.6144
14922SOL     OW46206   4.313   5.171   1.577 -0.1214  0.5309  0.2984
14922SOL    HW146207   4.340   5.144   1.664  1.2904  1.1036  0.0553
14922SOL    HW246208   4.306   5.089   1.527  0.4816  0.3243  0.5554
14923SOL     OW46209   5.442   3.282   0.347  0.3085  0.2869 -0.4957
14923SOL    HW146210   5.490   3.361   0.372  0.0553  0.4642 -0.5688
14923SOL    HW246211   5.410   3.247   0.430  2.4393 -1.0760 -0.1604
14924SOL     OW46212   2.567   3.935   1.219  0.1017 -0.6236 -0.1610
14924SOL    HW146213   2.509   3.901   1.287 -0.7616 -0.1468 -0.6434
14924SOL    HW246214   2.637   3.978   1.268 -1.1864  0.8749  0.4811
14925SOL     OW46215   5.205   5.384   0.945 -0.4153  0.4529  0.0308
14925SOL    HW146216   5.277   5.395   0.883 -0.0702  1.1425  0.5447
14925SOL    HW246217   5.214   5.457   1.006 -0.9646 -0.0123  0.6825
14926SOL     OW46218   4.218   4.810   1.016 -0.0525 -0.2050 -0.1686
14926SOL    HW146219   4.155   4.879   1.032 -0.0362 -0.2467  0.0841
14926SOL    HW246220   4.244   4.781   1.103  1.2333  0.6440 -0.2446
14927SOL     OW46221   2.506   3.304   0.758  0.4655 -0.5868  0.1614
14927SOL    HW146222   2.500   3.262   0.844 -0.5838 -1.1543 -0.1723
14927SOL    HW246223   2.431   3.363   0.755  1.2054  0.3788  0.1157
14928SOL     OW46224   3.371   4.323   3.586  0.1498  0.1138 -0.1173
14928SOL    HW146225   3.464   4.317   3.606  0.2609  0.2664 -0.5827
14928SOL    HW246226   3.337   4.236   3.606  0.2481  0.2635  0.7481
14929SOL     OW46227   5.754   3.277   0.683 -0.4002  0.3847 -1.0842
14929SOL    HW146228   5.784   3.280   0.774 -0.3858 -0.1843 -1.0659
14929SOL    HW246229   5.831   3.300   0.631 -0.5360  1.1941 -0.9320
14930SOL     OW46230   3.355   4.668   0.296  0.2050 -0.2602  0.6026
14930SOL    HW146231   3.428   4.714   0.336  0.1749 -0.7171  1.2144
14930SOL    HW246232   3.338   4.595   0.356 -1.2686  0.2968  0.9056
14931SOL     OW46233   6.533   5.784   1.044 -0.1109  0.4751  0.0581
14931SOL    HW146234   6.559   5.759   0.956  1.2992  1.0982  0.2807
14931SOL    HW246235   6.598   5.847   1.073 -0.7479  0.5691  1.4181
14932SOL     OW46236   5.586   5.089   0.662 -0.0024  0.4151 -0.1281
14932SOL    HW146237   5.591   5.168   0.716 -0.1631 -1.5718  3.0661
14932SOL    HW246238   5.512   5.041   0.697  0.6913 -1.6242 -1.2909
14933SOL     OW46239   4.029   3.724   0.111  0.1288  0.0380  0.1425
14933SOL    HW146240   3.995   3.811   0.129 -2.5231 -0.9554  0.4320
14933SOL    HW246241   4.122   3.737   0.093  0.1584  2.6806  1.7895
14934SOL     OW46242   4.974   4.426   1.927  0.2295  0.1189  0.2132
14934SOL    HW146243   5.006   4.339   1.952  0.7508  0.2986  0.1931
14934SOL    HW246244   4.982   4.428   1.831  1.0371  0.4868  0.2732
14935SOL     OW46245   3.894   3.304   1.492  0.4695  0.4646 -0.0254
14935SOL    HW146246   3.801   3.301   1.512  0.4207 -0.0487 -0.3166
14935SOL    HW246247   3.923   3.388   1.526  0.2637 -0.1096  1.6311
14936SOL     OW46248   4.806   3.369   2.631 -0.1909  0.6531 -0.2348
14936SOL    HW146249   4.811   3.416   2.547 -2.0082 -1.9659 -1.9361
14936SOL    HW246250   4.800   3.439   2.697 -1.0529  2.8172 -2.4500
14937SOL     OW46251   5.326   5.500   1.988 -0.1873  0.4110 -0.3316
14937SOL    HW146252   5.297   5.546   1.909  1.3826  0.5934 -0.8200
14937SOL    HW246253   5.378   5.427   1.956  0.9019  0.7864  0.5319
14938SOL     OW46254   3.645   0.590  11.497  0.1825 -0.2008 -0.1804
14938SOL    HW146255   3.640   0.497  11.474 -1.9180  0.4871 -2.9790
14938SOL    HW246256   3.573   0.631  11.449 -1.8408  2.3020  4.3619
14939SOL     OW46257   6.416   6.341   1.638  0.4468 -0.1352 -0.1322
14939SOL    HW146258   6.505   6.332   1.605  0.5957 -0.3889  0.3347
14939SOL    HW246259   6.368   6.383   1.566  0.6745 -1.0292 -0.8181
14940SOL     OW46260   2.167   3.947   1.983  0.5082 -0.2140  0.0802
14940SOL    HW146261   2.221   3.986   2.053  1.1746 -3.0194  1.2634
14940SOL    HW246262   2.140   4.022   1.930  2.0780  1.7805  1.8800
14941SOL     OW46263   2.521   4.881   0.960  0.1178 -0.2976  0.0779
14941SOL    HW146264   2.495   4.971   0.944  0.9127 -0.0885 -0.0552
14941SOL    HW246265   2.439   4.836   0.983 -0.0607  0.8271  1.8669
14942SOL     OW46266   4.762   3.967   1.673 -0.4798  0.4530  0.2179
14942SOL    HW146267   4.763   4.062   1.687 -1.0319  0.7481 -1.4859
14942SOL    HW246268   4.830   3.934   1.731  1.0477  2.1283 -0.5021
14943SOL     OW46269   3.680   2.202   2.071  0.1645  0.0879 -0.7782
14943SOL    HW146270   3.595   2.164   2.047  0.3854 -0.6394 -0.4209
14943SOL    HW246271   3.689   2.278   2.013 -0.9769  0.4942 -0.4493
14944SOL     OW46272   4.480   3.891   2.935 -0.2813  0.2040 -0.0298
14944SOL    HW146273   4.510   3.977   2.905  0.5020  0.7080  2.0113
14944SOL    HW246274   4.555   3.834   2.918 -0.6583 -0.0204 -1.0221
14945SOL     OW46275   4.167   4.281   3.218  0.2554 -0.9852 -0.4079
14945SOL    HW146276   4.130   4.292   3.306 -0.2549 -1.2280 -0.5866
14945SOL    HW246277   4.253   4.321   3.223 -0.4287  0.5487 -0.2619
14946SOL     OW46278   7.404   4.427   0.918 -0.1318 -0.1009 -0.7230
14946SOL    HW146279   7.393   4.352   0.976 -1.0710 -1.2096 -2.2529
14946SOL    HW246280   7.349   4.407   0.842  0.4455  1.6456 -1.6662
14947SOL     OW46281   3.951   4.405   0.591  0.3732 -0.0290  0.1331
14947SOL    HW146282   4.034   4.369   0.625  0.5514  0.0472 -0.2197
14947SOL    HW246283   3.968   4.420   0.498  0.0529  0.2532  0.1202
14948SOL     OW46284   6.308   3.862   2.098  0.6294  0.1220  0.1725
14948SOL    HW146285   6.372   3.823   2.037  1.3154 -0.3577  1.1781
14948SOL    HW246286   6.340   3.951   2.113 -0.0444  0.5564 -0.8586
14949SOL     OW46287   4.177   5.607   3.667  0.1267  0.1328 -0.5355
14949SOL    HW146288   4.109   5.667   3.698  1.9678  1.0451  2.1695
14949SOL    HW246289   4.135   5.521   3.665 -1.0579  0.6208  1.3287
14950SOL     OW46290   3.011   4.116   1.796 -0.0261  0.2539  0.0366
14950SOL    HW146291   3.038   4.097   1.886  1.1806 -1.5163 -0.6406
14950SOL    HW246292   2.968   4.035   1.767  1.1593  0.1463 -1.5289
14951SOL     OW46293   4.949   5.018   2.193 -0.0560  0.2669  0.3725
14951SOL    HW146294   5.029   5.042   2.240 -0.9630  1.3078  1.4407
14951SOL    HW246295   4.946   4.922   2.199  2.6466 -0.1338 -2.3310
14952SOL     OW46296   4.542   6.748   1.354  0.1937  0.3919  0.0064
14952SOL    HW146297   4.502   6.661   1.352  1.2178 -0.1016  0.2708
14952SOL    HW246298   4.494   6.799   1.288 -1.4725  0.1128  0.9433
14953SOL     OW46299   4.681   3.850   2.013 -0.5050  0.0943  0.0642
14953SOL    HW146300   4.609   3.874   2.071  0.8195  0.3419  1.6879
14953SOL    HW246301   4.725   3.933   1.995 -0.8824  0.0137 -1.3147
14954SOL     OW46302   3.457   4.877   1.641  0.1785 -0.1288  0.4526
14954SOL    HW146303   3.513   4.802   1.665  1.5127  0.6083 -0.2377
14954SOL    HW246304   3.476   4.943   1.708  1.2743  0.6594 -0.6002
14955SOL     OW46305   4.455   5.606   3.083 -0.5480 -0.0163 -0.1104
14955SOL    HW146306   4.549   5.601   3.069 -0.3122  0.2811  1.2251
14955SOL    HW246307   4.430   5.690   3.046 -0.1258  0.3005  0.3086
14956SOL     OW46308   3.147   6.656   2.315  0.0846 -0.3107  0.5046
14956SOL    HW146309   3.144   6.561   2.305 -0.2876 -0.3431  0.8953
14956SOL    HW246310   3.185   6.688   2.233 -1.3874 -0.6871 -0.3540
14957SOL     OW46311   4.096   4.119   2.159  0.2152  0.3156 -0.1680
14957SOL    HW146312   4.097   4.151   2.249 -1.7309 -1.0616  0.4211
14957SOL    HW246313   4.070   4.027   2.167 -0.8494  0.3888 -2.1671
14958SOL     OW46314   5.602   6.211   4.254  0.2036  0.3536 -0.3998
14958SOL    HW146315   5.594   6.285   4.195  0.1382 -0.4304 -1.3973
14958SOL    HW246316   5.690   6.218   4.291  0.5505  0.3910 -1.2201
14959SOL     OW46317   4.821   5.204   0.514 -0.1111  0.1472  0.4370
14959SOL    HW146318   4.882   5.278   0.516 -0.3508  0.3391  0.7821
14959SOL    HW246319   4.811   5.179   0.605 -0.4558  0.0367  0.3692
14960SOL     OW46320   6.353   4.328   3.581 -0.4699  0.2484 -0.2336
14960SOL    HW146321   6.356   4.284   3.666 -0.9119 -2.8906 -1.7386
14960SOL    HW246322   6.302   4.408   3.598 -2.8496 -1.5511  1.9294
14961SOL     OW46323   5.501   4.708   2.095 -0.0830  0.2416 -0.2843
14961SOL    HW146324   5.488   4.624   2.052 -0.3643  0.4588 -0.6267
14961SOL    HW246325   5.484   4.690   2.188 -0.1508 -0.0763 -0.3582
14962SOL     OW46326   6.442   5.526   2.068 -0.0124  0.1605 -0.1993
14962SOL    HW146327   6.510   5.588   2.043 -0.3710  0.2564 -0.9827
14962SOL    HW246328   6.462   5.447   2.018 -0.9139  0.4518 -1.0509
14963SOL     OW46329   4.552   4.204   2.683  0.8058  0.3157  0.2900
14963SOL    HW146330   4.514   4.288   2.711  0.2513 -0.0502  0.6686
14963SOL    HW246331   4.602   4.174   2.759 -2.2337 -1.5976  1.7766
14964SOL     OW46332   7.440   5.221   2.763  0.4186  0.1905 -0.3948
14964SOL    HW146333   7.493   5.156   2.718  2.7428 -0.5234  2.9746
14964SOL    HW246334   7.485   5.304   2.746 -0.5010  0.4282 -1.8017
14965SOL     OW46335   6.250   4.299   2.765 -0.3200 -0.1932  0.1415
14965SOL    HW146336   6.331   4.252   2.788 -0.9178 -2.0205 -1.2800
14965SOL    HW246337   6.188   4.230   2.743 -1.5124  1.2651 -1.2664
14966SOL     OW46338   3.930   4.698   3.833 -0.3589  0.3013  0.4462
14966SOL    HW146339   3.975   4.620   3.803  0.6642  0.3769  1.7141
14966SOL    HW246340   3.855   4.665   3.882 -1.3812  0.1750 -1.1039
14967SOL     OW46341   3.559   5.072   3.755  0.5132 -0.0104 -0.0082
14967SOL    HW146342   3.616   5.066   3.832  1.9687  0.1312 -1.0426
14967SOL    HW246343   3.533   4.981   3.737 -0.9449  0.0808  1.4149
14968SOL     OW46344   4.107   5.242   3.075 -0.3327 -0.5216 -0.0764
14968SOL    HW146345   4.065   5.285   3.000 -0.9461  2.9434  2.0441
14968SOL    HW246346   4.038   5.235   3.140  0.7581 -1.1383  1.0486
14969SOL     OW46347   5.000   4.329   2.957 -0.2138  0.4873  0.2275
14969SOL    HW146348   4.990   4.250   3.011 -0.0359 -0.0336 -0.4814
14969SOL    HW246349   4.915   4.374   2.965 -0.4030  0.0984  0.4484
14970SOL     OW46350   3.542   4.620   2.150 -0.6200 -0.1295  0.1825
14970SOL    HW146351   3.451   4.599   2.126 -0.3073  0.0101 -1.2307
14970SOL    HW246352   3.535   4.660   2.236 -2.1595  1.8101 -0.7585
14971SOL     OW46353   6.208   4.285   2.158  0.0608 -0.1833  0.3358
14971SOL    HW146354   6.276   4.282   2.090 -1.3897  0.8175 -1.2349
14971SOL    HW246355   6.128   4.309   2.111 -1.2498 -0.5753  2.2460
14972SOL     OW46356   5.353   7.254   3.121 -0.1422  0.2345  0.2746
14972SOL    HW146357   5.286   7.284   3.181  0.0232 -0.2851  0.7276
14972SOL    HW246358   5.436   7.275   3.164 -0.0244 -0.2520  0.2909
14973SOL     OW46359   4.720   3.613   2.114 -0.2918 -0.0175  0.2567
14973SOL    HW146360   4.692   3.686   2.059 -0.5123 -0.4896 -0.2751
14973SOL    HW246361   4.727   3.649   2.202  0.5612  0.8865 -0.1606
14974SOL     OW46362   5.168   4.556   2.278  0.6639  0.3940  0.3470
14974SOL    HW146363   5.083   4.525   2.310  1.5007  0.3247  2.6924
14974SOL    HW246364   5.170   4.649   2.301  0.9612  0.5582 -0.3213
14975SOL     OW46365   5.967   3.479   2.401  0.2650  0.0448 -0.1811
14975SOL    HW146366   5.987   3.482   2.495 -0.1410  0.2668 -0.0996
14975SOL    HW246367   5.948   3.386   2.384  0.1867  0.0288 -0.0105
14976SOL     OW46368   5.415   5.486   2.569 -0.2289 -0.1288  0.5261
14976SOL    HW146369   5.363   5.408   2.547  0.6362 -0.7422  0.5941
14976SOL    HW246370   5.369   5.524   2.644 -0.5646 -0.6868  0.6147
14977SOL     OW46371   3.376   4.550   1.376 -0.3605 -0.2603 -0.3935
14977SOL    HW146372   3.358   4.481   1.312  0.4531 -2.6111  1.7381
14977SOL    HW246373   3.298   4.554   1.431  0.1404 -0.5045  0.3514
14978SOL     OW46374   4.112   2.993   2.429  0.3857 -0.3943  0.3725
14978SOL    HW146375   4.172   3.027   2.495  0.5504  0.7376 -0.3357
14978SOL    HW246376   4.083   3.070   2.380  0.5901 -1.2330 -1.1504
14979SOL     OW46377   4.339   2.907   0.696  0.2285 -0.6081  0.1858
14979SOL    HW146378   4.245   2.908   0.676  0.3438 -0.6661 -0.3919
14979SOL    HW246379   4.381   2.907   0.610  0.7672  0.0633  0.4430
14980SOL     OW46380   2.508   4.285   4.256  0.1325  0.0188  0.3115
14980SOL    HW146381   2.452   4.345   4.207  0.2459  0.0301  0.1948
14980SOL    HW246382   2.586   4.274   4.201 -0.6527 -1.6614 -0.5280
14981SOL     OW46383   3.424   5.760   3.981 -0.6269  0.0145  0.0249
14981SOL    HW146384   3.343   5.791   4.020 -0.7884  0.7139 -0.8280
14981SOL    HW246385   3.416   5.665   3.979 -1.3513  0.0740  0.1020
14982SOL     OW46386   4.089   5.052   0.099  0.0181 -0.0063 -0.1117
14982SOL    HW146387   4.031   5.094   0.163  1.0532  0.6525  0.4118
14982SOL    HW246388   4.144   5.123   0.065 -0.4816 -0.3512 -1.7269
14983SOL     OW46389   6.176   4.128   3.185 -0.0204 -0.4345 -0.0391
14983SOL    HW146390   6.124   4.168   3.115  1.3982 -1.2298 -1.6019
14983SOL    HW246391   6.129   4.048   3.208  0.5132 -1.1917 -1.4989
14984SOL     OW46392   5.600   5.292   3.752 -0.2550 -0.3699 -0.1743
14984SOL    HW146393   5.591   5.359   3.819 -2.6031 -0.6406 -0.1195
14984SOL    HW246394   5.568   5.212   3.793  1.2078 -1.2604 -0.6763
14985SOL     OW46395   5.218   3.555   2.405 -0.7253 -0.0302  0.2126
14985SOL    HW146396   5.208   3.628   2.344  1.9337 -1.7481 -2.6108
14985SOL    HW246397   5.289   3.582   2.463  0.3066 -0.2960 -0.8751
14986SOL     OW46398   5.379   4.455   2.741  0.1945 -0.2010 -0.1060
14986SOL    HW146399   5.298   4.476   2.787 -0.3298  0.6492 -1.3477
14986SOL    HW246400   5.387   4.360   2.748 -1.5565 -0.4587 -0.9198
14987SOL     OW46401   3.435   5.919   3.231  0.1808  0.2324  0.0228
14987SOL    HW146402   3.435   5.889   3.322  1.7094 -0.4847 -0.1709
14987SOL    HW246403   3.457   5.840   3.180 -0.4116  0.6753 -0.9410
14988SOL     OW46404   6.941   4.499   4.988  0.4513 -0.1539 -0.0728
14988SOL    HW146405   6.902   4.445   5.057 -2.0071  0.4161 -0.9065
14988SOL    HW246406   6.983   4.436   4.929 -1.6559 -1.1647 -0.5913
14989SOL     OW46407   6.209   2.845   3.164  0.3544 -0.2672  0.3391
14989SOL    HW146408   6.179   2.886   3.084  0.4535  0.0537  0.4659
14989SOL    HW246409   6.176   2.901   3.234  1.1433  0.0212  0.4840
14990SOL     OW46410   2.048   5.855   2.670 -0.0313  0.1680  0.6710
14990SOL    HW146411   2.007   5.793   2.729 -2.9570 -0.7070 -1.9841
14990SOL    HW246412   2.101   5.802   2.612 -0.3215  0.4758  0.1135
14991SOL     OW46413   5.200   3.685   0.738  0.0337  0.2043 -0.0963
14991SOL    HW146414   5.235   3.738   0.809  1.3007  0.9245 -1.1997
14991SOL    HW246415   5.110   3.717   0.726  1.1757  3.3148 -1.6963
14992SOL     OW46416   3.486   4.418   2.612 -0.3719  0.1299  0.3623
14992SOL    HW146417   3.497   4.428   2.517 -1.3334 -1.3242  0.0704
14992SOL    HW246418   3.572   4.390   2.643 -0.5701 -1.4129 -0.3992
14993SOL     OW46419   3.007   4.663   3.647  0.5713 -0.0961  0.0736
14993SOL    HW146420   3.024   4.722   3.720 -0.6960  0.4730 -0.0545
14993SOL    HW246421   3.041   4.578   3.677 -2.0683 -0.4945  2.4197
14994SOL     OW46422   5.578   5.552   1.741 -0.4953 -0.3070  0.2592
14994SOL    HW146423   5.606   5.642   1.722 -1.4760 -0.3478 -1.6905
14994SOL    HW246424   5.615   5.533   1.827  0.2779  1.7303  0.4437
14995SOL     OW46425   3.418   4.832   3.713 -0.6027 -0.6127  0.2938
14995SOL    HW146426   3.370   4.852   3.794 -0.2531  1.8151 -0.0458
14995SOL    HW246427   3.416   4.736   3.708 -1.3856 -0.7907  2.7073
14996SOL     OW46428   6.888   3.958   2.517 -0.2437 -0.1939  0.0163
14996SOL    HW146429   6.799   3.925   2.511  0.1853 -1.5422  0.7406
14996SOL    HW246430   6.884   4.045   2.478 -1.8694 -0.2347  0.0415
14997SOL     OW46431   3.745   4.676   2.991  0.1604  0.3321 -0.0607
14997SOL    HW146432   3.655   4.657   2.962  0.4770  0.4670 -1.2077
14997SOL    HW246433   3.799   4.611   2.945  0.6998  0.5806  0.2170
14998SOL     OW46434   5.587   4.943   1.548 -0.3399  0.2073  0.4088
14998SOL    HW146435   5.552   4.908   1.630  0.3025 -0.7255  0.2874
14998SOL    HW246436   5.524   5.012   1.523  0.0572  1.3211  2.2717
14999SOL     OW46437   3.933   3.762   1.591  0.0870  0.2328 -0.0031
14999SOL    HW146438   3.878   3.833   1.623  0.3152  0.4598 -0.1006
14999SOL    HW246439   3.883   3.682   1.607  1.0749  0.1000  2.9243
15000SOL     OW46440   3.601   2.683   1.909  0.3729 -0.0204  0.2355
15000SOL    HW146441   3.601   2.647   1.998  0.4762 -0.0198  0.2352
15000SOL    HW246442   3.690   2.670   1.877  0.2349 -0.3737 -0.0125
15001SOL     OW46443   4.361   4.844   2.463  0.8202  0.5683  0.3685
15001SOL    HW146444   4.438   4.795   2.493  1.5662  1.4939  0.0191
15001SOL    HW246445   4.382   4.867   2.373 -1.2962 -2.0049 -0.9171
15002SOL     OW46446   5.490   3.860   1.308 -0.4098 -0.4110  0.7770
15002SOL    HW146447   5.521   3.849   1.218  0.1476  0.4732  0.8544
15002SOL    HW246448   5.568   3.851   1.362 -0.3534  1.2502  1.0131
15003SOL     OW46449   5.603   4.574   2.914  0.1946 -0.3420 -0.4030
15003SOL    HW146450   5.534   4.612   2.969 -0.4975 -1.1405 -0.6875
15003SOL    HW246451   5.555   4.519   2.853  0.9554  0.4749 -1.7729
15004SOL     OW46452   4.486   4.298   3.075  0.0996  0.3823 -0.0228
15004SOL    HW146453   4.567   4.253   3.100  0.8034  1.0239 -1.0083
15004SOL    HW246454   4.465   4.354   3.149  0.0022 -0.5287  0.6422
15005SOL     OW46455   2.603   4.849   1.432  0.1040 -0.0206  0.2336
15005SOL    HW146456   2.659   4.898   1.371 -0.2695 -0.4272 -0.4479
15005SOL    HW246457   2.518   4.892   1.426 -0.1741 -0.6230 -0.2237
15006SOL     OW46458   5.253   4.511   0.742  0.0983 -0.3346  0.1840
15006SOL    HW146459   5.252   4.552   0.656 -0.8138 -1.9573 -0.6264
15006SOL    HW246460   5.331   4.546   0.785  0.8743  0.0992 -1.5133
15007SOL     OW46461   5.868   5.319   1.810 -0.1933  0.1445  0.1181
15007SOL    HW146462   5.833   5.257   1.873 -0.7065  0.6288  0.3214
15007SOL    HW246463   5.800   5.326   1.743  0.7437 -1.1000 -1.0227
15008SOL     OW46464   4.987   2.614   3.874 -0.0585  0.0137 -0.2719
15008SOL    HW146465   5.003   2.551   3.945  1.6520  0.1199 -0.5457
15008SOL    HW246466   4.954   2.692   3.919  1.4841  0.2536  0.4820
15009SOL     OW46467   5.957   6.691   4.308 -0.2546  0.5937  0.0937
15009SOL    HW146468   5.906   6.766   4.279 -0.0378  0.8752  0.4466
15009SOL    HW246469   6.039   6.728   4.339 -0.9057  0.4300  2.1671
15010SOL     OW46470   3.494   3.497   0.901 -0.1754  0.1893 -0.5558
15010SOL    HW146471   3.489   3.405   0.876  0.9219 -0.3305  0.9761
15010SOL    HW246472   3.567   3.532   0.851 -1.8899  0.8560 -2.7735
15011SOL     OW46473   4.394   4.723   1.844 -0.0629 -0.0724 -0.0202
15011SOL    HW146474   4.461   4.681   1.790 -1.4630 -0.3920 -1.6066
15011SOL    HW246475   4.395   4.814   1.815 -1.0799 -0.3261 -0.9068
15012SOL     OW46476   4.600   2.694   2.601 -0.2870 -0.0595  0.1173
15012SOL    HW146477   4.675   2.754   2.591  0.7146 -0.9503  1.7963
15012SOL    HW246478   4.525   2.752   2.610  0.1036  0.8683 -1.8075
15013SOL     OW46479   4.010   5.554   2.924  0.0073 -0.0903 -0.0952
15013SOL    HW146480   4.003   5.645   2.897 -1.7653  0.4349  1.9031
15013SOL    HW246481   4.095   5.548   2.967  0.4022  0.4387 -0.7761
15014SOL     OW46482   5.706   4.293   2.830 -0.2147 -0.1836  0.0543
15014SOL    HW146483   5.701   4.384   2.801 -0.2869  0.0808  0.8689
15014SOL    HW246484   5.620   4.275   2.868  0.7393  0.4101  2.7164
15015SOL     OW46485   4.627   5.228   3.017 -0.8184  0.2660  0.3120
15015SOL    HW146486   4.688   5.164   3.056 -0.2327  1.3902  1.3038
15015SOL    HW246487   4.555   5.233   3.080 -0.5914  0.9916  0.5138
15016SOL     OW46488   4.747   4.172   2.466 -0.5557 -1.1734 -0.3067
15016SOL    HW146489   4.664   4.203   2.502 -0.4836 -2.3747  0.9708
15016SOL    HW246490   4.798   4.146   2.542  0.5124 -1.6407 -1.1548
15017SOL     OW46491   3.503   4.826   2.359  0.1061 -0.0707  0.0723
15017SOL    HW146492   3.409   4.811   2.374  0.2784 -0.2229  1.0482
15017SOL    HW246493   3.546   4.773   2.426  0.8757  0.5811  0.0987
15018SOL     OW46494   5.374   4.891   2.701 -0.1425  0.2331 -0.4964
15018SOL    HW146495   5.423   4.863   2.778 -0.9396 -0.0955 -0.1072
15018SOL    HW246496   5.373   4.987   2.708 -0.6008  0.1858  0.1458
15019SOL     OW46497   4.322   4.946   2.707  0.4432  0.0943 -0.3903
15019SOL    HW146498   4.312   4.929   2.613 -0.8080  1.2128 -0.4822
15019SOL    HW246499   4.333   5.041   2.713 -0.3121  0.1314  0.6445
15020SOL     OW46500   6.387   4.280   3.305 -0.4449  0.1843  0.0077
15020SOL    HW146501   6.364   4.291   3.397 -0.7182 -0.3586  0.0055
15020SOL    HW246502   6.325   4.215   3.272  0.5086 -0.6433 -0.2136
15021SOL     OW46503   3.823   4.465   1.873  0.2123  0.6249  0.5075
15021SOL    HW146504   3.843   4.543   1.926 -1.1725 -0.3690  2.6479
15021SOL    HW246505   3.890   4.402   1.897  0.2469  0.5369  0.1831
15022SOL     OW46506   4.262   4.457   1.804  0.3742 -0.0950 -0.2119
15022SOL    HW146507   4.239   4.364   1.803  0.6234 -0.1650 -1.7222
15022SOL    HW246508   4.349   4.460   1.845  0.6478 -0.6075 -0.7441
15023SOL     OW46509   6.315   6.912   4.947  0.4405 -0.2666 -1.0178
15023SOL    HW146510   6.237   6.885   4.995  1.3854  1.6708  1.8714
15023SOL    HW246511   6.281   6.965   4.875 -0.9463  0.2811 -0.0111
15024SOL     OW46512   4.310   5.637   1.664 -0.1565  0.4056  0.1441
15024SOL    HW146513   4.369   5.708   1.641  0.9058 -0.6695 -0.6102
15024SOL    HW246514   4.332   5.567   1.602  1.3771 -1.9067  3.0039
15025SOL     OW46515   5.028   5.439   3.092  0.0215 -0.0052  0.5048
15025SOL    HW146516   4.949   5.442   3.039 -0.1693  1.8528  0.8173
15025SOL    HW246517   5.010   5.372   3.159 -1.7747  1.1486  1.2630
15026SOL     OW46518   4.545   5.840   3.781  0.0143  0.1098 -0.7629
15026SOL    HW146519   4.610   5.910   3.777  0.2886 -0.1334 -0.6414
15026SOL    HW246520   4.461   5.885   3.788  0.1893  0.4232 -0.6674
15027SOL     OW46521   5.623   6.447   2.476 -0.4867 -0.2789 -0.7853
15027SOL    HW146522   5.553   6.399   2.433 -1.5898  1.2720 -0.8023
15027SOL    HW246523   5.611   6.538   2.449  1.1510  0.1347 -0.2747
15028SOL     OW46524   6.140   4.647   1.675  0.2860  0.2656  0.3464
15028SOL    HW146525   6.174   4.732   1.646  0.0145  0.2514 -0.0159
15028SOL    HW246526   6.216   4.590   1.675  0.3939  0.4079  0.1995
15029SOL     OW46527   3.459   4.242   2.365  0.2210 -0.2973 -0.4884
15029SOL    HW146528   3.494   4.190   2.294 -0.1333  0.5186 -1.2844
15029SOL    HW246529   3.364   4.239   2.353  0.2197  1.0899 -0.9762
15030SOL     OW46530   4.771   6.292   3.617  0.3281  0.5516 -0.7652
15030SOL    HW146531   4.701   6.328   3.672  1.5233 -0.3246  1.4523
15030SOL    HW246532   4.726   6.262   3.538 -1.5931  1.1593  0.0237
15031SOL     OW46533   4.807   5.042   3.077 -0.0224  0.1913  0.2372
15031SOL    HW146534   4.893   5.004   3.061 -0.4733 -0.1102 -1.7597
15031SOL    HW246535   4.755   4.970   3.113  0.5360  0.3729  1.4377
15032SOL     OW46536   4.089   4.628   2.794  0.3007  0.5331  0.2767
15032SOL    HW146537   4.161   4.567   2.776 -0.1265 -0.2599  1.2007
15032SOL    HW246538   4.070   4.616   2.886 -2.2739 -0.6487 -0.3432
15033SOL     OW46539   5.093   5.791   1.913  0.0550 -0.4457 -0.4058
15033SOL    HW146540   5.114   5.705   1.877 -1.6810 -0.7773 -0.7107
15033SOL    HW246541   5.001   5.784   1.940  0.1297  1.0613  0.3217
15034SOL     OW46542   4.096   4.704   0.476 -0.1733  0.2660  0.3413
15034SOL    HW146543   4.106   4.608   0.479  0.9399  0.3208 -0.9492
15034SOL    HW246544   4.003   4.718   0.492 -0.6254 -1.1365 -0.8417
15035SOL     OW46545   4.581   5.241   2.410 -0.5732  0.0263  0.3286
15035SOL    HW146546   4.629   5.211   2.487  0.1499 -0.8259 -0.4414
15035SOL    HW246547   4.647   5.285   2.356 -1.0934  0.6945  0.2207
15036SOL     OW46548   4.419   4.861   3.306  0.0324  0.0676  0.1162
15036SOL    HW146549   4.415   4.786   3.365 -0.4525  0.2174  0.2838
15036SOL    HW246550   4.327   4.888   3.296  0.2249  0.8304  0.3122
15037SOL     OW46551   5.190   4.549   2.924 -0.1887 -0.0183  0.1490
15037SOL    HW146552   5.135   4.610   2.874 -0.0224 -0.4772 -0.6102
15037SOL    HW246553   5.130   4.478   2.948 -0.4662  0.6052  1.3395
15038SOL     OW46554   5.165   3.979   3.293 -0.3623  0.0873 -0.4421
15038SOL    HW146555   5.242   3.979   3.235 -0.4845 -0.7208 -0.6133
15038SOL    HW246556   5.093   4.010   3.237  0.3065  3.6536  0.4230
15039SOL     OW46557   4.370   4.492   2.489 -0.0802  0.4641  0.2707
15039SOL    HW146558   4.421   4.550   2.432  0.0671  0.5284  0.4679
15039SOL    HW246559   4.430   4.470   2.560 -0.1765  0.1662  0.2592
15040SOL     OW46560   6.511   4.865   2.464 -0.2535  0.2332  0.1885
15040SOL    HW146561   6.463   4.802   2.411  0.7479 -0.0615 -0.4193
15040SOL    HW246562   6.507   4.831   2.553 -1.6418  0.5311  0.2633
15041SOL     OW46563   6.486   2.863   1.002 -0.4789  0.3014  0.4537
15041SOL    HW146564   6.511   2.850   0.911 -0.6673  0.6636  0.3475
15041SOL    HW246565   6.523   2.949   1.025  1.5936 -0.7727  1.4320
15042SOL     OW46566   1.860   5.420   3.514 -0.5033  0.1298 -0.2984
15042SOL    HW146567   1.883   5.331   3.540  0.1249  0.4307  0.1927
15042SOL    HW246568   1.787   5.443   3.571 -0.0094  0.2924  0.2799
15043SOL     OW46569   4.037   4.136   3.037  0.2086  0.2860  0.1294
15043SOL    HW146570   3.959   4.135   3.092  1.2318 -0.1274  1.6367
15043SOL    HW246571   4.097   4.196   3.081  0.4551  1.2891 -1.4780
15044SOL     OW46572   6.034   5.786   1.585  0.5987  0.2819 -0.2069
15044SOL    HW146573   6.084   5.862   1.613  0.1549 -0.0615  1.6607
15044SOL    HW246574   6.078   5.712   1.626  0.5167 -0.4053 -1.3055
15045SOL     OW46575   4.942   3.196   2.296  0.3906  0.3173  0.1332
15045SOL    HW146576   4.850   3.215   2.312 -0.1577 -0.7598 -1.5376
15045SOL    HW246577   4.952   3.198   2.201  2.0321  0.1325  0.2570
15046SOL     OW46578   6.537   3.588   2.832 -0.3377 -0.1061  0.1174
15046SOL    HW146579   6.588   3.646   2.775 -1.3133  0.7288  0.0602
15046SOL    HW246580   6.592   3.576   2.909  0.1753  0.3283 -0.1713
15047SOL     OW46581   3.750   4.768   1.507  0.1178 -0.1258 -0.7777
15047SOL    HW146582   3.838   4.792   1.477  0.6402 -1.1721 -0.1397
15047SOL    HW246583   3.765   4.718   1.587 -1.0580 -0.4468 -0.7424
15048SOL     OW46584   5.681   6.271   2.740  0.3737 -0.4502  0.5446
15048SOL    HW146585   5.587   6.257   2.730  0.1766  0.3401  1.1579
15048SOL    HW246586   5.721   6.207   2.681 -0.5688  0.0250 -0.6754
15049SOL     OW46587   5.578   5.845   3.138  0.2394  0.7549  0.4357
15049SOL    HW146588   5.516   5.918   3.139  0.3210  0.8216  1.4930
15049SOL    HW246589   5.647   5.871   3.199  0.5883  0.0654  0.3437
15050SOL     OW46590   4.297   4.548   3.550  0.9158  0.0505 -0.4967
15050SOL    HW146591   4.376   4.579   3.507  0.4769  0.2492 -1.1818
15050SOL    HW246592   4.240   4.625   3.554 -0.0703 -0.5723 -1.9486
15051SOL     OW46593   5.486   5.109   0.972 -0.6720 -0.5037 -0.1537
15051SOL    HW146594   5.490   5.142   1.062 -0.8012 -1.9521  0.4007
15051SOL    HW246595   5.404   5.062   0.967 -0.7527 -0.2863 -1.1017
15052SOL     OW46596   5.490   4.005   1.599 -0.0042 -0.1772 -0.2630
15052SOL    HW146597   5.468   4.019   1.691 -0.4896 -0.9822 -0.2465
15052SOL    HW246598   5.426   4.057   1.550 -0.0698 -0.1563 -0.1544
15053SOL     OW46599   6.095   2.716   2.753  0.3877  0.0404 -0.1962
15053SOL    HW146600   6.135   2.783   2.808  3.6680 -0.9758 -1.1477
15053SOL    HW246601   6.131   2.633   2.784 -2.3481 -1.2215 -0.0784
15054SOL     OW46602   6.211   5.209   1.682 -0.0751  0.1117 -0.3074
15054SOL    HW146603   6.198   5.173   1.770  1.9515  2.5198  1.0980
15054SOL    HW246604   6.133   5.262   1.667 -1.1419 -1.4890 -0.6692
15055SOL     OW46605   3.109   4.665   2.772 -0.0598  0.0649  0.1234
15055SOL    HW146606   3.130   4.675   2.865 -0.3065 -2.1251  0.4534
15055SOL    HW246607   3.192   4.679   2.727  0.0982  0.9544  0.6722
15056SOL     OW46608   2.533   4.566   1.634  0.3136 -0.4570 -0.3899
15056SOL    HW146609   2.558   4.655   1.661  0.0680  0.3959 -2.7942
15056SOL    HW246610   2.452   4.577   1.584 -1.3699 -2.4265  1.6278
15057SOL     OW46611   2.057   4.722   2.157  0.0696 -0.2352  0.2354
15057SOL    HW146612   2.072   4.700   2.065  1.5793 -1.5452  0.7712
15057SOL    HW246613   1.992   4.659   2.186 -0.8774  0.5703 -0.0553
15058SOL     OW46614   3.091   4.020   2.037 -0.8129 -0.2665 -0.2155
15058SOL    HW146615   3.159   3.963   2.071 -0.7760  0.5926  1.2573
15058SOL    HW246616   3.022   4.018   2.104 -2.0087 -0.6896 -1.4144
15059SOL     OW46617   4.041   5.652   3.208 -0.1802  0.4599  0.4476
15059SOL    HW146618   3.985   5.580   3.236 -0.2191  0.5904  0.7151
15059SOL    HW246619   4.110   5.657   3.275 -0.0012  0.4736  0.2660
15060SOL     OW46620   4.154   6.248   3.238 -0.0323  0.1374  0.2951
15060SOL    HW146621   4.160   6.296   3.321  0.6522  2.2323 -0.8819
15060SOL    HW246622   4.073   6.279   3.199  0.7975  1.0057 -0.8272
15061SOL     OW46623   3.434   3.955   4.102  0.1192  0.0807 -0.1391
15061SOL    HW146624   3.379   4.022   4.143  0.5022 -1.2720  2.8871
15061SOL    HW246625   3.518   3.999   4.088  0.0537  0.5410  0.8211
15062SOL     OW46626   5.314   4.112   4.298  0.6223  0.3042 -0.7432
15062SOL    HW146627   5.292   4.162   4.219 -0.2492  2.0511  0.5161
15062SOL    HW246628   5.267   4.157   4.368 -2.2269 -3.7156  0.2751
15063SOL     OW46629   3.575   4.593   3.511  0.0235  0.3650 -0.3796
15063SOL    HW146630   3.538   4.600   3.599 -2.1027  0.9300 -1.2663
15063SOL    HW246631   3.582   4.499   3.496  0.1485  0.2617  0.2775
15064SOL     OW46632   4.259   2.783   1.779  0.0547  0.3639 -0.2490
15064SOL    HW146633   4.229   2.813   1.692  0.3776  1.1011 -0.1112
15064SOL    HW246634   4.235   2.854   1.838  0.2861  0.0762  0.1929
15065SOL     OW46635   4.157   5.266   4.720  0.5458 -0.4378 -0.6693
15065SOL    HW146636   4.158   5.184   4.671 -0.7714 -0.6347 -0.4267
15065SOL    HW246637   4.064   5.291   4.723  1.0359  1.9015 -2.0775
15066SOL     OW46638   4.915   3.894   2.812  0.0997 -0.6521 -0.7357
15066SOL    HW146639   4.866   3.816   2.835 -1.4479  0.5591  0.3105
15066SOL    HW246640   4.848   3.961   2.798  1.4018  0.8931  0.0380
15067SOL     OW46641   3.901   5.063   4.868 -0.4396  0.3634 -0.4394
15067SOL    HW146642   3.881   4.980   4.912  0.5150  0.4913  0.2601
15067SOL    HW246643   3.878   5.130   4.932  0.4814  0.5691 -0.3166
15068SOL     OW46644   1.950   4.983   1.313  0.1751 -0.4167 -0.0049
15068SOL    HW146645   1.874   4.938   1.350  0.2254 -1.3618 -0.9889
15068SOL    HW246646   2.017   4.915   1.306  2.5179  1.0781  4.2880
15069SOL     OW46647   3.419   5.091   2.562  0.2979  0.5504  0.0438
15069SOL    HW146648   3.340   5.140   2.585  0.8091  1.0213  0.8460
15069SOL    HW246649   3.408   5.006   2.604 -0.0676  0.3826 -0.3831
15070SOL     OW46650   4.676   4.830   3.174 -0.2171 -0.1005 -0.1556
15070SOL    HW146651   4.580   4.829   3.178 -0.3146  1.8292 -0.8266
15070SOL    HW246652   4.704   4.787   3.255 -1.6098 -1.9249 -0.5748
15071SOL     OW46653   4.198   4.140   1.345 -0.2122 -0.2803 -0.0557
15071SOL    HW146654   4.170   4.096   1.265  1.4113  2.8791 -2.5536
15071SOL    HW246655   4.280   4.096   1.369 -0.4473 -0.9193 -0.3830
15072SOL     OW46656   5.033   5.464   2.357  0.4111 -0.4731  0.0835
15072SOL    HW146657   5.090   5.519   2.303  1.0818 -1.0095  0.2509
15072SOL    HW246658   5.061   5.480   2.447  0.4097 -0.8647  0.1558
15073SOL     OW46659   4.086   4.992   2.971  0.8805  0.1622  0.4873
15073SOL    HW146660   4.123   5.058   3.029 -1.8198 -0.0473  2.6682
15073SOL    HW246661   4.082   5.034   2.885  1.3348  1.9830  1.3121
15074SOL     OW46662   1.244   5.928   0.805 -0.1369  0.1020 -0.2972
15074SOL    HW146663   1.243   5.832   0.812  2.1455  0.0717  0.4639
15074SOL    HW246664   1.288   5.945   0.721 -0.9145  0.4927 -0.6291
15075SOL     OW46665   4.156   5.814   1.137 -0.0265  0.3675  0.3250
15075SOL    HW146666   4.068   5.814   1.173 -0.4966  0.2841 -0.7698
15075SOL    HW246667   4.207   5.868   1.197 -0.6087 -0.3273  1.4602
15076SOL     OW46668   0.066   4.538   1.889  0.3614  0.6212 -0.0310
15076SOL    HW146669  -0.025   4.531   1.860 -0.1859  1.9902  1.2462
15076SOL    HW246670   0.060   4.578   1.976  2.1992  0.9499 -0.0325
15077SOL     OW46671   3.431   4.528  12.222 -0.2290 -0.4319 -0.7231
15077SOL    HW146672   3.474   4.462  12.277 -1.9532 -1.6616 -0.7611
15077SOL    HW246673   3.459   4.612  12.259 -0.6585 -1.1967  1.5281
15078SOL     OW46674   3.921   7.303   3.617 -0.0217 -0.4797 -0.1859
15078SOL    HW146675   3.964   7.218   3.627  1.6689  0.4176  0.7658
15078SOL    HW246676   3.873   7.316   3.698  0.5848 -0.0893  0.1174
15079SOL     OW46677   4.399   2.470   1.467  0.1469 -0.5052 -0.0439
15079SOL    HW146678   4.484   2.428   1.456 -0.2728 -1.4139  0.0190
15079SOL    HW246679   4.400   2.545   1.408  1.7308  0.6788  1.4206
15080SOL     OW46680   4.101   4.741   3.586 -0.0198  0.0690  0.2063
15080SOL    HW146681   4.039   4.702   3.647 -0.9576 -0.8372 -1.2456
15080SOL    HW246682   4.143   4.811   3.635 -1.5097  0.0914  1.5270
15081SOL     OW46683   5.241   4.824   0.965 -0.0093 -0.3132 -0.1188
15081SOL    HW146684   5.301   4.777   1.022 -0.7252 -0.9477  0.1372
15081SOL    HW246685   5.202   4.891   1.021  0.2220 -0.1168 -0.1955
15082SOL     OW46686   5.559   6.990   4.331  0.1731 -0.0708  0.1412
15082SOL    HW146687   5.530   7.001   4.240  2.4376  0.4997 -0.5908
15082SOL    HW246688   5.540   7.075   4.372  0.6355  0.2486 -0.2841
15083SOL     OW46689   5.637   5.117   1.968  0.4967  0.7214  0.4383
15083SOL    HW146690   5.626   5.124   2.063 -3.7214  1.1074  0.0953
15083SOL    HW246691   5.672   5.028   1.955 -0.8137 -0.1440  2.3052
15084SOL     OW46692   2.596   5.368   3.145  0.0449  0.0645  0.6157
15084SOL    HW146693   2.668   5.430   3.144  0.2217 -0.1481 -0.2879
15084SOL    HW246694   2.637   5.283   3.131 -0.4266 -0.0035 -0.4006
15085SOL     OW46695   6.409   4.983   0.347  0.2693 -0.2221 -0.8035
15085SOL    HW146696   6.405   4.887   0.343 -0.1636 -0.1804 -1.5524
15085SOL    HW246697   6.500   5.002   0.370  0.0975 -0.8308  0.4991
15086SOL     OW46698   4.020   4.472   3.723 -0.2918  0.4372  0.0212
15086SOL    HW146699   4.114   4.457   3.713  0.3128  1.9232  2.6283
15086SOL    HW246700   3.980   4.386   3.710  1.4902 -0.3285 -0.5568
15087SOL     OW46701   3.436   5.002   3.171  0.0477 -0.2141 -0.4787
15087SOL    HW146702   3.405   4.997   3.262 -0.1052  0.7409 -0.4752
15087SOL    HW246703   3.428   5.094   3.148  0.6823 -0.3491 -1.2618
15088SOL     OW46704   4.553   5.974   0.443  0.0122 -0.6648  0.1846
15088SOL    HW146705   4.493   5.904   0.417 -1.0318  0.3898 -0.3510
15088SOL    HW246706   4.554   5.970   0.539  0.1639 -1.5592  0.1499
15089SOL     OW46707   3.840   4.556   2.718 -0.5288 -0.3292  0.4663
15089SOL    HW146708   3.930   4.589   2.726 -0.2990 -0.7193 -0.3370
15089SOL    HW246709   3.847   4.463   2.737 -0.6410 -0.4878 -0.2318
15090SOL     OW46710   7.254   4.216   3.320  0.3547 -0.2265  0.5179
15090SOL    HW146711   7.298   4.226   3.404 -0.2032 -0.8086  0.8940
15090SOL    HW246712   7.163   4.198   3.343  0.1116  0.0418 -0.2221
15091SOL     OW46713   6.264   4.564   3.208 -0.0152 -0.3565 -0.0428
15091SOL    HW146714   6.316   4.498   3.161 -0.5911  0.0122 -1.2361
15091SOL    HW246715   6.229   4.517   3.284  1.5895 -0.7596  0.4885
15092SOL     OW46716   4.742   3.604   2.510 -0.1399 -0.5916 -0.2521
15092SOL    HW146717   4.725   3.683   2.460 -2.0327 -1.3503 -0.9003
15092SOL    HW246718   4.678   3.606   2.581  1.0456 -0.6382  0.8634
15093SOL     OW46719   2.688   5.338   2.116 -0.2396  0.0165  0.1357
15093SOL    HW146720   2.646   5.271   2.063  1.4399  0.2149 -1.5899
15093SOL    HW246721   2.736   5.289   2.183 -1.5542 -0.2980  0.8783
15094SOL     OW46722   4.969   5.180   2.870  0.2967  0.2863  0.2923
15094SOL    HW146723   4.892   5.141   2.911  0.9072 -0.7359  0.4914
15094SOL    HW246724   5.030   5.195   2.942  0.0082  1.8429  0.2603
15095SOL     OW46725   4.451   4.652   2.891  0.3328  0.4217 -0.3437
15095SOL    HW146726   4.408   4.691   2.967 -0.7309 -1.9603  0.3839
15095SOL    HW246727   4.476   4.726   2.837 -1.2752  2.0942  1.0590
15096SOL     OW46728   2.695   4.438   2.897  0.2933  0.0462  0.3710
15096SOL    HW146729   2.750   4.359   2.897 -0.5749 -0.5777  0.7934
15096SOL    HW246730   2.633   4.423   2.968 -1.9788 -0.3966 -1.5954
15097SOL     OW46731   1.595   4.019   2.672 -0.3565  0.0356  0.5132
15097SOL    HW146732   1.654   4.084   2.634  3.7945 -2.0955  2.6242
15097SOL    HW246733   1.536   3.996   2.600  0.8608  2.8265 -1.6092
15098SOL     OW46734   5.888   3.876   3.486 -0.4140  0.5857 -0.5789
15098SOL    HW146735   5.799   3.844   3.466  0.0679 -0.0395 -1.8550
15098SOL    HW246736   5.934   3.869   3.403  0.6749  1.4704 -0.0614
15099SOL     OW46737   3.299   4.234   2.791  0.0864 -0.0305 -0.9320
15099SOL    HW146738   3.372   4.295   2.804  0.4821 -1.0725  2.5443
15099SOL    HW246739   3.223   4.282   2.824 -0.0371 -0.5247 -0.5041
15100SOL     OW46740   6.224   5.132   0.731 -0.4907 -0.1564  0.0266
15100SOL    HW146741   6.307   5.091   0.707  0.0484 -0.0627  1.6204
15100SOL    HW246742   6.247   5.192   0.802 -1.8391  0.2870  0.1144
15101SOL     OW46743   3.830   4.000   2.497 -0.0651 -0.1760 -0.0243
15101SOL    HW146744   3.866   4.017   2.584  0.3890 -1.2271  0.0039
15101SOL    HW246745   3.749   4.050   2.494 -0.3278 -0.5113  1.1797
15102SOL     OW46746   3.822   6.246   1.473 -0.0480 -0.6046  0.6171
15102SOL    HW146747   3.735   6.208   1.486  1.0616 -3.0899  1.5154
15102SOL    HW246748   3.868   6.228   1.555  0.8513  2.1752  0.8046
15103SOL     OW46749   5.022   4.631   3.734  0.2328 -0.5463  0.1867
15103SOL    HW146750   4.997   4.695   3.668  0.8246  0.0078  0.4881
15103SOL    HW246751   5.117   4.642   3.744  0.3574 -1.5089  0.2002
15104SOL     OW46752   3.895   5.451   3.281  0.5954 -0.2159  0.0782
15104SOL    HW146753   3.864   5.494   3.360  0.7151 -1.2030  0.6707
15104SOL    HW246754   3.888   5.358   3.299  1.6304 -0.4632 -0.6707
15105SOL     OW46755   5.009   4.576   3.181 -0.0887  0.2549 -0.4912
15105SOL    HW146756   5.040   4.489   3.206 -0.7347  0.2377  0.3056
15105SOL    HW246757   4.919   4.562   3.150 -0.6123  0.7615  0.7189
15106SOL     OW46758   7.069   3.726   2.502  0.3655 -0.3090 -0.2059
15106SOL    HW146759   7.018   3.806   2.491 -0.8094 -0.5305  2.8192
15106SOL    HW246760   7.061   3.681   2.418 -0.6356  1.7680 -1.2970
15107SOL     OW46761   3.457   3.350   1.117  0.2550  0.6667  0.0037
15107SOL    HW146762   3.421   3.406   1.186 -0.4676  2.4909 -1.7713
15107SOL    HW246763   3.466   3.407   1.041  1.1097 -1.2458 -1.4275
15108SOL     OW46764   6.722   6.114   2.322 -0.7895  0.7132  0.2854
15108SOL    HW146765   6.670   6.193   2.338 -2.4736 -0.1541 -0.6781
15108SOL    HW246766   6.683   6.048   2.379 -1.4901 -0.2335 -1.2327
15109SOL     OW46767   5.223   4.864   3.643 -0.1383 -0.2533  0.1967
15109SOL    HW146768   5.295   4.920   3.614  1.3325 -2.1542 -0.1141
15109SOL    HW246769   5.259   4.775   3.635 -2.8089 -1.3456 -0.7655
15110SOL     OW46770   6.029   5.379   1.513  0.4240  0.9115 -0.5673
15110SOL    HW146771   6.040   5.428   1.595 -0.0676  0.0513  0.0291
15110SOL    HW246772   5.959   5.425   1.467  0.6316  1.3390 -0.4714
15111SOL     OW46773   4.692   5.645   2.790 -0.5424 -0.2569 -0.2860
15111SOL    HW146774   4.638   5.715   2.827 -0.8345 -0.3174 -0.5856
15111SOL    HW246775   4.763   5.690   2.745 -1.5291 -0.0788 -1.7272
15112SOL     OW46776   4.046   5.147   2.751  0.0859  0.8838 -0.1765
15112SOL    HW146777   4.091   5.128   2.668 -0.5241  0.7334 -0.4812
15112SOL    HW246778   3.986   5.218   2.729  0.1740  1.0872  0.2288
15113SOL     OW46779   3.819   5.060   2.559 -0.5771 -0.2383 -0.3196
15113SOL    HW146780   3.769   5.109   2.625 -1.2754 -1.7752  0.3265
15113SOL    HW246781   3.830   4.973   2.597  1.7545 -0.2632 -0.8768
15114SOL     OW46782   5.847   5.363   2.233  0.2321  0.0881  0.3626
15114SOL    HW146783   5.789   5.298   2.273 -0.9650  1.8422  1.5907
15114SOL    HW246784   5.788   5.431   2.200  1.5404  1.8131  1.4178
15115SOL     OW46785   3.567   5.515   5.241  0.4201 -1.0163  0.3246
15115SOL    HW146786   3.622   5.498   5.317  0.5754 -1.6892  0.0681
15115SOL    HW246787   3.548   5.428   5.205 -0.8136 -0.7978  0.4121
15116SOL     OW46788   2.423   4.439   2.478 -0.2315  0.4679  0.7895
15116SOL    HW146789   2.328   4.435   2.468 -0.0344 -0.6744 -1.0205
15116SOL    HW246790   2.442   4.532   2.493 -1.5490  0.8442  0.2105
15117SOL     OW46791   3.507   4.575   3.800  0.3213 -0.5654 -0.0149
15117SOL    HW146792   3.464   4.594   3.884 -0.7596 -0.0693 -0.6608
15117SOL    HW246793   3.563   4.500   3.818  0.5457 -0.1125  1.2877
15118SOL     OW46794   4.619   4.105   2.176  0.0406 -0.4626 -0.2635
15118SOL    HW146795   4.693   4.128   2.118 -0.7288  0.7277 -0.8046
15118SOL    HW246796   4.635   4.156   2.256 -0.4731  0.2456 -0.5991
15119SOL     OW46797   3.849   4.709   2.332  0.0643 -0.5176 -0.3127
15119SOL    HW146798   3.773   4.676   2.283 -0.8331  0.4987  0.3452
15119SOL    HW246799   3.839   4.805   2.329  1.3749 -0.3693 -0.2809
15120SOL     OW46800   5.893   5.290   2.934  0.9175 -0.0277 -0.1119
15120SOL    HW146801   5.835   5.356   2.896  0.3424 -0.9552 -0.8830
15120SOL    HW246802   5.839   5.243   2.996  1.3070  0.1633  0.3818
15121SOL     OW46803   3.305   4.926   3.432 -1.0977 -0.3661  0.5473
15121SOL    HW146804   3.363   4.901   3.505 -1.6826  1.4987  1.7298
15121SOL    HW246805   3.247   4.851   3.421 -0.0477 -1.2724  1.0134
15122SOL     OW46806   5.137   3.218   2.686  0.3174  0.5690 -0.2025
15122SOL    HW146807   5.145   3.243   2.594 -1.9423  1.3108 -0.2515
15122SOL    HW246808   5.109   3.127   2.684  0.9927  0.3583 -0.2187
15123SOL     OW46809   4.582   4.526   2.685  0.5427  0.0901  0.1504
15123SOL    HW146810   4.554   4.552   2.773 -1.4152 -0.6464 -0.1984
15123SOL    HW246811   4.677   4.520   2.691  0.4562 -0.0375  2.2491
15124SOL     OW46812   5.352   6.102   5.022  0.1332 -0.1400 -0.4813
15124SOL    HW146813   5.307   6.185   5.037 -0.3643 -0.1344 -1.8915
15124SOL    HW246814   5.445   6.125   5.025  0.0533  0.1156  0.9523
15125SOL     OW46815   5.725   4.302   1.728 -0.0463  0.1600  0.1274
15125SOL    HW146816   5.787   4.272   1.795  0.7393  2.4238  0.5040
15125SOL    HW246817   5.647   4.327   1.777 -1.0515 -1.9522 -0.2744
15126SOL     OW46818   4.564   4.364   1.614  0.3520 -0.0444  0.0032
15126SOL    HW146819   4.576   4.459   1.623  3.2243 -0.3694  0.6598
15126SOL    HW246820   4.485   4.355   1.562 -0.5604  2.6854  0.7395
15127SOL     OW46821   4.145   3.783   1.801 -0.3671 -0.3077 -0.1241
15127SOL    HW146822   4.122   3.831   1.722  0.4514  0.2909 -0.0232
15127SOL    HW246823   4.189   3.704   1.770 -1.1057 -0.6617 -0.2801
15128SOL     OW46824   3.744   4.000   1.434  0.4537 -0.1354  0.0684
15128SOL    HW146825   3.678   3.937   1.405 -0.3257  0.5477  0.3100
15128SOL    HW246826   3.763   3.975   1.525  2.0924 -1.6073 -0.6299
15129SOL     OW46827   3.640   3.894   2.003 -0.3138  0.4588  0.2010
15129SOL    HW146828   3.707   3.834   1.970  0.0027  1.6789 -1.4584
15129SOL    HW246829   3.584   3.912   1.928 -0.8174  1.6906  0.8472
15130SOL     OW46830   4.084   4.297   3.464 -0.4772  0.4700  0.0011
15130SOL    HW146831   4.015   4.275   3.527 -0.6503  0.3302 -0.2356
15130SOL    HW246832   4.166   4.280   3.511 -0.5989 -0.8800 -0.2355
15131SOL     OW46833   4.012   3.948   4.642  0.4111  0.4076 -0.7286
15131SOL    HW146834   4.089   3.999   4.665  0.2714 -0.3527  1.5966
15131SOL    HW246835   3.942   3.984   4.696 -0.2681 -0.6198 -0.8966
15132SOL     OW46836   3.059   3.218   4.138  0.7169  0.7212 -0.3429
15132SOL    HW146837   3.085   3.291   4.082  0.7569  0.9918  0.0322
15132SOL    HW246838   3.001   3.256   4.204  1.2531  0.5400  0.2462
15133SOL     OW46839   5.270   6.604   6.655  0.1996 -0.2498  0.5647
15133SOL    HW146840   5.181   6.638   6.643  1.0342  1.0618 -4.0174
15133SOL    HW246841   5.322   6.680   6.677  0.5367 -0.5689  0.8704
15134SOL     OW46842   6.424   5.008   4.106 -0.1183 -0.1440 -0.1196
15134SOL    HW146843   6.402   4.938   4.044  1.5447 -1.0936  0.3021
15134SOL    HW246844   6.418   4.967   4.192 -0.8491  0.7310  0.2573
15135SOL     OW46845   5.194   4.248   4.495 -0.3442 -0.1518  0.0336
15135SOL    HW146846   5.142   4.181   4.540  2.0159 -1.9635  0.2881
15135SOL    HW246847   5.237   4.296   4.566  0.3198 -0.4040 -0.1915
15136SOL     OW46848   6.183   3.794   3.002  0.1110 -0.0552  0.1800
15136SOL    HW146849   6.257   3.754   3.048  1.0388  1.7411  0.3478
15136SOL    HW246850   6.214   3.881   2.978 -1.8639  0.6507 -0.0007
15137SOL     OW46851   5.213   6.840   5.854  0.0606  0.1728 -0.8193
15137SOL    HW146852   5.238   6.850   5.762  0.6516 -1.0203 -0.8007
15137SOL    HW246853   5.143   6.904   5.866  0.7232  1.1189 -1.7969
15138SOL     OW46854   3.582   5.025   5.309  0.2421  0.0267  0.0336
15138SOL    HW146855   3.590   4.942   5.356  0.9421 -0.5699 -1.0871
15138SOL    HW246856   3.507   5.013   5.251  0.0334  0.3680  0.2302
15139SOL     OW46857   4.847   5.351   4.976  0.3109 -0.5205  0.2923
15139SOL    HW146858   4.941   5.337   4.968  0.6756  0.4220  2.1848
15139SOL    HW246859   4.835   5.377   5.068 -2.0389 -2.4954  0.6302
15140SOL     OW46860   4.379   4.177   5.099  0.7014  0.8661  0.2081
15140SOL    HW146861   4.336   4.261   5.080  1.4265  1.1080 -0.3952
15140SOL    HW246862   4.468   4.201   5.124  0.2847  0.4356  2.2708
15141SOL     OW46863   6.682   3.123   3.575 -0.2936  0.1652 -0.3385
15141SOL    HW146864   6.719   3.139   3.662  0.0780 -0.5864 -0.3521
15141SOL    HW246865   6.675   3.028   3.569 -2.9329  0.2652 -0.0535
15142SOL     OW46866   3.762   6.934   5.146  0.6405  0.3490  0.5055
15142SOL    HW146867   3.709   6.855   5.140  0.4973  0.5575 -1.6799
15142SOL    HW246868   3.706   6.997   5.191 -0.4805  0.1666 -0.5913
15143SOL     OW46869   4.783   3.654   5.098 -0.4135  0.4411  0.5562
15143SOL    HW146870   4.732   3.670   5.178  2.4331  1.7425  2.2742
15143SOL    HW246871   4.791   3.740   5.057  1.0601  0.4589  0.8197
15144SOL     OW46872   6.000   5.394   5.425  0.5456  0.7149  0.5712
15144SOL    HW146873   6.068   5.345   5.470  1.3380  1.2201 -0.0366
15144SOL    HW246874   6.028   5.394   5.333  0.1224  1.5706  0.4325
15145SOL     OW46875   5.268   4.493   5.244 -0.6014  0.2714  0.1907
15145SOL    HW146876   5.268   4.498   5.340 -0.7509  3.7157  0.1191
15145SOL    HW246877   5.179   4.519   5.219  0.0218  1.4381 -0.8983
15146SOL     OW46878   2.648   4.212   4.605  0.1483 -0.0271  0.1652
15146SOL    HW146879   2.713   4.143   4.619  0.6999  0.0853 -1.5806
15146SOL    HW246880   2.700   4.290   4.587 -0.4728  0.3724  0.0799
15147SOL     OW46881   6.085   6.253   3.848 -0.2746  0.3821 -0.1267
15147SOL    HW146882   6.005   6.201   3.844 -0.6212  0.9525 -0.6933
15147SOL    HW246883   6.107   6.272   3.757  1.1915 -0.7798 -0.0625
15148SOL     OW46884   3.293   6.560   3.109 -0.4913  1.4795 -0.0895
15148SOL    HW146885   3.210   6.517   3.130  0.3184 -2.0142 -3.0323
15148SOL    HW246886   3.282   6.592   3.019  0.9041  2.2148 -0.0280
15149SOL     OW46887   2.980   4.920   5.024 -0.3174  0.2302  0.1571
15149SOL    HW146888   3.070   4.953   5.019  0.3745 -1.7074 -3.3238
15149SOL    HW246889   2.973   4.883   5.113  2.3940  0.2212  0.4558
15150SOL     OW46890   6.006   4.717   2.909 -0.2230 -0.5179 -0.4406
15150SOL    HW146891   6.078   4.780   2.906 -1.0649  0.4407 -2.3125
15150SOL    HW246892   6.048   4.633   2.930  1.0528  0.4679  1.1401
15151SOL     OW46893   4.333   6.053   4.921  0.0565 -0.1786 -0.5240
15151SOL    HW146894   4.359   6.106   4.996  0.9622  0.3922 -1.2090
15151SOL    HW246895   4.238   6.055   4.921  0.0569  0.1068  0.3938
15152SOL     OW46896   4.633   4.710   6.118 -0.0180  0.3395 -0.1779
15152SOL    HW146897   4.649   4.618   6.095  1.9528  0.5709  0.0969
15152SOL    HW246898   4.638   4.712   6.213 -2.7776  0.3028  0.0185
15153SOL     OW46899   3.540   6.004   5.096  0.2324  0.0982  0.2540
15153SOL    HW146900   3.474   6.058   5.138 -0.0300 -0.1155  0.1207
15153SOL    HW246901   3.565   5.939   5.162  1.1271  0.8608  0.6899
15154SOL     OW46902   6.173   5.531   6.947  0.3171 -0.1456  0.0869
15154SOL    HW146903   6.136   5.453   6.905  1.1621 -0.1437 -0.7119
15154SOL    HW246904   6.242   5.497   7.004  1.4973  0.0455 -1.1522
15155SOL     OW46905   4.003   4.160   5.760 -0.7025  0.7323 -0.3133
15155SOL    HW146906   3.908   4.152   5.751 -0.8826  1.9082  0.3100
15155SOL    HW246907   4.024   4.108   5.837 -0.5928 -0.8620 -1.3819
15156SOL     OW46908   4.863   5.225   4.093  0.1758 -0.1605 -0.0887
15156SOL    HW146909   4.845   5.209   4.186  0.8251 -0.0844  0.0574
15156SOL    HW246910   4.781   5.258   4.058 -0.7327 -2.1991 -0.0286
15157SOL     OW46911   6.022   4.742   3.791  0.2446 -0.1874 -0.2970
15157SOL    HW146912   6.016   4.692   3.872  1.6721  0.3654  0.1718
15157SOL    HW246913   6.062   4.683   3.727  1.2773  0.1074  0.0617
15158SOL     OW46914   5.749   4.572   3.741 -0.6138  0.4377 -0.2198
15158SOL    HW146915   5.838   4.606   3.732  0.8690 -2.1443  2.8723
15158SOL    HW246916   5.709   4.627   3.809 -1.1008  1.0431 -0.9847
15159SOL     OW46917   5.704   2.848   4.977  0.1805  0.7647 -0.9274
15159SOL    HW146918   5.651   2.801   4.914  0.3971  0.6940 -1.0559
15159SOL    HW246919   5.738   2.781   5.036  1.3784  0.6164 -1.7505
15160SOL     OW46920   5.192   4.027   5.877 -0.3586  0.4960  0.0265
15160SOL    HW146921   5.154   4.046   5.963 -0.3710 -1.0200  0.3877
15160SOL    HW246922   5.124   3.978   5.831 -0.9674  2.6654 -1.4895
15161SOL     OW46923   4.995   4.302   3.826 -0.1387 -0.1184 -0.2802
15161SOL    HW146924   4.985   4.397   3.819 -0.4889 -0.2276 -1.3677
15161SOL    HW246925   4.933   4.277   3.894  0.9768  0.5857  1.0550
15162SOL     OW46926   5.470   5.520   6.194 -0.6648 -0.6738 -0.2087
15162SOL    HW146927   5.454   5.547   6.284 -1.5396 -0.8020 -0.3193
15162SOL    HW246928   5.466   5.425   6.196  1.7819 -0.8263  0.0595
15163SOL     OW46929   6.150   5.540   2.765  0.5199 -0.0426  0.0580
15163SOL    HW146930   6.119   5.538   2.856  0.2917  2.4022  0.0980
15163SOL    HW246931   6.105   5.614   2.726  0.7796 -0.9144 -2.0358
15164SOL     OW46932   5.091   4.834   4.187  0.4795 -0.1631  0.2272
15164SOL    HW146933   5.133   4.897   4.245 -1.3273  0.7372  0.6139
15164SOL    HW246934   5.122   4.748   4.218  1.9283  0.4318  0.5248
15165SOL     OW46935   2.834   6.094   5.214 -0.3922 -0.1260 -0.0718
15165SOL    HW146936   2.856   6.122   5.303  3.4676  0.0141 -0.8636
15165SOL    HW246937   2.919   6.075   5.174 -1.9950 -0.5739 -3.6337
15166SOL     OW46938   3.419   6.721   5.243 -0.2642  0.4286  0.1651
15166SOL    HW146939   3.348   6.759   5.295 -1.3125 -0.4840 -0.5358
15166SOL    HW246940   3.441   6.639   5.288  0.4090  0.7491  0.4256
15167SOL     OW46941   5.021   6.413   4.765 -0.1367  0.0888  0.2099
15167SOL    HW146942   5.017   6.486   4.703 -0.7291 -0.1309 -0.0197
15167SOL    HW246943   4.982   6.449   4.845 -0.6893 -0.0573  0.0095
15168SOL     OW46944   6.525   4.513   4.588  0.1551 -0.3099  0.3880
15168SOL    HW146945   6.464   4.450   4.550  0.1180 -0.5220  0.7949
15168SOL    HW246946   6.573   4.463   4.654 -1.0644  0.4642  1.9466
15169SOL     OW46947   3.713   4.291   3.970 -0.1104 -0.2328 -0.2815
15169SOL    HW146948   3.690   4.321   4.057  0.6978 -0.5086  0.0405
15169SOL    HW246949   3.808   4.301   3.965 -0.0728 -0.7701 -0.9110
15170SOL     OW46950   4.307   5.163   4.407  0.1464 -0.5990  0.4660
15170SOL    HW146951   4.225   5.122   4.434 -1.4937  1.7416 -0.5832
15170SOL    HW246952   4.293   5.257   4.423  2.9806 -0.1774  1.0687
15171SOL     OW46953   4.521   5.736   4.763 -0.2761 -0.0707 -0.1305
15171SOL    HW146954   4.595   5.725   4.823  0.0151 -0.3790 -0.5404
15171SOL    HW246955   4.482   5.649   4.757 -0.6720  0.0874  0.0725
15172SOL     OW46956   3.632   3.623   5.056 -0.3011 -0.1118  0.9555
15172SOL    HW146957   3.578   3.556   5.097 -0.2055 -1.2710 -0.6759
15172SOL    HW246958   3.683   3.575   4.991  0.2571  1.4613  0.1826
15173SOL     OW46959   4.197   5.495   4.194 -0.9638 -0.8449 -0.1065
15173SOL    HW146960   4.241   5.579   4.210 -1.2837 -0.3323 -1.7167
15173SOL    HW246961   4.267   5.430   4.194 -0.7341 -0.6206  1.3541
15174SOL     OW46962   2.743   4.677   2.492 -0.0736  0.7180 -0.6428
15174SOL    HW146963   2.776   4.632   2.570 -2.3007 -1.0102 -0.6009
15174SOL    HW246964   2.772   4.622   2.419  1.6458  2.1082 -1.0699
15175SOL     OW46965   4.764   3.196   3.952 -0.0132 -0.2342  0.7143
15175SOL    HW146966   4.829   3.158   3.893 -0.1669  0.5205  0.0339
15175SOL    HW246967   4.791   3.168   4.039  0.6524 -0.7506  0.3502
15176SOL     OW46968   4.705   6.518   6.314  0.8151  0.0306 -0.8046
15176SOL    HW146969   4.694   6.471   6.396 -1.5737 -0.0167 -1.0779
15176SOL    HW246970   4.722   6.608   6.340 -3.2613  0.7839 -0.0488
15177SOL     OW46971   3.258   5.638   4.267  0.3170  0.6631  0.5049
15177SOL    HW146972   3.176   5.686   4.277  0.1877  0.2926  1.2935
15177SOL    HW246973   3.268   5.627   4.173  0.2868  2.1166  0.3010
15178SOL     OW46974   6.955   5.442   5.607  0.1151 -0.4263  0.4717
15178SOL    HW146975   6.888   5.509   5.590 -1.2261 -1.7976  0.1274
15178SOL    HW246976   7.038   5.487   5.589 -0.8137  0.6208 -1.6836
15179SOL     OW46977   4.584   4.102   5.678 -0.1527  0.1637  0.1508
15179SOL    HW146978   4.631   4.103   5.761  1.0496 -0.7521 -0.4862
15179SOL    HW246979   4.500   4.142   5.698  0.2358  0.2736  1.7268
15180SOL     OW46980   6.929   5.023   2.885  0.0028 -0.1056  0.5794
15180SOL    HW146981   6.926   5.111   2.923 -1.7021 -0.2927  0.9470
15180SOL    HW246982   7.022   5.009   2.864  0.4833  1.2976  1.6194
15181SOL     OW46983   5.776   4.621   4.583  0.1552 -0.3562  0.3920
15181SOL    HW146984   5.797   4.528   4.568 -1.1668 -0.3141 -2.3594
15181SOL    HW246985   5.827   4.644   4.661  1.8799 -2.9320  0.1825
15182SOL     OW46986   4.545   5.487   5.147  0.5828 -0.2950 -0.5151
15182SOL    HW146987   4.456   5.486   5.111  0.5653 -1.1158 -0.4702
15182SOL    HW246988   4.576   5.398   5.134  1.4161 -0.0004 -0.5592
15183SOL     OW46989   5.133   4.558   4.011  0.0546 -0.2497  0.3815
15183SOL    HW146990   5.204   4.586   4.069  1.6354 -1.2524 -0.9874
15183SOL    HW246991   5.099   4.478   4.052 -1.2253  0.9114  1.7196
15184SOL     OW46992   5.174   3.994   3.559  0.0714  0.2046  0.2174
15184SOL    HW146993   5.193   3.990   3.465  0.9850 -2.2318  0.4111
15184SOL    HW246994   5.079   3.986   3.565  0.0770 -0.5442 -0.5003
15185SOL     OW46995   4.470   6.425   4.463 -0.0239 -0.4529  0.5826
15185SOL    HW146996   4.408   6.384   4.524 -1.9660 -0.3755 -1.2380
15185SOL    HW246997   4.432   6.511   4.445  1.7145  0.4266  0.9625
15186SOL     OW46998   3.910   4.008   2.752  0.0758 -0.3322  0.3919
15186SOL    HW146999   4.001   4.007   2.781 -0.1679  0.0186  1.2063
15186SOL    HW247000   3.862   3.958   2.818 -0.6983  1.6128  1.3901
15187SOL     OW47001   5.849   4.260   4.059  0.2160 -0.3006  0.7109
15187SOL    HW147002   5.877   4.201   3.989  1.0154  0.4538  0.3865
15187SOL    HW247003   5.857   4.208   4.139 -1.0845 -1.3042  0.2349
15188SOL     OW47004   7.712   5.282   4.134 -0.5436 -0.6158 -0.4394
15188SOL    HW147005   7.669   5.199   4.155 -1.4141  0.3382  1.9428
15188SOL    HW247006   7.642   5.337   4.099 -0.5557 -0.1105  0.3498
15189SOL     OW47007   5.610   3.832   3.494 -0.0536  0.2133 -0.4960
15189SOL    HW147008   5.546   3.779   3.541 -1.1552  0.1065 -2.0334
15189SOL    HW247009   5.568   3.917   3.483  0.4970  0.4743 -0.6490
15190SOL     OW47010   6.384   4.584   2.388 -0.5495 -0.5643 -0.9129
15190SOL    HW147011   6.314   4.550   2.443 -0.7089  1.2099  0.0323
15190SOL    HW247012   6.340   4.620   2.312 -0.5647 -0.4101 -0.8303
15191SOL     OW47013   5.710   4.204   5.495 -0.1774  0.6372 -0.4047
15191SOL    HW147014   5.614   4.211   5.496 -0.1727  1.0639  1.5399
15191SOL    HW247015   5.734   4.212   5.403 -2.0956 -0.9809 -1.0994
15192SOL     OW47016   4.678   4.803   4.758 -0.2925  0.1232  0.2876
15192SOL    HW147017   4.640   4.758   4.834  2.6196 -1.7304  0.8177
15192SOL    HW247018   4.677   4.895   4.781 -1.4323 -0.1957  1.6407
15193SOL     OW47019   5.424   5.600   5.522  0.1353 -0.0527 -0.7058
15193SOL    HW147020   5.452   5.523   5.472  1.1138  0.2068 -0.5936
15193SOL    HW247021   5.329   5.601   5.515  0.1779 -0.7272 -1.5150
15194SOL     OW47022   4.642   4.820   4.201  0.2976 -0.5758  0.5358
15194SOL    HW147023   4.610   4.778   4.121 -0.3618  1.4292 -0.3094
15194SOL    HW247024   4.564   4.830   4.256  0.7846 -2.1526  1.5924
15195SOL     OW47025   6.083   2.818   5.634  0.3649 -0.6875  0.0547
15195SOL    HW147026   6.030   2.760   5.688  1.4627 -1.5516  0.2538
15195SOL    HW247027   6.149   2.853   5.694 -1.3031  2.1976  0.3561
15196SOL     OW47028   4.510   3.763   4.985 -0.1196  0.5412 -0.4582
15196SOL    HW147029   4.469   3.756   4.899 -0.6301  1.4992 -0.3087
15196SOL    HW247030   4.594   3.806   4.968 -0.1704  0.6264 -0.4950
15197SOL     OW47031   4.176   4.985   4.968 -0.1621  0.1412 -0.9439
15197SOL    HW147032   4.162   4.890   4.960  0.5575 -0.2032  1.1938
15197SOL    HW247033   4.090   5.023   4.955 -0.6139 -0.8714 -1.0557
15198SOL     OW47034   6.450   4.796   3.893 -0.0267 -0.1027  0.7450
15198SOL    HW147035   6.367   4.773   3.934 -1.8205 -0.1051 -2.5539
15198SOL    HW247036   6.495   4.713   3.880 -0.8051 -0.4345  0.0833
15199SOL     OW47037   4.805   4.370   4.306  0.1226  0.0468 -0.0989
15199SOL    HW147038   4.847   4.392   4.389 -0.7331  0.0505  0.3370
15199SOL    HW247039   4.781   4.277   4.315 -0.1948  0.1138 -0.2410
15200SOL     OW47040   5.169   5.050   4.861  0.0010 -0.4472  0.6317
15200SOL    HW147041   5.236   5.049   4.930 -0.7591  1.2735  1.4372
15200SOL    HW247042   5.086   5.049   4.908 -0.5327  0.1221 -0.2736
15201SOL     OW47043   6.174   4.626   4.741  0.7052  0.3221  0.1518
15201SOL    HW147044   6.149   4.591   4.655 -0.5440  1.6306 -0.0601
15201SOL    HW247045   6.104   4.596   4.799  2.0938 -1.4760  1.0047
15202SOL     OW47046   4.983   2.920   4.852  0.3640 -0.0211 -0.0532
15202SOL    HW147047   4.953   2.921   4.943 -0.7010 -2.1698 -0.3142
15202SOL    HW247048   4.951   3.002   4.816 -2.5604 -0.7556  0.5736
15203SOL     OW47049   4.768   3.727   5.574  0.2983 -0.3934 -0.2667
15203SOL    HW147050   4.687   3.779   5.572  1.0690  0.8244 -1.1440
15203SOL    HW247051   4.780   3.704   5.667 -1.1032 -0.7095 -0.1419
15204SOL     OW47052   4.315   3.938   5.506 -0.1679 -0.3258  0.2375
15204SOL    HW147053   4.410   3.930   5.499 -0.1675 -1.3219  1.1575
15204SOL    HW247054   4.295   3.906   5.594 -1.3400  0.0568  0.1219
15205SOL     OW47055   6.160   3.503   3.534  0.2432  0.5078 -0.1015
15205SOL    HW147056   6.245   3.544   3.549  0.5826  0.2799 -1.2604
15205SOL    HW247057   6.113   3.512   3.617  1.8363 -0.4408  0.9597
15206SOL     OW47058   5.075   5.189   5.296  0.0196  0.0243  0.4564
15206SOL    HW147059   5.031   5.107   5.318 -0.5320  0.3122  0.4427
15206SOL    HW247060   5.134   5.205   5.370  2.6431 -2.0745 -1.0055
15207SOL     OW47061   3.695   3.500   4.440 -0.0218  0.3804 -0.0935
15207SOL    HW147062   3.712   3.562   4.511 -1.9676  0.0087  0.7704
15207SOL    HW247063   3.750   3.424   4.459 -0.1931  0.4708  0.7629
15208SOL     OW47064   3.312   5.586   5.739  0.0855 -0.0346 -0.7056
15208SOL    HW147065   3.298   5.666   5.689 -2.9732 -0.3153 -0.4661
15208SOL    HW247066   3.345   5.523   5.675  0.9994  0.9446 -1.2298
15209SOL     OW47067   6.732   5.010   4.276  0.1409 -0.5333  0.6567
15209SOL    HW147068   6.819   5.045   4.255 -0.0722 -0.2656  0.2208
15209SOL    HW247069   6.726   4.929   4.226 -0.2514 -0.0442 -0.1045
15210SOL     OW47070   6.028   4.863   7.359  0.4374  0.0143  0.1205
15210SOL    HW147071   6.103   4.853   7.300  0.2771  2.4827 -0.6079
15210SOL    HW247072   5.969   4.921   7.313 -0.3736  0.8347  2.1105
15211SOL     OW47073   4.677   5.592   5.914  0.2007 -0.3673 -0.6165
15211SOL    HW147074   4.627   5.534   5.972 -0.3240  1.0037  0.3713
15211SOL    HW247075   4.760   5.606   5.960 -0.7259  1.7982  0.5979
15212SOL     OW47076   5.720   4.647   4.925 -0.7258  0.1023  0.0999
15212SOL    HW147077   5.719   4.742   4.937  0.3230  0.1411 -0.0171
15212SOL    HW247078   5.627   4.621   4.926 -0.9705  0.9340  1.5849
15213SOL     OW47079   5.185   3.457   4.397  0.8370  0.1618  0.0006
15213SOL    HW147080   5.239   3.390   4.439 -2.3373 -1.6282  1.5719
15213SOL    HW247081   5.205   3.538   4.445  0.5657 -0.9156  2.0303
15214SOL     OW47082   5.035   3.957   3.896 -0.1774 -0.4706  0.5587
15214SOL    HW147083   4.989   4.002   3.825 -1.3912  0.9942  2.1844
15214SOL    HW247084   4.966   3.931   3.956  0.9607  0.2523  2.2487
15215SOL     OW47085   5.638   5.605   4.282  0.2316  0.3188  0.4990
15215SOL    HW147086   5.657   5.603   4.188 -0.7028 -1.9202  0.3025
15215SOL    HW247087   5.718   5.575   4.324  0.4327  0.6751  0.3709
15216SOL     OW47088   4.075   3.709   5.030  0.1203  0.3735  0.4041
15216SOL    HW147089   4.004   3.755   5.074  1.0031 -0.2799  2.6206
15216SOL    HW247090   4.154   3.760   5.051  0.7004 -0.5230  0.4833
15217SOL     OW47091   4.171   3.470   5.415  0.1603  0.0310  0.5254
15217SOL    HW147092   4.125   3.553   5.405 -0.5692 -0.3988  0.2314
15217SOL    HW247093   4.105   3.403   5.399  0.7099 -0.6157  0.8658
15218SOL     OW47094   5.209   5.429   4.254  0.0002 -0.1155  0.1879
15218SOL    HW147095   5.241   5.362   4.315 -0.6084 -0.5690  0.0196
15218SOL    HW247096   5.277   5.496   4.255  2.0421 -1.9716 -1.7658
15219SOL     OW47097   4.356   5.207   2.753 -0.6618  0.0599  0.0569
15219SOL    HW147098   4.306   5.251   2.823 -0.1370 -1.5688  1.5190
15219SOL    HW247099   4.448   5.218   2.779 -0.5116 -1.8971  0.5231
15220SOL     OW47100   4.188   3.129   5.211  0.1236  0.3394 -0.4731
15220SOL    HW147101   4.120   3.172   5.263 -0.4463 -0.2024 -0.7615
15220SOL    HW247102   4.210   3.193   5.143  0.1813  0.6672 -0.1501
15221SOL     OW47103   5.234   4.057   5.290 -0.1602 -0.0471 -0.0051
15221SOL    HW147104   5.193   4.013   5.365  1.7383 -2.6154 -0.3581
15221SOL    HW247105   5.160   4.090   5.239 -1.7531 -2.5083  0.5358
15222SOL     OW47106   4.132   6.288   4.416 -0.1843  0.3244 -0.2659
15222SOL    HW147107   4.174   6.209   4.448  0.7606  0.7020 -0.5324
15222SOL    HW247108   4.125   6.344   4.493  0.1885  0.4211 -0.3004
15223SOL     OW47109   4.589   4.412   5.822 -0.1974  0.0413 -0.1083
15223SOL    HW147110   4.596   4.502   5.790  0.7168 -0.3552 -1.0788
15223SOL    HW247111   4.496   4.401   5.842 -0.5107  0.8747 -1.0223
15224SOL     OW47112   4.777   5.490   2.989 -0.0988 -0.1611 -0.0839
15224SOL    HW147113   4.749   5.546   2.916  0.9832 -0.6633 -0.9067
15224SOL    HW247114   4.722   5.412   2.982  1.5375 -1.2494 -1.8430
15225SOL     OW47115   7.234   3.829   3.187  0.3845  0.1495 -0.5930
15225SOL    HW147116   7.167   3.862   3.128 -0.2780  1.3747  0.8048
15225SOL    HW247117   7.316   3.867   3.154  0.0762  0.5301 -0.9287
15226SOL     OW47118   6.457   6.518   4.201 -0.6052 -0.0892  0.2113
15226SOL    HW147119   6.543   6.559   4.195 -0.2763 -0.8876 -1.1348
15226SOL    HW247120   6.423   6.543   4.287  1.5269 -0.8228  1.3337
15227SOL     OW47121   7.066   5.219   3.311 -0.2775 -0.2709  0.0860
15227SOL    HW147122   7.118   5.174   3.378 -1.2850 -0.8334  0.5167
15227SOL    HW247123   6.987   5.247   3.357 -1.6709 -1.9263 -1.1313
15228SOL     OW47124   4.533   5.498   2.583 -0.0604  0.1035  0.0011
15228SOL    HW147125   4.517   5.404   2.581  1.0178 -0.1095 -2.6002
15228SOL    HW247126   4.619   5.507   2.624  0.3648 -0.1736 -0.8092
15229SOL     OW47127   5.162   5.518   5.490 -0.0695  0.8139  0.0942
15229SOL    HW147128   5.067   5.517   5.505 -0.2292 -2.1843 -0.5546
15229SOL    HW247129   5.188   5.426   5.496  2.7247  1.5006 -0.3592
15230SOL     OW47130   5.529   3.689   4.676 -0.4026 -0.3777  0.0649
15230SOL    HW147131   5.514   3.776   4.712 -0.0159 -0.3430  0.1465
15230SOL    HW247132   5.451   3.670   4.625  0.2714  0.7666 -1.4430
15231SOL     OW47133   4.832   4.944   4.027 -0.0111 -0.1819  0.1438
15231SOL    HW147134   4.861   5.030   4.058 -2.7628  1.2087 -0.7935
15231SOL    HW247135   4.785   4.907   4.101  0.7621 -0.6863  0.3889
15232SOL     OW47136   5.170   4.968   6.153  0.1591 -0.3394 -0.0859
15232SOL    HW147137   5.075   4.961   6.162  0.1945 -0.7608  0.0170
15232SOL    HW247138   5.184   5.044   6.097 -0.2023  0.3014  0.6751
15233SOL     OW47139   5.631   5.140   6.046  0.2758 -0.2396 -0.0143
15233SOL    HW147140   5.608   5.150   5.954  0.9180  0.9685 -0.0605
15233SOL    HW247141   5.677   5.220   6.069  0.1011 -0.4982  1.3747
15234SOL     OW47142   4.090   5.106   3.513 -0.5768 -0.9041 -0.0563
15234SOL    HW147143   4.109   5.049   3.439 -1.5611 -2.7329  1.0417
15234SOL    HW247144   4.104   5.051   3.591 -2.3640  0.0548  1.0252
15235SOL     OW47145   5.061   6.618   5.590 -0.0443  0.4178 -0.0658
15235SOL    HW147146   5.075   6.635   5.497  0.2648  0.3682 -0.0311
15235SOL    HW247147   5.131   6.556   5.614 -0.3662  0.1182  0.1061
15236SOL     OW47148   5.788   3.913   2.883  0.1919 -0.1471  0.1723
15236SOL    HW147149   5.821   3.885   2.798 -0.3752 -0.6506  0.1101
15236SOL    HW247150   5.768   3.831   2.929  1.1332  0.0953  1.0526
15237SOL     OW47151   3.657   3.998   3.984 -0.1229 -0.9812 -0.1799
15237SOL    HW147152   3.695   4.085   4.000 -0.7981 -0.9250  1.2635
15237SOL    HW247153   3.709   3.939   4.040 -0.8169 -1.2153  0.2332
15238SOL     OW47154   5.118   5.112   3.097 -0.6383  0.0780  0.1479
15238SOL    HW147155   5.186   5.134   3.161 -0.8116  0.8425  0.0811
15238SOL    HW247156   5.115   5.016   3.098  2.5677 -0.2132 -2.0566
15239SOL     OW47157   5.689   5.465   2.716 -0.9603 -0.3048  0.0625
15239SOL    HW147158   5.614   5.481   2.659 -0.0652  1.0686 -0.7717
15239SOL    HW247159   5.707   5.549   2.757 -1.0561 -1.0777  1.7595
15240SOL     OW47160   5.027   4.179   5.166 -0.1613 -0.5365  0.1497
15240SOL    HW147161   4.986   4.118   5.105 -0.4785 -0.5265  0.3479
15240SOL    HW247162   4.957   4.241   5.189 -0.1915 -0.8366  0.9059
15241SOL     OW47163   6.420   4.850   4.337  0.0514 -0.0770 -0.1005
15241SOL    HW147164   6.472   4.770   4.328 -0.4782 -0.2719 -1.8287
15241SOL    HW247165   6.408   4.860   4.431  2.0760 -0.7552  0.3006
15242SOL     OW47166   5.072   4.901   3.865 -0.9118  0.1363 -0.2912
15242SOL    HW147167   5.144   4.883   3.804 -0.5141 -0.0767  0.2338
15242SOL    HW247168   5.094   4.986   3.903 -1.5865  0.6586 -1.0482
15243SOL     OW47169   7.637   5.944   4.088 -0.4603  0.1348  0.0094
15243SOL    HW147170   7.542   5.952   4.096 -0.4191  0.9950 -0.2750
15243SOL    HW247171   7.661   5.878   4.153 -1.3686 -0.8978 -0.6862
15244SOL     OW47172   4.326   3.900   5.139  0.0554 -0.5314 -0.1894
15244SOL    HW147173   4.337   3.995   5.135 -2.6434 -0.1630 -1.7492
15244SOL    HW247174   4.412   3.864   5.120  1.3500  1.5641  1.3187
15245SOL     OW47175   4.785   4.466   3.071 -0.1012  0.1452 -0.4403
15245SOL    HW147176   4.754   4.378   3.094 -0.5913  0.6543  0.9854
15245SOL    HW247177   4.705   4.514   3.051 -0.0465  0.7888  0.7729
15246SOL     OW47178   5.159   4.396   4.261  0.0595 -0.0496  0.2375
15246SOL    HW147179   5.161   4.328   4.193  1.9282 -0.0509  0.2341
15246SOL    HW247180   5.134   4.350   4.341 -1.4427 -0.1870 -0.2814
15247SOL     OW47181   5.082   5.178   3.634 -0.6013 -0.3127 -0.3347
15247SOL    HW147182   5.071   5.273   3.635  0.6485 -0.0760 -2.5572
15247SOL    HW247183   5.151   5.162   3.699 -0.9862  0.2513  0.2252
15248SOL     OW47184   3.219   5.821   5.639  0.4176  0.3268 -0.2453
15248SOL    HW147185   3.145   5.872   5.606 -1.0043 -1.0192  0.7114
15248SOL    HW247186   3.279   5.887   5.674 -2.0411  1.4322  2.3760
15249SOL     OW47187   4.419   4.586   5.451  0.5885 -0.3389  0.3015
15249SOL    HW147188   4.460   4.670   5.471  0.0823  0.2726 -1.0367
15249SOL    HW247189   4.377   4.559   5.533  1.9514 -0.0087  1.1339
15250SOL     OW47190   6.762   6.234   5.863  0.3994  0.3104  0.0651
15250SOL    HW147191   6.754   6.160   5.924 -0.5439 -0.6639 -1.1714
15250SOL    HW247192   6.801   6.304   5.915 -1.3779 -0.1038  2.1182
15251SOL     OW47193   2.901   5.338   7.305  0.0222  0.5871  0.1772
15251SOL    HW147194   2.830   5.378   7.254 -1.7607 -1.9071  0.5507
15251SOL    HW247195   2.918   5.255   7.262  2.2581  0.7898  0.5585
15252SOL     OW47196   6.079   3.110   5.471  0.3170 -0.6628  0.2607
15252SOL    HW147197   6.109   3.076   5.555  0.0540 -0.0867  0.5947
15252SOL    HW247198   6.008   3.170   5.493 -2.2148 -3.1626 -0.6001
15253SOL     OW47199   6.324   4.332   4.473 -0.1072  0.5125 -0.8928
15253SOL    HW147200   6.276   4.250   4.470 -0.0331  0.2811  1.8746
15253SOL    HW247201   6.264   4.394   4.512  0.3762  1.3957 -1.5043
15254SOL     OW47202   6.599   4.207   5.470  0.0397 -0.5161  0.3875
15254SOL    HW147203   6.630   4.124   5.433  2.0509  0.5298 -0.4021
15254SOL    HW247204   6.553   4.250   5.398 -1.2812 -1.0536  0.8879
15255SOL     OW47205   5.107   5.448   4.902  0.4463 -0.5813 -0.0765
15255SOL    HW147206   5.141   5.375   4.849  1.0118  0.3186 -0.9948
15255SOL    HW247207   5.120   5.525   4.846 -2.1738 -0.0495 -0.0588
15256SOL     OW47208   4.632   5.200   3.766 -0.3728 -0.0798  0.2403
15256SOL    HW147209   4.659   5.244   3.685 -0.8989  0.0498  0.1322
15256SOL    HW247210   4.537   5.190   3.757 -0.1965 -1.8467 -0.0440
15257SOL     OW47211   5.107   6.244   5.625 -0.2719 -0.2087 -0.4424
15257SOL    HW147212   5.017   6.211   5.633  0.4516 -1.9332  1.3888
15257SOL    HW247213   5.149   6.221   5.708  1.7024  1.1495 -0.9818
15258SOL     OW47214   4.438   4.788   4.540 -0.3328  0.6050 -0.0610
15258SOL    HW147215   4.462   4.729   4.612 -0.2712  0.1358 -0.4585
15258SOL    HW247216   4.418   4.729   4.467  0.6658  1.1127 -0.7571
15259SOL     OW47217   6.615   4.581   4.022 -0.1621 -0.4504  0.1527
15259SOL    HW147218   6.589   4.502   3.975 -0.1658 -0.3917  0.0568
15259SOL    HW247219   6.573   4.573   4.108 -0.7257 -0.2135 -0.1049
15260SOL     OW47220   5.028   4.977   5.899 -0.1691  0.4159  0.0261
15260SOL    HW147221   5.040   4.892   5.941  1.9727 -0.0597 -1.4224
15260SOL    HW247222   4.980   4.957   5.819  0.2358  0.5830 -0.2589
15261SOL     OW47223   6.076   4.624   1.961 -0.1378 -0.3399  0.0537
15261SOL    HW147224   5.985   4.597   1.950  0.2421 -1.0900 -1.5596
15261SOL    HW247225   6.100   4.665   1.878  0.8796  0.2199  0.5981
15262SOL     OW47226   3.712   6.251   3.316 -0.2976 -0.2808 -0.3901
15262SOL    HW147227   3.681   6.200   3.241 -0.5284 -0.3559 -0.2439
15262SOL    HW247228   3.662   6.332   3.313 -1.0070 -0.6795  0.2328
15263SOL     OW47229   5.234   3.748   5.647  0.4535  0.2191  0.3032
15263SOL    HW147230   5.160   3.761   5.705  0.9590  1.5989  0.6862
15263SOL    HW247231   5.224   3.816   5.580  0.0939 -1.0903 -1.0073
15264SOL     OW47232   5.753   3.734   3.911 -0.5021 -0.2130 -0.5036
15264SOL    HW147233   5.682   3.780   3.865 -0.0695  0.6789 -0.3110
15264SOL    HW247234   5.832   3.756   3.860 -0.4524 -1.9006 -1.2326
15265SOL     OW47235   4.854   3.117   3.646  0.6005  0.1149 -0.1521
15265SOL    HW147236   4.816   3.035   3.676  1.0028  0.8321  2.5774
15265SOL    HW247237   4.819   3.129   3.558 -1.1608 -1.9026  0.1900
15266SOL     OW47238   6.245   5.057   4.353 -0.2313  0.2993 -0.1044
15266SOL    HW147239   6.316   5.035   4.292  1.0251 -1.7745  1.9517
15266SOL    HW247240   6.287   5.113   4.418 -0.8466  0.1979  0.3799
15267SOL     OW47241   6.221   3.210   3.720  0.1496 -0.2094 -0.4456
15267SOL    HW147242   6.176   3.256   3.791 -1.8136  0.4572 -2.0323
15267SOL    HW247243   6.289   3.159   3.764  0.5679  1.9852  1.6686
15268SOL     OW47244   3.201   4.992   2.785 -0.0101 -0.3965 -0.5127
15268SOL    HW147245   3.113   5.002   2.749  0.2854  2.5521 -0.6608
15268SOL    HW247246   3.189   4.998   2.880  0.0008 -0.1518 -0.5257
15269SOL     OW47247   4.254   4.552   5.659 -0.1145  0.5065  0.0197
15269SOL    HW147248   4.177   4.496   5.655 -1.3196  2.0507  0.3727
15269SOL    HW247249   4.303   4.520   5.734 -1.3021  0.5394  0.8451
15270SOL     OW47250   3.639   3.525   7.065  0.1125  0.0148 -0.4859
15270SOL    HW147251   3.604   3.530   7.154  0.4318 -0.4439 -0.3281
15270SOL    HW247252   3.615   3.608   7.024  1.5391  1.0256  0.6191
15271SOL     OW47253   3.972   4.060   5.496 -0.1383 -0.1543 -0.0501
15271SOL    HW147254   3.902   4.123   5.479 -0.0911 -0.0086  0.3044
15271SOL    HW247255   4.014   4.091   5.576 -0.1795 -0.6909  0.1869
15272SOL     OW47256   5.368   4.380   5.937  0.2245  0.1366 -0.1406
15272SOL    HW147257   5.285   4.376   5.888 -0.5523 -0.5958  1.1763
15272SOL    HW247258   5.341   4.389   6.028  1.6446  1.8419  0.1551
15273SOL     OW47259   4.932   4.581   5.788 -0.0339  0.1048  0.5261
15273SOL    HW147260   4.877   4.659   5.777  1.0075  0.6112 -1.6462
15273SOL    HW247261   4.889   4.514   5.734  0.3158 -0.1325  0.5395
15274SOL     OW47262   3.951   4.881   6.303  0.1187 -0.1756 -0.2468
15274SOL    HW147263   3.929   4.934   6.226 -0.7591 -0.9895 -0.5843
15274SOL    HW247264   3.973   4.795   6.266 -1.5320 -0.9454  0.4533
15275SOL     OW47265   4.304   4.925   6.438 -0.3067 -0.1068  0.4074
15275SOL    HW147266   4.330   4.835   6.420 -0.0465 -0.2406  1.4049
15275SOL    HW247267   4.269   4.924   6.527 -0.5419  0.7267  0.3397
15276SOL     OW47268   5.622   5.415   6.755  0.3990 -0.9233  0.2877
15276SOL    HW147269   5.588   5.326   6.751  0.5049 -0.9092 -1.7613
15276SOL    HW247270   5.698   5.415   6.697  0.4440  0.4886  0.3117
15277SOL     OW47271   4.993   4.763   5.387 -0.6462 -0.2371  0.7253
15277SOL    HW147272   5.028   4.716   5.312 -0.8606 -2.0765  1.7350
15277SOL    HW247273   4.918   4.711   5.416 -1.1775  0.9709  1.6185
15278SOL     OW47274   5.205   6.220   6.442 -0.3953  0.2109 -0.3948
15278SOL    HW147275   5.289   6.210   6.397  1.1725  3.0844  1.5783
15278SOL    HW247276   5.194   6.139   6.492  0.4588 -0.7658 -1.7283
15279SOL     OW47277   5.478   6.146   7.729  0.0748 -0.1769  0.2916
15279SOL    HW147278   5.490   6.088   7.654 -1.3046 -0.5345  0.3299
15279SOL    HW247279   5.432   6.222   7.694 -1.6683 -0.8699  0.9486
15280SOL     OW47280   4.290   5.527   7.625  0.4006  0.1225  0.0798
15280SOL    HW147281   4.296   5.487   7.712  0.0487 -0.0957  0.0082
15280SOL    HW247282   4.205   5.498   7.592  0.0402  1.1122  0.1097
15281SOL     OW47283   3.684   4.123   6.921  0.2710  0.2976 -0.1686
15281SOL    HW147284   3.706   4.044   6.970 -2.0761 -1.1426 -1.2692
15281SOL    HW247285   3.760   4.137   6.864  0.9220 -0.9011  0.3574
15282SOL     OW47286   5.724   4.938   7.200  0.5325  0.0706 -0.3745
15282SOL    HW147287   5.763   4.866   7.151  0.6914  0.1899 -0.4245
15282SOL    HW247288   5.673   4.896   7.269  1.0531 -0.0823 -0.0772
15283SOL     OW47289   4.023   4.467   6.429  0.4827  0.4312  0.2400
15283SOL    HW147290   3.957   4.492   6.365  0.0147  0.1504  0.6019
15283SOL    HW247291   4.106   4.499   6.393  0.3385 -0.3890 -0.8784
15284SOL     OW47292   4.957   4.322   7.246  0.1240 -0.1620  0.1421
15284SOL    HW147293   5.015   4.353   7.315 -0.1895  0.4072  0.1555
15284SOL    HW247294   4.884   4.281   7.292  0.1397 -0.1871  0.1447
15285SOL     OW47295   3.790   4.654   6.654 -0.1764  0.1205  0.6362
15285SOL    HW147296   3.848   4.639   6.729  2.4832  0.3119 -1.2375
15285SOL    HW247297   3.838   4.716   6.599 -2.1878  0.2494 -1.0885
15286SOL     OW47298   7.473   4.708   7.089  0.1645 -0.2723  0.1475
15286SOL    HW147299   7.550   4.652   7.099 -0.3528 -1.7315 -2.7437
15286SOL    HW247300   7.400   4.647   7.082 -0.8338  0.9106 -0.1121
15287SOL     OW47301   4.233   7.782   3.853  0.5738  0.5698  0.4580
15287SOL    HW147302   4.243   7.695   3.814  1.3582  0.4019  1.0194
15287SOL    HW247303   4.156   7.774   3.910  0.0285  0.5373 -0.2701
15288SOL     OW47304   5.884   4.760   5.679 -0.3008  0.2482 -0.6270
15288SOL    HW147305   5.857   4.845   5.644 -1.7548  0.2756  0.4369
15288SOL    HW247306   5.803   4.723   5.715  0.8457 -0.2524  1.5977
15289SOL     OW47307   3.761   5.957   5.795 -0.2839 -0.2267 -0.4302
15289SOL    HW147308   3.785   5.945   5.703  0.6989  2.0520 -0.5337
15289SOL    HW247309   3.841   5.988   5.837 -1.0985  0.1768  0.8824
15290SOL     OW47310   4.182   4.217   6.412 -0.2884  0.0757 -0.3391
15290SOL    HW147311   4.122   4.164   6.463 -0.5277  0.2140 -0.4725
15290SOL    HW247312   4.131   4.295   6.388 -0.1620  0.0385 -0.7372
15291SOL     OW47313   3.935   4.165   6.781  0.2203 -0.3768  0.3115
15291SOL    HW147314   3.994   4.238   6.763 -2.1733  1.6523  0.0121
15291SOL    HW247315   3.934   4.115   6.699  1.8988 -0.8083  0.5189
15292SOL     OW47316   5.681   5.027   6.842 -0.7131  0.2584 -0.2746
15292SOL    HW147317   5.623   5.053   6.914  0.3763 -0.3290  0.8293
15292SOL    HW247318   5.628   5.042   6.763 -1.3897  2.4280  0.5096
15293SOL     OW47319   3.871   4.232   6.174  0.2594  0.9322  0.4571
15293SOL    HW147320   3.824   4.193   6.247  0.1203  0.5616  0.1689
15293SOL    HW247321   3.811   4.297   6.138 -0.3546 -0.0933 -0.4091
15294SOL     OW47322   5.459   4.613   4.933 -0.0002  0.6035  0.0163
15294SOL    HW147323   5.472   4.602   5.028  0.1211 -0.3203 -0.0914
15294SOL    HW247324   5.379   4.564   4.914  0.9641 -0.7990 -0.6317
15295SOL     OW47325   5.332   4.818   7.045  0.1279 -0.0139  0.5355
15295SOL    HW147326   5.267   4.748   7.051 -0.6567  0.7324  1.0626
15295SOL    HW247327   5.284   4.897   7.073  0.8858  0.7936 -0.3744
15296SOL     OW47328   4.260   3.477   7.596  0.3127 -0.5686  0.4207
15296SOL    HW147329   4.231   3.561   7.559  1.7760  0.1943  0.9216
15296SOL    HW247330   4.255   3.416   7.523 -0.3271  0.0507 -0.0759
15297SOL     OW47331   5.402   6.922   5.650  0.2074 -0.1739 -0.3584
15297SOL    HW147332   5.444   7.008   5.649 -0.5616  0.2141 -0.5720
15297SOL    HW247333   5.427   6.882   5.567 -1.0696  0.6930 -1.2129
15298SOL     OW47334   5.771   6.065   5.270  0.4858  0.3336  0.1790
15298SOL    HW147335   5.858   6.104   5.282  1.9444 -2.5861  0.0139
15298SOL    HW247336   5.762   6.004   5.343 -1.6748  0.8940  0.4416
15299SOL     OW47337   4.262   5.771   4.887 -0.3431  0.5552 -0.8574
15299SOL    HW147338   4.288   5.829   4.959 -0.2516 -1.8517  1.1479
15299SOL    HW247339   4.343   5.755   4.839 -0.1623  1.1869 -0.7798
15300SOL     OW47340   6.594   4.051   7.265  0.1943  0.4262 -0.2069
15300SOL    HW147341   6.607   4.029   7.173  0.9440 -0.1441  0.0264
15300SOL    HW247342   6.502   4.079   7.270  0.1530  0.4953 -1.1279
15301SOL     OW47343   7.383   4.105   7.064 -0.1597 -0.4004  0.1088
15301SOL    HW147344   7.428   4.170   7.010 -1.5752 -0.3158 -1.0511
15301SOL    HW247345   7.299   4.093   7.020 -0.5073 -1.9322  1.1371
15302SOL     OW47346   4.941   4.217   5.863  0.3055  0.2328 -0.5067
15302SOL    HW147347   4.930   4.129   5.828 -0.2315 -0.4838  1.3928
15302SOL    HW247348   4.936   4.207   5.958  0.6820  2.2490 -0.2253
15303SOL     OW47349   4.071   4.062   6.012 -0.3622 -0.1452 -0.1653
15303SOL    HW147350   4.096   3.986   6.064  1.4355  1.5603  1.6112
15303SOL    HW247351   4.031   4.122   6.074  0.6478  1.4161 -0.9583
15304SOL     OW47352   3.507   4.899   8.290  0.5388  0.3989  0.1007
15304SOL    HW147353   3.524   4.980   8.338  1.9086  0.2821 -0.1492
15304SOL    HW247354   3.580   4.891   8.229  0.0047 -0.6197 -0.4418
15305SOL     OW47355   5.553   4.357   4.914 -0.8332  0.1369  0.1408
15305SOL    HW147356   5.475   4.325   4.959 -0.1395 -1.7212  0.1205
15305SOL    HW247357   5.552   4.451   4.928 -2.4705  0.0135  1.0959
15306SOL     OW47358   5.834   4.231   6.333 -0.0568  0.2645 -0.1565
15306SOL    HW147359   5.890   4.283   6.275  0.8118 -0.5973 -0.1307
15306SOL    HW247360   5.747   4.236   6.294  0.4841 -0.1788 -1.4790
15307SOL     OW47361   5.213   4.496   4.623 -0.0254 -0.0779 -0.2084
15307SOL    HW147362   5.202   4.529   4.713 -1.4728  1.5496 -0.9253
15307SOL    HW247363   5.235   4.573   4.572 -1.8513 -0.4850 -1.6919
15308SOL     OW47364   4.263   4.499   6.265  0.2406  0.4254  0.0344
15308SOL    HW147365   4.308   4.417   6.242 -1.4386 -0.4810 -0.2548
15308SOL    HW247366   4.212   4.520   6.186 -0.4141  0.9733  0.5922
15309SOL     OW47367   3.065   4.815   7.178 -0.5420 -0.2730  0.9882
15309SOL    HW147368   3.078   4.739   7.121  0.4566  0.3839  0.3000
15309SOL    HW247369   3.153   4.853   7.187 -0.6281 -0.4845  3.1654
15310SOL     OW47370   6.120   4.456   5.757  0.0511  0.3797 -0.2264
15310SOL    HW147371   6.181   4.429   5.825  0.8426  1.3001 -0.5423
15310SOL    HW247372   6.043   4.402   5.771  0.2603  0.4233  1.2833
15311SOL     OW47373   5.905   4.224   7.976 -0.0370  0.1245 -0.3547
15311SOL    HW147374   5.936   4.313   7.962  2.0880 -0.6231 -0.7136
15311SOL    HW247375   5.811   4.234   7.994  0.4218  2.5299  1.1055
15312SOL     OW47376   4.195   5.134   6.312 -0.1181  0.3259 -0.0640
15312SOL    HW147377   4.220   5.051   6.351 -2.5047 -0.1805  0.5036
15312SOL    HW247378   4.179   5.114   6.220 -0.9248  0.0836  0.1227
15313SOL     OW47379   5.786   5.268   4.532 -0.3973  0.4422 -0.0873
15313SOL    HW147380   5.840   5.222   4.597 -1.3243 -0.1814  0.2564
15313SOL    HW247381   5.841   5.272   4.454  0.5009  0.6523  0.5429
15314SOL     OW47382   3.257   6.484   7.532 -0.5285  0.4256  0.6395
15314SOL    HW147383   3.269   6.579   7.533  1.0408  0.3366 -1.8589
15314SOL    HW247384   3.326   6.451   7.476 -3.4517 -1.7914 -2.0519
15315SOL     OW47385   3.410   4.154   6.470 -0.4623  0.9063 -0.0096
15315SOL    HW147386   3.336   4.113   6.516 -0.7926  1.3820 -0.1126
15315SOL    HW247387   3.483   4.144   6.531 -0.3437 -0.5387 -0.3630
15316SOL     OW47388   5.799   4.889   5.200 -0.1928 -0.1351 -0.2931
15316SOL    HW147389   5.788   4.923   5.111 -0.1582 -1.1954 -0.7084
15316SOL    HW247390   5.887   4.853   5.201  0.6911  1.8585  0.8686
15317SOL     OW47391   4.208   4.644   6.688  0.0540 -0.0591 -0.0271
15317SOL    HW147392   4.205   4.739   6.701  2.3080  0.0402  0.2446
15317SOL    HW247393   4.295   4.627   6.652  0.5788 -2.2017  1.9317
15318SOL     OW47394   3.232   6.499   7.028 -0.1401 -0.2357 -0.2032
15318SOL    HW147395   3.284   6.423   7.055 -1.3547 -0.2837  2.3302
15318SOL    HW247396   3.237   6.499   6.932  1.3065 -2.4799 -0.2002
15319SOL     OW47397   5.089   4.718   5.974  0.0507 -0.0335  0.3816
15319SOL    HW147398   5.081   4.682   6.062 -0.7451  0.0802  0.3624
15319SOL    HW247399   5.042   4.656   5.918  0.9199 -0.3361 -0.0372
15320SOL     OW47400   3.846   4.583   6.251  0.5566  0.8915  0.2212
15320SOL    HW147401   3.761   4.585   6.295  0.5548  2.9745  0.2512
15320SOL    HW247402   3.853   4.495   6.214 -2.7075  1.3433 -1.8903
15321SOL     OW47403   5.058   4.010   7.109 -0.3275  0.0911 -0.2528
15321SOL    HW147404   5.066   4.012   7.014  0.6281  0.0585 -0.1798
15321SOL    HW247405   5.135   4.057   7.141 -1.1062  0.8898  0.4904
15322SOL     OW47406   4.430   3.543   5.624  0.5963  0.0975 -0.1008
15322SOL    HW147407   4.470   3.456   5.628  0.7168 -0.0068 -2.5481
15322SOL    HW247408   4.364   3.537   5.556 -0.7945  1.4152  1.0521
15323SOL     OW47409   1.849   4.731   6.586 -0.3505  0.0044 -0.4131
15323SOL    HW147410   1.898   4.649   6.585 -1.4226 -0.6542 -0.7929
15323SOL    HW247411   1.806   4.733   6.672 -0.2193  0.2311 -0.3519
15324SOL     OW47412   5.000   4.301   6.969  0.2093 -0.3599 -0.0462
15324SOL    HW147413   4.997   4.287   7.064 -1.5073 -1.8490 -0.2672
15324SOL    HW247414   4.916   4.268   6.937  1.5107 -1.7928 -2.3047
15325SOL     OW47415   4.338   4.282   5.651 -0.1373  0.1102 -0.3333
15325SOL    HW147416   4.269   4.277   5.584 -0.4360 -0.5471  0.0092
15325SOL    HW247417   4.296   4.249   5.730  0.4843  0.0018 -0.0463
15326SOL     OW47418   4.993   5.031   5.063 -0.1311  0.0509 -0.1185
15326SOL    HW147419   5.030   4.943   5.071 -1.2748 -0.5459 -0.9793
15326SOL    HW247420   4.943   5.043   5.144 -1.1127 -0.6818 -0.5959
15327SOL     OW47421   4.652   4.089   6.028 -0.4142  0.4570  0.2959
15327SOL    HW147422   4.740   4.104   6.063 -0.8189  0.3341  1.4078
15327SOL    HW247423   4.651   3.996   6.006  0.0583  0.6730 -0.7004
15328SOL     OW47424   4.072   6.009   6.469  0.6949  0.2649  0.1879
15328SOL    HW147425   4.109   6.083   6.421  4.3114 -1.9088 -0.7185
15328SOL    HW247426   4.123   5.933   6.441 -2.8482 -2.7051  0.9615
15329SOL     OW47427   4.635   4.277   5.207  0.0309 -0.3299  0.2761
15329SOL    HW147428   4.588   4.319   5.279  1.1258 -0.6929  1.2431
15329SOL    HW247429   4.721   4.318   5.208 -0.2540  0.4122 -1.5383
15330SOL     OW47430   3.472   7.489   4.567  0.2167  0.6699 -0.5923
15330SOL    HW147431   3.501   7.434   4.640 -0.9636 -0.5746 -1.0179
15330SOL    HW247432   3.381   7.463   4.552 -0.0232  1.9671 -1.5469
15331SOL     OW47433   4.754   4.009   5.204  0.4906 -0.1304 -0.2859
15331SOL    HW147434   4.719   4.098   5.199 -0.0687 -0.3950 -1.2669
15331SOL    HW247435   4.751   3.977   5.114 -1.0906 -1.7902  0.2904
15332SOL     OW47436   2.790   4.865   7.105 -0.0246 -0.3798  0.7615
15332SOL    HW147437   2.765   4.898   7.191  1.0732  0.3394  0.8214
15332SOL    HW247438   2.814   4.774   7.120 -1.4983 -0.7729  0.8891
15333SOL     OW47439   4.353   5.340   6.702  0.0030  0.1271  0.3132
15333SOL    HW147440   4.386   5.251   6.718  0.4456  0.2308  0.0170
15333SOL    HW247441   4.320   5.337   6.612  0.1461  0.2947  0.2532
15334SOL     OW47442   6.734   2.798   5.518 -0.2930  0.1157 -0.1584
15334SOL    HW147443   6.647   2.764   5.539  0.3393 -0.4729  1.7309
15334SOL    HW247444   6.760   2.847   5.597  1.0761  0.2976 -0.6921
15335SOL     OW47445   5.875   5.625   4.437  0.6187 -0.6436  0.2822
15335SOL    HW147446   5.832   5.710   4.444 -1.0726 -1.5059  0.8425
15335SOL    HW247447   5.874   5.590   4.526  0.0933 -1.7918 -0.1550
15336SOL     OW47448   6.129   5.668   5.633  0.0789 -0.0300 -0.5460
15336SOL    HW147449   6.135   5.575   5.654 -0.9554 -0.0120 -0.1587
15336SOL    HW247450   6.219   5.700   5.642  0.6034 -1.1482 -1.4743
15337SOL     OW47451   4.166   4.154   5.329 -0.4105  0.3537 -0.0067
15337SOL    HW147452   4.229   4.088   5.357 -0.0519 -0.0187 -1.6465
15337SOL    HW247453   4.081   4.120   5.356 -0.1976 -0.6307 -0.5499
15338SOL     OW47454   4.448   3.770   5.756 -0.1444 -0.2549 -0.4783
15338SOL    HW147455   4.361   3.807   5.775 -0.6683 -1.0860 -1.1781
15338SOL    HW247456   4.429   3.688   5.709  1.0170 -0.6182 -0.3343
15339SOL     OW47457   5.688   4.326   8.170  0.2509  0.2195 -0.1029
15339SOL    HW147458   5.700   4.362   8.258  1.6730 -0.4927  0.0237
15339SOL    HW247459   5.598   4.293   8.169 -0.1783  1.3203  0.6641
15340SOL     OW47460   6.059   5.294   7.212  0.5122  0.1469 -0.0767
15340SOL    HW147461   5.970   5.329   7.207  0.2597  0.1371  2.5308
15340SOL    HW247462   6.049   5.201   7.189  0.1105  0.4399 -1.1350
15341SOL     OW47463   5.009   4.986   7.912 -0.8062 -0.5065  0.2646
15341SOL    HW147464   4.921   5.019   7.893  0.3741  2.1619 -1.0754
15341SOL    HW247465   5.024   5.008   8.004 -0.8137  0.9691 -0.0632
15342SOL     OW47466   4.851   5.009   6.475 -0.1505 -0.1213  0.3124
15342SOL    HW147467   4.762   4.995   6.444  0.3582  1.1117 -1.9809
15342SOL    HW247468   4.883   4.922   6.498 -1.3510 -0.8382 -0.6386
15343SOL     OW47469   6.189   5.935   6.373 -0.5886  0.1487 -0.3737
15343SOL    HW147470   6.127   5.985   6.427 -0.9113 -2.0792  1.4692
15343SOL    HW247471   6.269   5.988   6.375 -1.1586  1.0300  0.7982
15344SOL     OW47472   4.694   5.568   6.877 -0.3310  0.2658 -0.0682
15344SOL    HW147473   4.752   5.493   6.893 -1.5910 -0.5123  1.0436
15344SOL    HW247474   4.606   5.533   6.889 -0.9305  2.1371  1.4442
15345SOL     OW47475   4.394   4.807   6.015 -0.2469  0.5922 -0.2412
15345SOL    HW147476   4.472   4.756   6.037 -1.2230 -1.4211 -1.2248
15345SOL    HW247477   4.365   4.772   5.931 -3.4945 -0.3922  1.1083
15346SOL     OW47478   3.673   4.495   6.971 -1.0067  0.2234 -0.1699
15346SOL    HW147479   3.692   4.588   6.982 -0.9142  0.2087 -0.2034
15346SOL    HW247480   3.733   4.451   7.031 -1.4821  0.2179  0.3082
15347SOL     OW47481   4.388   6.151   6.450 -0.3326  0.4456  0.2057
15347SOL    HW147482   4.481   6.170   6.438  0.2177 -1.6614  0.7542
15347SOL    HW247483   4.383   6.106   6.534 -1.9618  1.0338  0.4754
15348SOL     OW47484   5.396   4.651   6.504  0.7632  0.0708  0.5595
15348SOL    HW147485   5.316   4.671   6.455  0.7566  0.6231  0.7842
15348SOL    HW247486   5.365   4.631   6.593  0.8580  0.1040  0.6005
15349SOL     OW47487   4.335   5.722   5.465  0.0221  0.1479  0.1412
15349SOL    HW147488   4.394   5.648   5.448  0.1692  0.1135  0.7849
15349SOL    HW247489   4.303   5.708   5.554  0.3583  1.0645  0.4199
15350SOL     OW47490   4.773   5.088   7.851  0.7200  0.1914 -0.1430
15350SOL    HW147491   4.745   5.158   7.910  0.3182 -0.7267  0.7861
15350SOL    HW247492   4.694   5.063   7.804  0.4258 -0.8824  0.8728
15351SOL     OW47493   5.938   4.473   4.208 -0.5147  0.4095  0.3082
15351SOL    HW147494   5.916   4.391   4.163 -0.3034  0.7630 -0.4455
15351SOL    HW247495   5.989   4.523   4.145 -0.8209  1.2196  0.6857
15352SOL     OW47496   6.346   4.936   6.322  0.2742 -0.3510 -0.0155
15352SOL    HW147497   6.309   4.973   6.402  0.6830 -0.0958  0.0624
15352SOL    HW247498   6.304   4.851   6.313 -0.5811  0.0752 -0.1270
15353SOL     OW47499   3.930   3.908   7.397  0.4594  0.2223 -0.9475
15353SOL    HW147500   3.978   3.991   7.396  1.1478 -0.1312  0.3810
15353SOL    HW247501   3.983   3.849   7.344  0.0187  0.5840 -1.8145
15354SOL     OW47502   5.204   4.738   6.340  0.6067  0.1513  0.2112
15354SOL    HW147503   5.111   4.720   6.357  0.7587 -0.7631  0.1341
15354SOL    HW247504   5.203   4.819   6.289  0.0219  1.6869  2.4883
15355SOL     OW47505   4.849   5.011   5.306  0.1026  0.2432 -0.3657
15355SOL    HW147506   4.758   4.992   5.283  0.4155 -0.5397 -1.0141
15355SOL    HW247507   4.879   4.934   5.353  0.5741  0.2799 -0.5957
15356SOL     OW47508   3.332   3.762   7.277 -0.0018 -0.0632 -0.1325
15356SOL    HW147509   3.351   3.688   7.220 -1.5919 -0.6279  0.0188
15356SOL    HW247510   3.258   3.807   7.235 -0.2740  0.3385  0.7403
15357SOL     OW47511   6.424   5.724   7.344  0.9488 -0.4731  0.4624
15357SOL    HW147512   6.449   5.657   7.281  0.2819  0.7584 -1.1837
15357SOL    HW247513   6.421   5.678   7.428  1.7932 -2.1795 -0.3879
15358SOL     OW47514   5.530   4.563   5.208  0.0251  0.0428  0.5928
15358SOL    HW147515   5.445   4.545   5.250 -0.0989  1.0861  0.8187
15358SOL    HW247516   5.563   4.639   5.254  0.8425 -0.0297  0.1308
15359SOL     OW47517   4.154   5.685   6.412  0.0828  0.2515 -0.2624
15359SOL    HW147518   4.063   5.713   6.420  0.2322  0.8964 -0.7639
15359SOL    HW247519   4.159   5.644   6.326  0.3774  0.6509 -0.4373
15360SOL     OW47520   6.730   4.453   6.912 -0.2382  0.4715 -0.3008
15360SOL    HW147521   6.791   4.441   6.839  0.2114  1.7674 -0.1747
15360SOL    HW247522   6.721   4.548   6.919 -1.8711  0.3182  0.0307
15361SOL     OW47523   5.035   3.361   6.187 -1.1564 -0.0241  0.2890
15361SOL    HW147524   5.110   3.412   6.156 -0.1807 -0.1416  2.2699
15361SOL    HW247525   4.963   3.424   6.191 -0.9915  0.2640 -0.9201
15362SOL     OW47526   6.978   3.324   5.198 -0.1167 -0.0442 -0.2570
15362SOL    HW147527   6.973   3.292   5.288  0.4537  1.0202  0.1682
15362SOL    HW247528   7.004   3.247   5.147 -2.8335 -1.3194  0.0647
15363SOL     OW47529   4.201   3.902   5.791  0.0619  0.1756  0.3144
15363SOL    HW147530   4.250   3.982   5.803  0.5747  0.1588 -1.4387
15363SOL    HW247531   4.124   3.912   5.847 -0.6143  2.5220 -0.8924
15364SOL     OW47532   4.400   4.677   6.438 -0.1914  0.2250  0.3975
15364SOL    HW147533   4.489   4.647   6.419 -0.3415 -0.9534  1.3799
15364SOL    HW247534   4.344   4.620   6.386 -0.4223 -0.1572  1.0517
15365SOL     OW47535   4.579   4.958   6.414 -0.6964 -0.0489  0.0445
15365SOL    HW147536   4.602   4.865   6.415 -1.0526 -0.1386  0.6544
15365SOL    HW247537   4.487   4.960   6.440 -0.5990  0.4977  0.3711
15366SOL     OW47538   2.845   4.960   6.558  0.4497  0.2981 -0.1380
15366SOL    HW147539   2.810   4.895   6.497  0.5555 -1.4712  1.5718
15366SOL    HW247540   2.934   4.930   6.577 -0.1068 -0.1424  2.0523
15367SOL     OW47541   4.182   4.993   6.051 -0.4755 -0.0973  0.4947
15367SOL    HW147542   4.227   4.909   6.049  0.3944  0.3518 -1.5491
15367SOL    HW247543   4.112   4.985   5.986  1.2321  1.5227 -1.6924
15368SOL     OW47544   3.845   3.652   7.200  0.0643  0.1223 -0.3453
15368SOL    HW147545   3.930   3.693   7.209 -0.3831  1.0317 -0.1890
15368SOL    HW247546   3.824   3.658   7.107  0.1734 -0.1302 -0.3890
15369SOL     OW47547   4.211   5.351   6.469 -0.4445 -0.3803  0.8515
15369SOL    HW147548   4.139   5.407   6.441 -2.4393 -1.0611  4.1151
15369SOL    HW247549   4.201   5.270   6.419 -2.4986 -0.7482  1.7605
15370SOL     OW47550   6.437   5.008   6.084  0.5712 -0.3505  0.7982
15370SOL    HW147551   6.375   4.966   6.025  1.0483  0.8843 -0.6589
15370SOL    HW247552   6.396   5.003   6.170  0.8205 -4.2226  0.9038
15371SOL     OW47553   4.574   4.359   5.475  0.0967  0.8623 -0.1961
15371SOL    HW147554   4.531   4.445   5.467 -0.4954  0.4918 -1.1950
15371SOL    HW247555   4.513   4.306   5.526 -1.3118 -0.0414 -2.6555
15372SOL     OW47556   5.433   4.239   5.399 -0.4409  0.3443  0.6907
15372SOL    HW147557   5.373   4.208   5.331  0.4516  0.9936 -0.4146
15372SOL    HW247558   5.387   4.219   5.481 -1.7726  0.0169 -0.0950
15373SOL     OW47559   3.137   7.412   6.733 -0.4539  0.4389 -0.5194
15373SOL    HW147560   3.159   7.337   6.788  0.3066  0.4157 -0.8371
15373SOL    HW247561   3.169   7.387   6.646  0.0940  1.2670 -0.5592
15374SOL     OW47562   3.563   5.508   7.005 -0.0789 -0.3029 -0.0918
15374SOL    HW147563   3.541   5.417   7.024 -1.0125 -0.3317 -1.2000
15374SOL    HW247564   3.629   5.503   6.936  1.3687 -0.1480  1.2183
15375SOL     OW47565   6.294   5.650   6.190 -0.8499 -0.0335  0.1603
15375SOL    HW147566   6.266   5.578   6.134 -2.3820  0.8426 -0.2577
15375SOL    HW247567   6.340   5.608   6.262 -3.4402 -1.6507  1.0001
15376SOL     OW47568   5.689   4.194   5.895  0.1521  0.0366  0.3440
15376SOL    HW147569   5.616   4.132   5.888  0.6903 -0.4648 -1.0143
15376SOL    HW247570   5.647   4.276   5.920 -0.6490 -0.6825  1.5066
15377SOL     OW47571   5.358   3.933   7.636  0.3502  0.2953 -0.0179
15377SOL    HW147572   5.404   3.970   7.710  0.0529  0.0867  0.2742
15377SOL    HW247573   5.266   3.930   7.663  0.0836  1.1430 -0.7634
15378SOL     OW47574   2.872   5.548   6.669 -0.3806 -0.1152 -0.2629
15378SOL    HW147575   2.829   5.469   6.636 -2.5044  0.8647  0.0317
15378SOL    HW247576   2.851   5.616   6.606  1.8359  0.1806 -0.7737
15379SOL     OW47577   3.319   5.382   5.922 -0.5410  0.4053 -0.3979
15379SOL    HW147578   3.407   5.386   5.960 -0.3212 -1.5262 -0.6162
15379SOL    HW247579   3.322   5.445   5.850  1.4739 -1.2211 -1.8901
15380SOL     OW47580   4.207   5.085   7.554 -0.5163  0.2673  0.1508
15380SOL    HW147581   4.156   5.052   7.479 -0.3976  2.2703 -0.8701
15380SOL    HW247582   4.176   5.174   7.566  1.2941  0.8312  0.8608
15381SOL     OW47583   5.718   3.080   6.462 -0.1646 -0.0320  0.4479
15381SOL    HW147584   5.660   3.139   6.510 -0.9343 -0.3058 -0.1270
15381SOL    HW247585   5.679   2.993   6.473 -0.2434 -0.1318 -0.4863
15382SOL     OW47586   5.727   5.265   6.497 -0.3757  0.0352 -0.4629
15382SOL    HW147587   5.639   5.227   6.501 -0.2371 -0.3653 -1.1233
15382SOL    HW247588   5.780   5.197   6.457  0.4122 -0.0301  0.6458
15383SOL     OW47589   3.339   6.406   7.776 -0.4123 -0.2952 -0.1628
15383SOL    HW147590   3.432   6.383   7.778 -0.0619  0.9522 -1.0762
15383SOL    HW247591   3.318   6.409   7.683 -1.4791 -0.9551  0.0452
15384SOL     OW47592   5.607   4.496   5.907 -0.4045  0.0966  0.0563
15384SOL    HW147593   5.513   4.480   5.904 -0.2753 -0.5767 -0.8031
15384SOL    HW247594   5.619   4.573   5.851 -0.1874 -1.3061 -1.9537
15385SOL     OW47595   4.462   5.056   5.728  0.3739 -0.0104  0.2860
15385SOL    HW147596   4.458   4.962   5.740  0.5895 -0.0298  0.1992
15385SOL    HW247597   4.500   5.068   5.641 -4.1318  0.0263 -2.0243
15386SOL     OW47598   6.033   4.447   7.243 -0.5105 -0.1385  0.2074
15386SOL    HW147599   5.944   4.434   7.275 -0.7261 -0.9686 -0.6717
15386SOL    HW247600   6.066   4.359   7.226  0.7141  0.1223  1.1033
15387SOL     OW47601   5.605   4.408   4.132  0.8915  0.6893 -0.1310
15387SOL    HW147602   5.633   4.499   4.132  2.0780  0.3393  0.4741
15387SOL    HW247603   5.683   4.358   4.106 -0.2366 -0.0363 -2.3732
15388SOL     OW47604   4.869   4.927   5.685  0.4909 -0.4247  0.3089
15388SOL    HW147605   4.820   4.854   5.649  1.1520 -0.2066 -1.0810
15388SOL    HW247606   4.831   5.004   5.642  0.3347 -0.0168  1.1614
15389SOL     OW47607   4.678   5.631   4.965 -0.5391 -0.0418  0.0516
15389SOL    HW147608   4.637   5.588   5.040 -1.1015  1.7349  0.8288
15389SOL    HW247609   4.752   5.575   4.942  1.5881  0.8242  3.9470
15390SOL     OW47610   3.775   4.983   6.035  0.2956  0.1776  0.0479
15390SOL    HW147611   3.702   4.924   6.053  1.0020 -0.7514 -0.0871
15390SOL    HW247612   3.815   4.949   5.955  0.6176  0.9376 -0.1277
15391SOL     OW47613   7.275   7.339   5.457 -0.0167  0.2705 -0.0328
15391SOL    HW147614   7.285   7.408   5.523 -1.6702  0.9712 -0.4584
15391SOL    HW247615   7.181   7.323   5.453  0.3162 -1.8851 -0.1179
15392SOL     OW47616   5.753   4.767   6.882  0.0126  0.0960  0.2196
15392SOL    HW147617   5.763   4.749   6.976 -1.8834 -2.1974  0.0764
15392SOL    HW247618   5.702   4.848   6.879  1.1251  0.8677  1.1106
15393SOL     OW47619   3.286   5.965   5.879 -0.4693 -0.3659 -0.1807
15393SOL    HW147620   3.381   5.962   5.878 -0.3093  1.6986  1.3728
15393SOL    HW247621   3.259   5.884   5.921  0.6645 -0.4526  0.4020
15394SOL     OW47622   5.945   3.231   7.674  0.3799 -0.0728 -0.0415
15394SOL    HW147623   6.002   3.158   7.699  0.9292  0.1905 -0.5102
15394SOL    HW247624   5.918   3.210   7.585  1.1682  0.6778 -0.4672
15395SOL     OW47625   5.229   4.537   5.571  0.0206  0.0040  0.0687
15395SOL    HW147626   5.235   4.528   5.666 -1.2337  0.7278  0.2280
15395SOL    HW247627   5.145   4.499   5.547 -0.6394  1.7049 -0.4793
15396SOL     OW47628   5.757   5.394   5.506  0.6039 -0.2753 -0.0008
15396SOL    HW147629   5.851   5.394   5.485  0.2167  1.0228 -2.0188
15396SOL    HW247630   5.716   5.348   5.433 -0.3953 -0.2479  0.5271
15397SOL     OW47631   5.057   4.715   7.324 -0.7320  0.5226 -0.6559
15397SOL    HW147632   5.100   4.633   7.300  0.2016  1.3201 -1.8378
15397SOL    HW247633   4.965   4.702   7.302 -0.6340 -0.2958 -0.5905
15398SOL     OW47634   5.182   6.793   7.751  0.6030  0.5631 -0.0077
15398SOL    HW147635   5.257   6.818   7.697 -0.2238 -0.2049 -1.5933
15398SOL    HW247636   5.178   6.860   7.819  0.9915  2.2919 -1.5927
15399SOL     OW47637   5.160   6.417   7.226 -0.1763  0.3439  0.1278
15399SOL    HW147638   5.136   6.347   7.165 -0.0609 -1.0853  1.6592
15399SOL    HW247639   5.236   6.458   7.185 -1.6314  1.1231 -1.9225
15400SOL     OW47640   5.487   4.725   6.113 -0.2329  0.0973 -0.3062
15400SOL    HW147641   5.424   4.681   6.169 -0.0123  0.1076 -0.0466
15400SOL    HW247642   5.542   4.655   6.078  1.1359  0.2597  1.3578
15401SOL     OW47643   4.357   4.264   6.155  0.1033  0.6420 -0.3363
15401SOL    HW147644   4.310   4.186   6.185 -0.6479  1.0207 -0.4887
15401SOL    HW247645   4.430   4.273   6.216 -1.2172  1.2305  1.2433
15402SOL     OW47646   5.977   5.105   5.573 -0.0714 -0.0820 -0.8347
15402SOL    HW147647   5.909   5.082   5.636  0.2655  0.5689 -0.2333
15402SOL    HW247648   6.058   5.111   5.624  0.0194  1.5246 -1.1198
15403SOL     OW47649   4.378   5.584   9.797  0.6193  0.7341 -1.3192
15403SOL    HW147650   4.352   5.493   9.781 -0.6360  0.6965  0.6243
15403SOL    HW247651   4.474   5.580   9.805  0.4424 -0.9230  1.2724
15404SOL     OW47652   5.264   5.856   5.635 -0.6517  0.4091 -0.1863
15404SOL    HW147653   5.303   5.795   5.698  2.2177  2.9429  0.7623
15404SOL    HW247654   5.173   5.829   5.629 -0.2749 -2.0125  2.5451
15405SOL     OW47655   3.646   5.877   4.521 -0.3049  0.4788  0.3814
15405SOL    HW147656   3.592   5.823   4.578 -0.2873 -1.0719 -0.9937
15405SOL    HW247657   3.634   5.839   4.433  4.1084 -1.0034  0.1472
15406SOL     OW47658   3.828   5.658   5.837 -0.2957 -0.0705  0.2054
15406SOL    HW147659   3.805   5.565   5.824 -1.4381  0.2871 -0.5023
15406SOL    HW247660   3.813   5.698   5.751  1.2624  0.5799  0.2031
15407SOL     OW47661   3.671   4.799   6.358  0.4963  0.0054 -0.0464
15407SOL    HW147662   3.641   4.790   6.268  1.2694 -1.6247 -0.1655
15407SOL    HW247663   3.766   4.791   6.353  0.6030  0.5507  0.8511
15408SOL     OW47664   5.659   3.062   5.785 -0.1458 -0.9166  0.4436
15408SOL    HW147665   5.724   3.131   5.775  0.5331 -1.5817  0.1349
15408SOL    HW247666   5.683   2.998   5.718  0.9591 -2.7875  2.5075
15409SOL     OW47667   4.068   4.068   5.060  0.1372 -0.2482 -0.4275
15409SOL    HW147668   4.091   4.133   5.126 -0.0178  1.6806 -2.1788
15409SOL    HW247669   4.152   4.031   5.034  0.3873  0.3580 -0.4968
15410SOL     OW47670   5.306   6.474   6.424 -1.2494  0.2271  0.0659
15410SOL    HW147671   5.306   6.520   6.508 -1.6167 -0.6846  0.5797
15410SOL    HW247672   5.281   6.385   6.446 -0.1664 -0.3348 -0.8490
15411SOL     OW47673   3.992   4.754   5.967 -0.6557  0.1785  0.1259
15411SOL    HW147674   4.004   4.822   5.901 -2.3656  1.7290  1.3337
15411SOL    HW247675   3.902   4.723   5.954 -0.5870 -0.3975  0.9154
15412SOL     OW47676   4.871   3.744   6.876 -0.3607  0.2712  0.6162
15412SOL    HW147677   4.786   3.787   6.869 -1.6630 -2.1678  0.2884
15412SOL    HW247678   4.886   3.735   6.970 -0.3539  0.8805  0.6778
15413SOL     OW47679   5.241   5.002   4.331 -0.4643  0.0992  0.5853
15413SOL    HW147680   5.318   5.039   4.289 -1.0678 -0.0798 -0.7167
15413SOL    HW247681   5.262   5.004   4.425  1.2671 -0.2977  0.2428
15414SOL     OW47682   3.886   5.744   7.487 -0.5984 -0.1204  0.7820
15414SOL    HW147683   3.905   5.818   7.429  1.7993 -0.6458  0.7902
15414SOL    HW247684   3.906   5.777   7.575 -0.8868 -0.3582  0.9389
15415SOL     OW47685   4.898   3.817   5.350 -0.2007  0.1933 -0.0040
15415SOL    HW147686   4.854   3.780   5.427  0.8632 -0.3343  0.3603
15415SOL    HW247687   4.837   3.884   5.318 -1.8593 -1.3657 -0.2783
15416SOL     OW47688   6.084   3.873   4.642  0.1067  0.4073  0.5575
15416SOL    HW147689   6.092   3.935   4.714 -1.7584  2.9484 -1.2386
15416SOL    HW247690   6.032   3.801   4.678  0.6731  0.7623  2.1770
15417SOL     OW47691   4.486   5.178   4.703 -0.7606  0.5452  0.2662
15417SOL    HW147692   4.432   5.104   4.730  0.1115 -0.7765 -1.3972
15417SOL    HW247693   4.475   5.182   4.608  2.3612 -0.1118 -0.2238
15418SOL     OW47694   4.935   5.184   9.467 -0.4994  0.0673 -0.3297
15418SOL    HW147695   5.004   5.165   9.531 -0.7192  0.2647 -0.0303
15418SOL    HW247696   4.893   5.100   9.451 -1.6743  0.3186  1.2278
15419SOL     OW47697   4.781   5.723   7.084 -0.4970  0.6043 -0.3232
15419SOL    HW147698   4.739   5.702   7.167 -0.9570  0.9495 -0.4654
15419SOL    HW247699   4.749   5.656   7.023 -1.3772  1.2613 -0.5946
15420SOL     OW47700   3.545   7.420   9.326 -0.1018 -0.6616 -0.1578
15420SOL    HW147701   3.465   7.408   9.275  1.0743  0.7866 -2.5202
15420SOL    HW247702   3.516   7.462   9.407 -1.6664  0.4330 -1.2326
15421SOL     OW47703   4.819   6.013   9.554  0.0539  0.4240 -0.1809
15421SOL    HW147704   4.799   6.106   9.557  0.5611  0.5170  1.6999
15421SOL    HW247705   4.734   5.970   9.569  0.0485  0.6426  0.4590
15422SOL     OW47706   5.678   3.186  10.343 -0.5418  0.3374 -0.3301
15422SOL    HW147707   5.663   3.180  10.248  1.0724  0.7727 -0.6354
15422SOL    HW247708   5.722   3.105  10.366  0.0916  0.7249 -0.1622
15423SOL     OW47709   4.248   4.190   8.640 -0.1128  0.2211 -0.1197
15423SOL    HW147710   4.173   4.196   8.581 -0.0569  0.3264 -0.1817
15423SOL    HW247711   4.246   4.100   8.673  0.2130 -0.0302 -0.7576
15424SOL     OW47712   7.106   3.295   8.029 -0.4607 -0.2814 -0.2298
15424SOL    HW147713   7.020   3.253   8.022  0.1437 -1.2857 -3.1157
15424SOL    HW247714   7.101   3.370   7.970  1.3152 -1.7459 -2.3763
15425SOL     OW47715   2.788   5.706   7.562 -0.4308  0.2122  0.5096
15425SOL    HW147716   2.836   5.703   7.479  0.8532  0.9121  1.1931
15425SOL    HW247717   2.704   5.746   7.540 -0.1851  0.2006 -0.4892
15426SOL     OW47718   3.917   4.352   9.546 -0.1422 -0.2163  0.3038
15426SOL    HW147719   3.973   4.411   9.496 -1.5115  1.6566  0.8737
15426SOL    HW247720   3.892   4.285   9.483  1.2823 -0.1202 -0.4286
15427SOL     OW47721   2.745   4.521   7.817 -0.1752  0.0703 -0.2396
15427SOL    HW147722   2.773   4.594   7.761  0.1412  0.2216  0.1112
15427SOL    HW247723   2.729   4.449   7.756  1.6727 -0.2497 -0.4028
15428SOL     OW47724   3.808   6.257   8.974  0.1568  0.0849  0.0443
15428SOL    HW147725   3.835   6.325   9.036  0.4505  0.2702 -0.2826
15428SOL    HW247726   3.724   6.226   9.008  0.8934 -0.6887  1.2353
15429SOL     OW47727   5.243   4.098   8.141 -0.3285 -0.3010  0.3337
15429SOL    HW147728   5.159   4.077   8.181  0.2219 -0.7456  1.2898
15429SOL    HW247729   5.240   4.054   8.056 -1.6805  1.0205 -0.3450
15430SOL     OW47730   6.828   4.980   5.406 -0.1927  0.7773 -0.7524
15430SOL    HW147731   6.795   5.070   5.403 -0.7689  0.5719 -0.8736
15430SOL    HW247732   6.909   4.985   5.456  0.0618  1.4475 -1.2200
15431SOL     OW47733   3.883   5.406   7.680  0.1042 -0.5113 -0.2412
15431SOL    HW147734   3.836   5.330   7.713  0.7880 -0.3584  1.1334
15431SOL    HW247735   3.833   5.433   7.603 -1.2008 -1.2259  0.3183
15432SOL     OW47736   6.174   4.177   8.238 -0.1745 -0.1224  0.2373
15432SOL    HW147737   6.247   4.180   8.177 -0.9374 -0.7390 -0.7391
15432SOL    HW247738   6.133   4.264   8.231  0.3656  0.1713  0.6757
15433SOL     OW47739   4.846   5.085   7.290  0.3715 -0.3050  0.3316
15433SOL    HW147740   4.752   5.075   7.304  0.3962  0.3833  0.9993
15433SOL    HW247741   4.861   5.179   7.287  0.9001 -0.4039 -0.7956
15434SOL     OW47742   3.691   3.887  11.405 -0.1805 -0.6420 -0.2344
15434SOL    HW147743   3.657   3.798  11.390  0.6414 -1.1750  0.9372
15434SOL    HW247744   3.646   3.941  11.339 -0.6532 -1.9275 -1.0082
15435SOL     OW47745   5.933   4.567   8.672 -0.2448  0.4154  0.2829
15435SOL    HW147746   5.887   4.645   8.639  1.9326  1.0323 -1.5458
15435SOL    HW247747   5.997   4.547   8.605 -0.5894 -2.9172  0.8127
15436SOL     OW47748   4.297   4.096   8.289  0.2741 -0.1858  0.1632
15436SOL    HW147749   4.329   4.037   8.221 -0.1287 -0.5299  0.2603
15436SOL    HW247750   4.232   4.043   8.336 -0.5765  0.5566 -0.1625
15437SOL     OW47751   5.426   5.708   7.054  0.6905 -0.1914  0.0847
15437SOL    HW147752   5.515   5.718   7.019 -0.0818 -0.0251 -1.9649
15437SOL    HW247753   5.419   5.776   7.121  2.0929 -0.2021  0.2658
15438SOL     OW47754   5.347   4.262  10.038 -0.5529  0.1869  0.4731
15438SOL    HW147755   5.305   4.330   9.987 -1.3119 -1.6552 -1.5258
15438SOL    HW247756   5.436   4.255  10.001  0.5164  1.8932  2.5352
15439SOL     OW47757   4.913   4.837   9.230  0.5694  0.4302  0.4911
15439SOL    HW147758   4.892   4.881   9.147  2.3856  1.2686  0.4326
15439SOL    HW247759   4.928   4.746   9.205  0.0853  0.4580  0.0703
15440SOL     OW47760   5.394   5.135   8.119 -0.7150 -0.0618  0.3400
15440SOL    HW147761   5.325   5.075   8.148  1.1578 -1.6921  1.6040
15440SOL    HW247762   5.440   5.087   8.050  0.5099  0.0677  1.0362
15441SOL     OW47763   5.056   6.072   6.958 -0.1266  0.4172  0.2784
15441SOL    HW147764   5.107   5.999   6.922  1.7322  0.4849  2.5644
15441SOL    HW247765   4.991   6.030   7.015  1.5635  0.4792  2.3567
15442SOL     OW47766   4.684   4.448   8.334 -0.1433  0.3059  0.5352
15442SOL    HW147767   4.760   4.428   8.279 -0.1303  1.3007  0.1746
15442SOL    HW247768   4.651   4.362   8.362  0.7494 -0.1547  0.2045
15443SOL     OW47769   6.439   5.453   6.355  0.0454  0.1177  0.0407
15443SOL    HW147770   6.509   5.453   6.420  0.6402 -1.4148 -0.5434
15443SOL    HW247771   6.372   5.395   6.392 -0.6940  1.1212  0.3347
15444SOL     OW47772   4.053   4.217   8.839  0.2826  0.0956 -0.4902
15444SOL    HW147773   3.984   4.168   8.793 -0.4265  0.4492  0.1597
15444SOL    HW247774   4.126   4.221   8.777  0.2955 -1.6242 -0.6225
15445SOL     OW47775   5.224   4.140   8.945  0.1129 -0.2226  0.2437
15445SOL    HW147776   5.169   4.069   8.911  0.6380  0.4473 -2.1765
15445SOL    HW247777   5.306   4.133   8.895  2.0902 -0.8118  3.2969
15446SOL     OW47778   6.303   3.699   9.940  0.1589  0.3480 -0.4275
15446SOL    HW147779   6.207   3.692   9.943  0.2463 -0.7588  0.7034
15446SOL    HW247780   6.330   3.629   9.880  0.2914  0.0874 -0.0703
15447SOL     OW47781   5.935   4.310   8.766 -0.3037  0.1125  0.2452
15447SOL    HW147782   5.933   4.404   8.746  1.3072  0.0324 -0.4104
15447SOL    HW247783   5.879   4.270   8.699  0.6640  0.4189 -0.7828
15448SOL     OW47784   3.985   6.029   8.003 -0.0724 -0.0705 -0.5430
15448SOL    HW147785   3.961   5.956   8.060 -1.0041 -0.3468 -1.2682
15448SOL    HW247786   4.080   6.020   7.992  0.0730 -0.2077  0.6737
15449SOL     OW47787   4.783   4.302   8.703  0.3363 -0.0166 -0.3622
15449SOL    HW147788   4.827   4.358   8.638  1.0866  0.4356  0.5039
15449SOL    HW247789   4.770   4.219   8.658  2.1898 -0.2019 -0.6463
15450SOL     OW47790   5.432   5.235   6.857 -0.2376  0.0595 -0.1590
15450SOL    HW147791   5.340   5.209   6.855 -0.4515  0.7494  0.2175
15450SOL    HW247792   5.464   5.205   6.942 -0.2053  0.1180 -0.1506
15451SOL     OW47793   3.817   3.487   8.156 -0.0028  0.6565  0.0660
15451SOL    HW147794   3.779   3.540   8.085  1.4296 -0.9771 -2.0666
15451SOL    HW247795   3.768   3.405   8.154  0.4906  0.3464  0.5275
15452SOL     OW47796   5.448   5.545   7.357 -0.2949  0.2774 -0.2957
15452SOL    HW147797   5.500   5.476   7.399 -1.0109  0.7232  1.4030
15452SOL    HW247798   5.508   5.619   7.349 -0.5347  0.6978  1.4020
15453SOL     OW47799   4.182   5.378   8.646  0.1838 -0.5261  0.1540
15453SOL    HW147800   4.263   5.381   8.698 -1.0003  1.0064  2.0595
15453SOL    HW247801   4.134   5.303   8.681 -0.5356  0.4001  1.2057
15454SOL     OW47802   7.480   4.890   8.999  0.4096  0.1335 -0.9137
15454SOL    HW147803   7.493   4.829   8.927 -3.1909 -0.9190 -0.8604
15454SOL    HW247804   7.418   4.955   8.965 -0.7380  0.0761  0.9146
15455SOL     OW47805   4.137   4.506   9.999 -0.5466  0.4362  0.1996
15455SOL    HW147806   4.212   4.516   9.940 -0.1150 -1.5212  0.3428
15455SOL    HW247807   4.069   4.466   9.945  0.3233 -2.7309  1.2395
15456SOL     OW47808   4.501   5.489   9.035  0.3446 -0.2844 -0.1023
15456SOL    HW147809   4.446   5.418   9.068 -1.8815  1.4987  0.1986
15456SOL    HW247810   4.544   5.452   8.958 -1.5680 -1.6408 -0.5774
15457SOL     OW47811   4.854   5.552   8.333 -0.4154  0.0703 -0.4487
15457SOL    HW147812   4.774   5.580   8.289 -0.0797  0.2334 -0.9730
15457SOL    HW247813   4.835   5.464   8.365 -0.9911  0.3288 -0.0671
15458SOL     OW47814   5.058   6.082   9.755  0.2718  0.5532  0.3264
15458SOL    HW147815   5.124   6.074   9.685 -0.8436 -0.2753 -0.6697
15458SOL    HW247816   5.051   5.994   9.792 -0.3517  0.6031  0.3390
15459SOL     OW47817   3.239   6.050   7.272 -0.4676  0.2708  0.1432
15459SOL    HW147818   3.319   6.038   7.323 -0.3002 -1.6194 -0.4666
15459SOL    HW247819   3.188   6.114   7.321 -0.3567 -1.5010  2.7764
15460SOL     OW47820   3.294   6.417   9.123 -0.0837  0.0531 -0.9239
15460SOL    HW147821   3.297   6.356   9.049 -0.1457 -0.2933 -0.6472
15460SOL    HW247822   3.204   6.449   9.123  0.2254  0.9457 -1.6987
15461SOL     OW47823   4.448   5.260   9.173  0.2233  0.2644  0.2160
15461SOL    HW147824   4.422   5.178   9.130  0.8587 -0.9439  2.0472
15461SOL    HW247825   4.400   5.260   9.256  0.3472  1.7008  0.3149
15462SOL     OW47826   5.487   5.164  10.601 -0.2087 -0.4621 -0.0069
15462SOL    HW147827   5.550   5.209  10.544  0.6430 -1.0549  0.4368
15462SOL    HW247828   5.401   5.192  10.569  0.2783  1.3092  0.1312
15463SOL     OW47829   4.542   4.548   8.550 -0.4340 -0.3608  0.3137
15463SOL    HW147830   4.581   4.633   8.534 -1.7567  0.1641 -0.2835
15463SOL    HW247831   4.566   4.496   8.473  0.3010 -0.5184  0.6396
15464SOL     OW47832   6.335   3.138   9.473  0.1576  0.2440  0.0594
15464SOL    HW147833   6.405   3.077   9.451 -0.7368 -0.5425 -0.7255
15464SOL    HW247834   6.375   3.225   9.468  1.3865 -0.2560  0.9180
15465SOL     OW47835   4.535   2.693   7.677  0.6804 -0.0447  0.2925
15465SOL    HW147836   4.578   2.774   7.650  0.6582 -0.4584 -1.0884
15465SOL    HW247837   4.448   2.720   7.706 -0.2023  0.2559 -2.3554
15466SOL     OW47838   6.969   4.352   6.758  0.2405  0.5982 -0.3401
15466SOL    HW147839   7.048   4.403   6.743  1.1693 -0.5320  0.5789
15466SOL    HW247840   6.943   4.321   6.671  0.5457  1.3418 -0.6995
15467SOL     OW47841   4.402   3.762   8.785 -0.8884  0.1626 -0.1766
15467SOL    HW147842   4.337   3.707   8.830  0.4307 -1.1771  0.1782
15467SOL    HW247843   4.454   3.700   8.734 -0.2550  1.2748 -0.9244
15468SOL     OW47844   4.347   3.655   8.206 -0.3273  0.3642  0.3731
15468SOL    HW147845   4.263   3.610   8.192 -0.4049  0.8333 -0.7880
15468SOL    HW247846   4.369   3.691   8.120  0.2231  1.6856  1.0492
15469SOL     OW47847   5.239   5.349   7.217  0.6468 -0.5663  0.0533
15469SOL    HW147848   5.210   5.343   7.309 -0.1326 -0.1149 -0.1483
15469SOL    HW247849   5.322   5.397   7.221  0.5695 -0.4657  0.5207
15470SOL     OW47850   5.868   4.097   9.053  0.4173  0.2558  0.2397
15470SOL    HW147851   5.787   4.049   9.033  0.1442  0.8618 -0.1383
15470SOL    HW247852   5.838   4.170   9.107  0.6790  0.6377 -0.1347
15471SOL     OW47853   4.797   4.039   8.018  0.0788 -0.2893 -0.1621
15471SOL    HW147854   4.886   4.017   7.990  0.4089 -0.0737  0.6732
15471SOL    HW247855   4.740   3.990   7.959  0.6066  2.7421 -3.5302
15472SOL     OW47856   4.506   4.204   8.431  0.3283 -0.2923 -0.4874
15472SOL    HW147857   4.495   4.187   8.525 -1.5883  3.7027  0.2207
15472SOL    HW247858   4.425   4.171   8.391  0.8704 -1.4155 -0.7075
15473SOL     OW47859   6.402   4.782   8.835  0.1050 -0.4095 -0.5776
15473SOL    HW147860   6.354   4.813   8.912  0.8134  2.4644 -1.1629
15473SOL    HW247861   6.485   4.748   8.870  0.8913  1.8720 -0.0372
15474SOL     OW47862   5.117   4.228   8.475  0.3852 -0.6313 -0.0221
15474SOL    HW147863   5.078   4.212   8.389 -1.1083 -2.3281  0.9093
15474SOL    HW247864   5.118   4.143   8.517 -1.3455  0.4918  2.6005
15475SOL     OW47865   4.903   5.180   7.642 -0.6361  0.6838  0.9773
15475SOL    HW147866   4.975   5.121   7.622 -1.7485  0.5258 -3.5614
15475SOL    HW247867   4.857   5.138   7.715  2.6716 -0.0916  2.8474
15476SOL     OW47868   4.680   5.323   6.321 -0.2268  0.1931 -0.1652
15476SOL    HW147869   4.729   5.265   6.263  1.1598 -1.4519  2.4282
15476SOL    HW247870   4.592   5.285   6.325 -0.2336  0.1280 -0.8963
15477SOL     OW47871   5.118   5.764   6.400  0.5255  0.0811 -0.0241
15477SOL    HW147872   5.055   5.710   6.447  0.6129 -0.3339 -0.3802
15477SOL    HW247873   5.174   5.801   6.469 -0.3984  0.8565  0.3340
15478SOL     OW47874   4.399   5.422  10.645  0.3984 -0.2658 -0.1442
15478SOL    HW147875   4.376   5.477  10.570  0.3072 -1.2031 -0.8169
15478SOL    HW247876   4.456   5.354  10.609  0.5271 -0.6082  0.6769
15479SOL     OW47877   4.338   5.305   9.779  0.0730 -0.0493  0.1211
15479SOL    HW147878   4.418   5.263   9.746 -1.3300 -1.0660 -2.2388
15479SOL    HW247879   4.329   5.270   9.868  1.2218 -1.4477 -0.2555
15480SOL     OW47880   3.708   5.820   9.108  0.0216  0.2410 -0.1425
15480SOL    HW147881   3.766   5.895   9.099  0.4302 -0.0588 -0.0476
15480SOL    HW247882   3.691   5.814   9.202 -0.4378  0.5306 -0.2032
15481SOL     OW47883   4.801   5.318   8.494 -0.5362 -0.1347 -0.2515
15481SOL    HW147884   4.749   5.238   8.488 -1.9828  0.5892  1.4412
15481SOL    HW247885   4.890   5.287   8.511 -1.0672 -1.3976  0.3969
15482SOL     OW47886   4.842   4.036   9.629  0.3043  0.3916  0.4628
15482SOL    HW147887   4.901   4.049   9.555  0.5333  0.5285  0.6661
15482SOL    HW247888   4.846   3.942   9.647  0.9465  0.4918  0.8710
15483SOL     OW47889   4.432   4.351   8.735 -0.1658 -0.1407 -0.4832
15483SOL    HW147890   4.456   4.415   8.668 -0.8063  0.5952 -0.0286
15483SOL    HW247891   4.366   4.295   8.693 -0.8065  0.5231 -0.3716
15484SOL     OW47892   4.096   4.071   9.201 -0.9242  0.2938 -0.3024
15484SOL    HW147893   4.170   4.047   9.145 -0.6171 -0.7921  0.5528
15484SOL    HW247894   4.043   3.992   9.205 -0.3813 -0.0066  1.7972
15485SOL     OW47895   5.453   3.443   7.919  0.0724  0.6787  0.3804
15485SOL    HW147896   5.375   3.493   7.941 -1.3897 -1.1715 -0.3089
15485SOL    HW247897   5.514   3.460   7.991 -1.2904  1.5029  1.3754
15486SOL     OW47898   6.010   5.243   7.601 -0.3391  0.7569 -0.1832
15486SOL    HW147899   5.931   5.232   7.654  0.0576  1.3230  0.5502
15486SOL    HW247900   6.036   5.334   7.616  0.5902  0.5070 -0.2071
15487SOL     OW47901   4.281   6.085   7.909  0.4731  0.2522 -0.8035
15487SOL    HW147902   4.232   6.080   7.828 -2.0343 -0.3361  0.6365
15487SOL    HW247903   4.292   6.178   7.925 -0.8767  0.4305 -0.8102
15488SOL     OW47904   4.407   5.834   7.031  0.0962  0.0092 -0.4759
15488SOL    HW147905   4.335   5.792   6.983  1.0693 -2.4225  0.0975
15488SOL    HW247906   4.478   5.840   6.967  0.6611 -1.2156  0.0127
15489SOL     OW47907   5.082   3.751   8.172 -0.0569 -0.1754 -0.0529
15489SOL    HW147908   5.025   3.780   8.244  1.6134  1.6430  0.6130
15489SOL    HW247909   5.043   3.791   8.094 -0.3061  0.1605  0.2377
15490SOL     OW47910   3.972   5.080   9.037 -0.9954 -0.3858  0.4163
15490SOL    HW147911   4.000   5.104   8.948  0.9769  0.0992  1.1114
15490SOL    HW247912   3.885   5.118   9.046 -0.2246  1.7518 -0.4785
15491SOL     OW47913   4.007   6.560  10.080  0.2496  0.3392 -0.0432
15491SOL    HW147914   4.015   6.535   9.988  1.0266  2.1214 -0.5066
15491SOL    HW247915   4.053   6.492  10.128 -0.2122 -0.6504 -0.9524
15492SOL     OW47916   5.733   5.116   8.903  0.8023  0.3929 -0.8816
15492SOL    HW147917   5.677   5.098   8.828 -0.3671  1.0938 -0.2054
15492SOL    HW247918   5.801   5.048   8.899 -1.3593 -1.9290 -0.4740
15493SOL     OW47919   4.385   4.303   9.531  0.6368  0.3129  0.1564
15493SOL    HW147920   4.328   4.240   9.487 -1.0348 -0.1232  2.6739
15493SOL    HW247921   4.455   4.249   9.569  1.0454  0.4453 -0.3929
15494SOL     OW47922   5.023   5.357   9.255 -0.3975  0.6117 -0.5622
15494SOL    HW147923   4.954   5.350   9.189 -0.3686  0.1729 -0.5491
15494SOL    HW247924   4.992   5.301   9.327  0.8884 -1.1878 -1.3546
15495SOL     OW47925   4.400   3.955   8.075 -0.1750  0.0987 -0.0163
15495SOL    HW147926   4.359   3.882   8.029  1.2797 -0.8096  0.0949
15495SOL    HW247927   4.474   3.981   8.019 -0.6536  1.4950 -0.0496
15496SOL     OW47928   5.385   3.195   8.134 -0.5249  0.3726  0.1174
15496SOL    HW147929   5.414   3.285   8.126 -2.2940  1.0169  0.5317
15496SOL    HW247930   5.352   3.187   8.223  1.1096 -1.1800  0.6390
15497SOL     OW47931   4.828   4.692   8.684  0.6792 -0.2089  0.2141
15497SOL    HW147932   4.752   4.737   8.647  0.7378  0.4583  0.8924
15497SOL    HW247933   4.847   4.622   8.621  1.2681  1.3613 -1.4297
15498SOL     OW47934   3.680   4.005   9.787 -0.2861  0.3575 -0.2794
15498SOL    HW147935   3.643   3.927   9.746  1.3367 -0.3022 -0.5945
15498SOL    HW247936   3.773   4.003   9.763  0.0851  1.6354  0.8743
15499SOL     OW47937   6.257   6.891   8.747  0.2132 -0.4504 -0.7073
15499SOL    HW147938   6.187   6.830   8.726 -1.2348  1.1295 -0.7135
15499SOL    HW247939   6.231   6.973   8.703  2.7763 -0.1767 -1.8840
15500SOL     OW47940   3.703   4.357   9.694  0.0607 -0.4767 -0.5209
15500SOL    HW147941   3.623   4.364   9.642 -0.4870 -2.3193  0.0080
15500SOL    HW247942   3.774   4.355   9.629 -0.4052  0.0638 -1.0494
15501SOL     OW47943   5.605   2.750   8.862  0.3511  0.8026  0.2241
15501SOL    HW147944   5.657   2.788   8.792 -0.7424  2.1934  0.1201
15501SOL    HW247945   5.514   2.757   8.831 -0.0222 -0.1055  1.0605
15502SOL     OW47946   6.387   4.459   8.346 -0.0648 -0.7205 -0.8096
15502SOL    HW147947   6.356   4.486   8.259 -0.0404  0.1898 -0.5406
15502SOL    HW247948   6.423   4.538   8.385  1.2806 -1.4361 -0.5291
15503SOL     OW47949   3.735   5.190   7.774  0.3441  0.1719 -0.0188
15503SOL    HW147950   3.706   5.100   7.790  0.4973  0.4868  2.2866
15503SOL    HW247951   3.661   5.245   7.799  0.5481  0.7476 -0.6301
15504SOL     OW47952   3.894   3.646  10.445 -0.0554 -0.3183 -0.0636
15504SOL    HW147953   3.924   3.572  10.392  1.1078  0.8380 -1.1117
15504SOL    HW247954   3.849   3.703  10.382 -0.5550  0.0743  0.6368
15505SOL     OW47955   4.571   4.087   8.833 -0.6286 -0.8395 -0.7232
15505SOL    HW147956   4.553   4.180   8.818 -1.2520 -0.9832 -0.8803
15505SOL    HW247957   4.565   4.047   8.747  1.9497 -0.6738 -1.0582
15506SOL     OW47958   3.061   5.326   8.536 -0.4255 -0.5283  0.0632
15506SOL    HW147959   3.092   5.398   8.592 -0.6878 -0.2740 -0.1106
15506SOL    HW247960   2.977   5.302   8.574 -1.1867  0.4615 -0.9161
15507SOL     OW47961   3.707   4.879   8.112  0.5566 -0.0207 -0.3974
15507SOL    HW147962   3.785   4.825   8.126  0.2823 -0.6974 -1.4093
15507SOL    HW247963   3.705   4.894   8.018 -0.2224  0.4730 -0.3094
15508SOL     OW47964   4.226   4.099   9.430  0.2420  0.4153  0.3050
15508SOL    HW147965   4.172   4.067   9.358 -1.3133  3.2370  0.0620
15508SOL    HW247966   4.263   4.020   9.470 -0.7302 -1.3760 -2.0983
15509SOL     OW47967   3.067   6.938   9.796  0.0095  0.0269  0.0317
15509SOL    HW147968   3.124   6.902   9.863  0.0464  0.6285  0.3261
15509SOL    HW247969   3.124   6.994   9.743 -0.7460  2.7106  1.8568
15510SOL     OW47970   4.544   4.556   9.510 -0.3461 -0.6942  0.0009
15510SOL    HW147971   4.495   4.486   9.554  0.1981 -1.6027 -0.7892
15510SOL    HW247972   4.531   4.539   9.417 -0.2843  0.3260 -0.1974
15511SOL     OW47973   6.280   1.769   8.561 -0.1777 -0.0033 -0.5080
15511SOL    HW147974   6.234   1.852   8.544  1.1454  1.2763  1.7260
15511SOL    HW247975   6.216   1.716   8.608 -0.8239 -0.0248 -1.3877
15512SOL     OW47976   2.817   6.839   9.056  0.2130 -0.2642 -0.5888
15512SOL    HW147977   2.757   6.893   9.004  0.9092  0.5991 -0.5070
15512SOL    HW247978   2.893   6.826   9.001  1.0703  0.8759  0.2769
15513SOL     OW47979   4.589   4.632   8.823 -1.0197  0.7260  0.0626
15513SOL    HW147980   4.673   4.668   8.795 -0.2214 -0.4208  0.8885
15513SOL    HW247981   4.535   4.632   8.744 -0.5435  2.2760 -0.2880
15514SOL     OW47982   4.325   5.845   9.820  0.2700 -0.1852  0.3543
15514SOL    HW147983   4.357   5.755   9.824  0.1862 -0.1751  2.2008
15514SOL    HW247984   4.402   5.898   9.842  0.3404  0.2221 -0.8029
15515SOL     OW47985   4.869   5.971   7.089 -0.4587 -0.2499  0.3760
15515SOL    HW147986   4.839   5.881   7.074 -2.4187  0.5232 -0.6075
15515SOL    HW247987   4.789   6.022   7.098  0.6295  1.3156  1.6349
15516SOL     OW47988   6.407   3.649   7.879 -0.1894  0.5274 -0.1248
15516SOL    HW147989   6.323   3.641   7.834  0.3128  0.4901 -1.0693
15516SOL    HW247990   6.383   3.672   7.969 -1.2241  0.0859 -0.2686
15517SOL     OW47991   6.406   5.806   9.288 -0.0639 -0.2202  0.2291
15517SOL    HW147992   6.423   5.807   9.193 -0.1668 -2.2000  0.1553
15517SOL    HW247993   6.413   5.714   9.312  0.5964  0.3244  2.2843
15518SOL     OW47994   3.445   5.188   8.682 -0.7810 -0.3309 -0.1089
15518SOL    HW147995   3.390   5.176   8.759 -1.0958  1.1182 -0.0791
15518SOL    HW247996   3.515   5.246   8.711 -0.2881 -0.6568 -0.6317
15519SOL     OW47997   4.427   5.646   8.003  0.1365  0.3121  0.7721
15519SOL    HW147998   4.349   5.634   8.057  0.2064 -0.3853  0.7239
15519SOL    HW247999   4.416   5.584   7.931 -0.3968  1.8555 -0.5318
15520SOL     OW48000   5.251   3.271   6.991 -0.5582  0.1627 -0.0172
15520SOL    HW148001   5.229   3.178   6.996 -0.0326  0.0991  1.5101
15520SOL    HW248002   5.168   3.316   7.009 -0.5238 -0.0310  0.6529
15521SOL     OW48003   5.530   4.507   7.382  0.1028 -0.0656  0.1725
15521SOL    HW148004   5.506   4.565   7.310 -1.0864 -0.3692  0.3004
15521SOL    HW248005   5.520   4.561   7.460 -1.2058 -0.4573  0.3099
15522SOL     OW48006   3.049   6.262   9.253 -0.0833  0.2726 -0.1211
15522SOL    HW148007   2.988   6.298   9.189 -0.6000  0.7488  0.6208
15522SOL    HW248008   3.000   6.191   9.295  0.1319  0.1783 -0.0321
15523SOL     OW48009   4.200   4.780   9.012  0.1706  0.4272 -0.2589
15523SOL    HW148010   4.180   4.828   8.931  0.5315  1.7964  0.4325
15523SOL    HW248011   4.117   4.779   9.059 -0.2792 -1.1883 -1.0220
15524SOL     OW48012   3.665   6.126   8.482  1.0755 -1.0889  0.5431
15524SOL    HW148013   3.720   6.094   8.554  2.2219 -0.2621  0.0734
15524SOL    HW248014   3.724   6.181   8.430  0.3734 -1.9074 -1.2134
15525SOL     OW48015   4.589   4.378   9.893  0.2295 -0.4748  0.2479
15525SOL    HW148016   4.656   4.323   9.853 -0.9828 -0.8116 -1.4624
15525SOL    HW248017   4.507   4.330   9.879 -0.5427  0.5333  1.0823
15526SOL     OW48018   4.909   4.460   8.504  0.2229  0.1153  0.4010
15526SOL    HW148019   4.849   4.436   8.433  0.3550  1.6752 -0.2846
15526SOL    HW248020   4.986   4.404   8.490 -0.8850 -1.7118  1.1303
15527SOL     OW48021   4.151   4.964   7.846 -0.1917  0.2356 -0.1369
15527SOL    HW148022   4.192   4.880   7.868  0.7712  0.6382 -0.3681
15527SOL    HW248023   4.173   4.978   7.754 -1.8692 -0.1040 -0.6339
15528SOL     OW48024   6.542   3.381  10.033 -0.1913  0.2742 -0.2044
15528SOL    HW148025   6.614   3.429   9.991  0.0189  0.2060  0.0767
15528SOL    HW248026   6.565   3.379  10.126 -1.7451  2.3883  0.3085
15529SOL     OW48027   5.507   4.621   7.133  0.8519  0.3872  0.1570
15529SOL    HW148028   5.452   4.569   7.075  0.0471  1.7693 -0.3781
15529SOL    HW248029   5.464   4.707   7.136  2.9591  1.5325 -0.2815
15530SOL     OW48030   6.292   4.059   8.450 -0.5126  0.2123  0.9766
15530SOL    HW148031   6.261   4.103   8.372  1.7151  0.4225  0.1340
15530SOL    HW248032   6.355   4.120   8.489  0.2480 -0.8956  1.5498
15531SOL     OW48033   4.596   3.887   7.868  0.0087  0.0104  0.1003
15531SOL    HW148034   4.591   3.795   7.843 -0.2062 -0.0929  0.5149
15531SOL    HW248035   4.538   3.931   7.805 -0.8577 -0.3034  0.6660
15532SOL     OW48036   4.032   6.245   8.293  0.3831  0.3288 -0.5643
15532SOL    HW148037   4.080   6.163   8.284 -0.2054  0.0948 -1.6969
15532SOL    HW248038   4.003   6.247   8.384 -0.3758 -1.1532 -0.7541
15533SOL     OW48039   3.914   4.381   9.003  0.0772  0.9901  0.2640
15533SOL    HW148040   3.843   4.398   8.941 -0.0488 -1.2911 -0.3193
15533SOL    HW248041   3.972   4.321   8.957  0.8587  0.5415  1.7700
15534SOL     OW48042   3.434   6.484   8.024 -0.3507  0.2001  0.5768
15534SOL    HW148043   3.381   6.440   7.959 -0.1857 -1.0233  1.2439
15534SOL    HW248044   3.518   6.501   7.980 -0.5296  0.1363  0.2125
15535SOL     OW48045   5.511   3.847   9.034  0.5042 -0.1164  0.1911
15535SOL    HW148046   5.553   3.933   9.031 -0.4019  0.3845  1.3634
15535SOL    HW248047   5.437   3.854   8.974 -0.0429  0.1883  0.8968
15536SOL     OW48048   3.451   3.904   7.724 -0.0593 -0.1731  0.4305
15536SOL    HW148049   3.536   3.937   7.695  0.4297 -1.3896  0.4180
15536SOL    HW248050   3.389   3.938   7.660  0.5059  0.2405  0.0994
15537SOL     OW48051   4.923   4.946   8.992 -0.2141  0.2462 -0.8390
15537SOL    HW148052   4.835   4.977   8.975 -0.0046  0.4956 -1.4691
15537SOL    HW248053   4.962   4.931   8.906 -0.5976 -2.6526 -0.6013
15538SOL     OW48054   3.877   3.472   7.547  0.2548 -0.2173  1.0992
15538SOL    HW148055   3.825   3.548   7.521 -0.8563 -1.2054  0.3874
15538SOL    HW248056   3.924   3.446   7.467 -0.2803 -0.9880  1.0267
15539SOL     OW48057   5.533   4.100   7.067 -0.0464 -0.3382 -0.1621
15539SOL    HW148058   5.502   4.028   7.013  0.7313 -0.9702  0.2059
15539SOL    HW248059   5.511   4.074   7.157 -1.3564  0.7104 -0.1491
15540SOL     OW48060   3.878   4.233   9.312  0.0946 -0.0910 -0.9532
15540SOL    HW148061   3.955   4.209   9.260  0.7496  1.6267 -0.8407
15540SOL    HW248062   3.855   4.321   9.281  1.1637  1.5009  2.3495
15541SOL     OW48063   5.548   5.106   7.107 -0.2114  0.3717  0.9630
15541SOL    HW148064   5.467   5.055   7.103  0.2842 -0.3679 -0.4738
15541SOL    HW248065   5.609   5.051   7.157  0.1024 -0.1530  0.0288
15542SOL     OW48066   5.806   4.678   7.137  0.6975  0.1831  0.0295
15542SOL    HW148067   5.879   4.618   7.153 -0.7078 -1.1532  1.8737
15542SOL    HW248068   5.729   4.630   7.165 -0.6802  2.3404  0.2055
15543SOL     OW48069   5.424   5.268   8.812 -0.1143  0.1394  0.3251
15543SOL    HW148070   5.388   5.322   8.742 -2.9712 -1.4625  0.3952
15543SOL    HW248071   5.484   5.209   8.768  0.5299  1.1704 -0.2378
15544SOL     OW48072   4.754   5.324   9.914 -0.4792  0.3787  0.7081
15544SOL    HW148073   4.730   5.293  10.001  1.0989 -1.1242  0.6638
15544SOL    HW248074   4.724   5.255   9.855  0.5604  0.2494  0.3138
15545SOL     OW48075   4.696   5.076   8.914 -0.3241 -0.5527  0.2147
15545SOL    HW148076   4.619   5.072   8.858 -0.0209 -0.4835 -0.2192
15545SOL    HW248077   4.751   5.144   8.874  0.2137 -1.0008  0.1789
15546SOL     OW48078   5.058   3.070   9.968  0.1007 -0.0030 -0.7039
15546SOL    HW148079   5.072   3.047  10.060  0.7727 -0.1408 -0.8332
15546SOL    HW248080   5.097   2.998   9.919 -0.4541 -0.0409 -1.1041
15547SOL     OW48081   6.705   4.071   7.784  0.1364  0.3631 -0.2293
15547SOL    HW148082   6.689   4.084   7.691  0.4798  0.2717 -0.3004
15547SOL    HW248083   6.617   4.063   7.822 -0.0078 -1.2852 -0.7860
15548SOL     OW48084   5.555   4.096   6.747  0.0692  0.1610 -0.0091
15548SOL    HW148085   5.535   4.032   6.815  0.0459 -0.2824 -0.4267
15548SOL    HW248086   5.488   4.164   6.757 -1.1032 -0.8403 -0.7907
15549SOL     OW48087   3.345   6.234   8.899 -0.0824 -0.1021 -0.2722
15549SOL    HW148088   3.411   6.169   8.874 -0.3150  0.6874 -3.3336
15549SOL    HW248089   3.359   6.307   8.839 -3.0112  0.5596 -0.2994
15550SOL     OW48090   4.336   5.149   7.916  0.2163  0.1190 -0.0417
15550SOL    HW148091   4.412   5.109   7.874 -0.4617  1.3990 -2.7015
15550SOL    HW248092   4.263   5.093   7.891 -0.0292  0.1930  0.5126
15551SOL     OW48093   6.268   6.459   8.558  0.3616  0.4531  0.0775
15551SOL    HW148094   6.337   6.397   8.581  2.2791  2.6475  0.7016
15551SOL    HW248095   6.212   6.463   8.635 -0.3441 -1.1203 -0.3131
15552SOL     OW48096   4.331   5.409   7.861 -0.0971 -0.4888 -0.9199
15552SOL    HW148097   4.252   5.434   7.909  0.4654 -0.6963  0.1418
15552SOL    HW248098   4.332   5.314   7.864  0.4787 -0.4739 -0.4339
15553SOL     OW48099   3.263   4.765   8.351  0.4624  0.1081 -0.2677
15553SOL    HW148100   3.252   4.727   8.264  1.3300  2.1395 -1.3420
15553SOL    HW248101   3.351   4.804   8.349  0.9083 -0.6324  1.8879
15554SOL     OW48102   3.685   5.298   9.753  0.0798  0.3185  0.3673
15554SOL    HW148103   3.669   5.214   9.709 -1.4845  0.6239  0.3290
15554SOL    HW248104   3.689   5.362   9.681 -1.2331  0.6309  0.5491
15555SOL     OW48105   6.430   1.777   8.200 -0.0610 -0.1176  0.1552
15555SOL    HW148106   6.346   1.751   8.237  0.4726  1.8765  3.0996
15555SOL    HW248107   6.409   1.851   8.143 -0.4661 -0.7503 -0.5332
15556SOL     OW48108   5.370   4.298   7.430 -0.1596  0.1639  0.9615
15556SOL    HW148109   5.395   4.281   7.520 -0.5819  1.9844  1.4639
15556SOL    HW248110   5.421   4.375   7.405 -0.7239  0.2336 -0.0411
15557SOL     OW48111   5.412   5.136   9.106  0.2269  0.3225 -0.0373
15557SOL    HW148112   5.422   5.205   9.041 -2.1870  0.2144 -0.6139
15557SOL    HW248113   5.320   5.110   9.101  0.1972 -0.4763  2.6439
15558SOL     OW48114   3.355   4.954   9.322 -0.4707  0.2948  0.4857
15558SOL    HW148115   3.402   4.939   9.240 -0.6951  2.3798 -0.0910
15558SOL    HW248116   3.342   4.867   9.359 -1.5240 -0.8783 -2.3537
15559SOL     OW48117   5.849   4.524   9.459  0.4535  0.2367  0.2920
15559SOL    HW148118   5.799   4.447   9.485 -1.1057  1.0509 -0.1297
15559SOL    HW248119   5.832   4.533   9.365  0.2445  1.3211  0.4162
15560SOL     OW48120   4.751   5.379   9.407  0.0527 -0.3442  0.1628
15560SOL    HW148121   4.828   5.345   9.453  0.1759  0.2103  0.3776
15560SOL    HW248122   4.724   5.308   9.349  1.5813 -0.0579 -0.9612
15561SOL     OW48123   5.515   4.477   7.820  0.6316 -0.9736 -0.1818
15561SOL    HW148124   5.438   4.504   7.870  1.8399  2.1250  0.2448
15561SOL    HW248125   5.587   4.480   7.884  1.9003  1.2238 -1.5990
15562SOL     OW48126   5.499   5.427   7.058 -0.4091  0.6413 -0.0261
15562SOL    HW148127   5.463   5.515   7.046 -0.9090  0.3516 -0.7185
15562SOL    HW248128   5.478   5.381   6.977  0.9947  0.2755 -0.2181
15563SOL     OW48129   5.339   5.476   8.620  0.9090 -0.0298 -0.3420
15563SOL    HW148130   5.377   5.545   8.566  2.0260 -0.3476  0.0226
15563SOL    HW248131   5.244   5.485   8.607  1.1309  0.1053 -2.0967
15564SOL     OW48132   4.054   5.818   8.226  0.4969 -0.5012  0.0716
15564SOL    HW148133   3.989   5.750   8.208  1.0446 -1.1438  0.4821
15564SOL    HW248134   4.023   5.860   8.307  1.0289 -1.3676  0.7375
15565SOL     OW48135   4.414   4.946   9.759 -0.8238 -0.3738  0.2078
15565SOL    HW148136   4.452   5.033   9.773 -0.0221 -0.7406  0.3872
15565SOL    HW248137   4.487   4.893   9.728 -1.3122 -0.9801  0.0798
15566SOL     OW48138   3.162   3.489  10.820 -0.5397 -0.1801 -0.3429
15566SOL    HW148139   3.213   3.409  10.811 -2.4276 -1.3673 -1.1216
15566SOL    HW248140   3.176   3.518  10.910  1.0693 -0.7272 -0.3989
15567SOL     OW48141   3.940   4.003   9.440  0.1179  0.6386  0.2775
15567SOL    HW148142   3.898   4.070   9.386 -3.0553  0.2451  2.0224
15567SOL    HW248143   3.941   3.925   9.384  0.6857  1.2262 -0.5712
15568SOL     OW48144   3.780   6.286  11.020 -0.2479 -0.2415 -0.6215
15568SOL    HW148145   3.812   6.360  11.072 -0.5448 -0.4195 -0.1830
15568SOL    HW248146   3.706   6.322  10.970  0.2903  0.0326 -1.2324
15569SOL     OW48147   5.774   4.034   8.428  0.3301  0.6083  0.3050
15569SOL    HW148148   5.740   4.111   8.474 -0.2825 -0.2025  1.2515
15569SOL    HW248149   5.782   3.967   8.496  0.5519 -0.2615 -0.5603
15570SOL     OW48150   4.622   6.063   7.384  0.1723  0.2474  0.4612
15570SOL    HW148151   4.690   6.130   7.372 -0.3142  0.4572 -1.5611
15570SOL    HW248152   4.552   6.107   7.432  0.5152  0.7117  0.5377
15571SOL     OW48153   4.968   2.795   8.457  0.1887  0.1025 -0.2468
15571SOL    HW148154   4.921   2.751   8.386  2.0586 -0.1842 -1.3849
15571SOL    HW248155   4.930   2.882   8.461 -1.7465 -0.7088  0.2285
15572SOL     OW48156   3.407   4.844  10.491 -0.2530  0.4542 -0.2258
15572SOL    HW148157   3.454   4.872  10.569 -1.3536  1.5117  0.0958
15572SOL    HW248158   3.469   4.789  10.443 -0.0134 -1.4324  2.0609
15573SOL     OW48159   5.161   3.613   9.933  0.1553 -0.4213 -0.6486
15573SOL    HW148160   5.138   3.577   9.847 -0.0167  0.1375 -0.8456
15573SOL    HW248161   5.191   3.702   9.914  0.0381 -0.2647 -0.1188
15574SOL     OW48162   5.190   3.980  10.560 -0.0974 -0.0429 -0.0217
15574SOL    HW148163   5.237   3.993  10.477  1.4636 -1.2883  0.6090
15574SOL    HW248164   5.238   4.034  10.623 -1.1317  0.7091  0.1554
15575SOL     OW48165   5.184   4.753   0.103 -0.0332 -0.5610  0.2107
15575SOL    HW148166   5.267   4.785   0.069  0.5787 -0.7499  1.4506
15575SOL    HW248167   5.165   4.809   0.178 -0.6615 -0.9686  0.3697
15576SOL     OW48168   2.910   4.508   9.111  0.1015 -0.5286  0.7924
15576SOL    HW148169   2.861   4.426   9.103  2.1312 -1.6088 -2.2805
15576SOL    HW248170   2.997   4.481   9.140  0.2613  0.8183  1.6586
15577SOL     OW48171   3.431   6.428   0.819  0.0788  0.0220 -0.1593
15577SOL    HW148172   3.423   6.357   0.884 -1.6808 -1.0193 -1.4101
15577SOL    HW248173   3.464   6.502   0.869 -0.6792 -0.8890  1.8316
15578SOL     OW48174   2.873   4.406   9.954  0.0890 -0.8197 -0.1500
15578SOL    HW148175   2.857   4.500   9.948 -1.3664 -1.0188  0.1190
15578SOL    HW248176   2.797   4.372  10.002  0.2383 -2.2207 -0.8522
15579SOL     OW48177   5.976   4.709   9.627 -0.4122 -0.0626  0.1940
15579SOL    HW148178   6.006   4.773   9.562 -1.6842  0.3052 -0.0713
15579SOL    HW248179   5.923   4.648   9.577 -3.3997  1.5483  1.1484
15580SOL     OW48180   4.181   7.334  11.454 -0.5747  0.0604 -0.6124
15580SOL    HW148181   4.134   7.360  11.375 -1.9109 -0.8789 -0.1743
15580SOL    HW248182   4.120   7.353  11.525 -0.4129 -1.4285 -0.0469
15581SOL     OW48183   5.164   6.641  11.522  0.8273 -0.3874  0.4771
15581SOL    HW148184   5.071   6.659  11.535  0.8516  0.5866 -0.5102
15581SOL    HW248185   5.208   6.720  11.553  1.1545  0.1154 -1.1529
15582SOL     OW48186   3.255   5.266   9.837  0.3878 -0.3699  0.5037
15582SOL    HW148187   3.297   5.317   9.767 -2.3233  2.1185  0.5411
15582SOL    HW248188   3.234   5.330   9.904 -2.3861 -1.6450  0.9702
15583SOL     OW48189   2.454   4.680  11.715  0.1101  0.1438 -0.2554
15583SOL    HW148190   2.379   4.648  11.767  0.2633  0.5314  0.2125
15583SOL    HW248191   2.511   4.604  11.707  0.0658  0.0693  0.1120
15584SOL     OW48192   4.281   7.136  11.276 -0.3615  0.3125 -0.0840
15584SOL    HW148193   4.344   7.082  11.325 -0.1728  0.9810  0.4276
15584SOL    HW248194   4.279   7.219  11.323 -0.5169  0.8222 -0.9619
15585SOL     OW48195   4.002   4.468  10.434  0.3000  0.1355 -0.4466
15585SOL    HW148196   3.979   4.388  10.482  0.9866  0.5751  0.6667
15585SOL    HW248197   3.993   4.444  10.342  1.1417 -1.4473 -0.1597
15586SOL     OW48198   5.595   2.940  11.472  0.5646  0.3068 -0.2421
15586SOL    HW148199   5.510   2.945  11.428  0.2735  0.3733  0.3187
15586SOL    HW248200   5.634   2.859  11.441 -0.5871 -0.7862  1.0467
15587SOL     OW48201   4.697   3.737   9.933  0.1302 -0.1635  0.3390
15587SOL    HW148202   4.631   3.769   9.994 -0.0290  1.3046 -0.5454
15587SOL    HW248203   4.654   3.665   9.887  0.0642 -0.9107  1.5415
15588SOL     OW48204   5.402   4.664  10.941 -0.0805  0.4775  0.1091
15588SOL    HW148205   5.338   4.651  11.010  0.7794  2.7121  1.4282
15588SOL    HW248206   5.432   4.754  10.952  0.7212  0.6433 -2.6708
15589SOL     OW48207   3.888   4.900  10.379 -0.3266  0.2171 -0.2819
15589SOL    HW148208   3.840   4.981  10.395  0.6201  0.8604 -0.5973
15589SOL    HW248209   3.882   4.852  10.461 -0.9339  0.5842 -0.1028
15590SOL     OW48210   5.900   5.740  10.867 -0.2308  0.7195  0.0791
15590SOL    HW148211   5.933   5.650  10.863 -0.5264  0.5258  1.5390
15590SOL    HW248212   5.815   5.733  10.910  0.5706  1.8792  1.9938
15591SOL     OW48213   4.100   3.817  10.210 -0.3490  0.1625  0.3301
15591SOL    HW148214   4.075   3.733  10.170  0.0183 -0.6937  1.8218
15591SOL    HW248215   4.020   3.869  10.207 -0.4620 -0.0492 -1.0338
15592SOL     OW48216   4.489   6.335  11.142  0.0668 -0.3069  0.7082
15592SOL    HW148217   4.527   6.421  11.121 -0.7100  0.1855  1.2666
15592SOL    HW248218   4.395   6.351  11.142 -0.3677 -1.9665 -2.8246
15593SOL     OW48219   3.400   4.726  11.693  0.6812  0.2906 -0.1024
15593SOL    HW148220   3.439   4.639  11.682  2.5514  1.1840 -1.1078
15593SOL    HW248221   3.425   4.774  11.613 -0.9680  1.5283  0.0710
15594SOL     OW48222   4.228   4.568   0.223  0.2178  0.5420  0.0820
15594SOL    HW148223   4.305   4.621   0.246  0.7269  0.6746 -1.7970
15594SOL    HW248224   4.174   4.626   0.170 -0.4004 -0.0763  0.0214
15595SOL     OW48225   5.651   3.936  11.205 -0.4999 -0.5455  0.1169
15595SOL    HW148226   5.559   3.928  11.232 -0.7074 -1.5592 -0.8290
15595SOL    HW248227   5.647   3.980  11.120 -0.0306  0.2345  0.4846
15596SOL     OW48228   3.425   5.981  10.215  0.1715 -0.4477 -0.5170
15596SOL    HW148229   3.412   6.022  10.129  0.0840 -1.1441 -0.8432
15596SOL    HW248230   3.445   5.890  10.195  0.8244 -0.4634  0.1816
15597SOL     OW48231   4.542   4.089   9.609  0.2879  0.0698 -0.0067
15597SOL    HW148232   4.594   4.094   9.689  0.9336 -3.2530 -0.1116
15597SOL    HW248233   4.601   4.053   9.543 -1.0486 -0.0344 -1.1980
15598SOL     OW48234   5.185   5.961  11.085 -0.1687 -0.4029 -0.0145
15598SOL    HW148235   5.212   6.048  11.055 -1.0288 -0.2864 -0.4970
15598SOL    HW248236   5.137   5.924  11.011 -0.2076 -1.1082  0.3543
15599SOL     OW48237   5.040   3.513  12.091  0.1259  0.2701 -0.2396
15599SOL    HW148238   5.120   3.463  12.076  0.1616 -0.1522  1.2407
15599SOL    HW248239   4.970   3.457  12.058  0.3806  0.3995 -1.0219
15600SOL     OW48240   4.200   4.460   9.693 -0.0622  0.7057 -0.1179
15600SOL    HW148241   4.131   4.495   9.636  1.0649 -0.4743 -2.3605
15600SOL    HW248242   4.276   4.452   9.636  0.9131 -1.3877  1.3391
15601SOL     OW48243   6.077   3.135  10.617  0.4702 -0.3253  0.4145
15601SOL    HW148244   6.087   3.121  10.522  0.0045 -1.1490  0.4724
15601SOL    HW248245   6.164   3.121  10.653  0.5848 -0.3215  0.1407
15602SOL     OW48246   3.431   4.100  10.106 -0.0190  0.9109 -0.0436
15602SOL    HW148247   3.479   4.125  10.185  1.7263 -0.2302 -0.6786
15602SOL    HW248248   3.351   4.058  10.138  0.6940  0.4158  1.1443
15603SOL     OW48249   3.885   4.648   9.509 -0.2544 -0.0930 -0.3000
15603SOL    HW148250   3.951   4.716   9.495  0.6665 -1.3202 -2.3431
15603SOL    HW248251   3.832   4.649   9.429 -0.5391 -1.4381 -0.1545
15604SOL     OW48252   5.017   5.583  10.644  0.0978  0.5062 -0.1395
15604SOL    HW148253   5.047   5.660  10.597  0.3490  1.4484  1.5079
15604SOL    HW248254   4.931   5.608  10.678 -0.7884 -0.7177 -1.3595
15605SOL     OW48255   3.565   2.593  11.004  0.2790 -0.1379 -0.8672
15605SOL    HW148256   3.563   2.522  10.939  1.5615  1.3811 -2.6691
15605SOL    HW248257   3.512   2.662  10.966 -0.3830  0.1562  0.5457
15606SOL     OW48258   5.073   4.352  10.469  0.2598 -0.1327 -0.4040
15606SOL    HW148259   5.139   4.339  10.537  0.5884  0.2911 -0.6385
15606SOL    HW248260   5.117   4.326  10.387  0.4267  0.9622 -0.6760
15607SOL     OW48261   5.274   2.336  10.948 -0.5480 -0.4876 -0.3585
15607SOL    HW148262   5.330   2.345  11.025 -0.9910 -1.9416  0.1626
15607SOL    HW248263   5.336   2.331  10.875 -0.0069 -1.3083  0.1331
15608SOL     OW48264   5.201   1.915  10.039  0.4637  0.3522 -0.0163
15608SOL    HW148265   5.171   1.824  10.042 -2.7036  1.3024  2.1622
15608SOL    HW248266   5.172   1.947   9.954 -2.7944  0.5267  1.0554
15609SOL     OW48267   4.639   4.926  10.629 -0.0159  0.1806  0.6648
15609SOL    HW148268   4.714   4.985  10.635 -1.6268  2.3580  0.4738
15609SOL    HW248269   4.630   4.907  10.536  0.6781 -0.6283  0.7556
15610SOL     OW48270   3.036   3.334  10.380 -0.2083 -0.4513 -0.2335
15610SOL    HW148271   3.033   3.391  10.457  2.2918  1.3559 -1.3322
15610SOL    HW248272   3.054   3.394  10.307  0.7989 -2.4585 -1.7188
15611SOL     OW48273   2.238   5.274   8.932 -0.3482  0.0628  0.3718
15611SOL    HW148274   2.325   5.236   8.944 -0.5196 -0.5921 -0.3646
15611SOL    HW248275   2.181   5.198   8.917 -1.0150  0.4963  0.6879
15612SOL     OW48276   4.490   2.810  11.499  0.1383 -0.0989  0.0517
15612SOL    HW148277   4.522   2.899  11.489 -1.0206  0.1095 -2.7919
15612SOL    HW248278   4.511   2.786  11.589  2.5453  2.1979  0.2081
15613SOL     OW48279   4.284   7.152  10.181 -0.0347  0.0933  0.4272
15613SOL    HW148280   4.217   7.141  10.249 -0.5023  0.9610  0.1358
15613SOL    HW248281   4.367   7.154  10.228 -0.4833  3.0581  1.3258
15614SOL     OW48282   5.477   2.926   9.784 -0.4032 -0.6828 -0.1532
15614SOL    HW148283   5.480   2.830   9.784 -2.3436 -0.7885 -0.1670
15614SOL    HW248284   5.495   2.951   9.875 -0.4495 -1.1009 -0.0285
15615SOL     OW48285   4.338   3.741   9.769  0.4819 -0.1422 -0.2527
15615SOL    HW148286   4.406   3.675   9.773 -0.5133 -1.1309  1.2884
15615SOL    HW248287   4.277   3.708   9.702  1.3032  0.5912 -1.4094
15616SOL     OW48288   4.981   6.468  10.373 -0.4174 -0.0912 -0.1796
15616SOL    HW148289   4.965   6.385  10.418 -1.5895 -0.3010 -0.9360
15616SOL    HW248290   4.894   6.507  10.365  0.0562  0.9551 -0.3320
15617SOL     OW48291   5.332   3.853   9.895  0.4964 -0.4155 -0.2853
15617SOL    HW148292   5.286   3.930   9.928  1.5578 -0.2194  0.7909
15617SOL    HW248293   5.419   3.885   9.869  0.9447 -1.2311  0.1527
15618SOL     OW48294   4.840   4.499  11.844 -0.0855 -0.2867 -0.3390
15618SOL    HW148295   4.855   4.572  11.903 -0.9177 -1.3591  1.2914
15618SOL    HW248296   4.847   4.536  11.756 -0.2328  1.6754  0.4384
15619SOL     OW48297   3.476   5.094   9.639 -0.8471 -0.8779  0.7001
15619SOL    HW148298   3.393   5.141   9.650 -0.2675  0.4429 -0.2138
15619SOL    HW248299   3.459   5.031   9.569 -1.2678 -1.1135  1.0096
15620SOL     OW48300   4.922   5.367  10.480 -0.2329  0.4418 -0.0968
15620SOL    HW148301   4.962   5.446  10.516 -0.2588 -0.1158  1.2443
15620SOL    HW248302   4.854   5.399  10.420 -0.1558  1.4269  0.3190
15621SOL     OW48303   3.433   5.643   9.718  0.1339  0.0200 -0.1946
15621SOL    HW148304   3.337   5.643   9.720 -0.0474 -4.2566 -0.7618
15621SOL    HW248305   3.457   5.551   9.710  4.3219  1.0117 -1.4144
15622SOL     OW48306   2.660   5.113   8.510  0.1745  0.2976 -0.2749
15622SOL    HW148307   2.752   5.088   8.507  0.0343 -0.1127 -1.6672
15622SOL    HW248308   2.641   5.148   8.423 -0.6408  1.6661  0.4122
15623SOL     OW48309   4.563   3.710  10.543  0.3278  0.2478  0.0220
15623SOL    HW148310   4.548   3.804  10.553  0.8428  0.2231  1.2683
15623SOL    HW248311   4.476   3.672  10.536  0.0538  0.7171  0.7109
15624SOL     OW48312   5.533   4.337   8.859  0.7442 -0.2168  0.1250
15624SOL    HW148313   5.478   4.357   8.785 -0.6599 -2.9317  0.2996
15624SOL    HW248314   5.544   4.420   8.905 -2.5810  0.6102 -0.3474
15625SOL     OW48315   3.742   5.117  10.426 -0.2226  0.0071  0.2086
15625SOL    HW148316   3.684   5.155  10.491  0.4465 -1.0134  1.4648
15625SOL    HW248317   3.740   5.178  10.353 -2.6743  0.1064  0.2891
15626SOL     OW48318   5.045   4.747   6.946  0.7348 -0.3441 -0.7228
15626SOL    HW148319   5.014   4.683   6.881 -1.1601  0.0202 -0.2464
15626SOL    HW248320   4.969   4.804   6.962  1.6795  0.6273  0.5508
15627SOL     OW48321   3.451   7.418  10.691  0.4309  0.5651  0.0093
15627SOL    HW148322   3.513   7.383  10.754 -0.9846 -0.7052  0.7478
15627SOL    HW248323   3.489   7.396  10.605  0.2281 -1.7012  0.4450
15628SOL     OW48324   2.597   5.247  10.640 -0.5695 -0.1075  0.1267
15628SOL    HW148325   2.569   5.324  10.690  1.1128 -0.3791  1.5749
15628SOL    HW248326   2.599   5.176  10.704 -1.8799 -1.3657 -1.1375
15629SOL     OW48327   3.642   4.636   9.791 -0.2063  0.3704 -0.1372
15629SOL    HW148328   3.733   4.607   9.801  0.1705  0.7419 -2.1275
15629SOL    HW248329   3.642   4.685   9.709 -2.2317  0.3136 -0.2032
15630SOL     OW48330   5.870   5.145  10.116 -0.0895 -0.1946  0.0469
15630SOL    HW148331   5.956   5.114  10.144 -0.7971 -0.5021  2.0112
15630SOL    HW248332   5.809   5.078  10.148 -1.0683 -0.1194 -1.5426
15631SOL     OW48333   4.456   4.432  12.494  0.2286  0.1923 -0.1427
15631SOL    HW148334   4.423   4.366  12.433  0.0169 -0.3566  0.5621
15631SOL    HW248335   4.441   4.515  12.448 -0.9719 -0.1340 -0.3785
15632SOL     OW48336   3.922   6.127  10.856 -0.1230 -0.5655  0.1092
15632SOL    HW148337   3.984   6.079  10.910  1.6432  1.6645  0.1973
15632SOL    HW248338   3.893   6.200  10.911  0.8900  1.1407 -1.4905
15633SOL     OW48339   5.915   2.779  10.314 -0.4025 -0.2127  0.0596
15633SOL    HW148340   5.875   2.700  10.349 -1.1353  0.3938  0.6368
15633SOL    HW248341   6.008   2.771  10.336 -0.3469 -1.2293 -0.5163
15634SOL     OW48342   5.499   6.790  12.323  0.3713 -0.4854 -0.3919
15634SOL    HW148343   5.550   6.729  12.269 -0.9407 -1.9453 -0.0717
15634SOL    HW248344   5.510   6.875  12.281  1.0781 -1.2088 -1.7301
15635SOL     OW48345   5.162   5.468   8.927 -0.3821  0.0213  0.3311
15635SOL    HW148346   5.208   5.452   8.844 -0.4376  0.9096  0.1233
15635SOL    HW248347   5.077   5.504   8.901 -0.3878  0.3303  0.7695
15636SOL     OW48348   4.423   3.328   9.892  0.6514 -0.1073 -0.7341
15636SOL    HW148349   4.337   3.356   9.924  1.1132  0.3606  0.1510
15636SOL    HW248350   4.404   3.261   9.826 -0.3631 -0.5403 -0.0225
15637SOL     OW48351   4.976   4.134   8.274  0.1296  0.3360  0.0395
15637SOL    HW148352   4.895   4.091   8.304 -0.1147  0.6502 -0.1680
15637SOL    HW248353   4.946   4.217   8.236  0.4620  0.0669 -0.8227
15638SOL     OW48354   5.317   4.657   9.500  0.2161 -0.2226  0.0039
15638SOL    HW148355   5.320   4.690   9.410  0.4396 -0.3610 -0.0415
15638SOL    HW248356   5.226   4.632   9.513  0.4675 -1.6046 -0.7062
15639SOL     OW48357   6.808   4.545  12.306 -0.0423  0.5804 -0.0373
15639SOL    HW148358   6.795   4.536  12.212  0.2779  1.4760 -0.1665
15639SOL    HW248359   6.880   4.606  12.316  0.4740 -0.1275  0.7862
15640SOL     OW48360   4.498   5.799   8.490 -0.3599  0.2140 -0.3664
15640SOL    HW148361   4.530   5.883   8.457 -1.6243  0.2544 -1.6447
15640SOL    HW248362   4.447   5.764   8.417 -2.3336 -0.2777  1.1641
15641SOL     OW48363   5.245   4.035  10.884  0.5836  0.1166  0.4040
15641SOL    HW148364   5.205   3.962  10.931  0.1791 -0.9228 -1.4278
15641SOL    HW248365   5.187   4.109  10.901  1.4790  0.3051  3.0159
15642SOL     OW48366   3.682   6.624  11.548 -0.2060  0.6278 -0.8692
15642SOL    HW148367   3.700   6.530  11.536  0.6910  0.7963 -0.8773
15642SOL    HW248368   3.688   6.638  11.642 -2.9568  0.1766 -0.5406
15643SOL     OW48369   4.002   5.470   9.421  0.0846 -0.2434  0.0380
15643SOL    HW148370   4.001   5.549   9.367  0.7962 -0.1750  0.1265
15643SOL    HW248371   3.993   5.502   9.510  2.3436 -0.0912  0.2656
15644SOL     OW48372   2.821   6.912  10.516 -0.0598  0.4200  0.3501
15644SOL    HW148373   2.865   6.884  10.596 -1.2828 -0.0636  0.8832
15644SOL    HW248374   2.751   6.848  10.503  0.5640  0.0557 -1.5356
15645SOL     OW48375   4.462   1.201   9.589  0.3703  0.5433  0.2249
15645SOL    HW148376   4.554   1.187   9.613  0.2724 -0.9235 -0.1790
15645SOL    HW248377   4.457   1.173   9.497 -0.5169  0.4169  0.3083
15646SOL     OW48378   3.564   3.778   9.692  0.6344  0.8536  0.5645
15646SOL    HW148379   3.536   3.688   9.709  0.4698  0.5898 -0.9277
15646SOL    HW248380   3.488   3.820   9.652  0.8265  1.5555  0.9169
15647SOL     OW48381   5.157   4.285   9.472  0.1153 -0.0623  0.8504
15647SOL    HW148382   5.107   4.366   9.477 -0.2024 -0.1025 -0.9841
15647SOL    HW248383   5.244   4.313   9.442  0.1183 -0.3714  0.5741
15648SOL     OW48384   5.873   6.829  10.663  0.4392  0.0778  0.1449
15648SOL    HW148385   5.849   6.874  10.744  0.0933 -0.7942  0.5358
15648SOL    HW248386   5.969   6.832  10.661  0.7911 -3.4112  2.7198
15649SOL     OW48387   5.064   5.868  10.573 -0.3264  0.1940 -1.0624
15649SOL    HW148388   5.120   5.933  10.531 -0.1901 -0.3603 -1.7724
15649SOL    HW248389   5.026   5.913  10.648  2.2696  0.1482  0.4164
15650SOL     OW48390   6.504   4.315   9.086 -0.3618 -0.1716 -0.1939
15650SOL    HW148391   6.452   4.324   9.006 -1.0192  0.7654  0.3133
15650SOL    HW248392   6.441   4.291   9.153 -0.2576  1.3664  0.5092
15651SOL     OW48393   5.002   7.546  10.530 -0.4176  0.3313 -0.8449
15651SOL    HW148394   4.995   7.633  10.491  0.0086  0.2470 -1.1148
15651SOL    HW248395   4.988   7.560  10.623 -1.2369  0.5665 -0.9904
15652SOL     OW48396   4.857   4.363   9.500  0.1796 -0.2792  0.1336
15652SOL    HW148397   4.797   4.436   9.487 -0.3938 -0.5471  1.1905
15652SOL    HW248398   4.847   4.310   9.421 -2.6535 -1.4746  1.1724
15653SOL     OW48399   5.828   4.056   9.667 -0.2005  0.0660  0.6091
15653SOL    HW148400   5.745   4.103   9.658 -0.6490 -0.8916 -0.4061
15653SOL    HW248401   5.856   4.075   9.757 -0.1324  2.6297  0.1480
15654SOL     OW48402   5.489   3.731   9.303  0.3901  0.4725 -0.4515
15654SOL    HW148403   5.463   3.806   9.356 -0.5028  0.0215 -0.2275
15654SOL    HW248404   5.506   3.768   9.217 -1.3362  0.7856 -0.7107
15655SOL     OW48405   3.019   4.807  11.882 -0.6031 -0.5614  0.5325
15655SOL    HW148406   3.106   4.847  11.882 -0.1990 -1.4352  1.0883
15655SOL    HW248407   3.035   4.713  11.876 -1.4742 -0.8014  1.6233
15656SOL     OW48408   5.505   5.969   1.450  0.2046  0.2300  0.3005
15656SOL    HW148409   5.552   6.011   1.523  0.1064 -0.1427  0.5853
15656SOL    HW248410   5.537   5.879   1.451 -0.2333  0.0732  0.2489
15657SOL     OW48411   5.389   6.347  10.370  0.1904 -0.1603  0.0996
15657SOL    HW148412   5.476   6.346  10.411  1.1266  0.4001 -1.7457
15657SOL    HW248413   5.359   6.437  10.378  1.8366  0.8470 -3.1133
15658SOL     OW48414   4.600   6.639  12.163  0.7214 -0.1208 -0.2208
15658SOL    HW148415   4.577   6.583  12.089 -1.4267 -0.0824  0.3237
15658SOL    HW248416   4.543   6.608  12.234  0.1821  2.0978  0.3852
15659SOL     OW48417   5.700   4.267  10.752  0.2252 -0.2950  0.3159
15659SOL    HW148418   5.759   4.287  10.680 -0.2261  1.0591  0.2780
15659SOL    HW248419   5.686   4.352  10.795 -2.0383 -0.4587  0.0262
15660SOL     OW48420   6.747   4.490   8.806  0.1474 -0.4544  0.3453
15660SOL    HW148421   6.687   4.421   8.777 -0.6590  0.4449 -0.1904
15660SOL    HW248422   6.818   4.489   8.742 -0.7546  0.3616 -0.7135
15661SOL     OW48423   4.206   3.953   0.327  0.1391  0.1360  0.4370
15661SOL    HW148424   4.224   4.017   0.259  0.6989 -2.4158 -2.0198
15661SOL    HW248425   4.272   3.969   0.394  0.8450  1.5001 -0.5367
15662SOL     OW48426   5.233   3.867   0.019  0.4110 -0.7076 -0.0376
15662SOL    HW148427   5.213   3.811   0.094 -0.7852 -1.3187 -0.7714
15662SOL    HW248428   5.150   3.871  -0.030  1.4994 -1.4055 -2.0225
15663SOL     OW48429   5.070   4.531  11.485  0.6463 -0.1654  0.4358
15663SOL    HW148430   4.994   4.554  11.538  1.0498 -0.3456  1.1130
15663SOL    HW248431   5.137   4.595  11.510  0.3079  0.8434 -1.1601
15664SOL     OW48432   5.404   3.349   9.971 -0.3752 -0.1346 -0.1365
15664SOL    HW148433   5.415   3.443   9.961  0.1481 -0.0572  0.9962
15664SOL    HW248434   5.336   3.325   9.907 -0.0212  0.8824 -0.9184
15665SOL     OW48435   5.321   5.247   0.125 -0.5803 -0.3258 -0.7443
15665SOL    HW148436   5.371   5.328   0.116  0.4921 -0.8693  0.0886
15665SOL    HW248437   5.245   5.272   0.177  0.5430 -0.1470  0.8738
15666SOL     OW48438   5.252   4.365  11.010  0.6307 -0.3218 -0.4861
15666SOL    HW148439   5.219   4.455  11.012 -0.2765 -0.6509  0.9097
15666SOL    HW248440   5.329   4.366  11.067  0.2684 -0.5434  0.0164
15667SOL     OW48441   4.245   2.983  11.118  0.0474  0.1902  0.5013
15667SOL    HW148442   4.195   2.907  11.087  2.8170 -2.2187  1.4238
15667SOL    HW248443   4.225   2.987  11.212  0.2588  0.3059  0.5406
15668SOL     OW48444   4.175   3.226  10.375  0.1302  0.4952 -0.6333
15668SOL    HW148445   4.121   3.200  10.449 -0.4430  2.6522 -0.2232
15668SOL    HW248446   4.259   3.250  10.414  0.1166  0.7917 -0.7835
15669SOL     OW48447   5.153   6.789  10.091  0.2585  0.4233  0.0245
15669SOL    HW148448   5.141   6.829  10.178  0.9556  1.3494 -0.2907
15669SOL    HW248449   5.160   6.695  10.109  1.8888  0.7228  1.1370
15670SOL     OW48450   4.660   5.464   8.669 -0.3266  0.0589 -0.0026
15670SOL    HW148451   4.711   5.429   8.597 -0.8506 -0.2141 -0.2477
15670SOL    HW248452   4.666   5.559   8.658 -0.4614  0.0177 -0.4468
15671SOL     OW48453   5.350   0.145  11.936  0.4603  0.0191  0.8268
15671SOL    HW148454   5.306   0.118  12.017 -1.3200  0.7448  0.1503
15671SOL    HW248455   5.443   0.146  11.959  0.1347 -1.2164  2.4336
15672SOL     OW48456   4.681   4.848   0.686  0.3495  0.7830 -0.5896
15672SOL    HW148457   4.600   4.863   0.734  0.7535  1.2034 -0.0180
15672SOL    HW248458   4.705   4.934   0.651  1.2310  0.9628  0.3748
15673SOL     OW48459   6.299   5.432  12.442  0.3064  0.0931  0.5423
15673SOL    HW148460   6.340   5.346  12.444  0.3856  0.1428  1.2754
15673SOL    HW248461   6.228   5.424  12.377  0.6047 -0.3844  0.2762
15674SOL     OW48462   4.732   4.299  12.464 -0.2120 -0.3355  0.6689
15674SOL    HW148463   4.665   4.367  12.453 -1.2428 -1.4126  0.2036
15674SOL    HW248464   4.771   4.289  12.377  0.4420  0.1499  0.8955
15675SOL     OW48465   4.342   4.357  11.541  0.3701 -0.2228  0.1666
15675SOL    HW148466   4.310   4.272  11.572 -1.3967  0.0372 -0.8156
15675SOL    HW248467   4.355   4.345  11.447  2.2503 -0.0073  0.3696
15676SOL     OW48468   4.089   5.015  11.248 -0.0745 -0.4467 -0.1896
15676SOL    HW148469   4.146   5.039  11.175 -0.0900 -1.6496 -0.6072
15676SOL    HW248470   4.103   4.921  11.260 -0.9361 -0.4866  0.6137
15677SOL     OW48471   2.723   3.272  10.498 -0.2597 -0.4128  0.0290
15677SOL    HW148472   2.628   3.278  10.490 -0.0472  2.2515 -1.6001
15677SOL    HW248473   2.756   3.280  10.409  1.5303 -0.2542  0.6576
15678SOL     OW48474   4.310   4.310   9.214 -0.2984  0.1781 -0.1903
15678SOL    HW148475   4.307   4.356   9.131  2.0645 -0.0645 -0.4611
15678SOL    HW248476   4.262   4.228   9.198  1.4800 -0.6166 -1.8629
15679SOL     OW48477   5.421   4.175  11.471 -0.4658 -0.3525  0.4733
15679SOL    HW148478   5.450   4.086  11.455  0.1913  0.1053 -1.1223
15679SOL    HW248479   5.329   4.166  11.496 -0.6585 -1.4394 -0.5317
15680SOL     OW48480   3.159   6.577   9.673 -0.1986  0.9553 -0.2862
15680SOL    HW148481   3.076   6.622   9.691 -1.1289 -0.1216 -1.7071
15680SOL    HW248482   3.146   6.535   9.589  1.0009 -1.1030  0.4788
15681SOL     OW48483   4.587   4.507  10.140  0.3529 -0.2246 -0.2226
15681SOL    HW148484   4.586   4.429  10.196 -1.1424  0.1590  0.3162
15681SOL    HW248485   4.588   4.472  10.051 -3.6553 -1.0485 -0.1359
15682SOL     OW48486   4.636   5.441  12.422 -0.4169  0.2858  0.2232
15682SOL    HW148487   4.661   5.352  12.449 -0.1268  0.6004  1.0292
15682SOL    HW248488   4.655   5.444  12.328  0.5416 -0.1808  0.3920
15683SOL     OW48489   3.339   3.649  10.051 -0.5759 -0.5704 -0.6445
15683SOL    HW148490   3.399   3.583  10.017  0.0376 -0.1031 -0.4896
15683SOL    HW248491   3.378   3.732  10.024  0.3461 -0.1321  1.7479
15684SOL     OW48492   5.943   3.767   9.355 -0.0042  0.1454 -0.4152
15684SOL    HW148493   5.894   3.817   9.421  0.3071  1.0553 -0.8616
15684SOL    HW248494   5.953   3.680   9.394 -1.1857  0.2020  0.0692
15685SOL     OW48495   4.189   3.898  10.432  0.6187 -0.4219 -0.5974
15685SOL    HW148496   4.174   3.867  10.343  1.6053  1.5475 -1.5094
15685SOL    HW248497   4.191   3.993  10.424  0.6811 -0.1894  1.5595
15686SOL     OW48498   4.744   3.442  12.065 -0.0489 -0.2716 -0.7264
15686SOL    HW148499   4.701   3.357  12.062  0.3111 -0.4231 -2.7578
15686SOL    HW248500   4.773   3.458  11.975 -0.1781  2.0332 -0.4226
15687SOL     OW48501   4.237   5.307  12.284  0.0330  0.2328  0.0207
15687SOL    HW148502   4.209   5.231  12.334  0.1894 -0.2712 -0.6525
15687SOL    HW248503   4.157   5.340  12.243  0.2468 -0.6744 -1.1760
15688SOL     OW48504   5.069   4.248  10.848  0.4987 -0.1918  0.0489
15688SOL    HW148505   4.997   4.305  10.821  0.2724 -0.1061  0.8086
15688SOL    HW248506   5.120   4.301  10.909  0.3984 -0.7252  0.6087
15689SOL     OW48507   4.872   4.937  10.421 -0.6505  0.2311 -0.2384
15689SOL    HW148508   4.919   4.863  10.385 -0.4859  0.5602 -0.7087
15689SOL    HW248509   4.847   4.990  10.345  0.1023  1.1690  0.1429
15690SOL     OW48510   4.397   4.856   8.705  0.0190  0.2249  0.3027
15690SOL    HW148511   4.308   4.891   8.713 -0.0810 -0.0499  0.4077
15690SOL    HW248512   4.406   4.833   8.613  0.0867  0.5275  0.2321
15691SOL     OW48513   4.946   6.136  11.354  0.1535 -0.6015  0.5261
15691SOL    HW148514   4.943   6.231  11.363  0.3138 -0.4469 -0.7787
15691SOL    HW248515   4.858   6.106  11.377  0.4033 -0.2689  2.0217
15692SOL     OW48516   2.978   6.585  11.395 -0.3505 -0.0574 -0.5251
15692SOL    HW148517   3.058   6.537  11.373  0.2297 -0.6110  2.4463
15692SOL    HW248518   2.918   6.518  11.428 -0.5761  0.8346  0.9504
15693SOL     OW48519   4.182   4.508   9.399 -0.0971 -0.5147  0.0384
15693SOL    HW148520   4.143   4.538   9.317  1.8817  0.1521 -0.7441
15693SOL    HW248521   4.236   4.433   9.374  1.3209  0.3031  0.4994
15694SOL     OW48522   5.695   3.257  11.757 -0.3936 -0.0410  0.5235
15694SOL    HW148523   5.695   3.167  11.791  0.3515 -1.1741 -2.2422
15694SOL    HW248524   5.772   3.298  11.796  0.2945 -1.2059  0.4305
15695SOL     OW48525   5.246   4.707  12.239  0.6916  0.8165 -0.2364
15695SOL    HW148526   5.238   4.656  12.320  1.2933  1.0576 -0.0266
15695SOL    HW248527   5.233   4.642  12.169  2.5424  0.1383 -0.0037
15696SOL     OW48528   3.791   5.714   8.764 -0.2999 -0.0920  0.1317
15696SOL    HW148529   3.711   5.661   8.766  0.8295 -1.9583 -1.2285
15696SOL    HW248530   3.791   5.754   8.678  0.9132 -1.2831 -0.4529
15697SOL     OW48531   3.337   5.279  10.484  0.5473 -0.1482 -0.3272
15697SOL    HW148532   3.300   5.226  10.554  3.8521  0.5380  2.2205
15697SOL    HW248533   3.426   5.245  10.473  1.2310  1.9222 -1.8202
15698SOL     OW48534   5.892   3.738  11.679  0.6199  0.4886 -0.3656
15698SOL    HW148535   5.964   3.741  11.741  0.3398 -1.3811  0.1316
15698SOL    HW248536   5.819   3.780  11.724  0.5504 -0.4319  0.3995
15699SOL     OW48537   3.893   5.425  10.351  0.2031 -0.0604  0.1427
15699SOL    HW148538   3.969   5.401  10.297  0.2868 -1.7541  0.9480
15699SOL    HW248539   3.818   5.389  10.305  0.0772  0.0710  0.2433
15700SOL     OW48540   2.423   5.737   9.841 -0.1336  0.3824  0.3771
15700SOL    HW148541   2.423   5.687   9.759  1.3376 -1.5604  1.4614
15700SOL    HW248542   2.359   5.691   9.896 -0.0832  0.8124  0.8015
15701SOL     OW48543   4.092   6.216   0.232 -0.6229  0.0266 -0.0661
15701SOL    HW148544   4.104   6.146   0.296  0.7771 -0.4378 -0.7987
15701SOL    HW248545   4.123   6.295   0.276 -1.1201 -0.0150  0.3620
15702SOL     OW48546   4.618   4.418  11.617 -0.2302  0.4487 -0.8949
15702SOL    HW148547   4.553   4.361  11.576  0.2553  0.3925 -1.5936
15702SOL    HW248548   4.701   4.372  11.606 -0.2640 -0.3649  1.5839
15703SOL     OW48549   3.809   4.843  10.671  0.4056  0.2421 -0.5224
15703SOL    HW148550   3.870   4.775  10.642 -0.6552 -0.5877 -0.8637
15703SOL    HW248551   3.857   4.891  10.738  1.5392 -0.1978 -0.9900
15704SOL     OW48552   5.361   4.961  12.104  0.0966  0.5188  0.3853
15704SOL    HW148553   5.340   4.894  12.169  2.1351 -2.6648 -1.9537
15704SOL    HW248554   5.425   5.018  12.147 -0.7015  0.2474  2.0146
15705SOL     OW48555   3.456   5.489  11.468 -0.6660  0.1930  0.7150
15705SOL    HW148556   3.462   5.452  11.556  0.9017 -3.3506 -0.6794
15705SOL    HW248557   3.383   5.444  11.427  0.0492  0.0671 -0.4799
15706SOL     OW48558   6.152   3.889  11.321 -0.1900  1.1431 -0.1540
15706SOL    HW148559   6.199   3.972  11.323  0.5795  0.7545 -1.0154
15706SOL    HW248560   6.212   3.826  11.362 -1.3405  1.2578  1.7971
15707SOL     OW48561   5.511   5.660   1.157 -0.4853 -0.1396 -0.0452
15707SOL    HW148562   5.441   5.639   1.096  0.1626 -0.5934 -0.6507
15707SOL    HW248563   5.534   5.751   1.136 -1.2698  0.2095  0.5507
15708SOL     OW48564   3.848   4.425  10.135  0.0769 -0.0891 -0.2496
15708SOL    HW148565   3.824   4.352  10.078  0.7149  1.2918 -2.3926
15708SOL    HW248566   3.898   4.484  10.079 -0.9960  2.3655  1.2146
15709SOL     OW48567   4.105   5.020   9.265 -0.4492 -0.1753 -0.0646
15709SOL    HW148568   4.191   4.987   9.238  0.4013  2.1666 -0.4604
15709SOL    HW248569   4.050   5.012   9.187  0.1448  0.6056 -0.5769
15710SOL     OW48570   5.259   5.652  12.052 -0.1573 -0.1872  0.2354
15710SOL    HW148571   5.175   5.648  12.097  0.1535 -2.3629  0.7510
15710SOL    HW248572   5.318   5.695  12.113 -1.1353  2.6397 -0.6691
15711SOL     OW48573   7.315   4.691   8.273  0.2330 -0.5399  0.1809
15711SOL    HW148574   7.304   4.713   8.366  1.0287  2.3512 -0.3273
15711SOL    HW248575   7.410   4.678   8.264  0.3545  0.7418 -0.5039
15712SOL     OW48576   3.250   5.911  11.128  0.2799 -0.5300  0.3511
15712SOL    HW148577   3.329   5.897  11.179  0.8998  1.2042 -0.0788
15712SOL    HW248578   3.276   5.895  11.037 -0.1224 -0.8702  0.2861
15713SOL     OW48579   3.899   6.315  11.372 -0.3425 -0.1926 -0.0882
15713SOL    HW148580   3.959   6.253  11.330  1.4573  1.5736 -0.2853
15713SOL    HW248581   3.928   6.318  11.463 -1.2722 -0.5957  0.2305
15714SOL     OW48582   3.304   6.404   8.251 -0.2363  0.2341 -0.1512
15714SOL    HW148583   3.361   6.468   8.207  0.8086  0.0611  0.8985
15714SOL    HW248584   3.329   6.320   8.211 -1.1098  0.3694 -1.0241
15715SOL     OW48585   5.708   5.390  11.588  0.1130  0.1188 -0.9108
15715SOL    HW148586   5.735   5.306  11.625 -2.2750 -1.4040 -2.3281
15715SOL    HW248587   5.790   5.433  11.563  1.4577 -1.1998  1.0061
15716SOL     OW48588   4.402   4.008  10.251  0.0504  0.0592  0.8237
15716SOL    HW148589   4.323   4.034  10.203 -0.1266 -0.4101  0.8559
15716SOL    HW248590   4.391   3.914  10.265  0.4881  0.0457  1.0691
15717SOL     OW48591   3.112   4.952   9.203  0.2731 -0.1830  0.2086
15717SOL    HW148592   3.202   4.961   9.233 -0.2344  0.9755  1.4856
15717SOL    HW248593   3.079   4.875   9.250 -0.2546  1.1223  2.1150
15718SOL     OW48594   3.794   6.652  10.356  0.1258 -0.0154  0.1790
15718SOL    HW148595   3.821   6.744  10.360 -1.6653  0.5479  0.2105
15718SOL    HW248596   3.814   6.617  10.443  0.4569  0.4483  0.2942
15719SOL     OW48597   4.437   4.603  10.672  0.0871  0.3830  0.0642
15719SOL    HW148598   4.395   4.587  10.588  0.4568 -0.8721  0.0962
15719SOL    HW248599   4.372   4.651  10.723 -0.5189  0.2658 -0.5886
15720SOL     OW48600   4.567   4.032  12.464 -0.4383  0.2969  0.0761
15720SOL    HW148601   4.597   4.099  12.526  0.4809 -0.9609  1.0700
15720SOL    HW248602   4.580   3.949  12.511  0.9151 -0.7802 -2.0394
15721SOL     OW48603   5.157   2.726   9.639  0.1253 -0.2621 -0.1811
15721SOL    HW148604   5.068   2.698   9.613 -1.0426  1.6710  1.4701
15721SOL    HW248605   5.195   2.761   9.558 -0.5495 -1.1922 -0.9330
15722SOL     OW48606   4.246   6.524  11.456  0.0893 -0.2366 -0.2403
15722SOL    HW148607   4.187   6.536  11.382  0.9965  0.3081 -0.8847
15722SOL    HW248608   4.261   6.429  11.460 -0.0035 -0.2705 -0.7093
15723SOL     OW48609   3.888   4.277  11.521 -0.1710  0.5234 -0.2572
15723SOL    HW148610   3.879   4.187  11.553  1.4334  0.5645  0.3902
15723SOL    HW248611   3.874   4.331  11.599  2.8856  0.6549  0.3265
15724SOL     OW48612   6.217   3.444  10.737 -0.2438 -0.4611 -0.5381
15724SOL    HW148613   6.195   3.515  10.797 -0.8936 -1.3572  0.3165
15724SOL    HW248614   6.184   3.473  10.652  0.7946  0.8751 -0.5132
15725SOL     OW48615   5.585   4.247   9.903 -0.0119 -0.4229  0.7388
15725SOL    HW148616   5.582   4.250   9.807 -1.3197 -0.7048  0.7461
15725SOL    HW248617   5.659   4.303   9.927 -0.4594  0.6958 -0.3925
15726SOL     OW48618   3.662   5.647  10.424  0.2967  0.4970  0.4719
15726SOL    HW148619   3.614   5.715  10.471  0.6820  1.5717 -0.6429
15726SOL    HW248620   3.738   5.628  10.481 -1.1797 -0.9822  2.0758
15727SOL     OW48621   4.474   3.073  10.956 -0.2196 -0.2768  0.3027
15727SOL    HW148622   4.401   3.012  10.965  1.3181 -2.4118 -0.9768
15727SOL    HW248623   4.552   3.022  10.977  1.1686  1.1875 -0.9803
15728SOL     OW48624   6.416   6.060   8.732 -0.2824 -0.3638  0.4854
15728SOL    HW148625   6.427   6.124   8.662  2.0042  0.4480  1.5035
15728SOL    HW248626   6.481   6.084   8.798 -1.0056 -2.2904  2.0074
15729SOL     OW48627   5.183   4.636  11.973 -0.3510  0.7766  0.4325
15729SOL    HW148628   5.192   4.716  11.920 -0.8024  1.0740  0.7945
15729SOL    HW248629   5.224   4.568  11.920 -1.7475  0.8432 -0.8148
15730SOL     OW48630   5.664   6.399  11.794  0.0063 -0.1981  0.1515
15730SOL    HW148631   5.727   6.341  11.751  0.9262  0.4924  0.5355
15730SOL    HW248632   5.601   6.421  11.725  0.0193 -1.1066 -0.1674
15731SOL     OW48633   4.366   4.057   9.094  0.1295 -0.1716 -0.7874
15731SOL    HW148634   4.369   4.037   9.000 -1.2930 -0.0060 -0.8938
15731SOL    HW248635   4.447   4.105   9.111 -0.2824  1.1360 -2.2618
15732SOL     OW48636   5.172   3.513  10.208 -0.7436  0.3464 -0.9099
15732SOL    HW148637   5.206   3.523  10.120 -0.2344 -2.0240 -1.0460
15732SOL    HW248638   5.237   3.556  10.264 -0.4433  0.7890 -1.5844
15733SOL     OW48639   5.395   3.555   1.170  0.6767  0.2783  0.2619
15733SOL    HW148640   5.394   3.644   1.135  0.5567  0.1238 -0.1320
15733SOL    HW248641   5.322   3.552   1.232 -1.5327 -0.5369 -2.2226
15734SOL     OW48642   4.925   4.683  11.180 -0.2559 -0.4454 -0.2622
15734SOL    HW148643   4.924   4.588  11.165 -0.5835 -0.4666 -0.1196
15734SOL    HW248644   4.861   4.696  11.250  0.6458 -0.2546  0.5472
15735SOL     OW48645   4.033   4.569   9.174 -0.2222 -0.1083  0.2853
15735SOL    HW148646   3.981   4.636   9.130  2.2104  0.4580 -1.9643
15735SOL    HW248647   4.007   4.487   9.130 -2.4376 -0.6311  2.3351
15736SOL     OW48648   3.919   4.025  10.756  0.4096 -0.6930 -0.0679
15736SOL    HW148649   3.845   3.985  10.802  0.1307  0.0876  0.1846
15736SOL    HW248650   3.955   3.955  10.703  0.9607 -1.7370  1.5940
15737SOL     OW48651   3.776   5.254  11.097 -0.1457  0.1636 -0.2191
15737SOL    HW148652   3.683   5.276  11.094  0.2102  2.0136  0.7681
15737SOL    HW248653   3.819   5.322  11.044  0.8057  0.5623  1.0056
15738SOL     OW48654   3.590   4.005   9.473  0.2128  0.4478  0.0979
15738SOL    HW148655   3.632   3.919   9.467 -0.7859 -0.1065  0.7150
15738SOL    HW248656   3.619   4.051   9.394 -0.0386 -0.8406 -0.8008
15739SOL     OW48657   3.718   2.793  11.699  0.2690  0.2562  0.5602
15739SOL    HW148658   3.739   2.715  11.647 -1.0005 -0.6883  1.4043
15739SOL    HW248659   3.710   2.863  11.634  0.9918 -0.3978 -0.2666
15740SOL     OW48660   4.087   5.306   9.153  0.0152 -0.3872  0.8506
15740SOL    HW148661   4.141   5.369   9.104  0.0048 -0.5384  0.6435
15740SOL    HW248662   4.080   5.230   9.094 -1.1613 -0.0309  0.5033
15741SOL     OW48663   4.719   2.914   9.640 -0.0135 -0.3873 -0.7090
15741SOL    HW148664   4.766   2.986   9.682  0.7907 -0.7259 -1.0150
15741SOL    HW248665   4.647   2.894   9.700  0.4111 -0.0700 -0.0831
15742SOL     OW48666   4.464   3.957  10.530  0.5572 -0.3509  0.0694
15742SOL    HW148667   4.373   3.948  10.500  0.7307 -0.1248 -0.5478
15742SOL    HW248668   4.488   4.047  10.505  0.1663  0.4894  2.4486
15743SOL     OW48669   6.624   3.672  11.713 -0.8391 -0.0901 -0.2859
15743SOL    HW148670   6.716   3.671  11.736 -1.0341 -0.2920  0.4926
15743SOL    HW248671   6.623   3.684  11.618 -0.0042 -0.6949 -0.3744
15744SOL     OW48672   4.011   5.935  11.127  0.5529 -0.0861 -0.1420
15744SOL    HW148673   3.950   5.880  11.176 -0.6848  0.9821 -0.4052
15744SOL    HW248674   4.064   5.873  11.077 -0.5069 -1.0685 -0.1044
15745SOL     OW48675   3.708   5.945  10.979  0.4064 -1.0905  0.1731
15745SOL    HW148676   3.751   6.030  10.987 -0.2839 -0.6178 -0.9746
15745SOL    HW248677   3.717   5.906  11.066 -0.4959  0.7323  1.1537
15746SOL     OW48678   5.705   5.278  11.194 -0.1154 -0.2373  0.5034
15746SOL    HW148679   5.645   5.262  11.121  0.1467  0.3967  0.1463
15746SOL    HW248680   5.654   5.331  11.256  0.1211  0.4438  0.1236
15747SOL     OW48681   4.292   4.806   9.305 -0.0039 -0.1746  0.2596
15747SOL    HW148682   4.251   4.723   9.331 -0.1081  0.1261  1.0962
15747SOL    HW248683   4.308   4.797   9.211  0.8591 -1.5234  0.5061
15748SOL     OW48684   5.015   4.277   0.362  0.3695 -0.3900  0.2419
15748SOL    HW148685   4.986   4.327   0.438 -0.9530 -0.5162 -0.1525
15748SOL    HW248686   5.104   4.309   0.345  1.1009 -1.0696  2.4147
15749SOL     OW48687   4.980   2.886   1.405 -0.4009  0.4553 -0.2065
15749SOL    HW148688   4.976   2.955   1.471  0.6828  1.4433 -1.1306
15749SOL    HW248689   5.066   2.896   1.365 -0.6609 -0.7419 -1.1071
15750SOL     OW48690   4.380   4.697  10.231  0.2489 -0.2468  0.5847
15750SOL    HW148691   4.445   4.747  10.281  0.4950  1.4515 -1.3321
15750SOL    HW248692   4.427   4.670  10.152 -1.4319  1.4547 -1.0903
15751SOL     OW48693   5.596   6.389  10.558  0.0112 -0.0633 -0.1770
15751SOL    HW148694   5.644   6.463  10.595 -0.5918  0.4754 -0.4342
15751SOL    HW248695   5.584   6.329  10.631  1.1818 -0.2781 -0.1411
15752SOL     OW48696   6.826   5.852   9.378 -0.4156  0.1185 -0.0217
15752SOL    HW148697   6.786   5.871   9.293 -0.4740 -1.5936 -0.4117
15752SOL    HW248698   6.813   5.758   9.390  2.0010 -0.2057  0.6234
15753SOL     OW48699   3.769   5.256  11.515  0.1048  0.0935 -0.5137
15753SOL    HW148700   3.685   5.222  11.484 -0.6908 -0.2152  1.7930
15753SOL    HW248701   3.834   5.212  11.460 -1.1197 -1.5417 -0.7429
15754SOL     OW48702   5.482   4.600  10.107  0.2510 -0.3284 -0.5719
15754SOL    HW148703   5.573   4.589  10.132 -0.2716 -1.1178  1.1443
15754SOL    HW248704   5.433   4.548  10.171 -1.4329  0.4741 -1.1488
15755SOL     OW48705   4.095   5.128  10.385  0.1775 -0.0864 -0.3615
15755SOL    HW148706   4.064   5.041  10.360 -0.9315  0.3625 -0.5872
15755SOL    HW248707   4.019   5.184  10.376  0.6106  0.7245  0.7852
15756SOL     OW48708   5.677   4.678   9.285  0.4858 -0.3854  0.3804
15756SOL    HW148709   5.658   4.721   9.369  2.0641 -1.1864  1.1981
15756SOL    HW248710   5.755   4.722   9.252  0.7840 -1.0838  0.1225
15757SOL     OW48711   4.549   4.855  11.162  0.1865  0.1547 -0.4846
15757SOL    HW148712   4.514   4.900  11.238 -0.4137 -0.6624 -0.2610
15757SOL    HW248713   4.618   4.913  11.129  0.1643  0.7108  0.4207
15758SOL     OW48714   7.543   5.323  12.461  0.2487 -0.0213 -0.1868
15758SOL    HW148715   7.618   5.342  12.517  0.8677 -0.6910 -0.7657
15758SOL    HW248716   7.562   5.368  12.379 -0.1315  0.0562 -0.2367
15759SOL     OW48717   5.813   4.547  11.318 -0.2928 -0.0194  0.3219
15759SOL    HW148718   5.766   4.470  11.350  0.6139 -1.0118 -0.6726
15759SOL    HW248719   5.895   4.547  11.368 -0.8826  1.1640  1.3650
15760SOL     OW48720   5.034   5.886  11.342  0.0014 -0.3562 -0.3910
15760SOL    HW148721   5.017   5.979  11.330 -1.0865 -0.4853  0.0093
15760SOL    HW248722   5.071   5.879  11.430 -2.8331 -0.5818  0.8830
15761SOL     OW48723   4.340   5.865  10.717  0.0268 -0.0834 -0.4870
15761SOL    HW148724   4.262   5.824  10.678 -0.0226  0.1782 -0.6626
15761SOL    HW248725   4.413   5.816  10.680 -0.0969 -1.1185  0.5984
15762SOL     OW48726   5.143   4.363   9.787  0.1465  0.2494  0.0510
15762SOL    HW148727   5.057   4.395   9.813 -0.3765  0.6130 -1.9537
15762SOL    HW248728   5.135   4.348   9.693  2.4064  0.7435 -0.2727
15763SOL     OW48729   6.016   4.807  11.049  0.5864 -0.4167 -0.7095
15763SOL    HW148730   6.082   4.823  11.117  1.8146  0.1861 -2.0038
15763SOL    HW248731   6.067   4.795  10.969 -0.8361 -1.1741 -1.5212
15764SOL     OW48732   5.482   3.807  12.404 -0.5473 -0.0396 -0.4282
15764SOL    HW148733   5.402   3.833  12.450 -0.0033  0.9444  0.0027
15764SOL    HW248734   5.454   3.792  12.314 -1.3979 -0.7214 -0.0609
15765SOL     OW48735   4.094   5.979   9.831 -0.1527  0.1252 -0.1224
15765SOL    HW148736   4.177   5.942   9.798 -0.5496 -1.0021  0.0970
15765SOL    HW248737   4.068   6.042   9.763 -0.9688 -2.1603 -2.0704
15766SOL     OW48738   5.901   0.467   0.069  0.5268  0.4837 -0.0267
15766SOL    HW148739   5.868   0.440   0.155 -1.8543 -2.4287 -1.6372
15766SOL    HW248740   5.902   0.563   0.073 -1.5661  0.5420  2.5689
15767SOL     OW48741   5.512   3.799  10.505  0.6672 -0.5382 -0.1570
15767SOL    HW148742   5.510   3.856  10.428 -2.1900  0.5266  0.5741
15767SOL    HW248743   5.557   3.851  10.572  1.7296 -0.8260 -0.6350
15768SOL     OW48744   5.741   4.520  10.140 -0.4093  0.3252 -0.6583
15768SOL    HW148745   5.832   4.492  10.134 -0.3863  0.2022  0.1474
15768SOL    HW248746   5.736   4.599  10.085  0.6348  1.4142  0.7509
15769SOL     OW48747   3.394   6.808   9.134 -0.1018 -0.3883  0.3884
15769SOL    HW148748   3.465   6.856   9.177  0.8729 -0.6236 -0.8878
15769SOL    HW248749   3.408   6.823   9.041 -1.7895 -0.3972  0.1029
15770SOL     OW48750   4.312   5.239  10.036 -0.3750 -0.4555 -0.4586
15770SOL    HW148751   4.312   5.294  10.114 -1.3856 -1.2789  0.1337
15770SOL    HW248752   4.272   5.157  10.063  2.0256 -1.9147 -1.0545
15771SOL     OW48753   3.759   3.781  10.264 -0.4038 -0.5969  0.1614
15771SOL    HW148754   3.761   3.753  10.172 -1.4108 -0.4166  0.0699
15771SOL    HW248755   3.801   3.867  10.264 -1.2319 -0.1797 -0.2963
15772SOL     OW48756   3.271   4.710   1.118 -0.3338 -0.4484  0.0340
15772SOL    HW148757   3.330   4.638   1.141  2.4382  0.8582 -2.2916
15772SOL    HW248758   3.199   4.668   1.071  0.8428 -1.8032 -0.6468
15773SOL     OW48759   3.855   3.180  12.097 -0.4002  0.0273 -0.0836
15773SOL    HW148760   3.809   3.103  12.065 -0.7640 -0.0467  0.6032
15773SOL    HW248761   3.888   3.155  12.183  0.2799  0.3366 -0.2422
15774SOL     OW48762   3.475   3.549  11.625 -0.2875 -0.2671  0.1330
15774SOL    HW148763   3.473   3.570  11.531  2.6145  0.4570  0.1310
15774SOL    HW248764   3.430   3.622  11.667 -0.3488  0.1233 -0.5966
15775SOL     OW48765   5.915   4.650  11.959  0.5734 -0.0174  0.4860
15775SOL    HW148766   5.871   4.699  12.029  1.7612  1.7451  0.0966
15775SOL    HW248767   5.898   4.558  11.979 -3.3796  0.4824  0.2442
15776SOL     OW48768   6.017   4.299   0.008  0.5593 -0.0680 -0.2633
15776SOL    HW148769   6.026   4.323  -0.084  2.3062 -0.3586 -0.1944
15776SOL    HW248770   6.033   4.204   0.009 -0.1434 -0.1913  0.2650
15777SOL     OW48771   6.192   4.953  12.193  0.2505  0.7969  0.2301
15777SOL    HW148772   6.224   4.867  12.165 -0.1243  0.8947 -0.5158
15777SOL    HW248773   6.197   4.950  12.289 -0.5219 -0.3623  0.2570
15778SOL     OW48774   4.991   3.798  12.047 -0.2881  0.2460  0.0250
15778SOL    HW148775   5.078   3.808  12.008 -0.1476 -1.4293 -0.2025
15778SOL    HW248776   4.985   3.704  12.066 -1.3201  0.6331  1.8051
15779SOL     OW48777   3.671   3.400  11.128 -0.5517 -0.2573  0.3142
15779SOL    HW148778   3.606   3.341  11.089 -0.4379 -0.0231 -0.2479
15779SOL    HW248779   3.720   3.434  11.053 -0.4346  0.3409  0.6549
15780SOL     OW48780   3.799   5.118   1.124  0.0365  0.1474 -0.3812
15780SOL    HW148781   3.865   5.186   1.121  1.6745 -1.1369  2.3800
15780SOL    HW248782   3.721   5.161   1.161  0.7690  0.7519  0.5109
15781SOL     OW48783   4.982   3.909  12.393  0.1904 -0.1366  0.4564
15781SOL    HW148784   4.970   3.987  12.339 -1.2681  0.2535  1.2895
15781SOL    HW248785   4.916   3.848  12.362 -0.2198 -0.1585  1.3518
15782SOL     OW48786   4.221   5.773  11.045  0.4380  0.0620 -0.5218
15782SOL    HW148787   4.309   5.756  11.078  0.5834  0.1555 -0.8534
15782SOL    HW248788   4.213   5.716  10.968 -1.0588 -2.5800  1.4511
15783SOL     OW48789   4.495   5.164   0.138  0.2568 -0.3303  0.2711
15783SOL    HW148790   4.577   5.172   0.088 -0.1676 -0.1847 -0.4156
15783SOL    HW248791   4.486   5.070   0.154  0.8918 -0.2897  0.9315
15784SOL     OW48792   3.254   6.509   1.055 -0.0527  0.0370  0.0277
15784SOL    HW148793   3.166   6.471   1.063 -0.2944  0.7709  1.0506
15784SOL    HW248794   3.306   6.440   1.014 -0.6622 -1.1036  1.1043
15785SOL     OW48795   4.179   3.456   9.958  0.0764 -0.1687 -0.0674
15785SOL    HW148796   4.207   3.453  10.049 -0.9130  0.7726  0.2926
15785SOL    HW248797   4.101   3.511   9.958  0.4666  0.4628 -1.5946
15786SOL     OW48798   5.064   5.064  11.678 -0.2587  0.4180 -0.2725
15786SOL    HW148799   5.000   5.052  11.607 -0.5109  0.2953 -0.0248
15786SOL    HW248800   5.013   5.054  11.758  0.0804  0.2804 -0.0728
15787SOL     OW48801   5.911   5.070  11.539  0.2541  0.2968 -0.3705
15787SOL    HW148802   5.970   4.997  11.556  0.3028  0.4724  0.2730
15787SOL    HW248803   5.902   5.113  11.624  1.5453  2.0397 -1.0632
15788SOL     OW48804   3.023   5.784  11.642  0.0735  0.0142  0.1254
15788SOL    HW148805   3.072   5.823  11.570  0.4998 -0.4303  0.1681
15788SOL    HW248806   3.088   5.770  11.711 -0.3016  0.3036  0.5464
15789SOL     OW48807   5.579   6.089   0.676 -0.0975  0.3915  0.1413
15789SOL    HW148808   5.500   6.037   0.664 -1.0773  1.3358  1.9909
15789SOL    HW248809   5.549   6.180   0.670  1.0850  0.7568 -0.3992
15790SOL     OW48810   4.883   3.516   0.548  0.0529  0.0441  0.0799
15790SOL    HW148811   4.966   3.556   0.574  0.3199 -0.2166 -0.3520
15790SOL    HW248812   4.848   3.477   0.628  0.1619  0.4821  0.3433
15791SOL     OW48813   5.014   4.288  11.862 -0.2947 -0.4039  0.3965
15791SOL    HW148814   4.954   4.363  11.856 -1.2291 -1.2368 -1.5225
15791SOL    HW248815   4.965   4.223  11.912 -0.2389 -0.4310  0.4160
15792SOL     OW48816   4.293   6.652  11.697  0.2000 -0.1278 -0.2873
15792SOL    HW148817   4.281   6.625  11.606  0.2654  1.0900 -0.6769
15792SOL    HW248818   4.234   6.727  11.707  0.6462  0.1217  0.4960
15793SOL     OW48819   4.016   2.006  10.603  0.7285 -0.0596  1.0892
15793SOL    HW148820   4.103   1.980  10.634  0.6871 -0.4269  0.8942
15793SOL    HW248821   4.019   2.102  10.603  1.4181 -0.0717  0.2786
15794SOL     OW48822   4.577   4.630  11.802 -0.3114 -0.4285  0.1420
15794SOL    HW148823   4.597   4.538  11.783 -0.2750 -0.5958  0.9505
15794SOL    HW248824   4.482   4.631  11.816 -0.0360 -0.7769  2.3378
15795SOL     OW48825   5.592   3.720  11.531 -0.2723  0.0877 -0.1401
15795SOL    HW148826   5.508   3.722  11.576 -0.7819  1.4368 -1.0898
15795SOL    HW248827   5.657   3.719  11.601 -1.0614 -0.1522  0.6047
15796SOL     OW48828   4.583   5.729   0.842 -0.3900 -0.2314 -0.1303
15796SOL    HW148829   4.573   5.691   0.929  0.3105  0.1239  0.1121
15796SOL    HW248830   4.643   5.802   0.854  1.3525 -1.3930 -1.2364
15797SOL     OW48831   4.913   5.670  11.212  0.4612 -0.0663 -0.1374
15797SOL    HW148832   4.949   5.753  11.245 -0.7771  0.1305  0.7625
15797SOL    HW248833   4.892   5.620  11.290 -1.2476 -0.1534 -0.6146
15798SOL     OW48834   4.939   4.446  10.173 -0.0696 -0.5651 -0.4419
15798SOL    HW148835   4.880   4.440  10.248 -1.6064  0.8477 -1.4731
15798SOL    HW248836   4.934   4.359  10.132 -1.1369 -0.5898 -0.2917
15799SOL     OW48837   5.810   2.738  11.100 -0.6874  0.0590 -0.1067
15799SOL    HW148838   5.747   2.779  11.040  1.2175  1.9373 -0.9862
15799SOL    HW248839   5.891   2.735  11.050 -0.0057 -2.1550  1.0336
15800SOL     OW48840   3.922   4.636  10.914  0.2256 -0.5065  0.5522
15800SOL    HW148841   3.926   4.659  10.821  1.8702 -1.9686  0.2065
15800SOL    HW248842   3.847   4.577  10.920 -1.8815  2.0644  0.8122
15801SOL     OW48843   5.576   3.205  11.519  0.3739  0.1457 -0.2837
15801SOL    HW148844   5.619   3.231  11.600 -1.9628  0.4547  0.9648
15801SOL    HW248845   5.592   3.111  11.512 -1.5589 -0.4474  2.0516
15802SOL     OW48846   6.194   4.805  10.832  0.1128  0.3754  0.1770
15802SOL    HW148847   6.261   4.858  10.875  0.7611 -0.2738 -0.0208
15802SOL    HW248848   6.242   4.737  10.786 -0.6185  0.5158 -0.8467
15803SOL     OW48849   3.380   4.080   1.598  0.2178  0.5428 -0.5066
15803SOL    HW148850   3.361   4.128   1.517 -1.4505 -1.1578 -1.1943
15803SOL    HW248851   3.375   3.987   1.573 -2.1885 -0.1017  1.8472
15804SOL     OW48852   4.604   4.184  10.493  0.0972  0.2535  0.9328
15804SOL    HW148853   4.588   4.271  10.531  1.0358  1.0157 -0.3227
15804SOL    HW248854   4.698   4.171  10.503  0.3535  0.4210 -0.9203
15805SOL     OW48855   5.691   5.829   0.720 -0.3048  0.1450  0.0474
15805SOL    HW148856   5.621   5.895   0.717  0.3911  0.8752 -0.7904
15805SOL    HW248857   5.754   5.858   0.654 -0.5211 -1.9889 -1.1705
15806SOL     OW48858   4.832   4.168   0.983  0.4322  0.6611 -0.4662
15806SOL    HW148859   4.896   4.211   1.040 -0.7952  1.2290  0.5424
15806SOL    HW248860   4.884   4.132   0.912  2.1724 -0.8345  1.4190
15807SOL     OW48861   7.333   6.003   0.588 -0.2477 -0.2099 -0.0040
15807SOL    HW148862   7.321   5.927   0.645  2.7235 -0.2854  0.6738
15807SOL    HW248863   7.255   6.004   0.533 -1.9182 -1.8081  2.1302
15808SOL     OW48864   4.548   5.670  10.533 -0.0160  0.0789  0.3074
15808SOL    HW148865   4.589   5.613  10.468 -0.1140 -2.0710  2.0188
15808SOL    HW248866   4.454   5.662  10.515  0.0415  1.7113 -0.9760
15809SOL     OW48867   5.561   5.064  12.259 -0.0699  0.6286 -0.0477
15809SOL    HW148868   5.517   5.052  12.343 -0.2223  1.1474 -0.0498
15809SOL    HW248869   5.625   4.992  12.255 -1.3060 -0.4945 -0.3270
15810SOL     OW48870   2.868   5.075  10.664 -0.2625 -0.1889 -0.7110
15810SOL    HW148871   2.912   5.136  10.606  1.7774 -1.3200 -0.4433
15810SOL    HW248872   2.848   5.126  10.743 -0.1228  0.5356 -1.1417
15811SOL     OW48873   5.358   5.167   2.750  0.1617  0.1938 -0.0603
15811SOL    HW148874   5.435   5.197   2.701  0.6260 -1.2868 -0.3081
15811SOL    HW248875   5.329   5.244   2.799  2.1086  0.6774  0.4318
15812SOL     OW48876   5.427   7.599   0.009 -0.0169 -0.0608 -0.2539
15812SOL    HW148877   5.492   7.563   0.070 -0.8933  1.8484  1.9968
15812SOL    HW248878   5.384   7.522  -0.028  0.0217 -1.3860  2.2139
15813SOL     OW48879   6.035   4.287   1.563 -0.3890  0.0552  0.3374
15813SOL    HW148880   5.985   4.225   1.511  0.6081 -0.6713  0.2163
15813SOL    HW248881   6.043   4.245   1.649 -1.6604  1.0544  0.9717
15814SOL     OW48882   4.770   4.120  11.843  0.3698  0.2787 -0.1308
15814SOL    HW148883   4.713   4.177  11.895 -2.9170 -1.4657 -1.4601
15814SOL    HW248884   4.768   4.157  11.755 -0.2830 -0.7884 -0.5946
15815SOL     OW48885   6.451   4.548   0.810  0.4957 -0.2432  0.0334
15815SOL    HW148886   6.447   4.534   0.715 -0.5498 -0.2342  0.0700
15815SOL    HW248887   6.444   4.461   0.848 -0.8430 -0.1146  0.1311
15816SOL     OW48888   4.302   7.095   2.116  0.1835 -0.2951 -0.2085
15816SOL    HW148889   4.286   7.136   2.201  0.0332 -0.0757 -0.3411
15816SOL    HW248890   4.314   7.002   2.136  0.5073 -0.1898  0.0932
15817SOL     OW48891   4.248   5.462  11.648 -0.4072 -0.3949  0.0948
15817SOL    HW148892   4.267   5.544  11.693  1.3924 -0.8923  0.3090
15817SOL    HW248893   4.334   5.428  11.622 -0.8770 -3.3408  1.9813
15818SOL     OW48894   5.524   3.464  12.449  0.1801 -0.2061  0.4663
15818SOL    HW148895   5.472   3.409  12.508  0.5652 -0.2848  0.7335
15818SOL    HW248896   5.543   3.543  12.501 -0.9858  0.5209 -0.1498
15819SOL     OW48897   3.332   4.378  10.225 -0.2754  0.2438  0.0084
15819SOL    HW148898   3.385   4.309  10.265  0.7662  1.4093  0.6933
15819SOL    HW248899   3.242   4.353  10.246  0.1819  0.2069  2.1467
15820SOL     OW48900   4.421   3.507  11.278 -0.7285 -0.3912  0.2323
15820SOL    HW148901   4.365   3.574  11.317 -1.1201  0.0261 -1.0157
15820SOL    HW248902   4.489   3.492  11.344 -1.7818 -0.2608  1.3913
15821SOL     OW48903   4.723   3.307   1.403 -0.6581  0.4732 -0.4763
15821SOL    HW148904   4.781   3.254   1.349 -1.6112 -0.1932 -0.8825
15821SOL    HW248905   4.639   3.306   1.356 -1.9845 -1.3931  1.6805
15822SOL     OW48906   5.394   4.405   9.415  0.1201  0.3202 -0.0695
15822SOL    HW148907   5.483   4.394   9.380  0.2504 -0.7054  0.5251
15822SOL    HW248908   5.395   4.491   9.456  0.7996  0.3811 -0.1939
15823SOL     OW48909   5.002   5.461  12.096  0.0944  0.0601  0.3042
15823SOL    HW148910   5.081   5.431  12.050 -0.6159 -0.0171 -0.9108
15823SOL    HW248911   5.011   5.425  12.184  0.3573 -1.8329 -0.4475
15824SOL     OW48912   4.266   2.357  10.695  0.2388 -0.0327  0.3495
15824SOL    HW148913   4.264   2.280  10.751  0.6463 -0.5833 -0.3821
15824SOL    HW248914   4.209   2.335  10.621 -2.9468  1.8888  2.0075
15825SOL     OW48915   6.000   2.418  11.302 -0.4760  0.5874  0.1341
15825SOL    HW148916   5.963   2.397  11.216 -2.7852 -0.7926  1.3901
15825SOL    HW248917   6.083   2.371  11.304  0.5731  2.1618 -2.0127
15826SOL     OW48918   5.771   5.594  11.154  0.7488  0.4875 -0.0588
15826SOL    HW148919   5.818   5.576  11.235  0.2094  0.5719  0.2752
15826SOL    HW248920   5.688   5.634  11.182 -0.1791 -1.0012 -0.5480
15827SOL     OW48921   5.842   5.518   0.929 -0.2715  0.1606  0.3744
15827SOL    HW148922   5.850   5.598   0.876 -2.1113  1.0648  1.3608
15827SOL    HW248923   5.918   5.521   0.987  1.8990 -0.9381 -2.1647
15828SOL     OW48924   4.276   5.141  11.510  0.0127 -0.0232 -0.0615
15828SOL    HW148925   4.278   5.158  11.605  0.3312 -0.6815  0.0541
15828SOL    HW248926   4.202   5.082  11.498 -0.2615  0.3620 -0.2791
15829SOL     OW48927   5.342   4.777   9.249 -0.5879 -0.1024  0.0339
15829SOL    HW148928   5.323   4.693   9.208  0.9479 -0.4010 -0.1152
15829SOL    HW248929   5.427   4.802   9.215  0.0480  0.3823  1.8537
15830SOL     OW48930   5.436   4.749   1.152 -0.9555 -0.3728  0.4906
15830SOL    HW148931   5.503   4.800   1.197 -1.3627 -0.8370  1.6732
15830SOL    HW248932   5.456   4.658   1.175 -2.0185 -0.5180  0.9420
15831SOL     OW48933   5.209   2.952   0.031 -0.2032  0.1379  0.1018
15831SOL    HW148934   5.180   2.950   0.123  0.9164  1.7709  0.5479
15831SOL    HW248935   5.273   2.882   0.024  0.0656  0.3137  0.7197
15832SOL     OW48936   5.733   2.003  12.216  0.1310  0.2211  0.2745
15832SOL    HW148937   5.785   2.045  12.284 -1.3514  1.7234  0.5536
15832SOL    HW248938   5.642   2.015  12.246 -0.4241 -2.3194 -0.1558
15833SOL     OW48939   5.328   5.395  11.745 -0.1656  0.2718  0.0954
15833SOL    HW148940   5.279   5.370  11.823 -1.7841  2.0503 -0.2613
15833SOL    HW248941   5.272   5.370  11.672 -0.0196  1.2616 -0.3723
15834SOL     OW48942   6.065   4.896   1.324 -0.2174  0.3145  0.3363
15834SOL    HW148943   6.076   4.990   1.343 -1.0612  0.5162 -0.1183
15834SOL    HW248944   5.971   4.884   1.319 -0.1502 -0.7888  1.4073
15835SOL     OW48945   5.093   3.607   1.885 -0.2781 -0.1990 -0.2472
15835SOL    HW148946   5.150   3.681   1.903  0.6718 -1.3245  1.7031
15835SOL    HW248947   5.136   3.560   1.814  0.5027 -0.2638  0.2530
15836SOL     OW48948   4.505   3.194   0.998 -0.1896  0.1134  0.3938
15836SOL    HW148949   4.509   3.103   0.969  0.3834  0.2727 -0.0462
15836SOL    HW248950   4.437   3.234   0.943  1.3630  0.5857 -1.2833
15837SOL     OW48951   6.751   5.907   1.166  0.4334  0.1786 -0.1216
15837SOL    HW148952   6.807   5.981   1.140 -0.3351  1.0206  0.5544
15837SOL    HW248953   6.691   5.945   1.230 -1.8528 -0.3668 -1.8483
15838SOL     OW48954   4.965   4.391   0.085  0.0432 -0.1977 -0.1517
15838SOL    HW148955   4.890   4.356   0.037 -0.4227  3.7003 -2.7247
15838SOL    HW248956   4.927   4.439   0.158  0.5038 -2.3212  1.5995
15839SOL     OW48957   5.520   4.059  10.631 -0.5128 -0.0749  0.6909
15839SOL    HW148958   5.440   4.107  10.653 -0.1764  0.7648  0.1480
15839SOL    HW248959   5.585   4.091  10.694 -0.6338 -0.8806  1.2422
15840SOL     OW48960   3.023   5.481   1.511  0.7442  0.5115  0.1865
15840SOL    HW148961   3.041   5.463   1.419  1.8710  1.0131  0.2899
15840SOL    HW248962   2.927   5.488   1.516  0.7252  2.4003 -1.3423
15841SOL     OW48963   7.175   6.108   0.932 -0.0330  0.3833  0.3357
15841SOL    HW148964   7.248   6.121   0.871  1.0699  0.6364  1.6736
15841SOL    HW248965   7.178   6.184   0.989 -1.3611  0.3938  0.4060
15842SOL     OW48966   5.292   6.034   0.135 -0.2827 -0.6345 -0.0203
15842SOL    HW148967   5.228   6.096   0.100  0.2520 -0.1942 -0.2536
15842SOL    HW248968   5.294   5.963   0.072 -0.1528 -0.3897 -0.2952
15843SOL     OW48969   3.885   4.516  11.702 -0.3292  0.4652  1.0203
15843SOL    HW148970   3.897   4.491  11.793 -0.4838  0.2237  0.9752
15843SOL    HW248971   3.965   4.563  11.679 -0.4624  0.8787  1.3986
15844SOL     OW48972   6.308   2.626   0.894  0.0537  0.3228  0.3029
15844SOL    HW148973   6.253   2.582   0.959  0.4172 -0.2700  0.2190
15844SOL    HW248974   6.262   2.708   0.875  0.0925  0.6554  1.5401
15845SOL     OW48975   5.032   6.294   1.711  0.3133 -0.0783 -0.2844
15845SOL    HW148976   5.042   6.353   1.786  2.4763 -0.6526 -0.0518
15845SOL    HW248977   5.063   6.209   1.744 -0.3936 -0.7594 -1.3350
15846SOL     OW48978   4.916   5.096   0.153  0.0284 -0.6843  0.5408
15846SOL    HW148979   4.981   5.042   0.109  1.1554 -0.7389  2.1801
15846SOL    HW248980   4.865   5.034   0.206  0.8834 -0.2783  1.8926
15847SOL     OW48981   5.829   5.236   1.238  0.3284 -0.4017 -0.2419
15847SOL    HW148982   5.777   5.195   1.307  1.2227 -1.3941 -0.1200
15847SOL    HW248983   5.768   5.295   1.193 -0.5711 -0.6351  0.6398
15848SOL     OW48984   7.776   5.725   2.002  0.3023 -0.5871  0.2720
15848SOL    HW148985   7.726   5.661   2.052 -0.1839 -1.0106 -0.7324
15848SOL    HW248986   7.751   5.710   1.911 -0.7445  1.7925  0.0800
15849SOL     OW48987   7.310   3.023   1.512 -0.2246  0.0063 -0.5600
15849SOL    HW148988   7.357   2.953   1.468  1.4307  0.5528  0.2659
15849SOL    HW248989   7.242   2.979   1.562  0.2607 -0.9406 -0.7190
15850SOL     OW48990   3.804   5.372  12.039 -0.1423  0.5880 -0.1301
15850SOL    HW148991   3.750   5.447  12.064  0.4135  0.7146  0.7162
15850SOL    HW248992   3.789   5.362  11.945 -0.5839  1.4632 -0.1609
15851SOL     OW48993   3.809   4.240  12.341  0.0922  0.1341 -0.0328
15851SOL    HW148994   3.814   4.258  12.435 -0.6192 -0.5219  0.1413
15851SOL    HW248995   3.822   4.145  12.335 -2.8193 -0.3156 -0.3099
15852SOL     OW48996   3.625   6.074  12.045 -0.2644 -0.0318  0.3125
15852SOL    HW148997   3.716   6.067  12.016 -0.3475  0.4257 -0.0645
15852SOL    HW248998   3.594   6.156  12.008 -0.8709 -0.2441  0.3326
15853SOL     OW48999   4.584   4.047   0.350 -0.3112 -0.4700 -0.3717
15853SOL    HW149000   4.624   4.133   0.362  0.0648 -0.5166 -1.2298
15853SOL    HW249001   4.502   4.052   0.399  0.2345 -0.0143  0.5320
15854SOL     OW49002   4.092   4.452   1.028  0.4450  0.2361  0.0170
15854SOL    HW149003   4.022   4.463   0.963 -0.2171 -0.4292  0.5951
15854SOL    HW249004   4.052   4.476   1.111  1.5481  1.9559  0.1014
15855SOL     OW49005   4.052   4.088   1.582 -0.2040 -0.1275 -0.2752
15855SOL    HW149006   4.090   4.094   1.495  0.3837  0.3737  0.0161
15855SOL    HW249007   3.980   4.151   1.581 -1.2772 -1.2842 -0.9225
15856SOL     OW49008   4.713   3.561   0.988  0.3374  0.3816  0.0613
15856SOL    HW149009   4.715   3.511   0.906 -1.0873  0.1929  0.1140
15856SOL    HW249010   4.667   3.642   0.966 -0.0048  0.3555  0.6572
15857SOL     OW49011   4.737   4.127  10.195  0.1090  0.1377  0.0718
15857SOL    HW149012   4.671   4.182  10.237 -0.1725  0.4208 -0.7215
15857SOL    HW249013   4.758   4.060  10.261 -0.5507  0.3770  0.5383
15858SOL     OW49014   6.722   4.647  11.332 -0.0728  0.2406  0.0919
15858SOL    HW149015   6.792   4.684  11.277 -0.9467  0.7558 -0.6987
15858SOL    HW249016   6.678   4.584  11.276 -0.9163  0.6975  0.2268
15859SOL     OW49017   7.293   5.517   0.116 -0.2232  0.0050 -0.1100
15859SOL    HW149018   7.323   5.429   0.138  0.6305 -0.1601 -1.7625
15859SOL    HW249019   7.338   5.538   0.034  0.7143  2.5725  0.9671
15860SOL     OW49020   5.046   3.457   0.866  0.1356 -0.1529 -0.3398
15860SOL    HW149021   5.129   3.434   0.908  0.2451  1.0277  0.1394
15860SOL    HW249022   5.057   3.549   0.840 -2.0898  1.0958  2.5956
15861SOL     OW49023   4.925   4.175   9.998 -0.2356 -0.4105 -0.0843
15861SOL    HW149024   4.879   4.226   9.931  0.4946  1.1849  0.5740
15861SOL    HW249025   4.856   4.144  10.056 -1.0087 -2.6790 -2.0303
15862SOL     OW49026   5.322   5.203  11.236  0.0420 -0.2536 -0.7034
15862SOL    HW149027   5.254   5.158  11.286 -0.8703  1.4959 -0.2794
15862SOL    HW249028   5.373   5.133  11.195 -2.3414 -1.6310 -1.4906
15863SOL     OW49029   4.837   5.446  11.801  0.0778 -0.3080  0.7636
15863SOL    HW149030   4.866   5.446  11.892 -1.8006  1.0971  1.4234
15863SOL    HW249031   4.797   5.360  11.789 -1.7983  0.3270  2.0551
15864SOL     OW49032   5.011   3.967  11.721 -0.7186 -0.4965 -0.0266
15864SOL    HW149033   4.975   3.880  11.703 -1.2480 -0.9278  2.6821
15864SOL    HW249034   4.943   4.012  11.771  0.5782  0.4696  0.9589
15865SOL     OW49035   3.507   2.502   0.890  0.4308 -0.1243  0.2299
15865SOL    HW149036   3.514   2.566   0.818  1.9717 -0.7223 -0.1742
15865SOL    HW249037   3.559   2.540   0.961  0.7968 -0.6081  0.2221
15866SOL     OW49038   3.613   4.534  11.660 -0.4271 -0.0460  0.6572
15866SOL    HW149039   3.707   4.532  11.638 -0.8448 -1.9544 -1.3088
15866SOL    HW249040   3.608   4.493  11.746  0.3693 -2.5991 -0.4158
15867SOL     OW49041   5.461   5.489   0.084  0.2203 -0.2224  0.1947
15867SOL    HW149042   5.403   5.519   0.014  0.0492  0.4536  0.6185
15867SOL    HW249043   5.546   5.478   0.041 -0.2421 -1.3924 -0.4679
15868SOL     OW49044   3.209   5.036  12.418 -0.5598 -0.1175 -0.1658
15868SOL    HW149045   3.214   4.966  12.483 -0.1097  0.2091  0.1545
15868SOL    HW249046   3.276   5.099  12.445  0.0682 -0.2709 -1.2994
15869SOL     OW49047   5.174   5.098   0.628  0.7378 -0.0562 -0.0943
15869SOL    HW149048   5.237   5.027   0.637  0.6952  0.1226  2.1292
15869SOL    HW249049   5.216   5.160   0.569  1.7033 -0.9380 -0.3671
15870SOL     OW49050   3.965   5.317   1.056 -0.6192  0.1694  0.2022
15870SOL    HW149051   4.043   5.341   1.106  0.7514 -2.1668 -0.6660
15870SOL    HW249052   3.989   5.334   0.965 -0.6577 -1.6041 -0.1746
15871SOL     OW49053   5.522   4.212   0.887  0.1090 -0.1257  0.1118
15871SOL    HW149054   5.615   4.225   0.909  0.3258 -0.9827 -0.2948
15871SOL    HW249055   5.476   4.272   0.947  0.8990  0.1101  0.5085
15872SOL     OW49056   4.742   2.956   0.167  0.0140  0.2221  0.1725
15872SOL    HW149057   4.719   3.040   0.208 -1.5698  0.6409 -1.4260
15872SOL    HW249058   4.680   2.948   0.094 -0.8601 -3.0366  1.1166
15873SOL     OW49059   5.113   3.023  10.230 -0.4245 -0.2504  0.0877
15873SOL    HW149060   5.179   3.090  10.216 -1.4497  1.0299  1.0892
15873SOL    HW249061   5.163   2.944  10.251  0.7950  0.5178  0.1842
15874SOL     OW49062   3.733   4.882  11.798  0.1887 -0.0150 -0.0608
15874SOL    HW149063   3.800   4.822  11.832  1.5414  1.2503 -0.3847
15874SOL    HW249064   3.752   4.889  11.705  0.0521  0.9053 -0.0260
15875SOL     OW49065   6.973   5.586   0.078 -0.5321 -0.1861  0.6427
15875SOL    HW149066   6.980   5.626  -0.008 -1.1598  1.6866  1.4094
15875SOL    HW249067   7.063   5.585   0.111 -0.5404  1.0219  0.7590
15876SOL     OW49068   4.860   4.642  11.610  0.0000  1.0239  0.6426
15876SOL    HW149069   4.879   4.723  11.563 -0.1452  0.4506 -0.4181
15876SOL    HW249070   4.766   4.627  11.596  0.1416  0.3745  0.3427
15877SOL     OW49071   6.039   5.296  12.290 -0.3143  0.0100 -0.0048
15877SOL    HW149072   6.067   5.226  12.231  1.1873  0.7213 -0.1946
15877SOL    HW249073   5.967   5.258  12.340  0.0675 -1.4647 -0.5097
15878SOL     OW49074   4.039   5.465  12.160  0.1344  0.1388 -0.5153
15878SOL    HW149075   3.990   5.547  12.161 -0.5640 -0.1990  2.5998
15878SOL    HW249076   3.979   5.401  12.121  0.0507  0.7349 -1.3836
15879SOL     OW49077   4.484   4.442   0.869 -0.1810 -0.1694  0.5175
15879SOL    HW149078   4.409   4.497   0.847 -0.0583  0.3005  1.2509
15879SOL    HW249079   4.445   4.359   0.895 -0.4296 -0.0195  0.6263
15880SOL     OW49080   6.701   3.673  12.123  0.4188  0.6684  0.4592
15880SOL    HW149081   6.773   3.613  12.102 -0.4429 -0.1190 -0.3897
15880SOL    HW249082   6.711   3.746  12.062 -0.2215 -0.0640 -0.5541
15881SOL     OW49083   3.388   4.705  11.399 -0.0662 -0.2823  0.2532
15881SOL    HW149084   3.459   4.649  11.365 -1.2580 -1.7665  0.1130
15881SOL    HW249085   3.327   4.713  11.325 -1.1846 -0.9891  1.0694
15882SOL     OW49086   6.083   6.634   2.626  0.3306  0.9992 -0.2530
15882SOL    HW149087   5.999   6.588   2.623  0.4163  0.8509 -0.3722
15882SOL    HW249088   6.101   6.644   2.720  0.6507  0.1637 -0.2175
15883SOL     OW49089   4.201   5.847  10.313  0.3920  0.0351  0.3040
15883SOL    HW149090   4.170   5.938  10.312  1.0886  0.3132  1.4941
15883SOL    HW249091   4.188   5.816  10.224  0.3060  1.3676 -0.1685
15884SOL     OW49092   7.601   6.017   0.504 -0.5655 -0.2941 -0.0814
15884SOL    HW149093   7.615   5.932   0.463  0.0504 -1.2337  1.9825
15884SOL    HW249094   7.525   6.004   0.561  0.0544  0.2695  0.9012
15885SOL     OW49095   6.584   1.773  10.525  0.1881  0.3384 -0.7913
15885SOL    HW149096   6.556   1.822  10.448  0.1498  2.5406  0.5325
15885SOL    HW249097   6.561   1.682  10.505 -3.1354  1.2633 -1.9625
15886SOL     OW49098   4.562   2.715  11.739 -0.0419  0.7515  0.2003
15886SOL    HW149099   4.497   2.774  11.778 -0.4616  0.2813  0.2071
15886SOL    HW249100   4.578   2.649  11.806  0.9505  1.2348  0.4714
15887SOL     OW49101   4.935   4.737  12.014  0.6167  0.3107 -0.3251
15887SOL    HW149102   4.901   4.698  12.095 -0.2471  2.1737  0.2744
15887SOL    HW249103   5.020   4.696  12.001 -0.6303 -2.5077 -0.3605
15888SOL     OW49104   4.496   2.940   0.895 -0.0284 -0.2480  0.2344
15888SOL    HW149105   4.459   2.922   0.809  1.1100 -2.6196  0.1479
15888SOL    HW249106   4.579   2.893   0.895  1.4508  2.1823  1.5851
15889SOL     OW49107   5.165   4.194   2.536  0.1172 -0.4131  0.5241
15889SOL    HW149108   5.197   4.119   2.486 -0.4397 -1.1867  1.2993
15889SOL    HW249109   5.227   4.203   2.608  0.1979 -0.1112  0.4171
15890SOL     OW49110   5.142   6.908   1.066 -0.2146  0.0020 -0.0147
15890SOL    HW149111   5.203   6.939   0.999 -0.4978 -0.0713 -0.3064
15890SOL    HW249112   5.198   6.875   1.136  0.1106  1.3745  0.4072
15891SOL     OW49113   4.404   4.294  11.835 -0.4133 -0.1065  0.1032
15891SOL    HW149114   4.463   4.323  11.904 -1.8639  0.4489  1.1450
15891SOL    HW249115   4.437   4.337  11.756 -0.2657  1.3355  0.9268
15892SOL     OW49116   4.177   3.900  12.329  0.7424  0.0478  0.2070
15892SOL    HW149117   4.229   3.979  12.311 -0.5695  1.2265  1.2561
15892SOL    HW249118   4.214   3.866  12.411  1.5208 -0.6395 -0.4174
15893SOL     OW49119   5.573   4.813  11.295  0.2007  0.2685  0.0014
15893SOL    HW149120   5.544   4.722  11.300 -0.0634  0.4292  2.1018
15893SOL    HW249121   5.640   4.813  11.226  0.2700 -1.5277  0.0221
15894SOL     OW49122   6.648   4.598   0.037 -0.3658  0.1125  0.4453
15894SOL    HW149123   6.693   4.552   0.108 -0.5662 -1.5090 -0.4435
15894SOL    HW249124   6.694   4.572  -0.042 -0.3037  1.7133 -0.0844
15895SOL     OW49125   3.952   6.251  10.546  0.2814 -0.1212  0.0729
15895SOL    HW149126   3.890   6.179  10.540  1.3215 -0.9854 -0.7151
15895SOL    HW249127   3.906   6.319  10.596 -0.7110 -1.3291  0.8569
15896SOL     OW49128   4.006   3.369  10.599 -0.2613 -0.4036  0.4024
15896SOL    HW149129   3.969   3.405  10.679  0.3389  0.0753  0.4753
15896SOL    HW249130   4.018   3.446  10.542 -1.8542 -0.8747 -0.6476
15897SOL     OW49131   4.766   6.298  11.104  0.2199 -0.5963  0.2909
15897SOL    HW149132   4.750   6.208  11.076  1.5956 -1.3434  1.7353
15897SOL    HW249133   4.682   6.330  11.136 -0.2241 -1.4493 -0.0138
15898SOL     OW49134   3.723   5.790  11.238  0.3300 -0.0760 -0.2373
15898SOL    HW149135   3.756   5.710  11.279  2.6141  0.9268  0.0082
15898SOL    HW249136   3.716   5.853  11.310 -0.9245  0.1188 -0.5140
15899SOL     OW49137   6.138   6.450  11.129  0.2752 -0.0825  0.4241
15899SOL    HW149138   6.110   6.529  11.175  0.6244 -0.6813  1.7365
15899SOL    HW249139   6.057   6.411  11.096  0.0878  0.7300 -0.0788
15900SOL     OW49140   3.696   4.862  11.489 -0.0066  0.2696  0.1533
15900SOL    HW149141   3.684   4.956  11.473 -0.2886  0.3960  1.0429
15900SOL    HW249142   3.618   4.821  11.453 -0.5815  0.5337  1.0803
15901SOL     OW49143   6.511   2.839  11.255  0.2066 -0.1823  0.4069
15901SOL    HW149144   6.538   2.875  11.340  0.5142  2.0296 -0.5690
15901SOL    HW249145   6.428   2.882  11.235  0.5911  0.0332 -0.8249
15902SOL     OW49146   4.805   4.216  11.578 -0.4766  0.2003  0.0276
15902SOL    HW149147   4.888   4.261  11.595 -0.3905 -0.4141  1.4453
15902SOL    HW249148   4.827   4.147  11.516  0.3394 -0.6446  1.2104
15903SOL     OW49149   5.412   5.056  12.479  0.2118 -0.0028  0.0760
15903SOL    HW149150   5.388   5.135  12.526 -0.2257  0.9176 -1.6118
15903SOL    HW249151   5.464   5.005  12.541  0.7641  1.7489  1.1004
15904SOL     OW49152   5.039   4.330   0.686 -0.0260 -0.4439 -0.3230
15904SOL    HW149153   5.097   4.378   0.745  0.5842 -0.6401 -0.7562
15904SOL    HW249154   5.035   4.242   0.722 -1.7929  0.0934  0.9390
15905SOL     OW49155   1.888   6.846   1.296 -0.3954 -0.0629 -0.3502
15905SOL    HW149156   1.829   6.788   1.345  0.5402  0.3275  1.3362
15905SOL    HW249157   1.865   6.934   1.328  1.1198  0.0828  0.3958
15906SOL     OW49158   3.087   2.211  12.154  0.1788  0.8220  0.1289
15906SOL    HW149159   3.143   2.271  12.203 -0.0561  0.6677  0.5858
15906SOL    HW249160   3.034   2.167  12.220 -0.7035  1.1856 -0.3257
15907SOL     OW49161   5.034   5.596   1.246 -0.2330 -0.2097  0.1438
15907SOL    HW149162   5.109   5.629   1.295  0.5937 -1.6275 -0.1138
15907SOL    HW249163   4.986   5.543   1.309 -0.4865 -0.0847  0.0562
15908SOL     OW49164   5.268   5.321   0.477  0.0106 -0.2038 -0.3264
15908SOL    HW149165   5.354   5.328   0.437 -0.3681  4.3260 -0.8660
15908SOL    HW249166   5.209   5.299   0.405  0.3536 -0.4472 -0.5349
15909SOL     OW49167   6.043   5.578   0.720 -0.1254  0.1697 -0.1800
15909SOL    HW149168   6.094   5.610   0.795 -0.2364  0.2136 -0.1233
15909SOL    HW249169   6.097   5.509   0.683 -0.2483 -0.1230  0.1770
15910SOL     OW49170   5.008   3.704   0.202 -0.2631 -0.2817 -0.5212
15910SOL    HW149171   5.088   3.710   0.255 -1.0123 -0.1694  0.6366
15910SOL    HW249172   5.023   3.628   0.145  0.1979 -1.0013  0.5195
15911SOL     OW49173   3.954   4.783  11.448  0.4139  0.4961 -0.1171
15911SOL    HW149174   3.860   4.796  11.460  0.1913 -1.4017  0.6214
15911SOL    HW249175   3.964   4.688  11.438  2.4097  0.4053  1.7757
15912SOL     OW49176   6.266   4.707  12.112 -0.1244 -0.2748  0.1202
15912SOL    HW149177   6.347   4.656  12.115 -0.0129 -0.2817 -1.9473
15912SOL    HW249178   6.197   4.642  12.100 -0.2148 -0.1257 -0.1916
15913SOL     OW49179   6.065   5.333   0.908  0.1997  0.0042 -0.0726
15913SOL    HW149180   5.999   5.276   0.945 -1.4010  0.8351 -1.4904
15913SOL    HW249181   6.015   5.406   0.871  2.0408  1.5055  0.2569
15914SOL     OW49182   6.377   2.981   0.347 -0.4467  0.0813 -0.2557
15914SOL    HW149183   6.326   3.057   0.320 -0.2749  0.0339 -0.7149
15914SOL    HW249184   6.455   2.983   0.292  0.6748  0.8657  1.3014
15915SOL     OW49185   3.594   4.178   1.174  0.0686  0.0489  0.3657
15915SOL    HW149186   3.556   4.096   1.203 -0.3823  0.9511  2.5118
15915SOL    HW249187   3.521   4.241   1.178  0.7754  0.8859  0.3752
15916SOL     OW49188   4.599   4.056  11.236  0.7485  0.0285 -0.0636
15916SOL    HW149189   4.532   4.031  11.173 -0.1963  1.3276  0.3873
15916SOL    HW249190   4.552   4.069  11.318  1.3118  2.0418  0.0083
15917SOL     OW49191   7.103   3.147   0.123  0.1277 -0.2983 -0.0626
15917SOL    HW149192   7.116   3.126   0.030  1.1513 -1.3177  0.2890
15917SOL    HW249193   7.011   3.171   0.130  0.0382 -0.2154 -1.3372
15918SOL     OW49194   5.544   4.369   1.512 -0.2460 -0.4036 -0.2881
15918SOL    HW149195   5.464   4.327   1.545 -0.5595  0.4516  0.0690
15918SOL    HW249196   5.615   4.323   1.558 -0.5175 -1.2485 -0.6976
15919SOL     OW49197   6.968   2.349   0.316 -0.0447  0.3232 -0.1358
15919SOL    HW149198   7.002   2.309   0.396 -0.0963  0.6285  0.0398
15919SOL    HW249199   6.914   2.281   0.276  1.3310 -0.4385 -0.7880
15920SOL     OW49200   3.382   4.391  12.491 -0.1331  0.3238 -0.3419
15920SOL    HW149201   3.428   4.358  12.413 -0.0106  1.3964 -0.7346
15920SOL    HW249202   3.395   4.323  12.557  0.4073 -0.2531 -1.0293
15921SOL     OW49203   6.034   5.848   1.129 -0.2516  0.2260 -0.4689
15921SOL    HW149204   6.113   5.901   1.119 -1.1302  1.6209 -0.3221
15921SOL    HW249205   5.979   5.872   1.055 -1.4384  0.9475  0.5918
15922SOL     OW49206   2.940   5.649   1.121 -0.0478  0.0993 -0.2361
15922SOL    HW149207   2.958   5.581   1.186 -1.8568  1.4339  1.7821
15922SOL    HW249208   3.025   5.666   1.081  1.6992  0.7480  3.3686
15923SOL     OW49209   4.777   6.449   0.343  0.0617 -0.2297 -0.1267
15923SOL    HW149210   4.686   6.443   0.372  0.0581  0.0112 -0.0818
15923SOL    HW249211   4.772   6.489   0.256 -0.1371 -3.3884 -1.7241
15924SOL     OW49212   3.005   7.050   0.894  0.4150 -0.6864 -0.0551
15924SOL    HW149213   3.033   7.105   0.822  0.4086 -2.6675 -1.6585
15924SOL    HW249214   2.948   6.984   0.854  0.0401 -1.5885  1.8265
15925SOL     OW49215   4.218   7.924   0.842 -0.0504 -0.0756 -0.1748
15925SOL    HW149216   4.311   7.928   0.820  0.0949  0.3306  0.4694
15925SOL    HW249217   4.175   7.981   0.778  0.2282  0.2630 -0.0625
15926SOL     OW49218   5.987   0.657   2.145  0.3093  0.1582 -0.5026
15926SOL    HW149219   5.977   0.626   2.054 -1.8742  0.7293 -0.5089
15926SOL    HW249220   5.899   0.679   2.172  1.0318  0.6899  1.5558
15927SOL     OW49221   4.267   7.388   1.707  0.2359 -0.3531  1.1161
15927SOL    HW149222   4.180   7.423   1.684  0.3923 -0.9350 -0.4599
15927SOL    HW249223   4.252   7.294   1.718  0.6786 -0.4652  0.7597
15928SOL     OW49224   4.398   5.609  12.221  0.3675 -0.4176 -0.3641
15928SOL    HW149225   4.365   5.585  12.307 -0.4400 -1.2735 -0.8964
15928SOL    HW249226   4.333   5.574  12.159  1.4378 -0.7050 -1.3621
15929SOL     OW49227   3.178   6.724   1.283  0.4389 -0.1166 -0.5623
15929SOL    HW149228   3.099   6.779   1.287  1.3302  1.1473  0.5641
15929SOL    HW249229   3.164   6.667   1.208 -0.9361  1.0355 -1.2193
15930SOL     OW49230   4.608   6.079   2.401 -0.4914 -0.1911  0.0509
15930SOL    HW149231   4.536   6.117   2.350 -1.2593 -1.1173  0.4217
15930SOL    HW249232   4.565   6.028   2.469  0.5184 -0.9195  0.1640
15931SOL     OW49233   2.867   7.475   0.902 -0.1260  0.7362 -0.0956
15931SOL    HW149234   2.796   7.434   0.951 -0.5992  1.7439  0.1059
15931SOL    HW249235   2.947   7.445   0.944 -0.3478 -1.2132 -0.9408
15932SOL     OW49236   4.259   6.727   1.563  0.1588 -0.0541 -0.0553
15932SOL    HW149237   4.321   6.659   1.536  1.0985  0.4039  0.8996
15932SOL    HW249238   4.305   6.776   1.631 -1.1109  0.5462  0.4010
15933SOL     OW49239   5.296   7.340   0.343 -0.7785  0.2845 -0.4540
15933SOL    HW149240   5.331   7.267   0.291 -0.5624  0.7623 -0.9971
15933SOL    HW249241   5.202   7.340   0.325 -1.0878 -0.9757  0.9726
15934SOL     OW49242   4.097   7.433   2.219  0.5247 -0.5522  0.2026
15934SOL    HW149243   4.051   7.511   2.251  0.0647 -1.3465  1.5690
15934SOL    HW249244   4.034   7.362   2.233  1.6745 -1.4657  0.9072
15935SOL     OW49245   3.904   5.987   0.866 -0.3654  0.1328  0.4729
15935SOL    HW149246   3.963   5.923   0.826  1.9513  1.2332  1.9100
15935SOL    HW249247   3.870   6.039   0.793 -1.0245 -1.6630 -0.5511
15936SOL     OW49248   6.221   6.907  12.421  0.3335  0.3495  0.1863
15936SOL    HW149249   6.159   6.837  12.440  2.0330 -0.8207  1.7908
15936SOL    HW249250   6.284   6.903  12.493  1.7261  2.1063 -0.8561
15937SOL     OW49251   4.155   5.975   0.380 -0.0012 -0.4527  0.2579
15937SOL    HW149252   4.171   6.028   0.457  1.3060  0.4670 -0.6160
15937SOL    HW249253   4.219   5.904   0.385 -0.6207 -1.0016  0.5519
15938SOL     OW49254   6.273   7.039   2.928 -0.6364  0.0404  0.0696
15938SOL    HW149255   6.346   7.065   2.984 -0.4986 -2.2530  1.0650
15938SOL    HW249256   6.312   6.979   2.865 -1.5782 -0.8500  0.3255
15939SOL     OW49257   3.835   6.364   1.235 -0.5463  0.2542  0.7312
15939SOL    HW149258   3.811   6.318   1.315 -1.6088  1.0797  0.9056
15939SOL    HW249259   3.751   6.386   1.194 -0.0438 -1.6304 -1.4840
15940SOL     OW49260   3.167   6.404   0.713 -0.1262 -0.2982  0.1174
15940SOL    HW149261   3.168   6.317   0.671  0.5677 -0.9147  1.3589
15940SOL    HW249262   3.252   6.410   0.756 -0.5316  0.6268  0.8040
15941SOL     OW49263   1.416   7.029  12.190  0.0724 -1.0285  0.0605
15941SOL    HW149264   1.500   6.990  12.216  1.2915  0.9130 -0.7038
15941SOL    HW249265   1.430   7.056  12.099  0.3049  3.3429  1.1987
15942SOL     OW49266   5.263   5.786   2.392 -0.5116 -0.1136 -0.1268
15942SOL    HW149267   5.223   5.738   2.464  2.6772 -1.3688  1.0037
15942SOL    HW249268   5.247   5.730   2.315 -3.2935  0.8749 -0.3840
15943SOL     OW49269   6.107   6.139   1.367 -0.2196 -0.0176  0.3380
15943SOL    HW149270   6.098   6.230   1.336 -0.0353 -0.2384 -0.3955
15943SOL    HW249271   6.200   6.119   1.354 -0.5847 -0.8874 -1.1937
15944SOL     OW49272   3.864   5.695  12.124  0.6755  0.1080 -0.1219
15944SOL    HW149273   3.895   5.779  12.090  1.2397 -1.5445 -4.3193
15944SOL    HW249274   3.781   5.680  12.079 -0.4763 -0.7526  2.1263
15945SOL     OW49275   4.310   5.838   0.030  0.2397 -0.0004  0.3778
15945SOL    HW149276   4.307   5.749  -0.005 -1.3322  0.6664 -1.3793
15945SOL    HW249277   4.401   5.865   0.017  0.2899 -0.6890 -0.9479
15946SOL     OW49278   4.665   6.561  11.181 -0.0286  0.2174  0.0729
15946SOL    HW149279   4.620   6.607  11.253  0.2231 -1.8720  1.6759
15946SOL    HW249280   4.757   6.560  11.208  0.4164  1.1099 -1.3047
15947SOL     OW49281   5.284   6.965   8.863 -0.0377  0.1365 -0.0524
15947SOL    HW149282   5.308   6.873   8.877  0.0679  0.3049  0.9443
15947SOL    HW249283   5.294   7.005   8.949  0.4022  1.1950 -0.5815
15948SOL     OW49284   3.806   6.879  11.996  0.0719 -0.5334 -0.3040
15948SOL    HW149285   3.868   6.942  11.959 -0.6814  0.5962  0.3246
15948SOL    HW249286   3.751   6.854  11.922 -0.7316  0.8840 -0.2070
15949SOL     OW49287   4.361   7.803  12.397  0.1808  0.4466 -0.2070
15949SOL    HW149288   4.300   7.849  12.455 -2.0138 -0.0463 -2.0180
15949SOL    HW249289   4.308   7.735  12.356  2.6119 -1.7634  0.0993
15950SOL     OW49290   2.920   0.036  12.395  0.0449  0.4527  0.1662
15950SOL    HW149291   2.864  -0.023  12.446  0.9648  0.3571  1.0940
15950SOL    HW249292   3.009   0.008  12.414  0.4823  1.7573  0.1504
15951SOL     OW49293   3.878   6.022   2.607 -0.2805 -0.2382  0.0300
15951SOL    HW149294   3.924   5.948   2.647 -0.8446 -0.5850  0.0464
15951SOL    HW249295   3.912   6.027   2.518 -1.9808 -2.0712 -0.7884
15952SOL     OW49296   3.950   4.992   1.553  0.2832  0.0605  0.0225
15952SOL    HW149297   3.858   4.983   1.528  0.0981 -2.4291  1.2477
15952SOL    HW249298   3.969   4.912   1.603  2.2456  1.8716  2.4623
15953SOL     OW49299   3.068   5.972   1.394 -0.0661  0.1754  0.5295
15953SOL    HW149300   3.132   5.950   1.326  1.3573  1.5084  1.3814
15953SOL    HW249301   3.058   5.891   1.444 -1.5741 -1.0140 -1.5177
15954SOL     OW49302   5.095   7.877   1.070 -0.5571 -0.5142  0.5011
15954SOL    HW149303   5.125   7.927   0.995 -2.0995  0.3103  0.4111
15954SOL    HW249304   5.083   7.788   1.037  1.9975 -0.9889  0.6154
15955SOL     OW49305   4.081   0.114   1.486  0.0089 -0.5042 -0.3305
15955SOL    HW149306   3.988   0.105   1.505  0.2578  0.7503  1.8076
15955SOL    HW249307   4.119   0.150   1.567  2.1835 -0.0458 -1.4754
15956SOL     OW49308   2.285   5.714   0.252 -0.3661  0.2195  0.3131
15956SOL    HW149309   2.294   5.619   0.244  1.1448  0.4105 -0.7234
15956SOL    HW249310   2.226   5.726   0.326 -0.5751 -1.5237  0.4832
15957SOL     OW49311   2.845   6.670   1.808 -0.4072  0.1570 -0.3725
15957SOL    HW149312   2.856   6.633   1.721 -4.7152  0.6142 -1.3213
15957SOL    HW249313   2.831   6.594   1.865  1.1793 -0.0638 -0.2171
15958SOL     OW49314   5.236   0.241   1.201  0.1753  0.7134 -0.0440
15958SOL    HW149315   5.190   0.198   1.273 -0.5241 -0.0767 -0.9426
15958SOL    HW249316   5.282   0.170   1.156  0.7023  1.2184 -0.3139
15959SOL     OW49317   4.941   7.536   1.456 -0.5446  0.1227  0.1131
15959SOL    HW149318   4.884   7.503   1.386  0.1821  0.5196 -0.6900
15959SOL    HW249319   5.005   7.466   1.469 -0.4150  0.2310  0.0612
15960SOL     OW49320   7.376   6.057   0.216 -0.1764  0.0910 -0.2887
15960SOL    HW149321   7.396   5.991   0.149  0.6219 -0.3027  0.3323
15960SOL    HW249322   7.292   6.029   0.252 -0.1125 -0.2775 -0.4142
15961SOL     OW49323   4.468   7.289   0.233 -0.0791 -0.1645 -0.3000
15961SOL    HW149324   4.402   7.347   0.195 -1.6068 -1.4070  0.3148
15961SOL    HW249325   4.426   7.255   0.312  0.8593 -1.8732 -0.4952
15962SOL     OW49326   5.334   6.019   1.051  0.0038 -0.6070 -0.1087
15962SOL    HW149327   5.287   5.970   0.983  0.2576 -0.6354 -0.2658
15962SOL    HW249328   5.268   6.076   1.090 -0.2991 -1.0641  0.0684
15963SOL     OW49329   3.443   5.726   2.389 -0.0442 -0.0602 -0.0686
15963SOL    HW149330   3.459   5.672   2.467  0.3326 -0.5381 -0.4623
15963SOL    HW249331   3.348   5.739   2.387 -0.1100 -0.4834  0.1834
15964SOL     OW49332   3.780   5.986   1.915  0.0140 -0.0076  0.2042
15964SOL    HW149333   3.758   5.921   1.981  1.4747  0.2942  1.0500
15964SOL    HW249334   3.697   6.010   1.875 -0.5611 -2.4214 -0.1952
15965SOL     OW49335   5.791   6.442   1.257  0.4326  0.2636  0.2679
15965SOL    HW149336   5.728   6.398   1.315 -0.2329  1.0759  0.1805
15965SOL    HW249337   5.854   6.374   1.235  0.3463 -0.2325  1.4426
15966SOL     OW49338   4.387   5.993   0.939 -0.0762  0.4450 -0.1412
15966SOL    HW149339   4.400   5.972   1.032 -0.1159 -1.5066 -0.5260
15966SOL    HW249340   4.300   6.033   0.936 -0.4414 -0.2614  0.5673
15967SOL     OW49341   2.746   7.302   1.799  0.3473 -0.1088 -0.0681
15967SOL    HW149342   2.660   7.293   1.840  0.2912  0.9643  0.0664
15967SOL    HW249343   2.769   7.213   1.772  0.1984 -0.7974  1.9130
15968SOL     OW49344   2.913   0.890   1.368 -0.3159  0.4812 -0.4191
15968SOL    HW149345   2.846   0.852   1.312 -0.2959  1.1370 -0.9069
15968SOL    HW249346   2.903   0.846   1.452  0.9596 -2.0042 -1.4720
15969SOL     OW49347   4.075   5.521   1.479  0.3583 -0.2134 -0.2022
15969SOL    HW149348   4.067   5.556   1.568  2.3215  0.5134 -0.2437
15969SOL    HW249349   4.016   5.575   1.427  0.6919  0.7266  0.3488
15970SOL     OW49350   6.112   6.504   1.945  0.2011  0.4776 -0.6157
15970SOL    HW149351   6.144   6.563   1.878  0.4524  0.0365 -0.8875
15970SOL    HW249352   6.019   6.492   1.924 -0.0867  1.5041 -0.0116
15971SOL     OW49353   5.093   6.348   3.133 -0.3467 -0.7675  0.6050
15971SOL    HW149354   5.079   6.376   3.042 -1.9075  2.3037  1.6377
15971SOL    HW249355   5.183   6.373   3.152 -1.0005  1.7557  0.7795
15972SOL     OW49356   7.229   5.711   1.219  0.4440  0.3332 -0.3045
15972SOL    HW149357   7.321   5.737   1.219  0.8298 -0.7858 -2.7374
15972SOL    HW249358   7.193   5.754   1.141 -0.8057 -0.1853 -0.0241
15973SOL     OW49359   4.797   7.656  11.705  0.2739  0.1931  0.5211
15973SOL    HW149360   4.765   7.583  11.653  0.2999  0.3812  0.2391
15973SOL    HW249361   4.719   7.709  11.722  0.1069 -0.3094  1.4019
15974SOL     OW49362   4.300   5.724  11.811 -0.5519  0.3681  0.0098
15974SOL    HW149363   4.396   5.721  11.821 -0.5090  0.0546 -0.4383
15974SOL    HW249364   4.267   5.675  11.886 -0.2890 -0.9460 -0.6831
15975SOL     OW49365   4.693   0.542   1.975 -0.1043  0.1351 -0.4498
15975SOL    HW149366   4.680   0.628   1.935 -0.2849 -0.0558 -0.8050
15975SOL    HW249367   4.788   0.535   1.986 -0.1023  0.4539 -0.2519
15976SOL     OW49368   4.405   6.183   2.965  0.4004 -0.3616 -0.1378
15976SOL    HW149369   4.334   6.178   3.030  1.4682 -2.4411  0.9917
15976SOL    HW249370   4.432   6.275   2.965 -2.0417  0.4200 -0.3689
15977SOL     OW49371   3.333   6.758   0.992  0.2987 -0.2917 -0.3548
15977SOL    HW149372   3.403   6.766   1.057 -1.7106  2.2267  1.7457
15977SOL    HW249373   3.293   6.673   1.011  2.5319 -1.6799 -1.4697
15978SOL     OW49374   6.148   6.631   1.711 -0.6040  0.2327  0.6951
15978SOL    HW149375   6.079   6.686   1.675 -2.1509 -1.6886  0.5589
15978SOL    HW249376   6.191   6.592   1.635 -0.7166 -0.1334  0.8148
15979SOL     OW49377   3.586   6.781   2.093  0.3615  0.7476 -0.1262
15979SOL    HW149378   3.675   6.812   2.114  1.3377 -1.1841 -1.1384
15979SOL    HW249379   3.550   6.753   2.177  0.9616  0.9240  0.1956
15980SOL     OW49380   3.750   7.260   1.135 -0.2601 -0.1676  0.5930
15980SOL    HW149381   3.763   7.166   1.149  0.7912  0.0213  0.9802
15980SOL    HW249382   3.791   7.301   1.211  2.0927  0.7319 -1.0440
15981SOL     OW49383   4.586   5.585   1.088  0.4093 -0.1875 -0.3155
15981SOL    HW149384   4.579   5.519   1.019  0.6995 -1.8701  1.1832
15981SOL    HW249385   4.674   5.573   1.123  0.3220  0.7385  0.2594
15982SOL     OW49386   7.568   5.555   0.426  0.2641  0.3072  0.1395
15982SOL    HW149387   7.475   5.573   0.440  0.4385  0.9490  0.5270
15982SOL    HW249388   7.597   5.625   0.366  0.3957 -0.1557 -0.3400
15983SOL     OW49389   3.664   7.986   1.333 -0.1285  0.5149 -0.1914
15983SOL    HW149390   3.616   7.906   1.309 -0.1122  0.7682 -1.0882
15983SOL    HW249391   3.612   8.057   1.297  1.1611  0.7717 -1.6315
15984SOL     OW49392   4.685   6.073   0.205  0.0573 -0.2605 -0.4233
15984SOL    HW149393   4.729   6.027   0.277  0.7990 -1.0406 -1.3562
15984SOL    HW249394   4.613   6.120   0.248  2.0196  1.4485  1.2553
15985SOL     OW49395   3.143   7.050   0.224 -0.0663 -0.2481  0.1773
15985SOL    HW149396   3.228   7.064   0.182 -0.2345 -0.9451 -0.4105
15985SOL    HW249397   3.088   7.121   0.191 -0.1008 -0.5967 -0.5168
15986SOL     OW49398   3.261   7.503   1.362  0.4693  0.2912 -0.1905
15986SOL    HW149399   3.211   7.583   1.377  0.4123 -0.1721  2.4506
15986SOL    HW249400   3.305   7.485   1.445  2.6142 -1.0148 -1.4850
15987SOL     OW49401   3.517   5.831  12.130 -0.4243  0.1645  0.2710
15987SOL    HW149402   3.553   5.898  12.073 -0.4354 -1.0245 -1.1868
15987SOL    HW249403   3.430   5.864  12.155 -0.0627  1.0896  0.3377
15988SOL     OW49404   4.313   4.293   1.035 -0.4887 -0.2486  0.1570
15988SOL    HW149405   4.242   4.345   0.998  0.7949  0.4351 -1.4899
15988SOL    HW249406   4.275   4.205   1.047 -1.7596  0.2419 -0.1195
15989SOL     OW49407   4.928   6.997  12.314  0.5503 -0.2622  0.2876
15989SOL    HW149408   4.940   7.042  12.230  0.8131  0.2912  0.6134
15989SOL    HW249409   4.996   6.930  12.315  0.3009 -0.5257 -0.1059
15990SOL     OW49410   3.352   4.043   0.423  0.2143 -0.1818 -0.0130
15990SOL    HW149411   3.425   3.982   0.436 -0.9550 -1.3244  1.5336
15990SOL    HW249412   3.314   4.055   0.510 -2.1946 -0.5961 -0.9163
15991SOL     OW49413   2.539   7.971   2.123 -0.4672  0.3810  0.2246
15991SOL    HW149414   2.535   7.977   2.027  0.7580 -1.0904  0.0395
15991SOL    HW249415   2.469   8.028   2.154 -0.3989  1.4883 -1.5271
15992SOL     OW49416   3.473   5.098   2.056  0.3072  0.2632 -0.3661
15992SOL    HW149417   3.457   5.192   2.064  0.6995  0.2206  1.5158
15992SOL    HW249418   3.450   5.062   2.142 -0.6332 -1.5129 -1.2829
15993SOL     OW49419   4.836   5.970   0.440  0.4734  0.2014 -0.3637
15993SOL    HW149420   4.852   6.051   0.490 -1.4568 -0.9319  2.3027
15993SOL    HW249421   4.744   5.950   0.456  0.6455 -2.0227 -1.7870
15994SOL     OW49422   4.766   6.150   1.862  0.5339  0.4537 -0.0552
15994SOL    HW149423   4.786   6.198   1.781  0.2047 -0.9563 -1.0199
15994SOL    HW249424   4.831   6.080   1.865 -1.1120 -1.2148 -0.6558
15995SOL     OW49425   5.118   6.316   0.879 -0.4229 -0.8756 -0.4672
15995SOL    HW149426   5.085   6.292   0.966 -1.7462  0.7864 -0.4542
15995SOL    HW249427   5.209   6.340   0.894 -0.3921 -1.4407  0.3013
15996SOL     OW49428   5.299   6.764   1.276  0.4348  0.4312 -0.4556
15996SOL    HW149429   5.329   6.741   1.188 -1.2314 -0.3457 -0.8651
15996SOL    HW249430   5.368   6.732   1.334  1.2007  0.2538 -1.4317
15997SOL     OW49431   3.865   5.306  10.733 -0.0064 -0.4486  0.4466
15997SOL    HW149432   3.951   5.268  10.720  0.8800  1.0065  1.7284
15997SOL    HW249433   3.877   5.372  10.802 -2.1127 -0.1290  0.5965
15998SOL     OW49434   6.487   5.726   0.295 -0.3687  0.3596  0.2750
15998SOL    HW149435   6.430   5.667   0.344 -1.5219 -0.4443 -1.9196
15998SOL    HW249436   6.576   5.695   0.315 -0.8448 -0.4350  1.2361
15999SOL     OW49437   5.479   7.891   1.086 -0.3225 -0.1309 -0.0993
15999SOL    HW149438   5.540   7.965   1.086  0.5237 -0.7898 -1.7307
15999SOL    HW249439   5.456   7.878   0.994 -1.0840 -1.3931  0.2424
16000SOL     OW49440   4.369   0.369  12.181  0.1728  0.2782 -0.3049
16000SOL    HW149441   4.425   0.306  12.136 -0.0374  0.9867 -1.5914
16000SOL    HW249442   4.425   0.407  12.249  1.6327  1.7102 -2.2112
16001SOL     OW49443   4.826   6.505   2.168 -0.9516 -0.4371 -0.4732
16001SOL    HW149444   4.816   6.577   2.106 -1.7515  1.1186  1.3555
16001SOL    HW249445   4.757   6.443   2.144 -1.0518 -0.0194 -1.3161
16002SOL     OW49446   3.057   0.242   1.419  0.4921  0.2516  0.0023
16002SOL    HW149447   3.099   0.326   1.440  1.1216 -0.5066  1.9547
16002SOL    HW249448   2.969   0.250   1.454 -0.6921  1.3342 -2.9132
16003SOL     OW49449   2.739   7.742   1.527 -0.0438  0.2645 -0.0134
16003SOL    HW149450   2.784   7.662   1.553 -0.5142  0.0284  0.0652
16003SOL    HW249451   2.653   7.714   1.499 -0.2617  0.7576  0.1472
16004SOL     OW49452   3.632   6.066   3.105  0.5133  0.5002 -0.0842
16004SOL    HW149453   3.551   6.038   3.148 -0.2297  1.9128 -0.4943
16004SOL    HW249454   3.627   6.027   3.018  1.6204 -1.6632  0.7289
16005SOL     OW49455   5.081   5.145   0.884  0.1881  0.0495 -0.1386
16005SOL    HW149456   5.113   5.230   0.915  1.4862 -0.1446 -0.9020
16005SOL    HW249457   5.129   5.129   0.803 -1.6210 -0.4255 -1.1868
16006SOL     OW49458   5.421   6.268   0.481  0.5566 -0.2256 -0.5423
16006SOL    HW149459   5.376   6.349   0.456 -1.4622 -0.0989  2.8596
16006SOL    HW249460   5.366   6.198   0.447  0.1854 -0.1121 -0.1787
16007SOL     OW49461   4.358   7.427   2.749 -0.3555  0.5433 -0.3956
16007SOL    HW149462   4.310   7.428   2.665  0.0493  1.5888 -0.6373
16007SOL    HW249463   4.442   7.387   2.728 -0.8727 -0.7433 -0.1022
16008SOL     OW49464   4.026   6.369   1.045 -0.2074 -0.2176 -0.5872
16008SOL    HW149465   4.043   6.463   1.046  1.7011 -0.5286  0.0740
16008SOL    HW249466   3.946   6.359   1.097  1.1775  0.8217  1.9396
16009SOL     OW49467   6.861   4.570   2.293  0.0129 -0.2968 -0.4398
16009SOL    HW149468   6.787   4.549   2.235  0.8883 -1.4331 -1.2144
16009SOL    HW249469   6.847   4.661   2.319 -3.9365 -1.5521  2.8718
16010SOL     OW49470   4.413   7.028   1.029  0.3310 -0.0703 -0.2540
16010SOL    HW149471   4.418   7.106   1.085 -0.4410 -0.5242  0.4656
16010SOL    HW249472   4.474   6.966   1.068 -0.5465 -0.5578  0.3854
16011SOL     OW49473   4.760   7.094   1.220 -0.0075 -0.0333 -0.3188
16011SOL    HW149474   4.751   7.035   1.145 -1.1317  1.2728 -1.2580
16011SOL    HW249475   4.671   7.102   1.255 -0.0045  1.5473 -0.5937
16012SOL     OW49476   4.886   6.049  12.059 -0.2068 -0.0446  0.5895
16012SOL    HW149477   4.971   6.005  12.057 -0.9112 -1.6867  3.0231
16012SOL    HW249478   4.845   6.023  11.976  1.1848 -0.1387 -0.1110
16013SOL     OW49479   3.010   4.488  12.370 -0.6048 -0.3124  0.3021
16013SOL    HW149480   2.985   4.575  12.401 -1.2094 -0.2401 -0.3521
16013SOL    HW249481   2.957   4.428  12.424 -1.4089 -0.1998 -0.3379
16014SOL     OW49482   5.106   6.060   1.802 -0.0797 -0.1003  0.2057
16014SOL    HW149483   5.128   5.970   1.779 -0.7508 -0.2976  0.3007
16014SOL    HW249484   5.090   6.056   1.897  1.8370  0.5284  0.6034
16015SOL     OW49485   3.277   7.070   2.117  0.5196  0.0774 -0.2045
16015SOL    HW149486   3.215   7.119   2.064 -0.7183 -0.9517  0.2371
16015SOL    HW249487   3.355   7.125   2.120 -0.1239  1.1013 -1.3275
16016SOL     OW49488   4.779   7.042  11.974  0.1477 -0.1733  0.0207
16016SOL    HW149489   4.694   7.011  12.007  0.2545 -0.2206  0.2524
16016SOL    HW249490   4.807   7.108  12.037  0.9660 -1.1831  0.7449
16017SOL     OW49491   4.852   6.595  11.843  0.1199  0.1701  0.5149
16017SOL    HW149492   4.919   6.628  11.783 -0.1786  1.5600  0.9091
16017SOL    HW249493   4.880   6.626  11.929 -0.6346  0.1311  0.7848
16018SOL     OW49494   4.646   5.540   0.355 -0.4242 -0.0297  0.3959
16018SOL    HW149495   4.627   5.447   0.368  0.7959 -0.1954  1.1988
16018SOL    HW249496   4.608   5.583   0.432  1.9152 -0.3192  1.8149
16019SOL     OW49497   4.478   6.340   1.790 -0.1049 -0.2160 -0.7203
16019SOL    HW149498   4.383   6.345   1.789 -0.2999  1.1800  3.8096
16019SOL    HW249499   4.497   6.248   1.812 -0.4085 -0.3461 -0.9954
16020SOL     OW49500   4.879   5.498   1.062  0.2728 -0.3314  0.0460
16020SOL    HW149501   4.907   5.536   0.978  0.3166 -2.2606 -0.8644
16020SOL    HW249502   4.935   5.540   1.127 -0.5658  2.1360 -0.6720
16021SOL     OW49503   6.458   4.937   1.341  0.7549 -0.0836  0.4248
16021SOL    HW149504   6.404   4.868   1.379  1.5508 -0.5379  0.7710
16021SOL    HW249505   6.453   5.009   1.404 -2.6998  1.5353 -1.4287
16022SOL     OW49506   5.587   5.262   2.375  0.1352 -0.1036  0.2219
16022SOL    HW149507   5.641   5.242   2.451 -0.3568 -0.0164  0.6056
16022SOL    HW249508   5.529   5.333   2.405 -0.6128 -0.6162  0.0202
16023SOL     OW49509   3.111   7.569   0.269 -0.3170 -0.2115 -0.1278
16023SOL    HW149510   3.033   7.616   0.295  0.5265  1.6568 -0.7879
16023SOL    HW249511   3.106   7.486   0.316 -2.9959 -0.4460 -0.6709
16024SOL     OW49512   2.451   7.323  12.268  0.2761  0.4114  0.3173
16024SOL    HW149513   2.387   7.384  12.304 -0.3241 -0.2959  0.4745
16024SOL    HW249514   2.532   7.373  12.265 -0.2135  1.2308  0.3919
16025SOL     OW49515   3.227   5.879   1.157 -0.6079 -0.1645  0.2266
16025SOL    HW149516   3.285   5.849   1.088  2.1959  1.6680  1.6120
16025SOL    HW249517   3.223   5.805   1.219 -2.7997 -1.6489 -1.5130
16026SOL     OW49518   5.521   6.894   1.983  0.4850  0.1751  0.6072
16026SOL    HW149519   5.579   6.970   1.991  1.7916 -0.2428 -2.9322
16026SOL    HW249520   5.454   6.907   2.050  1.7111  3.4482  1.3737
16027SOL     OW49521   3.773   6.416   0.378 -0.1080  0.1640  0.0915
16027SOL    HW149522   3.688   6.385   0.407 -0.2602 -0.0841 -0.5957
16027SOL    HW249523   3.797   6.357   0.307  1.2634 -0.6229  1.1750
16028SOL     OW49524   7.201   6.411   0.976 -0.8924 -1.1903  1.0726
16028SOL    HW149525   7.245   6.393   1.059  1.5220 -1.6537 -0.2350
16028SOL    HW249526   7.108   6.416   1.000 -0.3953 -2.2752  3.6280
16029SOL     OW49527   5.365   0.117   3.216  0.5765  0.3075 -0.0944
16029SOL    HW149528   5.381   0.140   3.125 -0.5062 -0.6848 -0.5551
16029SOL    HW249529   5.423   0.042   3.233  2.3125  1.7348  0.6919
16030SOL     OW49530   4.276   6.256   1.327  0.7015 -0.2117 -0.3287
16030SOL    HW149531   4.218   6.246   1.403  1.3295  0.5809  0.2813
16030SOL    HW249532   4.348   6.311   1.360  1.2697 -0.3283 -1.3493
16031SOL     OW49533   3.548   6.057   2.208 -0.1669  0.2681  0.4433
16031SOL    HW149534   3.585   6.001   2.139 -1.2467  0.4740 -0.3215
16031SOL    HW249535   3.569   6.011   2.290 -1.1846 -1.3775 -0.1751
16032SOL     OW49536   6.309   5.317   3.310  0.5247 -0.6582  0.2896
16032SOL    HW149537   6.253   5.253   3.355 -0.7576  2.4531  3.6582
16032SOL    HW249538   6.259   5.341   3.232  1.5296 -4.2606 -1.6959
16033SOL     OW49539   5.708   6.451   0.275  0.3178 -0.1234 -0.2478
16033SOL    HW149540   5.707   6.361   0.309 -0.2282 -0.3800 -0.9171
16033SOL    HW249541   5.656   6.446   0.195  0.1228  0.8345 -0.1858
16034SOL     OW49542   3.581   6.823  12.466 -0.5825  0.0294  0.0091
16034SOL    HW149543   3.641   6.786  12.531 -2.3704 -1.0968  1.1307
16034SOL    HW249544   3.637   6.852  12.395  1.1706 -2.7778  0.0730
16035SOL     OW49545   4.855   5.114   2.569  0.2943 -0.4110 -0.2472
16035SOL    HW149546   4.807   5.052   2.514  0.2352 -1.3257  0.8194
16035SOL    HW249547   4.923   5.062   2.611  1.3809  0.6082 -0.6824
16036SOL     OW49548   3.470   6.576  11.353  0.0725  0.2720  0.3073
16036SOL    HW149549   3.558   6.599  11.382  0.1912 -0.2523  0.3746
16036SOL    HW249550   3.484   6.515  11.280 -0.2240 -1.0167  1.2995
16037SOL     OW49551   3.058   4.797   1.872 -0.6134 -0.4547 -0.8101
16037SOL    HW149552   3.078   4.818   1.781 -0.5196  0.0904 -0.6666
16037SOL    HW249553   3.143   4.779   1.911 -0.1804  2.8306  0.0466
16038SOL     OW49554   4.420   1.625   0.766  0.4444 -0.2684  0.1413
16038SOL    HW149555   4.478   1.614   0.691  0.8960 -0.2512  0.4787
16038SOL    HW249556   4.333   1.608   0.732  0.5595  0.4488 -0.5468
16039SOL     OW49557   3.626   6.593   0.908  0.4836  0.0203  0.2605
16039SOL    HW149558   3.650   6.624   0.996  1.1488 -1.2083  0.5381
16039SOL    HW249559   3.694   6.530   0.886  0.4464  0.4655 -1.2501
16040SOL     OW49560   3.881   7.134   0.721 -0.9267 -0.1867  0.3920
16040SOL    HW149561   3.898   7.201   0.787  1.2003  0.1981 -0.4689
16040SOL    HW249562   3.835   7.181   0.651  0.0307  0.2814  0.0538
16041SOL     OW49563   4.467   5.645  11.071 -0.0115 -0.6604 -0.3782
16041SOL    HW149564   4.464   5.552  11.048  0.3664 -0.4873 -1.1898
16041SOL    HW249565   4.470   5.647  11.166  0.0862 -1.4860 -0.3581
16042SOL     OW49566   4.939   5.855   1.203  0.2942  0.0341 -0.0744
16042SOL    HW149567   4.979   5.768   1.201 -0.6983 -0.4298 -0.9016
16042SOL    HW249568   4.986   5.905   1.137  0.3592 -0.1065 -0.1346
16043SOL     OW49569   5.031   5.087   1.937  0.0688  0.2036  0.1163
16043SOL    HW149570   5.108   5.098   1.992  0.7658  1.2594 -1.0308
16043SOL    HW249571   4.961   5.061   1.998  0.9019  0.9404  1.4185
16044SOL     OW49572   5.142   5.566   1.775 -0.3166  0.2595  0.2462
16044SOL    HW149573   5.199   5.573   1.698  0.5102 -1.2760  0.6625
16044SOL    HW249574   5.106   5.477   1.770  0.9649 -0.4585  2.4000
16045SOL     OW49575   5.811   6.983   0.364  0.7737 -0.0908 -0.1460
16045SOL    HW149576   5.885   6.984   0.302  0.8778 -0.8238 -0.0414
16045SOL    HW249577   5.852   6.981   0.450  0.6282  1.0331 -0.0384
16046SOL     OW49578   2.281   6.616   2.455  0.1830 -0.1175 -0.4159
16046SOL    HW149579   2.269   6.523   2.437 -0.2264  0.3099 -2.6542
16046SOL    HW249580   2.366   6.637   2.415 -0.1627  0.6430 -0.7628
16047SOL     OW49581   4.372   6.145   2.276  0.1599  0.2426  0.2360
16047SOL    HW149582   4.353   6.239   2.274  2.5634  0.8433  1.5439
16047SOL    HW249583   4.372   6.118   2.185 -0.2339  1.6004 -0.1890
16048SOL     OW49584   5.586   5.442  11.825  0.0301  0.2645  0.0009
16048SOL    HW149585   5.622   5.421  11.739  0.5667 -2.2619  0.7596
16048SOL    HW249586   5.493   5.420  11.818  0.2442 -0.8093  0.2718
16049SOL     OW49587   4.505   0.700  11.845  0.8888  0.1057  0.7148
16049SOL    HW149588   4.491   0.783  11.798  1.3860 -0.6393 -0.8060
16049SOL    HW249589   4.463   0.634  11.790  2.8255 -1.0130  0.5119
16050SOL     OW49590   2.917   1.078   0.058 -0.1783 -0.4973  0.6679
16050SOL    HW149591   2.929   1.000   0.004  0.7634 -1.2282  1.8596
16050SOL    HW249592   3.003   1.121   0.057 -1.2935  1.9778 -2.0204
16051SOL     OW49593   4.154   7.150   2.860 -0.0277 -0.4078  0.4739
16051SOL    HW149594   4.146   7.195   2.944  1.3719  1.4618 -0.3196
16051SOL    HW249595   4.071   7.167   2.816 -0.0583  0.1796  0.7485
16052SOL     OW49596   3.813   5.153   1.874 -0.0134 -0.0336 -0.1523
16052SOL    HW149597   3.841   5.114   1.957 -2.9846 -0.1058  0.9250
16052SOL    HW249598   3.768   5.082   1.828  1.0267  0.1886 -1.6155
16053SOL     OW49599   4.095   5.085   2.475 -0.2136  0.8421 -0.1664
16053SOL    HW149600   4.001   5.080   2.494  0.0575 -0.8620  0.8695
16053SOL    HW249601   4.118   5.176   2.495 -1.6270  1.3017 -0.4716
16054SOL     OW49602   4.131   0.462  12.278 -0.6513 -0.0669  0.3397
16054SOL    HW149603   4.211   0.417  12.249 -0.3517 -0.7209  2.0935
16054SOL    HW249604   4.150   0.555  12.266 -0.2058 -0.2641 -0.6340
16055SOL     OW49605   3.990   0.592  11.995 -0.1184 -0.2698  0.2999
16055SOL    HW149606   4.040   0.574  12.075 -0.3113 -1.2545  0.2109
16055SOL    HW249607   4.020   0.678  11.967  0.4012 -0.1796  1.0962
16056SOL     OW49608   2.361   6.912   1.007  0.1144  0.3568 -0.2723
16056SOL    HW149609   2.340   6.939   1.096 -1.6381 -0.9867 -0.2149
16056SOL    HW249610   2.276   6.913   0.961  0.9471  0.8765 -1.9028
16057SOL     OW49611   2.174   6.750   2.826  0.4813  0.0765  0.3063
16057SOL    HW149612   2.221   6.795   2.897  0.0605  1.0997 -0.0391
16057SOL    HW249613   2.089   6.794   2.823  0.3931 -0.1521 -0.6326
16058SOL     OW49614   2.819   5.069   1.752 -0.5229  0.2332  0.3457
16058SOL    HW149615   2.902   5.087   1.707 -0.1182  0.5630  1.2030
16058SOL    HW249616   2.785   5.156   1.775 -0.5978  0.0575  0.8991
16059SOL     OW49617   5.309   7.364   2.494  0.2930 -0.1480  0.0658
16059SOL    HW149618   5.293   7.349   2.401 -2.1019  0.0868  0.3768
16059SOL    HW249619   5.296   7.279   2.535  0.4462 -0.0608  0.2948
16060SOL     OW49620   4.728   7.627   1.696 -0.0643  0.5894 -0.0819
16060SOL    HW149621   4.718   7.534   1.714 -1.9891  0.7119 -0.3599
16060SOL    HW249622   4.812   7.634   1.651  1.0743 -0.7250  1.6856
16061SOL     OW49623   5.795   5.039  11.940  0.3327 -0.2242 -0.2000
16061SOL    HW149624   5.718   5.051  11.995 -0.5728 -1.2990 -1.1898
16061SOL    HW249625   5.792   4.947  11.914  2.5749 -0.6080  0.6267
16062SOL     OW49626   4.091   6.365   2.110  0.0541  0.2462 -0.0401
16062SOL    HW149627   4.037   6.288   2.089  0.5171 -0.1776  0.3056
16062SOL    HW249628   4.136   6.341   2.190  2.4641 -0.2923 -1.4668
16063SOL     OW49629   4.273   7.537   0.538  0.2057 -0.2047  0.0931
16063SOL    HW149630   4.185   7.501   0.539 -0.2751  0.9166 -0.3186
16063SOL    HW249631   4.327   7.471   0.583 -0.7338 -1.1282 -0.1106
16064SOL     OW49632   4.243   0.198   0.464  0.0191  0.3629 -0.2489
16064SOL    HW149633   4.223   0.246   0.383  0.0398  0.7110 -0.0511
16064SOL    HW249634   4.240   0.265   0.532  0.8648  0.2432 -0.0773
16065SOL     OW49635   3.411   6.329  11.701  0.2531  0.5743  0.2114
16065SOL    HW149636   3.484   6.373  11.746  1.2896  0.0155 -0.8658
16065SOL    HW249637   3.442   6.316  11.611 -0.9868 -0.1273 -0.1433
16066SOL     OW49638   4.464   7.439   1.512 -0.1869  0.2462  0.2979
16066SOL    HW149639   4.432   7.414   1.425 -0.6901  2.9834 -0.3757
16066SOL    HW249640   4.408   7.389   1.572 -1.1806 -0.1887 -0.9225
16067SOL     OW49641   4.027   7.564   1.041  0.4260 -0.9192  0.0027
16067SOL    HW149642   4.010   7.551   0.948 -0.1026 -1.9375  0.2296
16067SOL    HW249643   3.940   7.571   1.081  0.6498  0.6620  0.2926
16068SOL     OW49644   2.977   6.205   1.512 -0.2646 -0.5304  0.6771
16068SOL    HW149645   3.001   6.138   1.449  0.2603  1.2045 -1.0591
16068SOL    HW249646   2.984   6.287   1.464  0.8301  0.9567  3.1881
16069SOL     OW49647   5.493   1.403   1.647 -0.8646 -0.8884 -0.6361
16069SOL    HW149648   5.434   1.351   1.592 -0.3625 -0.9468 -1.1324
16069SOL    HW249649   5.535   1.464   1.586  0.3987 -1.5853 -0.4973
16070SOL     OW49650   7.210   0.389   0.973 -0.1111  0.5475 -0.5018
16070SOL    HW149651   7.267   0.406   1.048 -1.9145 -0.7207  1.2520
16070SOL    HW249652   7.266   0.340   0.912  0.9753  0.2078  0.7152
16071SOL     OW49653   2.720   5.610   1.571  0.2997 -0.6181  0.2445
16071SOL    HW149654   2.693   5.607   1.663  2.7966 -0.2146  1.0693
16071SOL    HW249655   2.726   5.703   1.551 -0.6219 -0.7035 -0.4766
16072SOL     OW49656   4.850   6.371   2.748  0.2514  0.3162  0.3055
16072SOL    HW149657   4.913   6.329   2.807  1.6476  0.9278 -0.7214
16072SOL    HW249658   4.849   6.316   2.670 -0.8685  0.0511  0.4833
16073SOL     OW49659   3.488   4.399   1.600 -0.2087 -0.3065  0.3779
16073SOL    HW149660   3.409   4.367   1.556 -1.2041  0.6937  1.3591
16073SOL    HW249661   3.556   4.397   1.532 -1.7611  1.5342 -1.3794
16074SOL     OW49662   6.906   6.912  11.537  0.4190 -0.6200 -0.2229
16074SOL    HW149663   6.996   6.880  11.535  0.4067 -0.8587  1.4858
16074SOL    HW249664   6.909   6.988  11.595 -0.4477 -0.5459 -0.2627
16075SOL     OW49665   4.625   0.479   1.604 -0.0661 -0.7209  0.4507
16075SOL    HW149666   4.654   0.548   1.664 -1.3762  0.1764  0.1012
16075SOL    HW249667   4.570   0.422   1.657 -0.0110 -0.7820  0.4424
16076SOL     OW49668   2.816   5.703  12.373 -0.4651 -1.3747 -0.5801
16076SOL    HW149669   2.885   5.655  12.420 -0.3846 -0.1689  0.5761
16076SOL    HW249670   2.846   5.703  12.282  2.5643  1.4336  0.2295
16077SOL     OW49671   5.485   7.219   3.903 -0.1569  0.4494  0.4581
16077SOL    HW149672   5.470   7.291   3.842  1.9267 -0.3733 -1.1196
16077SOL    HW249673   5.457   7.141   3.855  1.4744 -0.2083  0.5338
16078SOL     OW49674   3.643   6.006   0.246  0.3254 -0.1357  0.5409
16078SOL    HW149675   3.570   5.997   0.308 -1.0647 -0.9870 -1.1202
16078SOL    HW249676   3.719   6.024   0.301 -1.1049  0.7265  2.3653
16079SOL     OW49677   6.364   0.998   0.904 -0.2881  0.4446 -0.1424
16079SOL    HW149678   6.272   1.013   0.925 -0.1982  0.5568  0.1851
16079SOL    HW249679   6.412   1.056   0.963 -0.0454  1.4811 -1.3078
16080SOL     OW49680   5.292   5.769   4.542 -0.2798 -0.0537 -0.5449
16080SOL    HW149681   5.219   5.827   4.560  1.2963  1.4250  1.5004
16080SOL    HW249682   5.270   5.688   4.588 -0.4122  0.5626  0.5015
16081SOL     OW49683   5.678   6.696   2.151  0.2373 -0.0314  0.3343
16081SOL    HW149684   5.682   6.770   2.091  0.1457  0.5135  0.9857
16081SOL    HW249685   5.644   6.623   2.098  0.2634  0.4081 -0.2933
16082SOL     OW49686   4.461   6.462   2.896  0.0457 -0.3092 -0.2426
16082SOL    HW149687   4.440   6.396   2.831  1.8855  0.9838 -2.2976
16082SOL    HW249688   4.402   6.535   2.877 -0.3144 -0.4251  0.4168
16083SOL     OW49689   5.415   0.326   0.653  0.0872 -0.2510  0.4754
16083SOL    HW149690   5.344   0.267   0.626  0.1665  0.4348 -1.3927
16083SOL    HW249691   5.487   0.304   0.594  0.3165  1.2796  0.1469
16084SOL     OW49692   4.658   6.878   1.081  0.4223 -0.1880 -0.0173
16084SOL    HW149693   4.608   6.797   1.070  0.5394 -0.1805 -0.6534
16084SOL    HW249694   4.749   6.851   1.072  0.4653 -0.0000 -0.1371
16085SOL     OW49695   2.276   7.822   2.680 -0.2990  0.2429 -0.3142
16085SOL    HW149696   2.352   7.791   2.630  0.2799 -0.0920  0.7608
16085SOL    HW249697   2.313   7.876   2.749 -1.0523  0.1497  0.1709
16086SOL     OW49698   5.396   6.718   0.991 -0.3212  0.0077 -0.4159
16086SOL    HW149699   5.454   6.760   0.927 -0.5347  1.2455  0.1862
16086SOL    HW249700   5.344   6.657   0.940  1.0252 -0.6232 -1.0852
16087SOL     OW49701   5.777   5.174   2.533 -0.3824 -0.3174 -0.3468
16087SOL    HW149702   5.857   5.223   2.555  0.0616  0.4286 -3.2195
16087SOL    HW249703   5.805   5.082   2.532 -0.3928 -0.3783  1.7784
16088SOL     OW49704   4.813   6.311   1.551  0.1421 -0.5831  0.0179
16088SOL    HW149705   4.894   6.300   1.600  0.0350 -0.9250  0.1179
16088SOL    HW249706   4.823   6.396   1.507 -0.9183  1.1350  2.8096
16089SOL     OW49707   4.158   7.571   1.411  0.3060 -0.0150 -0.0486
16089SOL    HW149708   4.108   7.525   1.477  3.0706  0.8791  2.9498
16089SOL    HW249709   4.120   7.659   1.408 -0.1892 -0.2311 -0.0904
16090SOL     OW49710   4.944   6.588   1.003  0.0171  0.0441  0.3212
16090SOL    HW149711   4.996   6.580   0.924  1.7067 -0.8969  1.4548
16090SOL    HW249712   4.906   6.676   0.999  0.7496  0.3164 -1.0994
16091SOL     OW49713   6.490   7.911  12.443 -0.0180  0.0732  0.6490
16091SOL    HW149714   6.481   7.958  12.360 -0.3847  0.7371  1.0588
16091SOL    HW249715   6.576   7.935  12.475 -0.8489  1.8631  1.6852
16092SOL     OW49716   5.429   6.882   2.261 -0.1656 -0.7787 -0.5216
16092SOL    HW149717   5.442   6.789   2.279 -1.3306 -1.2046 -1.6999
16092SOL    HW249718   5.350   6.905   2.310 -0.0208 -0.4650 -0.4327
16093SOL     OW49719   5.054   6.857  12.034 -0.6347  0.0312 -0.1564
16093SOL    HW149720   5.087   6.876  12.122  0.1831 -0.1732 -0.4110
16093SOL    HW249721   4.986   6.790  12.049 -2.2939  1.7870  0.5527
16094SOL     OW49722   3.907   5.806   1.259 -0.0066  0.7271 -0.5403
16094SOL    HW149723   3.872   5.735   1.312  0.8218  0.3502 -0.4935
16094SOL    HW249724   3.930   5.874   1.322  0.1348  0.6389 -0.4970
16095SOL     OW49725   4.798   6.785   0.463 -0.1107  0.4512 -0.1370
16095SOL    HW149726   4.817   6.876   0.488  2.0778 -0.0434  0.1749
16095SOL    HW249727   4.773   6.791   0.371  0.6497  1.3168 -0.3032
16096SOL     OW49728   3.366   5.341   1.966  0.0787 -0.4954  0.5255
16096SOL    HW149729   3.290   5.399   1.962 -0.2825 -0.7663  2.5306
16096SOL    HW249730   3.420   5.368   1.891 -1.1295  0.8921  0.0917
16097SOL     OW49731   3.145   3.603   1.446 -0.4410  0.3304 -0.2896
16097SOL    HW149732   3.138   3.526   1.503 -0.6543  0.3830 -0.2430
16097SOL    HW249733   3.054   3.629   1.430 -0.3711  0.5545 -0.3291
16098SOL     OW49734   5.085   7.496   0.023 -0.3389  0.2027  0.1455
16098SOL    HW149735   5.154   7.437  -0.007  0.2253  0.2682  1.2549
16098SOL    HW249736   5.028   7.508  -0.053  1.3949  0.9411 -1.0933
16099SOL     OW49737   2.698   5.710   1.219  0.1659 -0.3725  0.0968
16099SOL    HW149738   2.789   5.715   1.189  0.0210  0.0563 -0.2789
16099SOL    HW249739   2.676   5.800   1.246 -0.5664 -0.1711 -1.0802
16100SOL     OW49740   4.869   6.540   1.425  0.1686  0.0711  0.3281
16100SOL    HW149741   4.852   6.617   1.479  1.6241  1.0006 -0.4742
16100SOL    HW249742   4.962   6.546   1.403 -0.0402 -1.0885 -1.0026
16101SOL     OW49743   3.649   5.661   3.210  0.0478  0.0656 -0.3795
16101SOL    HW149744   3.679   5.573   3.233  0.8234  0.4454  0.0711
16101SOL    HW249745   3.555   5.650   3.193 -0.2598 -0.5332  1.4325
16102SOL     OW49746   5.648   7.447   2.622  0.1013 -0.1696  0.3207
16102SOL    HW149747   5.674   7.436   2.531  1.5598 -1.6500  0.8838
16102SOL    HW249748   5.571   7.391   2.632  0.5598 -0.8181  0.2516
16103SOL     OW49749   3.482   6.779   1.369  1.1696 -0.4505 -0.2589
16103SOL    HW149750   3.399   6.732   1.365  1.5462 -1.1380 -0.0779
16103SOL    HW249751   3.478   6.826   1.453 -0.4834  2.3009 -1.7436
16104SOL     OW49752   6.007   6.794   1.556 -0.6163  0.7835  0.1543
16104SOL    HW149753   6.043   6.883   1.554  0.1649  0.4689 -0.1928
16104SOL    HW249754   6.032   6.756   1.472  1.1434 -0.5660  1.2328
16105SOL     OW49755   5.701   5.918   0.409  0.5095 -0.3916 -0.4346
16105SOL    HW149756   5.762   5.848   0.433 -0.4469 -1.1579 -0.1690
16105SOL    HW249757   5.635   5.875   0.355  1.1271  0.7771 -2.2032
16106SOL     OW49758   3.236   5.606   1.866 -0.2694 -0.0929 -0.1115
16106SOL    HW149759   3.151   5.589   1.905 -0.3961  0.5429 -0.0922
16106SOL    HW249760   3.289   5.641   1.937  0.2018 -1.0431  0.0212
16107SOL     OW49761   6.561   5.294   1.716  0.4168  0.0431 -0.0797
16107SOL    HW149762   6.519   5.276   1.801  0.0258 -0.0042 -0.2795
16107SOL    HW249763   6.516   5.235   1.655  0.7922 -0.0217 -0.2943
16108SOL     OW49764   6.825   7.004  12.351 -0.3368 -0.1314 -0.6712
16108SOL    HW149765   6.843   6.917  12.388  1.3700  1.3348  2.3501
16108SOL    HW249766   6.736   7.024  12.381  0.0310 -0.0640  0.4495
16109SOL     OW49767   4.941   6.486  11.197  0.1235 -0.2087 -0.1491
16109SOL    HW149768   4.946   6.459  11.289  1.9284 -0.8797 -0.4191
16109SOL    HW249769   4.902   6.411  11.152 -0.6446  0.0726  0.0270
16110SOL     OW49770   3.510   5.603   1.583  0.4654 -0.4229 -0.2849
16110SOL    HW149771   3.505   5.693   1.552  2.2972 -0.7979 -1.8668
16110SOL    HW249772   3.421   5.570   1.576 -0.1342  1.0923 -0.1501
16111SOL     OW49773   4.146   7.072   1.425  0.2355 -0.3222 -0.4479
16111SOL    HW149774   4.217   7.111   1.475 -0.6850  0.7104  0.0897
16111SOL    HW249775   4.099   7.017   1.487  0.3703 -0.7561 -0.7243
16112SOL     OW49776   6.957   5.791   0.658 -0.3781  0.2157  0.3813
16112SOL    HW149777   6.880   5.734   0.661 -0.7575  0.2265 -3.5475
16112SOL    HW249778   7.029   5.732   0.636 -0.0300  0.7174  0.1674
16113SOL     OW49779   3.885   0.361   0.163  0.1709  0.0815  0.2723
16113SOL    HW149780   3.800   0.400   0.183  0.2263 -0.0657  0.8097
16113SOL    HW249781   3.894   0.370   0.068 -0.7176 -0.4425  0.1209
16114SOL     OW49782   2.885   7.930   1.419 -0.1381 -0.5857 -0.1641
16114SOL    HW149783   2.822   7.859   1.432 -0.0984 -0.6991 -0.5877
16114SOL    HW249784   2.845   7.987   1.354 -1.3099  1.1463  1.9533
16115SOL     OW49785   3.837   7.023   1.465 -0.2030 -0.3101 -0.3168
16115SOL    HW149786   3.899   6.956   1.493 -0.5716 -1.0625 -1.2651
16115SOL    HW249787   3.845   7.092   1.532  2.0475 -0.1142 -0.7133
16116SOL     OW49788   4.084   6.618   1.046  0.0581  0.0360 -0.5300
16116SOL    HW149789   3.999   6.662   1.047 -0.7254 -1.4228 -0.6458
16116SOL    HW249790   4.137   6.672   0.987 -1.3959 -0.0898 -2.0471
16117SOL     OW49791   5.155   6.027   2.314 -0.4295 -0.0846 -0.0138
16117SOL    HW149792   5.224   6.088   2.341 -1.1229  0.2507  1.1008
16117SOL    HW249793   5.184   5.942   2.348  0.2496 -0.2891 -1.0520
16118SOL     OW49794   4.745   6.074   1.178 -0.0796  0.0212  0.2130
16118SOL    HW149795   4.699   6.085   1.261 -0.6864 -0.3158 -0.0645
16118SOL    HW249796   4.814   6.011   1.197 -1.0058 -1.0443  0.1942
16119SOL     OW49797   4.158   7.143   1.820  1.0006  0.2697 -0.3439
16119SOL    HW149798   4.104   7.066   1.800  3.0241 -1.3514  0.0917
16119SOL    HW249799   4.170   7.139   1.915  1.6808  0.7336 -0.4058
16120SOL     OW49800   3.760   6.253   2.170 -0.1336  0.6203  0.1604
16120SOL    HW149801   3.698   6.187   2.202  0.6799  0.0413  0.5784
16120SOL    HW249802   3.707   6.332   2.159 -0.7715  0.3863  1.3664
16121SOL     OW49803   3.272   7.014   0.942  0.3402  0.0413  0.0799
16121SOL    HW149804   3.285   6.922   0.966 -0.9176 -0.0659  0.4244
16121SOL    HW249805   3.183   7.034   0.971  0.3430  1.1725 -0.6308
16122SOL     OW49806   5.475   5.189   1.256  0.1326  0.1951 -0.1915
16122SOL    HW149807   5.448   5.149   1.338  1.8812 -0.1738  0.2455
16122SOL    HW249808   5.486   5.282   1.277 -2.0624  0.6192 -0.7267
16123SOL     OW49809   3.131   6.180   0.559 -0.6766  0.4068 -0.3820
16123SOL    HW149810   3.197   6.111   0.554  0.3298  1.4059 -1.4542
16123SOL    HW249811   3.050   6.137   0.532 -0.1676 -0.4827 -0.5293
16124SOL     OW49812   5.282   7.868   1.270 -0.2662 -0.2262 -0.3941
16124SOL    HW149813   5.209   7.841   1.214  0.1777  0.2881 -1.2489
16124SOL    HW249814   5.358   7.867   1.212  0.2445  0.1511  0.2547
16125SOL     OW49815   7.146   7.308   0.197 -0.3880 -0.5124 -0.1791
16125SOL    HW149816   7.167   7.214   0.190  0.3216 -0.4292  0.6255
16125SOL    HW249817   7.186   7.347   0.119  0.5340 -0.7000  0.1750
16126SOL     OW49818   4.799   6.910   1.867  0.4039 -0.6874  0.3474
16126SOL    HW149819   4.826   6.990   1.821  0.7097 -1.2431 -0.4594
16126SOL    HW249820   4.858   6.906   1.942 -0.8589  0.8488  1.4922
16127SOL     OW49821   4.027   5.268   0.441  0.4139  0.3403  0.3103
16127SOL    HW149822   4.119   5.285   0.420  0.7322 -1.5593 -0.0457
16127SOL    HW249823   4.017   5.297   0.532  1.5596 -0.0469  0.5791
16128SOL     OW49824   6.736   6.616   1.357  0.0749 -0.2251  0.2268
16128SOL    HW149825   6.775   6.589   1.273 -1.0076  0.5536 -0.5508
16128SOL    HW249826   6.784   6.565   1.423  0.3991 -1.4673 -0.9213
16129SOL     OW49827   3.995   5.574   0.830  0.2259  0.9863 -0.3220
16129SOL    HW149828   4.072   5.631   0.820  0.9738  0.0623  0.0054
16129SOL    HW249829   3.925   5.621   0.785  1.4405  0.9337 -2.3675
16130SOL     OW49830   4.880   7.931   0.800  0.4958  0.4333 -0.3356
16130SOL    HW149831   4.972   7.909   0.787  0.2215 -0.8044 -0.3831
16130SOL    HW249832   4.880   8.019   0.836  1.6607  0.7045 -0.9668
16131SOL     OW49833   4.607   7.133   1.484 -0.1613 -0.7253  0.4347
16131SOL    HW149834   4.525   7.128   1.533  1.1695 -0.3061  2.8173
16131SOL    HW249835   4.635   7.042   1.473 -1.3161 -0.9397 -1.1921
16132SOL     OW49836   4.903   6.134   3.199 -0.2770 -0.4384  0.2883
16132SOL    HW149837   4.962   6.205   3.171 -0.5421 -0.1636  0.4243
16132SOL    HW249838   4.855   6.110   3.120  1.1188 -1.7422 -0.2099
16133SOL     OW49839   3.933   6.229   3.043  0.5766 -0.4063  1.0168
16133SOL    HW149840   3.993   6.212   2.971  0.5973 -0.5313  1.0621
16133SOL    HW249841   3.899   6.142   3.067  0.1047 -0.2973  0.7568
16134SOL     OW49842   4.223   5.907   4.022 -0.2925 -0.1759 -0.3288
16134SOL    HW149843   4.284   5.941   3.957 -0.3757 -0.6964 -0.6794
16134SOL    HW249844   4.136   5.918   3.983 -0.2583 -1.9480 -1.0120
16135SOL     OW49845   5.514   7.689   2.361  0.1814 -0.5250  0.1299
16135SOL    HW149846   5.440   7.680   2.301  0.5432  0.2801 -0.4537
16135SOL    HW249847   5.473   7.691   2.448 -0.4507 -0.5409 -0.1584
16136SOL     OW49848   4.522   0.166   1.739 -0.4428 -0.4368  0.3081
16136SOL    HW149849   4.512   0.237   1.802 -1.9022 -1.2994  1.1062
16136SOL    HW249850   4.608   0.180   1.700 -0.0928  0.9136  1.4876
16137SOL     OW49851   5.723   6.125   2.449 -0.4140  0.2948  0.3178
16137SOL    HW149852   5.794   6.062   2.458  0.2076  0.4544 -2.5712
16137SOL    HW249853   5.644   6.072   2.438 -0.2638  0.0692  0.3219
16138SOL     OW49854   4.013   6.119   4.240  0.0844 -0.3915  0.3789
16138SOL    HW149855   4.024   6.180   4.313 -0.7597 -0.8604  0.9214
16138SOL    HW249856   4.072   6.151   4.172  2.5094 -1.1251  1.9894
16139SOL     OW49857   4.566   6.881   4.180 -0.1133  0.6038  0.1273
16139SOL    HW149858   4.554   6.960   4.127  0.7068 -0.7504 -2.2143
16139SOL    HW249859   4.601   6.913   4.263  1.0736  2.6323 -1.0797
16140SOL     OW49860   5.973   7.591   3.170 -0.5737  0.0109 -0.8743
16140SOL    HW149861   6.032   7.535   3.221  0.3954 -0.7809 -2.7701
16140SOL    HW249862   6.028   7.665   3.144 -1.7611  1.7999  1.3435
16141SOL     OW49863   4.033   6.428   4.633 -0.1796 -0.2840 -0.3286
16141SOL    HW149864   3.950   6.446   4.676  0.3514 -0.3803  0.7694
16141SOL    HW249865   4.095   6.413   4.704  0.6077 -1.0140 -1.1277
16142SOL     OW49866   1.745   6.557   3.475 -0.8479 -0.1630  0.1255
16142SOL    HW149867   1.805   6.588   3.543  0.1072  2.6190 -1.8055
16142SOL    HW249868   1.801   6.529   3.403 -1.8073  0.5629 -0.9522
16143SOL     OW49869   6.891   6.649   3.066  0.0249 -0.2399  0.5143
16143SOL    HW149870   6.873   6.646   3.160 -2.2112  0.0251  0.1363
16143SOL    HW249871   6.917   6.559   3.044 -2.5906 -1.1672  0.8628
16144SOL     OW49872   3.320   4.802   2.639  0.1118  0.6402 -0.6972
16144SOL    HW149873   3.410   4.820   2.667  0.4306  1.4198 -2.1050
16144SOL    HW249874   3.267   4.867   2.684  0.5358  1.4959 -1.3962
16145SOL     OW49875   4.760   4.746   1.824  0.4666  0.3956  0.2718
16145SOL    HW149876   4.775   4.836   1.797  1.8841 -0.2183 -1.1810
16145SOL    HW249877   4.771   4.747   1.919  2.2804  1.4689  0.0957
16146SOL     OW49878   3.543   6.644   1.864 -0.2259  0.0799  0.1649
16146SOL    HW149879   3.543   6.700   1.786 -1.4540 -0.2967 -0.1157
16146SOL    HW249880   3.526   6.704   1.937 -0.6500  0.1980 -0.0319
16147SOL     OW49881   4.784   5.898   4.459 -0.1323 -0.5750 -0.3832
16147SOL    HW149882   4.864   5.917   4.508 -0.9793 -1.2978  1.4130
16147SOL    HW249883   4.714   5.915   4.522 -1.3101 -1.3660 -1.4389
16148SOL     OW49884   3.680   7.175   3.367 -0.6553  0.3036  0.0454
16148SOL    HW149885   3.759   7.126   3.346 -0.3244 -0.7838  3.1975
16148SOL    HW249886   3.613   7.140   3.309  0.2928 -1.6968  0.1002
16149SOL     OW49887   3.637   5.944   2.859  0.1555  0.1269  0.4892
16149SOL    HW149888   3.682   5.941   2.775 -0.6835  0.6095  0.0176
16149SOL    HW249889   3.667   5.865   2.905  2.3063  0.9509  0.6370
16150SOL     OW49890   3.545   5.446   4.287  0.3094 -0.2226 -0.4320
16150SOL    HW149891   3.451   5.431   4.285  0.0622  0.5561  1.8382
16150SOL    HW249892   3.557   5.532   4.247 -0.1801  0.3896  0.6790
16151SOL     OW49893   4.132   6.515   1.706 -0.4126 -0.2836  0.3274
16151SOL    HW149894   4.069   6.573   1.749 -1.1524 -1.1669  0.4676
16151SOL    HW249895   4.163   6.564   1.630 -1.2445  0.1829  0.2850
16152SOL     OW49896   4.859   5.741   2.600 -0.0307 -0.0275  0.2484
16152SOL    HW149897   4.884   5.833   2.597  0.7365 -0.2444 -0.9273
16152SOL    HW249898   4.942   5.694   2.595 -0.4658 -0.7734 -0.1626
16153SOL     OW49899   4.829   4.112   1.992 -0.2311  0.3059  0.1329
16153SOL    HW149900   4.813   4.159   1.911 -0.0216 -0.2622 -0.2429
16153SOL    HW249901   4.924   4.102   1.995 -0.2751 -0.0921  0.2091
16154SOL     OW49902   5.127   7.950   3.112 -0.3707 -0.2981  0.1769
16154SOL    HW149903   5.114   7.935   3.018 -0.0856 -1.1693  0.2673
16154SOL    HW249904   5.206   8.005   3.116 -1.4956  1.4249 -0.1661
16155SOL     OW49905   3.944   6.368   2.675  0.2154  0.5681  0.9260
16155SOL    HW149906   3.951   6.434   2.744  1.9851 -0.6042  1.9257
16155SOL    HW249907   3.953   6.284   2.720 -0.9798 -0.3597 -0.4487
16156SOL     OW49908   6.364   6.099   2.648 -0.4398 -0.1463 -0.0701
16156SOL    HW149909   6.428   6.029   2.656 -0.8575 -0.7498 -1.5779
16156SOL    HW249910   6.366   6.143   2.733  0.8200 -1.1189  0.4476
16157SOL     OW49911   4.387   7.127   1.626  0.2742  0.2261 -0.1071
16157SOL    HW149912   4.402   7.185   1.701  2.0434  0.3962 -0.5619
16157SOL    HW249913   4.360   7.044   1.665  0.4831  0.5259  0.6901
16158SOL     OW49914   4.587   7.021   3.164 -0.4632 -0.0905 -0.1489
16158SOL    HW149915   4.600   7.025   3.069 -0.5757 -0.1537 -0.1681
16158SOL    HW249916   4.545   7.104   3.186  2.0063  1.1562  0.2602
16159SOL     OW49917   3.938   5.795   3.708 -0.1454 -0.2706 -0.8645
16159SOL    HW149918   3.868   5.734   3.731 -0.8133  0.2129 -1.5690
16159SOL    HW249919   3.956   5.843   3.789 -0.6376 -0.3940 -0.6806
16160SOL     OW49920   2.801   5.698   2.322  0.3478 -0.3158  0.4202
16160SOL    HW149921   2.718   5.745   2.313  0.5433 -0.0176  0.1044
16160SOL    HW249922   2.798   5.658   2.409 -0.0586 -0.1759  0.4712
16161SOL     OW49923   3.942   5.713   4.168 -0.2541 -0.0494  0.0339
16161SOL    HW149924   3.978   5.743   4.251  0.6547 -1.7627  0.3209
16161SOL    HW249925   3.929   5.792   4.117  0.3367  0.9400  1.3584
16162SOL     OW49926   5.302   4.227   1.601  0.1554 -0.6196  0.0054
16162SOL    HW149927   5.241   4.261   1.536 -1.7227  0.2890  2.0975
16162SOL    HW249928   5.259   4.149   1.636 -0.5080  0.6941  2.3464
16163SOL     OW49929   5.378   7.230   4.388  0.2254  0.7640  0.0214
16163SOL    HW149930   5.365   7.231   4.483  2.5164 -1.7168  0.4529
16163SOL    HW249931   5.338   7.313   4.358 -1.4514  1.1606  2.9500
16164SOL     OW49932   3.623   7.942   3.904 -0.2136 -0.1227  0.5437
16164SOL    HW149933   3.645   8.031   3.877  0.4062  0.0631  1.6174
16164SOL    HW249934   3.634   7.890   3.825 -1.7370  0.9204 -0.4012
16165SOL     OW49935   4.498   6.115   2.700  0.2899  0.0564  0.9049
16165SOL    HW149936   4.443   6.054   2.651  3.4029 -3.5016  1.4396
16165SOL    HW249937   4.452   6.127   2.783 -0.8482 -0.8357  0.4387
16166SOL     OW49938   4.950   7.345   2.504  0.2559 -0.1361 -0.3675
16166SOL    HW149939   4.934   7.380   2.591  0.1882 -0.7060 -0.1444
16166SOL    HW249940   5.043   7.357   2.489  0.6634 -1.8010  0.5923
16167SOL     OW49941   4.549   5.331   0.998 -0.7102  0.3266 -0.1343
16167SOL    HW149942   4.527   5.323   0.906 -0.6177 -2.9065 -0.0011
16167SOL    HW249943   4.573   5.242   1.025 -0.8505  1.1100  3.0319
16168SOL     OW49944   4.844   5.801   1.984  0.3005 -0.3473 -0.1279
16168SOL    HW149945   4.844   5.813   2.079  1.2805 -2.2843  0.1598
16168SOL    HW249946   4.760   5.759   1.964  0.2600 -0.2925 -0.0720
16169SOL     OW49947   5.927   5.818   2.421 -0.3483  0.5443 -0.4019
16169SOL    HW149948   5.937   5.803   2.327 -2.0828  1.7843 -0.8446
16169SOL    HW249949   5.989   5.889   2.441  1.7322 -1.2729 -0.0561
16170SOL     OW49950   3.809   5.590   2.582 -0.0083  0.3512 -0.3285
16170SOL    HW149951   3.720   5.620   2.603  0.0879  0.8895 -0.6601
16170SOL    HW249952   3.801   5.552   2.494 -0.0425 -0.2122 -0.0838
16171SOL     OW49953   4.765   5.239   3.533  0.0928 -0.0308 -0.2857
16171SOL    HW149954   4.708   5.181   3.483 -1.6990  1.3365  0.0663
16171SOL    HW249955   4.853   5.203   3.521 -0.7578 -1.9016 -1.2959
16172SOL     OW49956   3.699   5.362   4.498 -0.3858  0.6690  0.1073
16172SOL    HW149957   3.689   5.431   4.564  1.2018  0.5517  0.5039
16172SOL    HW249958   3.643   5.391   4.426 -1.1433  1.4616  0.9678
16173SOL     OW49959   5.286   5.365   2.912 -0.6512  0.5162 -0.2328
16173SOL    HW149960   5.292   5.460   2.896 -0.7275  0.5179 -0.2511
16173SOL    HW249961   5.210   5.356   2.970  0.2926  0.6181  1.0557
16174SOL     OW49962   3.775   5.401   1.622 -0.0329 -0.1333  0.1637
16174SOL    HW149963   3.707   5.401   1.689  0.7953 -4.4706  1.2749
16174SOL    HW249964   3.852   5.438   1.666 -0.3414  0.1220  0.4943
16175SOL     OW49965   1.766   6.213   3.676 -0.3152  0.0414  0.2769
16175SOL    HW149966   1.746   6.304   3.651 -1.8812 -0.6886 -1.3428
16175SOL    HW249967   1.778   6.167   3.593  0.0605 -1.3359  1.0599
16176SOL     OW49968   5.133   7.078   4.239  0.0074 -0.1244  0.4560
16176SOL    HW149969   5.129   6.993   4.195  0.1957 -0.1411  0.4719
16176SOL    HW249970   5.226   7.095   4.251 -0.0610 -0.9354  2.4443
16177SOL     OW49971   4.003   5.600   1.734  0.3112  0.1760  0.3231
16177SOL    HW149972   4.027   5.692   1.728 -0.8475  0.5008  0.4244
16177SOL    HW249973   3.955   5.592   1.816 -0.7908 -0.2208 -0.3349
16178SOL     OW49974   5.132   6.148   3.944  0.6981 -0.3827  0.3443
16178SOL    HW149975   5.090   6.234   3.941  1.0993 -0.2148 -2.7101
16178SOL    HW249976   5.062   6.088   3.970 -0.3043  0.4963 -0.2504
16179SOL     OW49977   2.919   5.707   2.092 -0.2491  0.0902  0.3480
16179SOL    HW149978   2.867   5.692   2.171 -1.6095 -1.8320 -0.8273
16179SOL    HW249979   2.993   5.647   2.100 -1.5383 -1.7402 -0.7597
16180SOL     OW49980   4.328   7.414   3.037 -0.2396 -0.0436 -0.0551
16180SOL    HW149981   4.259   7.410   2.971  0.1365 -1.4792 -0.4006
16180SOL    HW249982   4.406   7.443   2.988 -0.2804  0.2528  0.0535
16181SOL     OW49983   5.643   6.834   2.719  0.0071 -0.4409  0.3287
16181SOL    HW149984   5.685   6.918   2.732  0.2212 -0.2323 -1.5217
16181SOL    HW249985   5.670   6.806   2.631 -1.9216 -1.3294 -0.0337
16182SOL     OW49986   4.934   0.326   2.449 -0.0782  0.4810 -0.2056
16182SOL    HW149987   4.879   0.270   2.503 -0.6046 -1.1322 -2.2927
16182SOL    HW249988   4.922   0.414   2.486 -1.1064 -0.3801  1.6706
16183SOL     OW49989   3.075   5.842   3.056  0.1512  0.6467 -0.0988
16183SOL    HW149990   3.116   5.928   3.072 -0.1399  0.6170  0.8337
16183SOL    HW249991   3.035   5.819   3.139 -1.2294  0.3756 -0.8142
16184SOL     OW49992   5.993   7.545   2.834 -0.3699  0.7173 -0.1858
16184SOL    HW149993   5.914   7.495   2.857  0.5641 -1.3809 -1.2701
16184SOL    HW249994   6.064   7.481   2.840  0.7805  1.6902 -2.4591
16185SOL     OW49995   3.552   6.610   2.574 -0.8245 -0.7224  0.2273
16185SOL    HW149996   3.613   6.549   2.532  0.8581  0.5411  0.7120
16185SOL    HW249997   3.584   6.618   2.664 -2.6024 -1.1059  0.9350
16186SOL     OW49998   4.236   0.386   2.064  0.1529 -0.6074  0.4409
16186SOL    HW149999   4.314   0.401   2.010 -0.7747 -0.3682 -0.8774
16186SOL    HW250000   4.230   0.291   2.072  0.2795 -0.6488  0.0770
16187SOL     OW50001   5.140   5.464   3.652  0.3027  0.1080  0.8737
16187SOL    HW150002   5.189   5.480   3.733  1.0116 -0.6428  0.6010
16187SOL    HW250003   5.117   5.551   3.621 -1.2566  0.4028  2.6330
16188SOL     OW50004   5.001   7.751   1.622  0.5304  0.4883  0.9680
16188SOL    HW150005   4.980   7.680   1.561 -1.0098 -0.1230  2.1352
16188SOL    HW250006   5.088   7.729   1.655  0.6670 -0.0784  0.2630
16189SOL     OW50007   3.763   0.356   1.548 -0.0814  0.0669  0.2087
16189SOL    HW150008   3.776   0.421   1.479 -2.5476  0.1523 -0.2841
16189SOL    HW250009   3.796   0.275   1.510 -0.8142  0.2421 -0.8653
16190SOL     OW50010   5.433   5.945   3.413  0.4945 -0.2825 -0.1059
16190SOL    HW150011   5.392   5.943   3.326 -3.5232  0.8100  1.5379
16190SOL    HW250012   5.457   5.854   3.430 -0.3888 -0.8502 -1.6412
16191SOL     OW50013   3.617   4.666   2.563 -0.3090 -0.4193 -0.0835
16191SOL    HW150014   3.541   4.668   2.620 -0.0807  1.3814  0.2131
16191SOL    HW250015   3.692   4.656   2.622 -0.2462 -1.5059 -0.3222
16192SOL     OW50016   5.622   6.541   3.396  0.0464 -0.1576  0.2237
16192SOL    HW150017   5.550   6.591   3.358  0.8400  1.8889  1.2751
16192SOL    HW250018   5.580   6.485   3.462 -0.4922  2.0956  1.8952
16193SOL     OW50019   2.864   5.570   2.865  0.5054 -0.3201 -0.2166
16193SOL    HW150020   2.903   5.484   2.883  1.0222 -0.0527 -0.0455
16193SOL    HW250021   2.814   5.590   2.945 -1.2060 -1.3102 -0.9820
16194SOL     OW50022   2.764   4.867   3.016 -0.3059  0.3188 -0.0076
16194SOL    HW150023   2.826   4.836   3.081 -0.4321  1.3907  0.6470
16194SOL    HW250024   2.694   4.802   3.016  0.4891 -0.5645 -0.2987
16195SOL     OW50025   4.803   6.785   2.872 -0.4549 -0.2866  0.2589
16195SOL    HW150026   4.783   6.696   2.900  0.4666 -0.4982  0.2824
16195SOL    HW250027   4.812   6.834   2.954 -2.0761  0.1014  0.2305
16196SOL     OW50028   6.882   5.118   2.250 -0.2607  0.3208 -0.2522
16196SOL    HW150029   6.846   5.203   2.277 -1.4065  0.1948 -1.2800
16196SOL    HW250030   6.940   5.139   2.177 -0.9973  0.1933 -0.8956
16197SOL     OW50031   3.464   6.747   2.351 -0.2171 -0.6805 -0.7497
16197SOL    HW150032   3.530   6.730   2.418 -0.1625 -0.1144 -0.6601
16197SOL    HW250033   3.394   6.684   2.371  0.2753 -1.2676 -0.8343
16198SOL     OW50034   5.143   5.879   2.863  0.5603  0.3162 -0.5951
16198SOL    HW150035   5.138   5.959   2.916  0.3542  0.4769 -0.8583
16198SOL    HW250036   5.100   5.902   2.781 -2.2393 -0.9736  0.3988
16199SOL     OW50037   3.034   7.349   3.061 -0.6997 -0.3635 -0.3743
16199SOL    HW150038   3.071   7.300   2.988 -0.2919  1.6083 -1.5693
16199SOL    HW250039   3.096   7.420   3.076 -0.9593 -0.5158  1.6896
16200SOL     OW50040   6.909   5.427   1.196  0.3878  0.1528 -0.2353
16200SOL    HW150041   6.862   5.356   1.238  1.5355 -0.8060 -0.4987
16200SOL    HW250042   6.896   5.502   1.253 -0.3863 -0.4092  0.3428
16201SOL     OW50043   5.636   5.489   2.032  0.6455 -0.4844  0.1263
16201SOL    HW150044   5.571   5.493   2.103 -3.1339  2.7764 -3.0293
16201SOL    HW250045   5.603   5.422   1.973 -0.5131  1.6829 -1.8567
16202SOL     OW50046   6.108   6.039   2.729 -0.4779  0.3109 -0.0301
16202SOL    HW150047   6.075   5.960   2.687 -1.3946  1.0341 -0.7141
16202SOL    HW250048   6.180   6.068   2.673 -0.9427  0.6337 -0.4646
16203SOL     OW50049   4.533   4.474   0.253  0.3484 -0.5922  0.7070
16203SOL    HW150050   4.602   4.410   0.238 -0.1134 -0.7529 -0.8754
16203SOL    HW250051   4.490   4.484   0.168 -0.5936  0.6499  1.2950
16204SOL     OW50052   3.994   4.825   2.598  0.0156  0.0074  0.3031
16204SOL    HW150053   4.021   4.779   2.677  0.1656 -2.0292 -0.8579
16204SOL    HW250054   4.074   4.867   2.566  0.2830 -0.3806  0.4614
16205SOL     OW50055   4.305   6.766   3.242  0.4276  0.1783 -0.0303
16205SOL    HW150056   4.220   6.731   3.214 -0.1076  0.6681  0.9180
16205SOL    HW250057   4.318   6.843   3.187 -0.6483  1.1756  1.0590
16206SOL     OW50058   3.822   6.576   2.243  0.0556 -0.3197  0.8500
16206SOL    HW150059   3.840   6.657   2.291  0.7469 -0.7022  1.2511
16206SOL    HW250060   3.784   6.517   2.308 -1.4467  0.0199  0.3162
16207SOL     OW50061   4.346   6.255   3.943  0.0886  0.6345 -0.1615
16207SOL    HW150062   4.326   6.286   4.031  0.0711 -0.1787  0.1257
16207SOL    HW250063   4.437   6.281   3.929  0.0830  0.7913  0.0794
16208SOL     OW50064   3.105   7.125   1.866  0.4994 -0.4280  0.1429
16208SOL    HW150065   3.144   7.089   1.786 -0.5925 -1.2358 -0.0488
16208SOL    HW250066   3.023   7.077   1.877 -1.0971  2.0429 -0.1568
16209SOL     OW50067   5.349   6.483   1.969 -0.2464  0.2813 -0.3018
16209SOL    HW150068   5.412   6.546   1.934 -0.0152  1.2318  1.7141
16209SOL    HW250069   5.390   6.397   1.954  1.4720  0.8623  0.7921
16210SOL     OW50070   1.479   6.136   3.780  0.6213 -0.2050  0.2744
16210SOL    HW150071   1.472   6.217   3.829  0.5358  0.3227 -0.6011
16210SOL    HW250072   1.570   6.134   3.750  0.5096 -0.2275 -0.0619
16211SOL     OW50073   0.894   6.540   4.134 -0.5204  0.0932  0.6757
16211SOL    HW150074   0.799   6.551   4.144 -0.4424  0.8036  0.6657
16211SOL    HW250075   0.918   6.605   4.068 -0.0885 -0.3793  0.3647
16212SOL     OW50076   4.822   5.020   3.727  0.5906 -0.5171 -0.1997
16212SOL    HW150077   4.845   5.003   3.819 -1.0295 -1.5779  0.0606
16212SOL    HW250078   4.754   5.088   3.732  0.2459 -0.8262 -0.5731
16213SOL     OW50079   6.561   4.378   2.366 -0.1908 -0.2720 -0.8368
16213SOL    HW150080   6.502   4.453   2.370  1.0534  0.7383 -0.5763
16213SOL    HW250081   6.627   4.395   2.433 -0.1793 -1.8873 -0.3913
16214SOL     OW50082   5.531   6.384   3.601  0.1666 -0.6051 -0.2132
16214SOL    HW150083   5.515   6.292   3.623  0.8953 -0.4238  1.2273
16214SOL    HW250084   5.612   6.406   3.649  0.3505  0.6113 -1.0415
16215SOL     OW50085   5.846   6.438   3.986  0.1450  0.3400  0.1063
16215SOL    HW150086   5.765   6.398   4.017  0.8059 -0.0964  1.3374
16215SOL    HW250087   5.831   6.454   3.893 -1.6132  0.9366  0.4589
16216SOL     OW50088   4.643   4.141   1.210 -0.3427  0.9825  0.0222
16216SOL    HW150089   4.691   4.097   1.280  0.4501  1.2386 -0.3575
16216SOL    HW250090   4.710   4.172   1.150 -0.8243  3.0946  0.4826
16217SOL     OW50091   4.265   6.830   0.936  0.3089 -0.3548  0.6328
16217SOL    HW150092   4.349   6.875   0.930 -0.0853  0.3181  0.0303
16217SOL    HW250093   4.213   6.883   0.996  0.6532 -1.3383  1.8388
16218SOL     OW50094   5.487   7.401   1.830 -0.6719 -0.2786 -0.0316
16218SOL    HW150095   5.415   7.439   1.781 -1.2760  1.2830  1.9126
16218SOL    HW250096   5.553   7.471   1.834 -0.6719 -0.3172  1.3471
16219SOL     OW50097   5.704   6.346   3.181 -0.3080  0.4701 -0.5874
16219SOL    HW150098   5.666   6.270   3.225  2.1268 -0.3188  0.3560
16219SOL    HW250099   5.709   6.413   3.249  1.3114  0.0437 -0.2528
16220SOL     OW50100   4.444   3.904   2.157 -0.3471  0.2707 -0.0327
16220SOL    HW150101   4.416   3.877   2.244 -1.7263  0.5901 -0.3554
16220SOL    HW250102   4.495   3.984   2.172  0.9749 -0.6624  0.6211
16221SOL     OW50103   5.184   6.656   3.828 -0.0885  0.2318  0.6199
16221SOL    HW150104   5.160   6.747   3.810 -0.3656  0.5741  2.5036
16221SOL    HW250105   5.265   6.643   3.780 -2.1063  0.0929 -3.1781
16222SOL     OW50106   5.159   6.303   3.516 -0.3443 -0.5336 -0.1199
16222SOL    HW150107   5.171   6.377   3.456  3.4272 -0.4516  0.4903
16222SOL    HW250108   5.105   6.338   3.587 -0.1981  1.0862 -0.7502
16223SOL     OW50109   6.606   7.195   3.539 -0.1465  0.4294 -0.3932
16223SOL    HW150110   6.553   7.134   3.590  0.9673  0.2472  0.5966
16223SOL    HW250111   6.611   7.274   3.593 -0.8678  1.1115 -1.2816
16224SOL     OW50112   3.758   5.650   1.878 -0.5270  0.2686 -0.3743
16224SOL    HW150113   3.761   5.686   1.966 -0.0022  1.1350 -0.7410
16224SOL    HW250114   3.783   5.722   1.821  0.7141 -0.7059 -1.1061
16225SOL     OW50115   4.756   6.487   3.195 -0.3718  0.0432 -0.2254
16225SOL    HW150116   4.769   6.489   3.100 -1.3136 -1.3494 -0.4139
16225SOL    HW250117   4.711   6.569   3.215  0.0442  0.4611 -0.9305
16226SOL     OW50118   4.686   5.750   3.990  0.1555 -0.1274 -0.2206
16226SOL    HW150119   4.635   5.778   3.915 -3.2319 -2.4472  0.9455
16226SOL    HW250120   4.666   5.813   4.059 -2.0421 -1.4735  0.4753
16227SOL     OW50121   2.319   6.365   2.648 -0.1566  0.2858  0.3238
16227SOL    HW150122   2.406   6.389   2.679  0.2037 -0.7320  0.1624
16227SOL    HW250123   2.261   6.432   2.683  0.6429  0.7668  0.7491
16228SOL     OW50124   1.728   0.141   2.778 -0.1081  0.7535 -0.5934
16228SOL    HW150125   1.752   0.054   2.812 -0.8627  0.4125 -0.9136
16228SOL    HW250126   1.649   0.125   2.727 -2.1232  2.1283  1.8958
16229SOL     OW50127   3.957   6.643   4.952 -0.0950  0.3967  0.2703
16229SOL    HW150128   4.007   6.687   5.020  0.9139 -0.0680 -0.1595
16229SOL    HW250129   3.978   6.550   4.962 -2.5325 -0.1213  1.4520
16230SOL     OW50130   4.321   5.333   2.324  0.3321  0.0811 -0.0809
16230SOL    HW150131   4.414   5.316   2.337  0.3481 -0.4328 -0.8011
16230SOL    HW250132   4.292   5.372   2.406  1.1578  0.1346  0.1915
16231SOL     OW50133   3.709   5.813   2.116 -0.3756 -0.0180  0.2271
16231SOL    HW150134   3.648   5.742   2.099  0.8333 -1.3212  1.0875
16231SOL    HW250135   3.754   5.787   2.197  0.2872  1.5991  0.4154
16232SOL     OW50136   4.299   5.527   0.697  0.3335  0.5388  0.0904
16232SOL    HW150137   4.299   5.558   0.787 -0.3648  1.9966 -0.3848
16232SOL    HW250138   4.341   5.441   0.701 -0.4361  0.2110  1.9208
16233SOL     OW50139   3.212   5.388   3.810  0.0482  0.6662  0.0731
16233SOL    HW150140   3.146   5.432   3.757  1.8044  0.8716 -2.0722
16233SOL    HW250141   3.254   5.459   3.859  0.0565  0.8198 -0.1529
16234SOL     OW50142   3.583   5.726   1.296  0.6408  0.1280  0.7734
16234SOL    HW150143   3.663   5.692   1.335  0.0925  0.1703  1.9620
16234SOL    HW250144   3.594   5.821   1.297  0.5129  0.1409  1.0898
16235SOL     OW50145   4.202   7.116   2.419 -0.3413 -0.3420 -0.7473
16235SOL    HW150146   4.239   7.029   2.432  0.8047 -0.0546 -1.8864
16235SOL    HW250147   4.178   7.144   2.508 -1.4715 -2.0931 -0.4486
16236SOL     OW50148   3.633   4.869   1.054 -0.3355 -0.1373  0.2922
16236SOL    HW150149   3.619   4.961   1.078 -0.8902 -0.4600  1.2607
16236SOL    HW250150   3.626   4.822   1.137 -1.3129 -1.1901 -0.3618
16237SOL     OW50151   4.134   0.288   3.207  0.6555 -0.4203 -0.2354
16237SOL    HW150152   4.203   0.222   3.201 -0.2849 -1.5081  0.3758
16237SOL    HW250153   4.144   0.326   3.294  0.5194 -0.5401 -0.1670
16238SOL     OW50154   3.772   5.354   4.119 -0.2335  0.3734  0.0383
16238SOL    HW150155   3.759   5.275   4.067  1.9526  0.3433 -0.5855
16238SOL    HW250156   3.687   5.371   4.160 -0.7982 -2.1606  0.0413
16239SOL     OW50157   3.904   5.870   5.578  0.0142  0.2263  0.3909
16239SOL    HW150158   3.875   5.891   5.490 -1.1264  1.2537  0.9889
16239SOL    HW250159   3.981   5.925   5.592  1.2373 -1.1743 -0.5408
16240SOL     OW50160   4.404   5.177   3.172 -0.0636 -0.2319 -0.1901
16240SOL    HW150161   4.449   5.154   3.254  1.6014  2.0157 -0.3475
16240SOL    HW250162   4.312   5.185   3.196 -0.0494 -2.2897  0.7925
16241SOL     OW50163   4.852   5.532   3.350 -0.1940 -0.2570  0.0426
16241SOL    HW150164   4.778   5.511   3.407 -0.8581  2.1601  0.2144
16241SOL    HW250165   4.814   5.540   3.263  0.4008 -1.6745 -0.3704
16242SOL     OW50166   6.104   6.039   2.402  0.1805 -0.1310 -0.4112
16242SOL    HW150167   6.102   6.134   2.412 -1.2523 -0.1531 -0.3366
16242SOL    HW250168   6.194   6.020   2.377 -0.0918  1.4844 -3.0071
16243SOL     OW50169   6.504   7.132   1.771 -0.3950 -0.1550  0.1236
16243SOL    HW150170   6.527   7.091   1.855 -3.8806 -0.9433  0.8578
16243SOL    HW250171   6.411   7.151   1.779 -1.0111 -0.7529 -3.8055
16244SOL     OW50172   3.210   5.284   2.565  0.4849 -0.4134  0.1295
16244SOL    HW150173   3.223   5.376   2.586  0.1255 -0.0255 -1.2621
16244SOL    HW250174   3.121   5.264   2.595 -0.6383  0.5660 -2.2702
16245SOL     OW50175   4.144   4.177   2.798 -0.1012 -0.7192  0.1837
16245SOL    HW150176   4.202   4.250   2.822 -2.1177  1.0271 -0.0587
16245SOL    HW250177   4.103   4.152   2.881 -0.0959 -1.0008  0.1028
16246SOL     OW50178   3.422   7.933   2.730  0.1625 -0.2494 -0.1360
16246SOL    HW150179   3.343   7.988   2.721 -0.3517 -1.0399 -0.5360
16246SOL    HW250180   3.396   7.848   2.695  1.0384 -0.6783  0.2376
16247SOL     OW50181   4.721   7.554   2.742 -0.0761  0.2110 -0.3055
16247SOL    HW150182   4.770   7.552   2.824 -0.6893 -1.6569  0.0558
16247SOL    HW250183   4.713   7.462   2.716  0.3986  0.7493 -2.6593
16248SOL     OW50184   5.430   6.041   4.392  1.3429 -0.2717  0.2981
16248SOL    HW150185   5.494   6.100   4.353  2.3661 -1.1669  0.5825
16248SOL    HW250186   5.448   6.045   4.486  2.2249 -1.9027  0.2336
16249SOL     OW50187   3.078   5.495   2.078  0.0979 -0.3323  0.4553
16249SOL    HW150188   3.164   5.494   2.120 -0.1237 -0.9149  0.9041
16249SOL    HW250189   3.056   5.403   2.063 -1.0095 -0.2749  1.5272
16250SOL     OW50190   5.675   4.534   0.729  0.4582  0.3505 -0.1023
16250SOL    HW150191   5.584   4.531   0.757  0.7802 -0.9293  0.9267
16250SOL    HW250192   5.714   4.603   0.783  0.0966  0.9625 -0.6088
16251SOL     OW50193   3.959   6.118   2.065 -0.1733 -0.6918  0.1074
16251SOL    HW150194   3.921   6.059   2.000 -2.4679  1.7480 -0.9350
16251SOL    HW250195   3.886   6.172   2.096  1.6454  1.1952  1.4652
16252SOL     OW50196   5.913   7.268   4.489 -0.4395  0.1204 -0.3593
16252SOL    HW150197   5.883   7.236   4.404  0.7600 -0.9646 -0.4099
16252SOL    HW250198   5.929   7.362   4.476  1.6655 -0.3881 -1.9528
16253SOL     OW50199   5.204   7.446   3.816  0.0250  0.4480  0.2150
16253SOL    HW150200   5.266   7.493   3.759 -0.1327  1.0214  0.5065
16253SOL    HW250201   5.160   7.385   3.759  0.5476  0.3516 -0.0901
16254SOL     OW50202   4.890   5.928   3.382 -0.1590  0.7253 -0.4417
16254SOL    HW150203   4.942   5.866   3.332 -0.3652  0.4332 -0.2972
16254SOL    HW250204   4.900   6.011   3.336 -0.2788  0.4768 -0.9171
16255SOL     OW50205   5.464   6.033   1.823 -0.3087 -0.1884  0.3885
16255SOL    HW150206   5.418   5.958   1.861  0.7929  0.0507  2.3726
16255SOL    HW250207   5.553   6.000   1.806 -0.4644  0.0420 -0.9963
16256SOL     OW50208   4.122   5.863   3.058 -0.2642 -0.1312  0.4898
16256SOL    HW150209   4.083   5.940   3.099 -1.4649 -0.0605 -0.7189
16256SOL    HW250210   4.085   5.789   3.105  0.8405 -0.0030  1.6088
16257SOL     OW50211   5.552   6.798   1.714  0.6103 -0.2870 -0.4336
16257SOL    HW150212   5.541   6.839   1.800 -1.9515 -1.4719 -0.1004
16257SOL    HW250213   5.565   6.872   1.654  0.7088  0.6841  0.7395
16258SOL     OW50214   4.092   5.371   2.520 -0.7413  0.1465  0.4378
16258SOL    HW150215   4.054   5.436   2.461 -2.1780 -0.9718  0.0840
16258SOL    HW250216   4.038   5.375   2.599 -0.7344 -0.4745  0.4817
16259SOL     OW50217   2.261   6.840   4.041 -0.3418  0.3888  0.1371
16259SOL    HW150218   2.217   6.888   4.110 -1.2948 -1.1916  0.6918
16259SOL    HW250219   2.221   6.753   4.043  2.1759 -0.8854  0.0763
16260SOL     OW50220   5.716   6.128   4.822  0.0599 -0.0745 -0.8648
16260SOL    HW150221   5.682   6.114   4.734  1.2901 -4.4326 -0.8798
16260SOL    HW250222   5.811   6.120   4.812  0.2536 -0.1828  0.7906
16261SOL     OW50223   4.782   6.683   1.669 -0.0940  0.3611  0.6126
16261SOL    HW150224   4.783   6.718   1.758 -0.7783 -0.1067  0.8140
16261SOL    HW250225   4.762   6.758   1.613  1.9297  0.9986  0.6678
16262SOL     OW50226   3.273   6.197   1.880  0.5894  0.4586  0.1071
16262SOL    HW150227   3.328   6.244   1.943 -0.1102  0.5123  0.6944
16262SOL    HW250228   3.307   6.107   1.881  1.2465  0.7050 -0.2156
16263SOL     OW50229   3.895   6.124   1.697  0.6300 -0.2708 -0.0699
16263SOL    HW150230   3.864   6.068   1.768  0.4019 -0.8170 -0.5905
16263SOL    HW250231   3.988   6.136   1.715  0.4702  0.0237  0.6026
16264SOL     OW50232   3.688   5.283   1.389  0.5720  0.0794  0.0695
16264SOL    HW150233   3.711   5.327   1.471  0.1923 -0.1002  0.2708
16264SOL    HW250234   3.715   5.345   1.321  2.4965 -0.4716  0.2467
16265SOL     OW50235   3.836   6.750   4.277  0.1477  0.1362  0.1851
16265SOL    HW150236   3.869   6.680   4.334 -0.6062 -0.0949  0.3461
16265SOL    HW250237   3.834   6.712   4.190 -0.5194 -0.1373  0.3157
16266SOL     OW50238   2.667   4.774   4.250 -0.0211  0.4695 -0.0245
16266SOL    HW150239   2.760   4.786   4.231 -0.0120 -0.1355 -0.3997
16266SOL    HW250240   2.665   4.713   4.324 -0.1189  0.5890  0.0725
16267SOL     OW50241   4.488   5.426   4.796  0.2555 -0.0698 -0.4417
16267SOL    HW150242   4.583   5.432   4.780  0.1176  1.0034 -0.9504
16267SOL    HW250243   4.466   5.336   4.773  1.2997 -0.6072  0.5353
16268SOL     OW50244   4.703   6.287   2.108 -0.1315 -0.0088  0.0149
16268SOL    HW150245   4.732   6.228   2.178  1.6788 -0.1932 -0.8396
16268SOL    HW250246   4.706   6.234   2.029 -1.0296  0.5256 -0.3964
16269SOL     OW50247   2.039   5.031   0.925  0.3912 -0.6341  0.3470
16269SOL    HW150248   2.046   5.019   0.830 -0.5126  0.3186  0.1316
16269SOL    HW250249   2.077   5.118   0.940  0.2737 -0.6642  0.8144
16270SOL     OW50250   3.501   5.612   2.627 -0.0676 -0.3408  0.1740
16270SOL    HW150251   3.406   5.615   2.633 -0.0648  2.7307  0.1628
16270SOL    HW250252   3.522   5.519   2.621 -3.1630 -1.0505 -1.7202
16271SOL     OW50253   4.142   6.339   4.874 -0.3312  0.0204  0.0075
16271SOL    HW150254   4.108   6.249   4.867  0.4441 -0.2887  0.1342
16271SOL    HW250255   4.137   6.359   4.967 -2.3163  0.8441 -0.2285
16272SOL     OW50256   4.800   5.328   2.296  0.3283 -0.1726 -0.8300
16272SOL    HW150257   4.849   5.250   2.270  1.1672 -0.2293  0.7475
16272SOL    HW250258   4.862   5.377   2.351 -1.7139 -0.9151  2.4551
16273SOL     OW50259   5.354   7.604   3.659 -0.4459 -0.9158 -0.3866
16273SOL    HW150260   5.386   7.678   3.710  0.7233 -1.5585 -0.1586
16273SOL    HW250261   5.299   7.644   3.591  0.2317  0.1632 -0.3267
16274SOL     OW50262   2.593   5.310   1.558 -0.5594  0.0010  0.1601
16274SOL    HW150263   2.623   5.379   1.500 -1.6423  1.1304  0.8811
16274SOL    HW250264   2.526   5.264   1.508 -0.5727  0.1405  0.0497
16275SOL     OW50265   2.532   6.568   3.899 -0.1574  0.4837  0.0377
16275SOL    HW150266   2.460   6.510   3.927 -0.3763  0.3340 -0.8093
16275SOL    HW250267   2.524   6.572   3.804  0.8539  0.6162 -0.0532
16276SOL     OW50268   4.883   7.186   4.320 -0.2292 -0.1526 -0.0301
16276SOL    HW150269   4.958   7.144   4.278  2.1214  2.1769  1.5146
16276SOL    HW250270   4.838   7.231   4.249  0.2554 -0.9666 -0.8789
16277SOL     OW50271   3.554   6.229   0.505  0.0648 -0.9252  0.4743
16277SOL    HW150272   3.507   6.301   0.546  0.8116 -0.6275  0.8179
16277SOL    HW250273   3.491   6.157   0.505 -0.8795 -0.1316 -0.3877
16278SOL     OW50274   4.660   6.846   2.650 -0.6706  0.1862 -0.2008
16278SOL    HW150275   4.701   6.770   2.609  0.3617  1.1485 -1.0021
16278SOL    HW250276   4.710   6.861   2.730  0.8515  1.5522 -1.3342
16279SOL     OW50277   4.280   6.593   2.053 -0.2297  0.3670  0.3456
16279SOL    HW150278   4.229   6.522   2.091  0.1613  0.3828  0.9152
16279SOL    HW250279   4.365   6.553   2.034 -0.3415  0.4237 -0.2909
16280SOL     OW50280   4.314   6.230   3.587 -0.6263 -0.1309 -0.2846
16280SOL    HW150281   4.354   6.233   3.500 -0.2726 -0.4642 -0.1295
16280SOL    HW250282   4.236   6.175   3.575 -0.6875 -0.0158 -0.4323
16281SOL     OW50283   3.619   6.978   3.997  0.5863 -0.5756  0.3393
16281SOL    HW150284   3.571   6.921   4.057  0.6015 -1.2880 -0.3128
16281SOL    HW250285   3.569   7.059   3.996  0.4210 -0.6635  1.0840
16282SOL     OW50286   4.272   5.422   2.950  0.4392  0.3148  0.1142
16282SOL    HW150287   4.249   5.364   3.023 -0.0270 -0.2827 -0.4984
16282SOL    HW250288   4.351   5.467   2.979  0.9007 -0.7456  0.5442
16283SOL     OW50289   5.332   6.171   2.440 -0.0678 -0.8044  0.1602
16283SOL    HW150290   5.350   6.187   2.533  1.3914 -0.3451 -0.1623
16283SOL    HW250291   5.318   6.258   2.403 -2.7208 -1.0977  0.2765
16284SOL     OW50292   1.690   0.396   2.322  0.2621  0.1704 -0.3308
16284SOL    HW150293   1.781   0.424   2.328 -0.0222  0.9708  0.6065
16284SOL    HW250294   1.641   0.477   2.306 -0.3569 -0.1451 -0.0820
16285SOL     OW50295   4.521   7.472   2.486  0.7015 -0.1959  0.5376
16285SOL    HW150296   4.592   7.535   2.493 -0.2348  0.9604  0.0176
16285SOL    HW250297   4.544   7.402   2.547  3.2022 -0.7983 -0.9848
16286SOL     OW50298   5.302   5.926   3.161 -0.1587  0.1950  0.4794
16286SOL    HW150299   5.284   5.984   3.087  1.0922  0.0237  0.0055
16286SOL    HW250300   5.232   5.861   3.158 -0.7746  0.8560  0.1571
16287SOL     OW50301   6.300   6.353   4.030  0.5026 -0.1276  0.1622
16287SOL    HW150302   6.371   6.382   4.087  0.8186  2.0387 -1.1824
16287SOL    HW250303   6.335   6.277   3.984  1.2295 -0.2357  0.8738
16288SOL     OW50304   4.761   5.175   1.572  0.1403 -0.4784 -0.3278
16288SOL    HW150305   4.816   5.155   1.496 -0.1683  0.3615 -0.7794
16288SOL    HW250306   4.800   5.253   1.611 -0.7019  0.1111 -0.6374
16289SOL     OW50307   4.850   6.182   2.551 -0.1955  0.4118 -0.3130
16289SOL    HW150308   4.770   6.168   2.501 -0.4360 -0.6209  0.3158
16289SOL    HW250309   4.909   6.226   2.491 -0.8367  0.1288 -1.1662
16290SOL     OW50310   2.009   6.275   2.452 -0.1196  0.4712 -0.1437
16290SOL    HW150311   2.033   6.367   2.457 -0.1140  0.5210 -1.0521
16290SOL    HW250312   2.092   6.228   2.447 -0.1431  0.5851 -2.2900
16291SOL     OW50313   6.163   7.085   2.511  0.1359 -0.3578  0.1081
16291SOL    HW150314   6.124   6.999   2.503  0.1685 -0.2340 -1.7461
16291SOL    HW250315   6.089   7.145   2.514  0.1377 -0.3573  0.1508
16292SOL     OW50316   4.749   5.450   1.740  0.3542 -0.0691  0.4471
16292SOL    HW150317   4.758   5.535   1.697  1.7412  0.2631  1.2991
16292SOL    HW250318   4.743   5.472   1.834 -0.9440 -0.8472  0.5623
16293SOL     OW50319   4.546   7.382   4.135 -0.3124  0.6607 -0.3877
16293SOL    HW150320   4.581   7.333   4.061 -1.0179 -1.8643  0.8416
16293SOL    HW250321   4.451   7.370   4.131 -0.4351  1.1704  0.4722
16294SOL     OW50322   2.426   7.718   3.721  0.1746 -0.3129  0.5720
16294SOL    HW150323   2.340   7.745   3.690 -0.2785 -1.9871  0.2217
16294SOL    HW250324   2.414   7.626   3.746  1.9503 -0.7171  0.0921
16295SOL     OW50325   5.037   6.389   3.745  0.5193 -0.3525 -0.6709
16295SOL    HW150326   5.078   6.453   3.803 -0.3286 -0.4972  0.1045
16295SOL    HW250327   4.943   6.407   3.752  0.3409 -1.0389 -1.2145
16296SOL     OW50328   4.275   6.138   2.538  0.2455 -0.3694  0.0486
16296SOL    HW150329   4.315   6.151   2.452 -0.4985 -0.1114 -0.2649
16296SOL    HW250330   4.202   6.079   2.522  0.1286 -0.3537  0.5136
16297SOL     OW50331   3.028   4.990   0.775  0.2973 -0.4799 -0.1895
16297SOL    HW150332   3.053   4.929   0.705 -2.5650 -0.8588 -1.0186
16297SOL    HW250333   3.056   5.076   0.743  1.2807 -0.9434 -0.6051
16298SOL     OW50334   4.212   5.837   2.148  0.3201 -0.0997  0.2667
16298SOL    HW150335   4.306   5.820   2.143  0.5248  1.1103 -0.3098
16298SOL    HW250336   4.196   5.904   2.082 -0.7765  0.4177  1.0217
16299SOL     OW50337   7.120   6.356   1.636 -0.6935  0.3235 -0.1592
16299SOL    HW150338   7.214   6.368   1.651 -0.6563  1.1109 -0.9015
16299SOL    HW250339   7.098   6.277   1.684  0.7128 -0.8865 -1.4067
16300SOL     OW50340   5.231   6.677   0.572  0.4720  0.1766 -0.2073
16300SOL    HW150341   5.183   6.759   0.560  1.0319  0.3416 -1.5815
16300SOL    HW250342   5.320   6.704   0.594  0.4428 -0.0801  0.2236
16301SOL     OW50343   3.022   6.964   2.138 -0.1542  0.4764  0.2416
16301SOL    HW150344   2.984   6.938   2.222  0.4175  0.5534  0.5287
16301SOL    HW250345   3.107   7.001   2.160  1.6288 -2.6735 -0.5951
16302SOL     OW50346   4.748   6.150   4.012 -0.0754 -0.0046 -0.1582
16302SOL    HW150347   4.750   6.104   3.928 -0.7074 -1.3014  0.5073
16302SOL    HW250348   4.804   6.099   4.070  2.1534  2.0877 -0.3149
16303SOL     OW50349   3.907   6.974   3.318  0.1144  0.1159 -0.4817
16303SOL    HW150350   3.831   6.929   3.353 -0.2352  1.5922  0.7645
16303SOL    HW250351   3.955   7.004   3.395  0.9364  0.8711 -1.2621
16304SOL     OW50352   4.247   6.344   2.735 -0.2265  0.2961  0.2216
16304SOL    HW150353   4.269   6.278   2.670  0.8981  0.5411  0.3350
16304SOL    HW250354   4.200   6.412   2.685  0.7070  0.5272 -0.3682
16305SOL     OW50355   3.734   4.887   3.526  0.4386 -0.2546  0.0702
16305SOL    HW150356   3.705   4.797   3.538  1.0597 -0.2901  1.4447
16305SOL    HW250357   3.803   4.900   3.591  0.5343  1.1440 -0.2631
16306SOL     OW50358   3.882   7.458   2.739 -0.6886 -0.4692 -0.2816
16306SOL    HW150359   3.805   7.511   2.761 -0.0896  0.6104 -0.7303
16306SOL    HW250360   3.939   7.517   2.691  0.3879 -1.2856 -0.0476
16307SOL     OW50361   4.296   6.321   4.210  0.6040 -0.3919  0.0267
16307SOL    HW150362   4.317   6.413   4.223 -0.4894 -0.1541  0.1890
16307SOL    HW250363   4.232   6.301   4.278  0.4202 -1.1277 -0.3551
16308SOL     OW50364   4.756   6.008   3.751 -0.7103 -0.5015  0.3884
16308SOL    HW150365   4.726   6.063   3.679 -1.1276  0.7708  1.5024
16308SOL    HW250366   4.847   5.988   3.729 -1.3155 -1.6285 -1.3556
16309SOL     OW50367   3.257   5.209   4.632  0.2762  0.0933  0.0393
16309SOL    HW150368   3.316   5.239   4.562  0.5226  0.3330  0.3492
16309SOL    HW250369   3.192   5.279   4.640 -0.4607 -0.4805 -0.7736
16310SOL     OW50370   4.059   7.621   2.593  0.1734  0.2509  0.1867
16310SOL    HW150371   4.045   7.698   2.537  2.1080  1.8794  1.7526
16310SOL    HW250372   4.121   7.567   2.545  0.8673  1.0127  0.2130
16311SOL     OW50373   3.035   7.994   3.737 -0.1765  0.0830  0.2301
16311SOL    HW150374   3.014   7.916   3.686 -2.3241  1.7792 -1.7270
16311SOL    HW250375   3.086   8.049   3.678 -0.0421  0.8211  1.0098
16312SOL     OW50376   5.123   5.659   2.597 -0.1027  0.2230 -0.1345
16312SOL    HW150377   5.158   5.703   2.674  0.0692  0.2604 -0.2340
16312SOL    HW250378   5.100   5.571   2.629  1.9858 -0.5105 -0.5131
16313SOL     OW50379   3.724   5.445   1.139 -0.5343  0.0095 -0.9797
16313SOL    HW150380   3.733   5.540   1.143 -0.4581 -0.0358  1.1246
16313SOL    HW250381   3.810   5.414   1.112  0.7580  0.4290  2.1664
16314SOL     OW50382   3.636   6.112   3.932  0.6604 -0.0791  0.1900
16314SOL    HW150383   3.683   6.173   3.875 -1.0865 -0.6821 -2.0547
16314SOL    HW250384   3.552   6.155   3.949  0.0912 -1.0936  0.0247
16315SOL     OW50385   6.430   6.469   3.414 -0.3713 -0.6803 -0.4151
16315SOL    HW150386   6.427   6.411   3.338  1.0386 -0.9480 -0.2923
16315SOL    HW250387   6.438   6.409   3.489  1.9231 -0.3678 -0.3408
16316SOL     OW50388   5.463   7.045   4.651 -0.0674  0.0555 -0.6461
16316SOL    HW150389   5.400   7.113   4.674  1.1475  1.0310 -0.0923
16316SOL    HW250390   5.417   6.963   4.667 -0.4107  0.6908  2.1592
16317SOL     OW50391   4.330   5.676   3.336  0.1484 -0.3932 -0.4602
16317SOL    HW150392   4.366   5.664   3.248  1.5875  0.0937  0.0342
16317SOL    HW250393   4.342   5.590   3.377 -2.9418 -1.4495 -1.5140
16318SOL     OW50394   3.373   0.256   4.644 -0.3620  0.4561 -0.0059
16318SOL    HW150395   3.465   0.263   4.619 -0.1288 -0.8210  0.4178
16318SOL    HW250396   3.375   0.247   4.739 -0.8791 -0.1319 -0.0428
16319SOL     OW50397   3.762   7.577   3.324  0.0038  0.3048 -0.6191
16319SOL    HW150398   3.708   7.520   3.379  0.0116 -0.2106 -1.1311
16319SOL    HW250399   3.837   7.600   3.379 -0.7454  1.0652  0.1135
16320SOL     OW50400   6.023   7.868   2.396 -0.4536  0.6934 -0.6950
16320SOL    HW150401   6.017   7.806   2.468 -0.9685 -0.0605 -1.3614
16320SOL    HW250402   6.117   7.882   2.384 -0.2799 -0.6027 -1.0491
16321SOL     OW50403   5.149   7.898   3.599  0.3265  0.1161 -0.0266
16321SOL    HW150404   5.111   7.968   3.546  1.4386  1.0484  0.3545
16321SOL    HW250405   5.233   7.879   3.557  1.2358  0.8843  1.3612
16322SOL     OW50406   3.800   5.837   3.396 -0.0350  0.6825  0.3291
16322SOL    HW150407   3.768   5.768   3.338  2.1066 -0.0741 -0.0184
16322SOL    HW250408   3.851   5.895   3.339 -0.1582  1.4508  0.9830
16323SOL     OW50409   2.694   7.571   2.641 -0.3438 -0.3540 -0.0228
16323SOL    HW150410   2.653   7.503   2.694 -3.3895  0.7418 -0.7438
16323SOL    HW250411   2.718   7.640   2.703  1.4523 -1.3899  0.5234
16324SOL     OW50412   5.567   6.345   4.023 -0.2633  0.3644  0.1686
16324SOL    HW150413   5.538   6.307   3.941 -1.7984 -0.9523  1.2610
16324SOL    HW250414   5.515   6.424   4.033 -1.5234 -0.5141  0.7796
16325SOL     OW50415   7.043   5.134   3.854 -0.3045  0.0176 -0.5055
16325SOL    HW150416   7.124   5.082   3.856 -0.0144  0.5004  0.7667
16325SOL    HW250417   6.974   5.071   3.877 -0.1629 -0.1615 -0.5664
16326SOL     OW50418   4.408   4.952   2.981 -0.2138 -0.0636 -0.1139
16326SOL    HW150419   4.388   5.027   3.038 -0.5447  0.3842 -0.8040
16326SOL    HW250420   4.337   4.952   2.916 -0.5552 -1.3389  0.2295
16327SOL     OW50421   4.892   7.332   3.407 -0.1375 -0.6104  0.1983
16327SOL    HW150422   4.825   7.399   3.418 -1.6069 -1.7515 -1.1906
16327SOL    HW250423   4.860   7.257   3.456 -0.8378 -1.7603 -1.8951
16328SOL     OW50424   4.062   5.432   3.919  0.0922 -0.0106 -0.5591
16328SOL    HW150425   4.019   5.398   3.840  0.6293  0.5797 -1.1163
16328SOL    HW250426   4.155   5.426   3.899  0.2146  0.7284 -0.2150
16329SOL     OW50427   4.760   7.398   1.837  0.5796 -0.2101  0.3897
16329SOL    HW150428   4.728   7.350   1.913  1.9460 -1.2309  0.3592
16329SOL    HW250429   4.788   7.330   1.776  2.6520  0.5843  0.3780
16330SOL     OW50430   4.984   6.349   2.367  0.8306  0.0009 -0.2042
16330SOL    HW150431   5.064   6.314   2.327  0.6253 -0.7152  0.0115
16330SOL    HW250432   4.944   6.402   2.298  2.2732  1.6740  0.1468
16331SOL     OW50433   4.030   6.887   1.596  0.0206 -0.0207  0.4847
16331SOL    HW150434   3.950   6.854   1.637 -0.2323 -1.0810 -0.8000
16331SOL    HW250435   4.092   6.814   1.600  0.1349  0.0066 -0.6204
16332SOL     OW50436   4.398   7.941   2.058  0.1556  0.7058  0.8159
16332SOL    HW150437   4.368   7.929   2.149  0.2487 -0.1595  0.7423
16332SOL    HW250438   4.410   7.852   2.025  0.8981  1.0186  0.2055
16333SOL     OW50439   3.382   5.563   3.208 -0.3783 -0.2299  0.5627
16333SOL    HW150440   3.328   5.569   3.287 -1.6183 -0.1311 -0.2664
16333SOL    HW250441   3.323   5.588   3.137  0.9196  0.4126 -0.3230
16334SOL     OW50442   7.016   5.595   1.968 -0.7014 -0.0362 -0.0510
16334SOL    HW150443   6.961   5.653   2.021 -0.6285  0.1942 -0.2278
16334SOL    HW250444   7.099   5.641   1.958 -0.8413  0.0997 -0.6812
16335SOL     OW50445   5.107   7.970   2.856  0.4961  0.5452  0.2889
16335SOL    HW150446   5.136   8.016   2.777  0.5485 -0.7415 -0.4666
16335SOL    HW250447   5.060   7.893   2.824 -0.1387  0.3916  1.5147
16336SOL     OW50448   6.771   4.746   2.538 -0.1482  0.2638 -0.1879
16336SOL    HW150449   6.821   4.822   2.507 -1.8631  1.2921 -0.5828
16336SOL    HW250450   6.723   4.780   2.613 -0.6840 -0.5424 -0.1668
16337SOL     OW50451   2.132   7.226   0.077 -0.0208 -0.3172 -0.2389
16337SOL    HW150452   2.200   7.196   0.137 -0.5086  1.1626  1.1647
16337SOL    HW250453   2.122   7.156   0.013  1.8618 -1.1400  0.3070
16338SOL     OW50454   4.550   7.409   0.585  0.0185 -0.2903 -0.6001
16338SOL    HW150455   4.611   7.429   0.656 -1.3367 -0.0193  0.5357
16338SOL    HW250456   4.520   7.320   0.604 -0.7232 -0.0311 -0.5536
16339SOL     OW50457   3.940   5.396   4.351 -0.0464  1.0426 -0.0162
16339SOL    HW150458   3.875   5.385   4.421 -0.5533  2.7986 -0.1541
16339SOL    HW250459   4.004   5.458   4.386 -1.1692  3.2444 -1.5761
16340SOL     OW50460   5.078   5.564   4.604 -0.3520  0.3700 -0.1991
16340SOL    HW150461   5.170   5.539   4.590  0.2108  2.9264 -1.8181
16340SOL    HW250462   5.029   5.511   4.542  0.3429  0.5754 -0.9466
16341SOL     OW50463   3.454   6.046   3.684  0.4631  0.5551 -0.4789
16341SOL    HW150464   3.537   6.087   3.661  1.3496 -0.5920  0.5789
16341SOL    HW250465   3.477   5.958   3.712 -1.3746 -0.7094 -2.5643
16342SOL     OW50466   4.206   7.637   4.987  0.1490  0.3777 -0.1215
16342SOL    HW150467   4.275   7.686   5.031  0.9119 -0.9084  0.1615
16342SOL    HW250468   4.146   7.612   5.057 -1.6334  2.9896 -0.5792
16343SOL     OW50469   3.723   7.611   4.486  0.0474 -0.5336  0.4011
16343SOL    HW150470   3.738   7.666   4.409  0.7296 -2.1483 -0.6490
16343SOL    HW250471   3.629   7.590   4.483 -0.1286  0.1954  0.5762
16344SOL     OW50472   5.723   5.762   4.842  0.3415 -0.5847 -0.3917
16344SOL    HW150473   5.637   5.732   4.812  0.0540 -0.0409 -0.1223
16344SOL    HW250474   5.744   5.836   4.784  0.5731 -0.6409 -0.3797
16345SOL     OW50475   6.408   6.878   3.711 -0.3214  0.0328  0.4384
16345SOL    HW150476   6.337   6.843   3.657  1.0711  0.0637 -1.5046
16345SOL    HW250477   6.416   6.816   3.784 -1.6266 -0.5266  0.1331
16346SOL     OW50478   4.286   5.409   4.516 -0.7685 -0.5201 -0.1236
16346SOL    HW150479   4.260   5.360   4.593 -1.3596 -0.4832 -0.2983
16346SOL    HW250480   4.219   5.477   4.506 -0.2778 -0.0389 -0.2194
16347SOL     OW50481   5.351   5.459   4.531 -0.2931 -0.3859  0.0709
16347SOL    HW150482   5.337   5.383   4.588 -0.1518 -1.4000 -1.1804
16347SOL    HW250483   5.441   5.485   4.546 -0.1025 -0.9620 -0.0256
16348SOL     OW50484   2.570   5.778   5.043  0.5039 -0.1022 -0.1814
16348SOL    HW150485   2.608   5.864   5.029  0.1400 -0.0420 -0.8269
16348SOL    HW250486   2.546   5.747   4.955 -0.4440 -0.3641  0.1569
16349SOL     OW50487   3.496   7.959   4.424 -0.4019 -0.0580  0.1836
16349SOL    HW150488   3.416   7.946   4.474  1.2600 -0.6061  2.8761
16349SOL    HW250489   3.505   7.878   4.373 -2.0599  0.4621 -1.0323
16350SOL     OW50490   6.160   7.338   6.337  0.5560  0.3172  0.1279
16350SOL    HW150491   6.232   7.392   6.304  0.2627  0.3998 -0.4046
16350SOL    HW250492   6.179   7.325   6.430  1.8062 -0.5486 -0.2235
16351SOL     OW50493   2.688   6.345   4.231 -0.0870  0.3873 -0.0797
16351SOL    HW150494   2.716   6.427   4.191  1.3535 -0.8733 -1.8447
16351SOL    HW250495   2.765   6.313   4.277  0.2929 -1.2391 -1.7078
16352SOL     OW50496   4.534   5.045   4.452  0.2617 -0.2651 -0.2894
16352SOL    HW150497   4.530   4.952   4.471  0.9891 -0.1513  0.4664
16352SOL    HW250498   4.444   5.068   4.427  0.3437 -1.4361 -1.8688
16353SOL     OW50499   3.369   0.547   5.069  0.0841 -0.1758 -0.4595
16353SOL    HW150500   3.347   0.616   5.006 -0.5101 -0.7608 -0.9152
16353SOL    HW250501   3.463   0.556   5.084 -0.0612  1.0043 -0.1704
16354SOL     OW50502   4.057   6.710   6.690  0.0857 -0.6278 -0.2536
16354SOL    HW150503   4.087   6.764   6.617 -0.7567  0.2902  0.0538
16354SOL    HW250504   3.961   6.706   6.679  0.0012 -0.9085  0.5180
16355SOL     OW50505   4.514   6.391   3.706  0.1082 -0.7125 -0.5835
16355SOL    HW150506   4.439   6.351   3.662  0.0072 -1.1660 -0.0048
16355SOL    HW250507   4.475   6.449   3.772  0.2686 -1.5447  0.2465
16356SOL     OW50508   5.035   6.138   4.905  0.2369  0.6481 -0.1688
16356SOL    HW150509   5.007   6.198   4.836  2.3452  0.7969 -0.9827
16356SOL    HW250510   5.090   6.192   4.962  0.5258 -0.0488  0.2248
16357SOL     OW50511   5.369   7.510   4.676 -0.3476  0.3452  0.1663
16357SOL    HW150512   5.436   7.456   4.633 -1.4351 -1.3538  0.4875
16357SOL    HW250513   5.418   7.567   4.734  0.9468  0.5329 -1.0517
16358SOL     OW50514   4.107   7.181   5.376  0.1955 -0.0883  0.4246
16358SOL    HW150515   4.031   7.199   5.431 -0.3075  2.2838 -0.8995
16358SOL    HW250516   4.070   7.164   5.289  1.1094 -0.7914  0.1509
16359SOL     OW50517   5.284   5.261   5.149 -0.2624 -0.4256 -0.5012
16359SOL    HW150518   5.202   5.238   5.192 -0.7971  0.5762 -0.9509
16359SOL    HW250519   5.285   5.357   5.149  1.3402 -0.3958  0.3181
16360SOL     OW50520   3.579   5.344   3.727  0.1363  0.2229 -0.2167
16360SOL    HW150521   3.543   5.255   3.725  2.1925 -0.6688 -1.6997
16360SOL    HW250522   3.674   5.330   3.727  0.4999  2.4413 -0.9279
16361SOL     OW50523   4.112   5.846   4.351  0.2275  0.2144  0.1237
16361SOL    HW150524   4.183   5.842   4.286  0.6306  0.2905  0.5512
16361SOL    HW250525   4.083   5.938   4.349  1.2431  0.5807  1.0900
16362SOL     OW50526   3.629   6.770   2.937  0.1145  0.0311  0.6688
16362SOL    HW150527   3.557   6.829   2.958 -1.6163 -2.3192  1.7386
16362SOL    HW250528   3.694   6.786   3.006 -1.3365 -0.8776  2.2974
16363SOL     OW50529   5.266   5.843   5.080 -0.5268  0.1812  0.2150
16363SOL    HW150530   5.275   5.931   5.045  1.0637 -0.1118 -0.1886
16363SOL    HW250531   5.318   5.843   5.160  0.0964 -0.5690 -0.1716
16364SOL     OW50532   4.335   6.616   5.255 -0.3807 -0.3350  0.1141
16364SOL    HW150533   4.400   6.559   5.296 -0.9380 -0.0338  1.4574
16364SOL    HW250534   4.355   6.704   5.288  0.6673  0.3589 -2.1761
16365SOL     OW50535   3.374   5.393   5.534  0.0224 -0.1273 -0.0483
16365SOL    HW150536   3.349   5.306   5.563 -0.5966 -0.2080 -0.7977
16365SOL    HW250537   3.460   5.381   5.493  0.5278 -0.1503  0.9817
16366SOL     OW50538   3.651   7.394   5.286 -0.0772 -0.0707 -0.1435
16366SOL    HW150539   3.724   7.362   5.234  1.0928  1.9990  0.1065
16366SOL    HW250540   3.645   7.487   5.264 -2.4510 -0.1094  0.0957
16367SOL     OW50541   3.538   5.929   5.930  0.0362 -0.0266 -0.4167
16367SOL    HW150542   3.609   5.957   5.873  0.7025 -0.8892 -0.0295
16367SOL    HW250543   3.572   5.852   5.976 -1.3834 -0.8974 -0.7540
16368SOL     OW50544   3.469   5.229   4.048  0.0015 -0.6467 -0.2112
16368SOL    HW150545   3.415   5.164   4.093 -2.0101  0.2854 -1.1117
16368SOL    HW250546   3.546   5.181   4.019 -0.6432 -2.2285  0.5792
16369SOL     OW50547   3.227   6.035   3.840 -0.7987 -0.3120 -0.1293
16369SOL    HW150548   3.165   6.107   3.826 -1.3584 -0.5754  0.8698
16369SOL    HW250549   3.283   6.036   3.762 -0.8746  1.1201 -0.2001
16370SOL     OW50550   4.133   6.199   5.279  0.2409  0.2016  0.3505
16370SOL    HW150551   4.053   6.173   5.233  0.9422 -2.1912  0.3379
16370SOL    HW250552   4.137   6.139   5.354 -0.0223  2.9040  2.6884
16371SOL     OW50553   5.661   7.894   6.152 -0.7796  0.0353 -0.0098
16371SOL    HW150554   5.620   7.966   6.200 -2.0096 -1.5066  1.3754
16371SOL    HW250555   5.650   7.917   6.060 -0.6516  1.8536  0.3962
16372SOL     OW50556   4.199   6.071   4.597 -0.4696 -0.4285  0.7959
16372SOL    HW150557   4.245   6.008   4.542 -0.4918  0.6508 -0.5175
16372SOL    HW250558   4.121   6.025   4.628  0.1299 -1.4146  0.8793
16373SOL     OW50559   5.945   6.750   6.649  0.1459 -0.1657  0.2684
16373SOL    HW150560   5.972   6.683   6.712  1.3499  1.4906  1.6259
16373SOL    HW250561   5.852   6.765   6.669 -0.5719 -2.3419 -1.0259
16374SOL     OW50562   4.284   7.294   4.148  0.0229 -0.0101 -0.8344
16374SOL    HW150563   4.255   7.209   4.182  1.8947 -0.6441 -0.7436
16374SOL    HW250564   4.276   7.285   4.053  0.8985 -0.5584 -0.8626
16375SOL     OW50565   4.655   5.471   3.516 -0.4169 -0.1486 -0.1808
16375SOL    HW150566   4.707   5.396   3.548 -1.3997 -0.0817  1.7145
16375SOL    HW250567   4.570   5.433   3.495 -1.6581  0.6513  2.8509
16376SOL     OW50568   3.998   7.231   4.589 -0.0544 -0.1791  0.3930
16376SOL    HW150569   3.907   7.206   4.608 -0.4489  1.7083  1.2795
16376SOL    HW250570   4.031   7.161   4.534 -2.3359 -0.5209 -0.6875
16377SOL     OW50571   4.497   7.753   5.829 -0.2963 -0.3488  0.4421
16377SOL    HW150572   4.507   7.820   5.762  1.3516 -1.0486 -0.0664
16377SOL    HW250573   4.487   7.801   5.911 -0.4089  0.5007 -0.0632
16378SOL     OW50574   4.778   7.606   6.632 -0.1617  0.3214  0.4422
16378SOL    HW150575   4.717   7.538   6.660 -0.6126  0.2508 -0.6404
16378SOL    HW250576   4.785   7.664   6.708 -3.3842  1.5907 -0.0464
16379SOL     OW50577   6.187   6.585   5.303  0.2727  0.6059 -0.2558
16379SOL    HW150578   6.243   6.510   5.325 -2.0654 -1.0947  0.1923
16379SOL    HW250579   6.247   6.660   5.304  2.0702 -0.6715  2.8685
16380SOL     OW50580   3.687   6.637   6.061  0.2467  0.1285 -0.2448
16380SOL    HW150581   3.599   6.673   6.051  0.2436 -0.0465 -0.9046
16380SOL    HW250582   3.738   6.708   6.100  0.1752  0.7531 -1.2687
16381SOL     OW50583   4.364   6.302   4.679 -0.3000 -0.3021 -0.5870
16381SOL    HW150584   4.351   6.219   4.634 -0.2911 -0.5976 -0.0592
16381SOL    HW250585   4.296   6.302   4.747  0.9279 -0.7829  0.6784
16382SOL     OW50586   3.031   6.604   4.341 -0.2308 -0.0857 -0.3671
16382SOL    HW150587   3.069   6.687   4.368 -1.4387  1.0470 -1.9481
16382SOL    HW250588   3.080   6.579   4.263  0.5845 -1.2440  0.4911
16383SOL     OW50589   2.207   7.301   4.615 -0.0410  0.0183 -0.5057
16383SOL    HW150590   2.136   7.342   4.566 -0.4974 -0.2765 -0.0971
16383SOL    HW250591   2.168   7.277   4.699  0.8829  1.0662  0.2442
16384SOL     OW50592   4.844   7.152   5.066  0.2169  0.2522  0.1146
16384SOL    HW150593   4.842   7.121   5.156 -2.1362 -0.0162  0.0355
16384SOL    HW250594   4.931   7.192   5.056  1.2486 -1.3592  1.8881
16385SOL     OW50595   4.653   7.408   4.579 -0.1193  0.4491 -0.2358
16385SOL    HW150596   4.709   7.443   4.648 -0.2424  0.4622 -0.1429
16385SOL    HW250597   4.682   7.453   4.500 -0.7146  1.2573 -0.0092
16386SOL     OW50598   5.760   5.388   4.122 -0.6030 -0.1488 -0.1103
16386SOL    HW150599   5.721   5.422   4.041  0.8189  1.7096 -0.0825
16386SOL    HW250600   5.841   5.345   4.094 -1.1923 -1.4506  0.1255
16387SOL     OW50601   3.682   6.103   4.644 -0.5605  0.4815 -0.5441
16387SOL    HW150602   3.685   6.022   4.594 -1.0110  1.0552 -1.5418
16387SOL    HW250603   3.675   6.172   4.577 -1.3101  1.2679  0.3095
16388SOL     OW50604   5.125   6.000   5.301 -0.2522  0.1531 -0.0323
16388SOL    HW150605   5.191   5.946   5.344  1.4620  1.0379 -1.4299
16388SOL    HW250606   5.125   5.969   5.210 -0.2064  1.5679 -0.5415
16389SOL     OW50607   4.218   6.494   3.421 -0.6203  0.0913  0.3648
16389SOL    HW150608   4.216   6.580   3.463  0.5844 -0.1434  0.9475
16389SOL    HW250609   4.223   6.513   3.328  0.9669  0.6848  0.5506
16390SOL     OW50610   4.561   6.962   5.737  0.1859  0.1770 -0.1931
16390SOL    HW150611   4.511   6.921   5.807 -1.5005  1.8027 -0.3654
16390SOL    HW250612   4.644   6.987   5.778 -0.2560 -0.0496  0.8669
16391SOL     OW50613   4.398   6.798   3.996 -0.3488  0.4303 -0.3767
16391SOL    HW150614   4.315   6.837   4.022 -0.2520  1.3395 -1.3443
16391SOL    HW250615   4.463   6.837   4.055 -0.3974  0.9491 -0.6609
16392SOL     OW50616   4.658   6.686   3.522  0.3363  0.3358  0.0012
16392SOL    HW150617   4.734   6.629   3.532  2.3675  2.7398 -0.8862
16392SOL    HW250618   4.642   6.689   3.427 -2.1348 -1.5501  0.2296
16393SOL     OW50619   4.925   3.746   3.694  0.2343  0.2965 -0.0646
16393SOL    HW150620   4.844   3.780   3.733  0.2505  1.2376 -0.8297
16393SOL    HW250621   4.963   3.690   3.763 -0.4660  0.7802  0.7305
16394SOL     OW50622   1.823   7.346   2.945  0.2376 -0.0916  0.0606
16394SOL    HW150623   1.761   7.386   3.005  0.3821  0.2716 -0.0311
16394SOL    HW250624   1.851   7.266   2.989 -1.6927 -1.2607 -0.6722
16395SOL     OW50625   4.936   7.292   4.012 -0.0575  0.1390  0.3420
16395SOL    HW150626   4.914   7.228   3.944 -3.2362  1.9851 -0.5967
16395SOL    HW250627   4.926   7.377   3.968 -0.0416  1.3730  2.5834
16396SOL     OW50628   4.163   6.646   5.698 -0.2887  0.1285  0.5646
16396SOL    HW150629   4.182   6.739   5.683 -1.7871  0.8604  2.6466
16396SOL    HW250630   4.222   6.600   5.638  2.8467  2.3043  1.6632
16397SOL     OW50631   4.738   5.197   4.365  0.3710  0.0482 -0.2845
16397SOL    HW150632   4.679   5.270   4.344 -0.0141 -0.1455  0.1285
16397SOL    HW250633   4.681   5.126   4.392  0.7868 -0.1694  0.0404
16398SOL     OW50634   3.910   5.395   2.712  0.3776 -0.3313 -0.0994
16398SOL    HW150635   3.853   5.454   2.663 -0.3770 -0.4931  0.5528
16398SOL    HW250636   3.945   5.450   2.783  1.6138 -0.0472 -0.8856
16399SOL     OW50637   5.036   5.547   5.212 -0.4722  0.4296 -0.1189
16399SOL    HW150638   4.976   5.473   5.223 -1.1302  0.9672  0.0135
16399SOL    HW250639   5.097   5.539   5.285 -1.5703  0.9518  0.8998
16400SOL     OW50640   1.706   6.763   1.894 -0.3687 -0.0768  0.0102
16400SOL    HW150641   1.724   6.856   1.906  0.9944 -0.4886  1.6339
16400SOL    HW250642   1.790   6.720   1.913 -1.0215 -1.6498 -0.5085
16401SOL     OW50643   2.360   7.637   5.006  0.3225 -0.2949 -0.0010
16401SOL    HW150644   2.426   7.569   4.993  0.3946 -0.0596 -0.9883
16401SOL    HW250645   2.276   7.593   4.994  0.3636 -0.2508 -0.4709
16402SOL     OW50646   5.062   5.357   3.364 -0.1277 -0.4241 -0.6079
16402SOL    HW150647   5.146   5.397   3.388  0.7372 -2.5455  0.2246
16402SOL    HW250648   4.996   5.416   3.401  1.0430  0.4334  0.2041
16403SOL     OW50649   4.665   5.627   5.613  0.0476  0.5693 -0.2705
16403SOL    HW150650   4.593   5.589   5.564 -0.0508 -1.1474  1.1051
16403SOL    HW250651   4.628   5.649   5.698  0.3285  3.0411 -0.6998
16404SOL     OW50652   4.877   6.398   4.201 -0.4528 -0.0925 -0.1020
16404SOL    HW150653   4.895   6.374   4.110 -0.4777 -0.5382  0.0074
16404SOL    HW250654   4.960   6.383   4.246  0.3574  2.5995 -0.5191
16405SOL     OW50655   4.509   5.025   6.158 -0.1246  0.1144  0.1008
16405SOL    HW150656   4.506   5.000   6.250  0.3992 -1.6201 -0.3070
16405SOL    HW250657   4.469   4.951   6.112  2.5379 -0.6269 -1.2729
16406SOL     OW50658   3.845   7.016   4.850  0.1879 -0.1475 -0.0390
16406SOL    HW150659   3.789   6.987   4.779  0.6963 -1.4707  0.0691
16406SOL    HW250660   3.793   7.003   4.929  0.5790 -1.2947  0.0533
16407SOL     OW50661   5.453   6.120   6.677 -0.1649  0.0753 -0.0311
16407SOL    HW150662   5.497   6.177   6.613 -0.4265  0.0108 -0.2690
16407SOL    HW250663   5.446   6.173   6.756  0.8876 -0.1065  0.2125
16408SOL     OW50664   3.219   6.486   5.111 -0.6323 -0.0121  0.1101
16408SOL    HW150665   3.246   6.501   5.020  0.9473 -1.7543  0.2242
16408SOL    HW250666   3.264   6.555   5.160 -1.0002  0.5625 -0.3432
16409SOL     OW50667   3.927   6.546   4.413  0.0616  0.0001  0.3897
16409SOL    HW150668   3.844   6.549   4.461 -0.5403  0.4886 -0.6489
16409SOL    HW250669   3.979   6.481   4.460 -0.8914 -0.2772  1.0947
16410SOL     OW50670   4.479   5.499   5.423 -0.7068  0.0753  0.2770
16410SOL    HW150671   4.521   5.421   5.459 -2.6041 -2.4873 -2.5978
16410SOL    HW250672   4.498   5.496   5.329 -1.0488  2.9971  0.0211
16411SOL     OW50673   4.555   5.392   4.413 -0.3251 -0.2316  0.3671
16411SOL    HW150674   4.603   5.424   4.489 -0.8675  0.5004  0.4144
16411SOL    HW250675   4.464   5.391   4.441 -0.4943 -0.2532 -0.1669
16412SOL     OW50676   5.050   5.949   3.640 -0.4285 -0.3753  0.4405
16412SOL    HW150677   5.002   5.894   3.578  0.0441 -0.5725  0.2466
16412SOL    HW250678   5.048   6.036   3.601 -0.1619 -0.4930  0.1637
16413SOL     OW50679   4.450   5.549   3.751  0.7534  0.0787  0.4162
16413SOL    HW150680   4.427   5.476   3.808  1.3136 -1.4173 -1.1738
16413SOL    HW250681   4.366   5.581   3.718  0.5597 -1.1141 -0.3244
16414SOL     OW50682   3.400   7.299   5.798 -0.6378  0.3739  0.1055
16414SOL    HW150683   3.486   7.264   5.773 -0.4163  2.3466 -2.1826
16414SOL    HW250684   3.339   7.228   5.777  0.3862 -1.3739  2.4997
16415SOL     OW50685   5.173   6.958   5.378  0.2080  0.4183 -0.3376
16415SOL    HW150686   5.086   6.921   5.362  0.6489 -0.0316 -1.9406
16415SOL    HW250687   5.226   6.883   5.405  0.2384  0.5775  0.0439
16416SOL     OW50688   3.188   7.274   4.314  0.1212 -0.3192 -0.2503
16416SOL    HW150689   3.212   7.216   4.242 -1.2327 -1.2827  0.0376
16416SOL    HW250690   3.256   7.260   4.380  0.7345 -0.2853 -0.8656
16417SOL     OW50691   3.881   7.849   5.597 -0.4240  0.7439 -0.4701
16417SOL    HW150692   3.927   7.777   5.642 -0.7138  2.1287  2.2655
16417SOL    HW250693   3.948   7.891   5.544  0.4118  0.0939  0.0383
16418SOL     OW50694   6.952   6.774   4.262  0.1397 -0.1932 -0.2528
16418SOL    HW150695   6.995   6.740   4.184  0.7472  1.0000 -0.4654
16418SOL    HW250696   7.022   6.815   4.312 -0.5992  1.0394 -0.1896
16419SOL     OW50697   3.816   7.441   5.716 -0.4000  0.0998  0.3138
16419SOL    HW150698   3.877   7.488   5.659 -1.4735  1.8309  0.5070
16419SOL    HW250699   3.789   7.507   5.780 -1.5073 -0.9800  0.9914
16420SOL     OW50700   2.657   5.677   5.304  0.4415  0.7270 -0.0144
16420SOL    HW150701   2.615   5.723   5.232 -3.0098  0.9741  1.9385
16420SOL    HW250702   2.680   5.746   5.366  1.4450  0.3394  0.0667
16421SOL     OW50703   3.571   5.107   4.856  0.2621  0.2896  0.2406
16421SOL    HW150704   3.491   5.082   4.811  0.3984  0.6012 -0.1799
16421SOL    HW250705   3.639   5.050   4.820 -0.1405 -1.5692  2.1999
16422SOL     OW50706   3.722   6.068   3.558  0.2783  0.1088 -0.3816
16422SOL    HW150707   3.728   5.979   3.524  1.9920  0.6106 -1.5176
16422SOL    HW250708   3.734   6.124   3.481 -1.6662  1.3724  0.1539
16423SOL     OW50709   4.357   5.737   7.288  0.7175  1.0406 -0.2364
16423SOL    HW150710   4.368   5.766   7.198 -2.5759  1.9500 -0.4743
16423SOL    HW250711   4.438   5.692   7.309  1.6025  0.7961 -3.6345
16424SOL     OW50712   4.281   5.627   5.696  0.4657  0.4749  0.0814
16424SOL    HW150713   4.233   5.547   5.715  1.7140 -0.1802  0.5609
16424SOL    HW250714   4.302   5.664   5.782  0.3771  1.0403 -0.1306
16425SOL     OW50715   5.596   5.383   3.502  0.5116  0.3764 -0.4750
16425SOL    HW150716   5.595   5.369   3.596  0.4265  1.6994 -0.2610
16425SOL    HW250717   5.682   5.352   3.474  0.3690 -0.4413 -0.0432
16426SOL     OW50718   3.105   6.881   2.806 -0.1385  0.3144  0.1581
16426SOL    HW150719   3.086   6.799   2.852  0.5102  0.5450  0.8643
16426SOL    HW250720   3.112   6.856   2.714 -1.9967 -0.0710  0.0811
16427SOL     OW50721   3.585   7.044   5.352 -0.6387  0.2322  0.0967
16427SOL    HW150722   3.544   6.999   5.425 -1.0338  1.7169  0.8351
16427SOL    HW250723   3.567   7.137   5.367 -2.2998  0.5208 -2.7932
16428SOL     OW50724   4.318   6.020   3.787 -0.1134  0.0232  0.1712
16428SOL    HW150725   4.260   6.035   3.713  0.3414  0.2523 -0.1471
16428SOL    HW250726   4.340   6.108   3.819 -1.0761 -0.0872  1.1973
16429SOL     OW50727   3.959   5.963   3.934  0.3879 -0.3612  0.4922
16429SOL    HW150728   3.887   5.988   3.992  0.1189 -0.8761  0.3856
16429SOL    HW250729   3.991   6.046   3.898 -0.3045 -0.1507  0.3529
16430SOL     OW50730   4.799   7.283   5.736 -0.0124 -0.2163 -0.1598
16430SOL    HW150731   4.729   7.233   5.777  0.7482  1.1255  3.1232
16430SOL    HW250732   4.770   7.374   5.740  0.5912  0.0794 -1.7332
16431SOL     OW50733   3.890   5.669   4.623  0.1260 -0.2199 -0.3366
16431SOL    HW150734   3.799   5.672   4.594 -0.3851  1.6073  1.1831
16431SOL    HW250735   3.894   5.595   4.684 -0.0295 -1.0025 -1.2596
16432SOL     OW50736   4.518   7.493   5.597  0.1031 -0.1922  0.1175
16432SOL    HW150737   4.574   7.416   5.584 -1.5169 -1.0837 -2.3323
16432SOL    HW250738   4.564   7.564   5.552 -0.3536 -0.7723 -1.3350
16433SOL     OW50739   3.426   7.699   7.124 -0.2847 -0.0076  0.6325
16433SOL    HW150740   3.362   7.718   7.192  0.5673  1.4625  1.0624
16433SOL    HW250741   3.456   7.785   7.094  0.9383 -0.6471 -0.0647
16434SOL     OW50742   5.855   6.478   4.532 -0.3833 -0.5463 -0.2312
16434SOL    HW150743   5.861   6.548   4.466  1.4205 -1.7461 -1.4424
16434SOL    HW250744   5.843   6.524   4.615 -1.9363  1.0506 -1.2679
16435SOL     OW50745   4.938   5.457   4.359 -0.6672  0.0267 -0.0677
16435SOL    HW150746   5.011   5.446   4.298 -1.6744 -0.3364 -1.2473
16435SOL    HW250747   4.861   5.467   4.303 -1.5745  0.0826  1.1463
16436SOL     OW50748   3.645   0.205   3.147 -0.1379  0.4697 -0.1638
16436SOL    HW150749   3.602   0.148   3.084  0.5968 -1.0719  0.6447
16436SOL    HW250750   3.734   0.170   3.153  0.1469  1.3119  0.8480
16437SOL     OW50751   4.849   5.684   4.698  0.2316  0.0808 -0.6556
16437SOL    HW150752   4.924   5.651   4.649  0.2289  0.1578 -0.7125
16437SOL    HW250753   4.782   5.616   4.689  1.2342 -1.3126  1.7511
16438SOL     OW50754   3.765   6.007   4.154 -0.0064 -0.0732 -0.6519
16438SOL    HW150755   3.703   6.049   4.094  0.1469 -0.0503 -0.7956
16438SOL    HW250756   3.817   6.079   4.190 -1.2588  0.1251  0.8798
16439SOL     OW50757   7.309   4.480   4.109  0.2723  0.0045  0.2214
16439SOL    HW150758   7.287   4.570   4.086  1.2200  0.1580 -0.1314
16439SOL    HW250759   7.238   4.428   4.073  1.0574  0.3564 -1.9902
16440SOL     OW50760   3.143   7.737   3.927 -0.0596 -0.4027 -0.3986
16440SOL    HW150761   3.235   7.722   3.907 -0.3633 -0.5221 -1.8252
16440SOL    HW250762   3.131   7.831   3.910 -0.2426 -0.4307 -0.4216
16441SOL     OW50763   5.127   6.668   4.814  0.2216 -0.3036  0.2685
16441SOL    HW150764   5.126   6.653   4.909 -1.5774  0.7879  0.4620
16441SOL    HW250765   5.190   6.739   4.801 -2.3466  2.3105  1.1872
16442SOL     OW50766   2.934   6.947   4.909 -0.7836 -0.1991 -0.0038
16442SOL    HW150767   2.842   6.920   4.909 -1.6247  2.2938  1.4452
16442SOL    HW250768   2.968   6.916   4.993 -0.3086 -1.0310 -0.4955
16443SOL     OW50769   4.593   5.870   4.238  1.2170  0.8520  0.1600
16443SOL    HW150770   4.682   5.860   4.273  1.6837  0.9837 -0.9515
16443SOL    HW250771   4.556   5.943   4.288  1.8279  0.9806  0.4406
16444SOL     OW50772   6.976   0.045   4.673 -0.2094  0.0873  0.1791
16444SOL    HW150773   7.056   0.014   4.630 -0.3105  1.3186 -0.9780
16444SOL    HW250774   6.928   0.090   4.604 -1.8203 -0.4382  0.9137
16445SOL     OW50775   5.570   5.008   3.014  0.0957  0.0715  0.1664
16445SOL    HW150776   5.644   4.971   2.965  0.0422 -1.7918  1.3919
16445SOL    HW250777   5.494   4.993   2.957  0.4902  1.1405 -0.6832
16446SOL     OW50778   2.640   7.656   3.379  0.0859 -0.3759  0.1258
16446SOL    HW150779   2.549   7.626   3.375 -0.3412  0.6731  1.3133
16446SOL    HW250780   2.671   7.649   3.289 -0.2638 -3.3517  0.1527
16447SOL     OW50781   4.889   5.801   6.781 -0.7851 -0.3155 -0.5103
16447SOL    HW150782   4.805   5.789   6.825 -0.5179  1.0812  0.4468
16447SOL    HW250783   4.877   5.879   6.726 -0.6282 -1.1236 -1.7453
16448SOL     OW50784   5.337   6.460   4.792 -0.0863  0.1148 -0.9865
16448SOL    HW150785   5.251   6.504   4.788  0.4005  1.1395 -0.4823
16448SOL    HW250786   5.400   6.532   4.790  0.7106 -0.4506  1.5364
16449SOL     OW50787   4.825   5.859   5.508 -0.0799  0.3101 -0.4057
16449SOL    HW150788   4.756   5.798   5.536  0.3657  0.2684  0.6490
16449SOL    HW250789   4.788   5.903   5.431 -0.8776 -0.4374 -0.4648
16450SOL     OW50790   3.830   5.251   5.096 -0.0582 -0.2657 -0.5019
16450SOL    HW150791   3.738   5.229   5.113  0.1187 -0.0821  0.7874
16450SOL    HW250792   3.872   5.249   5.182  0.7633  1.4160 -0.8151
16451SOL     OW50793   2.972   7.310   4.493 -0.0456  0.6490  0.0566
16451SOL    HW150794   3.062   7.297   4.462  0.1877  0.2615  0.8672
16451SOL    HW250795   2.929   7.357   4.422  0.6959  0.5053 -0.5026
16452SOL     OW50796   5.486   5.601   6.467  0.0450  0.0869  0.2744
16452SOL    HW150797   5.401   5.643   6.454 -0.4148 -0.9308 -0.0869
16452SOL    HW250798   5.509   5.620   6.558  0.4306  2.1326 -0.1885
16453SOL     OW50799   4.835   4.263   4.058  0.0175  0.4070 -0.6350
16453SOL    HW150800   4.843   4.331   4.125 -0.7182 -1.3935  1.3907
16453SOL    HW250801   4.740   4.253   4.046 -0.1971 -2.9560  2.2048
16454SOL     OW50802   4.091   5.601   5.069  0.2754  0.0275 -0.7111
16454SOL    HW150803   4.131   5.667   5.011 -1.1916  0.0800 -1.6974
16454SOL    HW250804   4.098   5.640   5.157  0.9550  0.7217 -1.0567
16455SOL     OW50805   3.387   5.193   2.864  0.4403  0.0322 -0.0085
16455SOL    HW150806   3.344   5.119   2.821  0.2282  0.3120 -0.2805
16455SOL    HW250807   3.480   5.177   2.850  0.3771  0.0892 -0.5323
16456SOL     OW50808   4.490   5.968   4.657  0.5352  0.1584 -0.4827
16456SOL    HW150809   4.502   5.879   4.689 -0.4558 -0.0365 -0.6099
16456SOL    HW250810   4.415   6.002   4.707 -0.5277  0.1247 -1.9772
16457SOL     OW50811   6.124   5.678   5.962  0.5262 -0.1704  0.1718
16457SOL    HW150812   6.192   5.725   5.914 -1.6026  0.8338 -2.1245
16457SOL    HW250813   6.165   5.596   5.989  2.6617  0.4493 -0.9655
16458SOL     OW50814   3.895   4.965   3.759  0.1696  0.4424  0.0530
16458SOL    HW150815   3.989   4.983   3.756  0.0903  0.9271  0.3568
16458SOL    HW250816   3.888   4.883   3.808  0.1943  2.5633  4.0319
16459SOL     OW50817   4.670   5.120   2.074  0.0990  0.2466 -0.2593
16459SOL    HW150818   4.752   5.079   2.104 -0.0058  0.3469  0.1718
16459SOL    HW250819   4.602   5.076   2.125 -0.1422 -0.0033 -0.7878
16460SOL     OW50820   6.367   5.010   4.704 -0.3448  0.3610 -0.0499
16460SOL    HW150821   6.409   4.930   4.671  0.0962  0.3687  0.4871
16460SOL    HW250822   6.319   4.981   4.782 -0.3267  0.5847  0.0439
16461SOL     OW50823   5.882   5.568   4.713 -0.3236 -0.3605 -0.2199
16461SOL    HW150824   5.831   5.618   4.776  0.0021 -0.0942 -0.1623
16461SOL    HW250825   5.834   5.486   4.702 -1.2032  0.2144 -0.7907
16462SOL     OW50826   3.867   7.102   4.066 -0.0839 -0.0807  0.0712
16462SOL    HW150827   3.846   7.137   4.153 -2.1503  0.4233 -0.5781
16462SOL    HW250828   3.790   7.051   4.041  0.8235 -0.9144 -1.1267
16463SOL     OW50829   3.454   6.989   5.914 -0.3316 -0.3274  0.0318
16463SOL    HW150830   3.508   7.028   5.845  0.7746  0.4963  1.3183
16463SOL    HW250831   3.517   6.947   5.973 -1.0255  1.0197  1.8055
16464SOL     OW50832   5.935   7.339   4.794  0.2835  0.1826  0.4473
16464SOL    HW150833   5.906   7.350   4.703 -0.6201 -2.3294  0.3709
16464SOL    HW250834   5.873   7.391   4.845  1.2307  2.2204 -0.3464
16465SOL     OW50835   3.777   6.277   3.780 -0.0897  0.0864 -0.2562
16465SOL    HW150836   3.772   6.216   3.707  0.6812 -0.0970 -0.1643
16465SOL    HW250837   3.864   6.317   3.773  0.2818 -0.4371  0.9344
16466SOL     OW50838   2.299   6.703   5.323 -0.1127 -0.6497 -0.5294
16466SOL    HW150839   2.370   6.758   5.289  0.0726  0.1941  1.1551
16466SOL    HW250840   2.220   6.753   5.305 -0.0080 -0.1655  0.3086
16467SOL     OW50841   3.991   7.122   5.142  0.2247 -0.0967  0.0092
16467SOL    HW150842   4.045   7.095   5.067  0.1007  0.4670 -0.2881
16467SOL    HW250843   3.916   7.062   5.141 -0.5869  0.8892 -1.2799
16468SOL     OW50844   3.778   7.741   4.861 -0.5998  0.4322  0.4715
16468SOL    HW150845   3.735   7.804   4.918 -0.4317  0.5968  0.4167
16468SOL    HW250846   3.727   7.660   4.872 -0.3871  0.3736  1.0905
16469SOL     OW50847   4.059   5.694   5.323 -0.2898 -0.1506  0.0112
16469SOL    HW150848   4.140   5.685   5.373  0.1809  0.1880 -0.6784
16469SOL    HW250849   3.992   5.655   5.380  0.4787 -1.1951  0.2420
16470SOL     OW50850   1.418   7.037   2.811 -0.0895 -0.2195 -0.3556
16470SOL    HW150851   1.383   6.978   2.745 -0.8269  0.2595 -0.4142
16470SOL    HW250852   1.345   7.097   2.830 -0.9915 -2.0518  2.9509
16471SOL     OW50853   2.316   5.217   4.004  0.1528 -0.1795 -0.2741
16471SOL    HW150854   2.246   5.194   4.065  0.1497  1.0268  0.1910
16471SOL    HW250855   2.370   5.279   4.052  2.2706 -1.9855 -0.1468
16472SOL     OW50856   3.661   6.343   4.745 -0.6158 -0.0739 -0.3385
16472SOL    HW150857   3.625   6.328   4.832  0.3604  0.3324  0.1515
16472SOL    HW250858   3.662   6.256   4.704 -1.8429 -0.1378 -0.2605
16473SOL     OW50859   4.885   6.806   5.354 -0.0996 -0.0210 -0.0330
16473SOL    HW150860   4.949   6.739   5.328  1.1771  1.3997 -0.6512
16473SOL    HW250861   4.810   6.755   5.385  0.7804 -1.7493 -0.5765
16474SOL     OW50862   3.699   5.525   5.563  0.3406  0.2195  0.2263
16474SOL    HW150863   3.788   5.491   5.557  0.6095  0.8188  0.7489
16474SOL    HW250864   3.651   5.459   5.613 -0.3067 -1.6109 -2.5512
16475SOL     OW50865   3.822   6.517   6.767  0.0321 -0.8781  0.3402
16475SOL    HW150866   3.733   6.520   6.730 -0.3644  2.3564  1.1960
16475SOL    HW250867   3.809   6.530   6.861  1.4038 -0.6255  0.5096
16476SOL     OW50868   4.341   6.663   6.412 -0.1378 -0.0637  0.3121
16476SOL    HW150869   4.397   6.605   6.360 -0.6352 -1.6847  1.4987
16476SOL    HW250870   4.401   6.708   6.471  0.3041  1.0216 -0.8979
16477SOL     OW50871   5.293   6.894   4.867 -0.3114 -0.3057 -0.4039
16477SOL    HW150872   5.384   6.920   4.882 -0.0318 -2.3107  2.2105
16477SOL    HW250873   5.243   6.936   4.937 -0.9377 -1.2489 -0.2562
16478SOL     OW50874   6.661   5.162   6.150  0.6899  0.1187  0.6615
16478SOL    HW150875   6.676   5.149   6.243  0.4530  0.9051  0.8138
16478SOL    HW250876   6.589   5.102   6.128  1.7549 -1.2190  0.6336
16479SOL     OW50877   3.900   7.755   5.263 -0.2877 -0.1145 -0.3429
16479SOL    HW150878   3.804   7.752   5.261 -0.2861 -0.1419 -0.3858
16479SOL    HW250879   3.923   7.834   5.214 -0.2878 -0.1168 -0.3467
16480SOL     OW50880   4.526   7.228   6.567 -0.6183  0.4914 -0.0770
16480SOL    HW150881   4.572   7.190   6.492  0.9965  1.2916  0.4433
16480SOL    HW250882   4.442   7.183   6.569  0.2531 -1.3056 -0.9053
16481SOL     OW50883   5.625   6.474   5.739  0.3517 -0.4994  0.5534
16481SOL    HW150884   5.709   6.444   5.707 -0.4148 -0.4146 -1.7026
16481SOL    HW250885   5.568   6.397   5.734 -0.0506 -0.2186  0.7203
16482SOL     OW50886   5.658   7.828   3.537  0.5689  0.5964  0.2660
16482SOL    HW150887   5.598   7.827   3.611  0.9205  0.2331  0.5464
16482SOL    HW250888   5.683   7.737   3.524  0.6985  0.6886 -0.1452
16483SOL     OW50889   2.459   7.131   4.054 -0.0554  0.2977  0.5584
16483SOL    HW150890   2.477   7.070   3.982  1.8705  1.8919 -0.4103
16483SOL    HW250891   2.546   7.161   4.082 -0.8743  1.3316  2.1318
16484SOL     OW50892   6.468   6.547   5.963  0.1152 -0.8429  0.7542
16484SOL    HW150893   6.489   6.524   6.054  0.5100 -1.2367  0.5651
16484SOL    HW250894   6.430   6.635   5.969 -1.2814 -1.4499  1.4746
16485SOL     OW50895   4.523   5.943   5.357  0.1891  0.4830  0.1386
16485SOL    HW150896   4.488   5.863   5.397  1.3667  0.6672  1.6424
16485SOL    HW250897   4.518   5.927   5.263  0.4173 -1.3930  0.3973
16486SOL     OW50898   6.994   7.833   5.168 -0.3158  0.2332  0.4039
16486SOL    HW150899   7.009   7.766   5.102 -2.9781  0.1502 -0.2435
16486SOL    HW250900   7.017   7.916   5.125  2.5371 -0.1123  1.0558
16487SOL     OW50901   4.936   6.763   5.778 -0.8713  0.6001  0.0140
16487SOL    HW150902   4.987   6.713   5.714 -1.7237 -0.1809 -0.0836
16487SOL    HW250903   4.850   6.721   5.778 -1.0289  0.8639  1.3443
16488SOL     OW50904   2.762   7.537   5.672 -0.1813  0.0011  0.3970
16488SOL    HW150905   2.716   7.620   5.662 -0.3012  0.1947  2.1420
16488SOL    HW250906   2.843   7.548   5.621 -0.3687  1.0524  0.3075
16489SOL     OW50907   2.487   0.207   5.906 -0.2021  0.7980 -0.0166
16489SOL    HW150908   2.437   0.130   5.880  1.0907 -0.6909  1.5905
16489SOL    HW250909   2.424   0.279   5.904 -2.4686 -0.9559  1.8541
16490SOL     OW50910   4.350   5.330   3.879 -0.4430  0.4092 -0.0144
16490SOL    HW150911   4.343   5.274   3.957  0.0930  1.2480  0.6609
16490SOL    HW250912   4.324   5.274   3.807 -1.4419 -0.2596  0.8292
16491SOL     OW50913   5.050   5.965   4.508 -0.3480 -0.0824 -0.5162
16491SOL    HW150914   5.060   6.052   4.547  1.1897 -0.6220  0.4078
16491SOL    HW250915   5.073   5.977   4.416  3.5522 -0.0530  0.2675
16492SOL     OW50916   3.807   0.102   4.723 -0.3799 -0.0069  0.0408
16492SOL    HW150917   3.831   0.009   4.720 -0.5183 -0.1000  1.3702
16492SOL    HW250918   3.741   0.111   4.654 -0.8357 -1.0441  0.3151
16493SOL     OW50919   5.421   4.682   3.565 -0.0408 -0.2798  0.6076
16493SOL    HW150920   5.477   4.606   3.583  0.9954  0.4944  0.7002
16493SOL    HW250921   5.399   4.673   3.472  0.5205 -0.4088  0.4823
16494SOL     OW50922   3.587   7.566   4.067 -0.1420  0.2683 -0.5239
16494SOL    HW150923   3.577   7.503   4.138  1.6946  0.9551  0.4004
16494SOL    HW250924   3.566   7.516   3.988 -0.7035 -0.9356  0.3560
16495SOL     OW50925   3.952   6.711   3.641 -0.0622 -0.4857  0.4810
16495SOL    HW150926   3.902   6.751   3.713  0.9681 -0.8774  1.4436
16495SOL    HW250927   4.032   6.763   3.635  0.1063 -0.7911 -0.0227
16496SOL     OW50928   4.912   1.517   6.670 -0.1437  0.0733  0.3692
16496SOL    HW150929   4.975   1.577   6.629  0.0416 -0.2726  0.1452
16496SOL    HW250930   4.951   1.496   6.754 -0.2661  0.3559  0.5007
16497SOL     OW50931   4.848   5.370   5.244 -0.1929  0.6713  0.2003
16497SOL    HW150932   4.907   5.296   5.259  0.2674  0.6121 -1.6543
16497SOL    HW250933   4.770   5.349   5.297  0.9731  0.2327  1.8449
16498SOL     OW50934   5.163   5.926   4.785 -0.3970  0.0888 -0.1440
16498SOL    HW150935   5.134   6.007   4.827  0.5894 -0.6101  2.0161
16498SOL    HW250936   5.120   5.856   4.833  0.2991 -0.7380 -0.6824
16499SOL     OW50937   3.403   7.916   3.305  0.0644 -0.2511 -0.2745
16499SOL    HW150938   3.442   7.856   3.369 -0.0871  0.6463  0.6916
16499SOL    HW250939   3.475   7.941   3.248  0.6090  0.2571  0.6077
16500SOL     OW50940   5.185   7.762   7.346  0.2250 -0.1790  0.0003
16500SOL    HW150941   5.136   7.841   7.324  0.7205  0.5823  1.4375
16500SOL    HW250942   5.125   7.690   7.329 -2.0115  0.7659  2.9734
16501SOL     OW50943   6.339   7.476   4.655 -0.2347 -0.6429 -0.0438
16501SOL    HW150944   6.365   7.568   4.644 -0.0364 -0.6385  0.4507
16501SOL    HW250945   6.244   7.480   4.668 -0.0615 -0.3799  1.3287
16502SOL     OW50946   5.725   7.224   3.636  0.0551  0.1957 -0.3023
16502SOL    HW150947   5.679   7.187   3.561  0.3237 -0.3825 -0.1896
16502SOL    HW250948   5.661   7.282   3.677 -0.1110  0.4722 -0.9409
16503SOL     OW50949   3.561   5.248   7.052  1.0145  0.1561  0.1915
16503SOL    HW150950   3.530   5.163   7.084  1.6056 -0.1198  0.0440
16503SOL    HW250951   3.652   5.233   7.027  1.5245  1.1500  1.3742
16504SOL     OW50952   4.311   7.464   5.292  0.2480  0.3272  0.4936
16504SOL    HW150953   4.399   7.502   5.291  0.5984 -0.4328 -0.9593
16504SOL    HW250954   4.326   7.372   5.314  0.1063 -0.3258 -1.8558
16505SOL     OW50955   6.162   5.392   4.977 -0.0229 -0.4074  0.0778
16505SOL    HW150956   6.082   5.438   4.998  0.6955  0.8297  0.1946
16505SOL    HW250957   6.191   5.355   5.060 -1.1055 -1.9661 -0.1866
16506SOL     OW50958   5.298   4.631   4.247  0.5144 -0.7693 -0.0264
16506SOL    HW150959   5.259   4.554   4.289 -0.4835 -0.8416 -1.0353
16506SOL    HW250960   5.314   4.692   4.319 -1.3323 -0.8146  0.4762
16507SOL     OW50961   4.319   0.605   2.813 -0.6868 -0.4034 -0.2942
16507SOL    HW150962   4.251   0.622   2.878 -0.2583  1.2603 -0.2136
16507SOL    HW250963   4.399   0.593   2.864  0.0176  2.7105 -0.4301
16508SOL     OW50964   5.064   5.694   3.835  0.0905 -0.5157 -0.1376
16508SOL    HW150965   5.088   5.714   3.925  0.2060  1.4438 -0.5501
16508SOL    HW250966   5.058   5.780   3.792 -2.2979 -1.2164 -1.4085
16509SOL     OW50967   2.325   6.793   3.772  0.2481  0.4138 -0.3204
16509SOL    HW150968   2.417   6.817   3.760  0.5590 -0.6655 -0.1574
16509SOL    HW250969   2.297   6.841   3.850  0.5689  1.0088 -0.5670
16510SOL     OW50970   1.972   4.695   4.782 -0.0786  0.3765 -0.0137
16510SOL    HW150971   1.907   4.763   4.764 -0.0509  0.5656  0.5863
16510SOL    HW250972   2.037   4.737   4.837 -0.0910 -0.1421  0.4136
16511SOL     OW50973   3.670   6.923   6.660  0.2803 -0.6094  0.2915
16511SOL    HW150974   3.759   6.944   6.633 -0.7572  2.1057 -1.4800
16511SOL    HW250975   3.672   6.922   6.755  1.7508  1.8244  0.3396
16512SOL     OW50976   4.321   5.629   2.746  0.1180 -0.0280 -0.4512
16512SOL    HW150977   4.285   5.548   2.783  1.2881 -0.0662  0.6527
16512SOL    HW250978   4.412   5.608   2.724  0.9042  1.3644  1.2364
16513SOL     OW50979   4.439   6.334   5.961 -0.2251 -0.0594  0.0288
16513SOL    HW150980   4.528   6.303   5.945 -0.5984 -1.2498  0.1720
16513SOL    HW250981   4.448   6.393   6.036  0.4065 -0.3753  0.2117
16514SOL     OW50982   4.068   5.984   3.546  0.5318 -0.6318 -0.5123
16514SOL    HW150983   4.021   5.928   3.607  0.0921 -0.2677 -0.5126
16514SOL    HW250984   4.005   6.052   3.521  0.5381 -1.0601 -1.7596
16515SOL     OW50985   5.029   7.173   4.720 -0.4473  0.0402  0.2755
16515SOL    HW150986   5.025   7.169   4.816 -0.1957 -2.9486  0.2519
16515SOL    HW250987   4.942   7.143   4.692  0.3452 -1.7428 -0.3800
16516SOL     OW50988   3.604   5.796   5.257 -0.1656  0.6211  0.1637
16516SOL    HW150989   3.588   5.708   5.223  1.2108 -0.1331  1.3971
16516SOL    HW250990   3.599   5.787   5.352  2.1835  1.3494  0.4283
16517SOL     OW50991   4.840   6.962   4.795  0.0330 -0.4945 -0.2692
16517SOL    HW150992   4.793   7.020   4.855 -0.2005 -0.0235 -0.8891
16517SOL    HW250993   4.847   6.879   4.842  1.3200  0.3269  1.0899
16518SOL     OW50994   4.535   5.769   6.796  0.1679 -0.4291  0.0697
16518SOL    HW150995   4.467   5.719   6.751 -0.3220 -1.1799  1.6027
16518SOL    HW250996   4.594   5.702   6.832  0.6943  0.1652  0.3254
16519SOL     OW50997   4.319   6.349   5.429 -0.5629  0.4192  0.4652
16519SOL    HW150998   4.304   6.359   5.523 -0.3661 -0.8114  0.6383
16519SOL    HW250999   4.235   6.323   5.393 -0.1019 -1.5710  0.6994
16520SOL     OW51000   3.283   0.667   4.449 -0.0622  0.1447 -0.6624
16520SOL    HW151001   3.251   0.756   4.463 -0.9428 -0.1542 -0.7142
16520SOL    HW251002   3.204   0.613   4.443  0.4529 -0.6279 -0.7444
16521SOL     OW51003   4.576   6.375   4.984  0.2487  0.0877 -0.9561
16521SOL    HW151004   4.637   6.359   5.056 -0.1764  1.1456 -0.3418
16521SOL    HW251005   4.497   6.328   5.007 -0.7380  2.3076  0.4835
16522SOL     OW51006   5.991   4.843   2.277  0.4061  0.1912 -0.2639
16522SOL    HW151007   5.979   4.928   2.235  2.7887  1.1559  0.7971
16522SOL    HW251008   6.073   4.809   2.239  0.7213 -0.5365  0.9838
16523SOL     OW51009   4.101   7.509   3.907  0.9594  0.8865  0.4140
16523SOL    HW151010   4.056   7.575   3.960 -3.1115  0.1556 -1.7306
16523SOL    HW251011   4.048   7.430   3.916  2.5728 -0.5071 -1.3396
16524SOL     OW51012   6.129   5.946   6.774  0.0480  0.6399 -0.2395
16524SOL    HW151013   6.129   5.900   6.858 -2.5078  2.0244  0.6114
16524SOL    HW251014   6.131   5.875   6.709  2.3374 -0.4513  0.8959
16525SOL     OW51015   5.145   4.965   4.597 -0.6282  0.0403  0.2596
16525SOL    HW151016   5.164   4.978   4.690 -2.6548  0.3971  0.6623
16525SOL    HW251017   5.096   5.043   4.571 -1.9462 -1.0140 -0.5422
16526SOL     OW51018   4.642   5.333   4.004  0.1670  0.2325  0.5270
16526SOL    HW151019   4.647   5.296   3.916 -1.4300  1.2805 -0.0516
16526SOL    HW251020   4.549   5.354   4.016  0.1633 -0.7951  2.8706
16527SOL     OW51021   5.375   6.379   3.016  0.0098 -0.0412  0.1009
16527SOL    HW151022   5.355   6.349   2.928  1.1352  1.8008 -0.8434
16527SOL    HW251023   5.469   6.362   3.027 -0.0243  0.1454  0.7834
16528SOL     OW51024   3.744   0.125   5.232 -0.0213  0.4178  0.3478
16528SOL    HW151025   3.717   0.088   5.316 -0.0664  1.5371  0.8452
16528SOL    HW251026   3.801   0.198   5.255  0.2843  0.4993 -0.6099
16529SOL     OW51027   4.563   6.416   5.309  0.2487  0.0783 -0.5175
16529SOL    HW151028   4.620   6.340   5.308 -0.9558 -0.8624  0.0432
16529SOL    HW251029   4.479   6.383   5.342  0.3713  2.1306  2.1836
16530SOL     OW51030   3.687   7.516   4.934 -0.5182 -0.3390 -0.6086
16530SOL    HW151031   3.661   7.441   4.881  0.3600 -1.1673  0.0794
16530SOL    HW251032   3.726   7.476   5.013  0.7087  0.8177 -0.5941
16531SOL     OW51033   1.935   4.781   5.510  0.5882 -0.4199  0.5017
16531SOL    HW151034   1.959   4.753   5.422  3.9902  1.2290  0.7578
16531SOL    HW251035   1.989   4.727   5.568  0.3791  0.3571  1.4544
16532SOL     OW51036   4.713   1.248   6.130 -0.1326 -0.0401 -0.4581
16532SOL    HW151037   4.650   1.180   6.155  0.9445 -0.8450  0.1281
16532SOL    HW251038   4.672   1.330   6.159 -0.9921 -0.5366 -0.2407
16533SOL     OW51039   3.570   6.322   4.208  0.1786 -0.7233 -0.4001
16533SOL    HW151040   3.606   6.363   4.129  0.5318 -2.1471 -0.9995
16533SOL    HW251041   3.493   6.275   4.178 -1.2472  0.8858  0.5854
16534SOL     OW51042   6.286   6.478   4.704  0.1819 -0.0019  0.2634
16534SOL    HW151043   6.216   6.511   4.761 -0.0104 -0.7788  0.4895
16534SOL    HW251044   6.366   6.485   4.758  0.3199  1.0513 -0.0578
16535SOL     OW51045   4.328   6.403   2.279 -0.4027 -0.4500  0.4678
16535SOL    HW151046   4.285   6.438   2.357 -2.6601 -0.5190 -0.6522
16535SOL    HW251047   4.373   6.479   2.241 -1.1375  0.1003  0.6692
16536SOL     OW51048   6.040   6.495   6.248 -0.3780  0.1425 -0.3664
16536SOL    HW151049   6.015   6.548   6.172 -1.9550  0.2312  0.1846
16536SOL    HW251050   5.990   6.414   6.238 -1.4052  0.5676  1.0899
16537SOL     OW51051   3.814   4.857   5.022 -0.1816  0.2414  0.1178
16537SOL    HW151052   3.783   4.845   5.112  1.9131  1.1108  1.0308
16537SOL    HW251053   3.745   4.821   4.967 -2.5066  1.5684  1.9830
16538SOL     OW51054   4.948   6.737   3.588  0.0595  0.1173 -0.1117
16538SOL    HW151055   5.016   6.769   3.530  2.2890 -0.6784  1.9160
16538SOL    HW251056   4.926   6.650   3.555 -0.6951  0.7423 -1.3121
16539SOL     OW51057   5.898   5.658   5.334  0.0564  0.0551  0.4550
16539SOL    HW151058   5.904   5.753   5.345  1.7608  0.0474 -0.0590
16539SOL    HW251059   5.916   5.623   5.421  0.8183  0.2101  0.3751
16540SOL     OW51060   6.553   3.922   2.457  0.2962 -0.5234 -0.2225
16540SOL    HW151061   6.597   3.908   2.373 -0.0592  0.6110 -0.6233
16540SOL    HW251062   6.479   3.980   2.436 -1.6700 -2.6921  0.3628
16541SOL     OW51063   2.924   4.851   2.259 -0.1147  0.1906 -0.0375
16541SOL    HW151064   2.899   4.892   2.176  0.8813  0.0112 -0.4420
16541SOL    HW251065   2.895   4.913   2.326 -1.6548 -0.0369 -0.4629
16542SOL     OW51066   5.364   6.268   3.861  0.5608 -0.0447 -0.2776
16542SOL    HW151067   5.293   6.221   3.906  1.6258 -1.2695  0.2182
16542SOL    HW251068   5.345   6.257   3.768 -1.2888  1.9089 -0.2063
16543SOL     OW51069   5.274   5.462   3.869 -0.2017  0.4606 -0.2027
16543SOL    HW151070   5.208   5.410   3.915  0.3166  0.2724  0.3390
16543SOL    HW251071   5.265   5.550   3.906  0.7147  0.1461  0.8268
16544SOL     OW51072   3.496   5.835   4.799  0.3578 -0.1102 -0.4002
16544SOL    HW151073   3.540   5.753   4.822  1.1155  0.3526 -0.1790
16544SOL    HW251074   3.469   5.873   4.882 -1.4180 -0.8831 -0.5727
16545SOL     OW51075   3.237   5.053   4.098  0.0649  0.1747  0.4038
16545SOL    HW151076   3.215   5.005   4.178  0.1971  1.0586  0.9853
16545SOL    HW251077   3.302   4.999   4.054 -0.6865 -0.7701  0.4214
16546SOL     OW51078   3.503   6.522   3.471  0.3383 -0.6717  0.4160
16546SOL    HW151079   3.470   6.470   3.544 -0.8698  0.2020  0.5249
16546SOL    HW251080   3.598   6.516   3.478  0.2934  0.3151  2.7601
16547SOL     OW51081   3.670   6.634   5.792 -0.0847  0.0479 -0.0847
16547SOL    HW151082   3.646   6.541   5.788  0.1354  0.0185 -2.5117
16547SOL    HW251083   3.689   6.651   5.884 -0.1344 -2.3184  0.4122
16548SOL     OW51084   2.703   4.694   6.059  0.0071 -0.4062  0.0190
16548SOL    HW151085   2.755   4.614   6.052 -1.0720 -1.3212  1.7175
16548SOL    HW251086   2.613   4.666   6.043 -0.1744  0.8938 -1.4936
16549SOL     OW51087   4.822   5.696   7.764 -0.9400 -0.6615  0.1211
16549SOL    HW151088   4.781   5.774   7.803 -0.7835  0.0595 -1.1222
16549SOL    HW251089   4.805   5.705   7.670 -0.4318 -1.8539 -0.0931
16550SOL     OW51090   3.214   5.475   7.555  0.0560  0.0608 -0.4439
16550SOL    HW151091   3.151   5.502   7.488 -0.6735  0.3064  0.3067
16550SOL    HW251092   3.171   5.401   7.599  0.7132 -0.3759 -0.5290
16551SOL     OW51093   5.883   7.043   6.043  0.0765 -0.3346 -0.0457
16551SOL    HW151094   5.824   6.969   6.059 -0.6911 -0.0232 -1.2546
16551SOL    HW251095   5.906   7.076   6.130 -0.8625 -1.0017  0.4650
16552SOL     OW51096   5.786   7.211   7.456  0.5706  0.6005 -0.1691
16552SOL    HW151097   5.824   7.277   7.397  0.1060  0.2436 -0.8786
16552SOL    HW251098   5.740   7.262   7.523  1.3378  1.0165  0.0515
16553SOL     OW51099   5.999   5.861   5.531  0.1737 -0.1452 -0.4308
16553SOL    HW151100   6.065   5.922   5.498  0.0058  0.6268  0.6404
16553SOL    HW251101   6.049   5.783   5.556  0.9201  0.9881  1.7990
16554SOL     OW51102   5.365   6.108   5.561  0.2753  0.1353  0.2848
16554SOL    HW151103   5.304   6.091   5.490 -1.1530  0.9702  1.2579
16554SOL    HW251104   5.360   6.030   5.617  2.2845 -1.0470 -1.0659
16555SOL     OW51105   4.002   6.173   8.582 -0.0739 -0.0675  0.0983
16555SOL    HW151106   3.937   6.149   8.647 -0.0839  0.2173  0.1933
16555SOL    HW251107   4.035   6.257   8.611 -0.7735  0.5265 -0.7847
16556SOL     OW51108   4.871   6.184   6.778  0.1775 -0.0875  0.1049
16556SOL    HW151109   4.931   6.148   6.843  0.3323  0.3993  0.2348
16556SOL    HW251110   4.882   6.128   6.701  2.5478  1.3675 -0.7196
16557SOL     OW51111   3.679   7.334   6.351 -0.3828 -0.2843 -0.5786
16557SOL    HW151112   3.653   7.263   6.409 -0.3491 -1.0253 -1.4563
16557SOL    HW251113   3.630   7.320   6.270 -1.6780  1.6558 -0.2086
16558SOL     OW51114   4.191   6.446   8.310  0.3332  0.1790  0.0740
16558SOL    HW151115   4.121   6.381   8.298 -0.4978  0.6153  2.0041
16558SOL    HW251116   4.158   6.524   8.267 -1.5594  1.0794  2.8453
16559SOL     OW51117   3.213   7.502   7.593  0.3097  0.2802 -0.0405
16559SOL    HW151118   3.230   7.511   7.686 -0.8874  1.0649  0.1175
16559SOL    HW251119   3.152   7.572   7.572  0.1035 -0.2380 -1.2967
16560SOL     OW51120   5.573   6.355   8.012  0.2369  0.1203 -0.0141
16560SOL    HW151121   5.644   6.339   7.950 -1.1189 -3.2730 -0.8915
16560SOL    HW251122   5.617   6.389   8.090  2.7770 -1.3880 -0.6752
16561SOL     OW51123   3.562   5.261   5.950  0.0167  0.3577 -0.3810
16561SOL    HW151124   3.597   5.272   6.039  1.4791 -1.6508 -0.6408
16561SOL    HW251125   3.535   5.169   5.947 -1.0458  0.6955 -1.6877
16562SOL     OW51126   4.054   5.830   5.904 -0.2083 -0.2439 -0.2786
16562SOL    HW151127   3.984   5.772   5.874 -0.1474 -0.8064  0.6098
16562SOL    HW251128   4.026   5.860   5.990  0.6038 -0.4331  0.0664
16563SOL     OW51129   3.326   0.515   4.715 -0.3490 -0.0005  0.2398
16563SOL    HW151130   3.393   0.519   4.647 -2.0628 -0.8728 -1.6110
16563SOL    HW251131   3.299   0.423   4.716 -0.6414  0.0775  1.8641
16564SOL     OW51132   4.081   7.182   7.623 -0.1587 -0.2934 -0.4992
16564SOL    HW151133   4.116   7.221   7.703 -0.8733 -1.5250  0.4536
16564SOL    HW251134   4.091   7.088   7.637  0.0432 -0.5136 -2.0328
16565SOL     OW51135   3.851   6.697   6.300 -0.5550 -0.5819  0.0927
16565SOL    HW151136   3.778   6.638   6.322 -1.3546  0.1762 -0.4501
16565SOL    HW251137   3.917   6.640   6.262 -1.0466 -1.2224  0.1823
16566SOL     OW51138   4.549   7.936   9.088 -0.3144  0.2742 -0.0313
16566SOL    HW151139   4.638   7.962   9.112 -0.1651 -0.4091  0.1754
16566SOL    HW251140   4.513   7.896   9.167 -0.1528 -1.1248 -0.6467
16567SOL     OW51141   5.400   5.255   6.164 -0.0689  0.2062  0.1988
16567SOL    HW151142   5.440   5.192   6.105  0.4862 -0.2050  0.9956
16567SOL    HW251143   5.316   5.277   6.123  0.3149 -0.0513 -0.7353
16568SOL     OW51144   4.068   7.999   5.443  0.4682 -0.0987 -0.8685
16568SOL    HW151145   4.150   7.957   5.416  1.9458  2.3560 -0.5002
16568SOL    HW251146   4.030   8.033   5.362  0.9565  0.6498 -0.7887
16569SOL     OW51147   3.494   4.565   6.206 -0.1450  0.6929 -0.1057
16569SOL    HW151148   3.464   4.624   6.138  0.8802  1.8198  0.3873
16569SOL    HW251149   3.417   4.550   6.261 -1.3965 -1.3534 -2.2033
16570SOL     OW51150   3.445   6.509   6.209 -0.9015  0.5463  0.2782
16570SOL    HW151151   3.534   6.514   6.244 -1.1737 -0.3261  1.1465
16570SOL    HW251152   3.456   6.473   6.121 -0.2529  2.2529 -0.3769
16571SOL     OW51153   6.532   7.405   6.454  0.2302 -0.3467 -0.0700
16571SOL    HW151154   6.560   7.323   6.413 -0.2947  0.0716 -1.3197
16571SOL    HW251155   6.456   7.433   6.403 -0.6748  0.0499  1.4021
16572SOL     OW51156   3.321   6.395   5.941  0.5363  0.2447 -0.4246
16572SOL    HW151157   3.309   6.347   5.860  0.3715  0.3465 -0.4602
16572SOL    HW251158   3.233   6.411   5.974  0.5518  1.2602 -0.8450
16573SOL     OW51159   7.485   5.798   6.372 -0.4884  0.4661 -0.3397
16573SOL    HW151160   7.433   5.718   6.381 -0.2489  0.1945 -1.2634
16573SOL    HW251161   7.452   5.839   6.292  0.3287  0.5852 -0.6210
16574SOL     OW51162   5.802   5.919   6.549 -0.1806 -0.3272 -0.4719
16574SOL    HW151163   5.814   5.824   6.548  0.7499 -0.2969  2.0204
16574SOL    HW251164   5.742   5.935   6.622  0.9991  1.1013  0.2271
16575SOL     OW51165   2.613   6.126   6.096 -0.5129 -0.5020  0.1354
16575SOL    HW151166   2.608   6.058   6.163 -0.9181 -0.6176 -0.0098
16575SOL    HW251167   2.524   6.161   6.090 -0.6180 -0.8826 -0.7412
16576SOL     OW51168   4.436   0.440   6.641  0.4370  0.1594  0.3355
16576SOL    HW151169   4.388   0.519   6.614  0.8815  0.6915  1.0768
16576SOL    HW251170   4.409   0.425   6.731  0.4059 -0.5070  0.2180
16577SOL     OW51171   5.686   7.104   8.031  1.0750  0.0287 -0.0562
16577SOL    HW151172   5.698   7.096   8.125  1.2629  0.6957 -0.0166
16577SOL    HW251173   5.629   7.181   8.021  0.7153 -0.2847 -0.4675
16578SOL     OW51174   3.774   5.389   5.814  0.1744  0.3755  0.0131
16578SOL    HW151175   3.711   5.331   5.855  2.1321 -0.5355  1.9520
16578SOL    HW251176   3.851   5.334   5.799  1.2269  1.8750 -0.4012
16579SOL     OW51177   2.288   7.549   6.334 -0.0398 -0.7421  0.6305
16579SOL    HW151178   2.260   7.639   6.350 -2.2339 -0.9839 -1.2678
16579SOL    HW251179   2.378   7.557   6.302 -0.5242  0.9200 -0.4579
16580SOL     OW51180   4.684   5.859   6.377  0.3890  0.1379 -0.6722
16580SOL    HW151181   4.588   5.862   6.370  0.4213 -0.0429 -1.3090
16580SOL    HW251182   4.707   5.772   6.343  0.6836 -0.4015  0.8417
16581SOL     OW51183   4.110   6.910   7.707  0.6637 -0.0586 -0.0725
16581SOL    HW151184   4.130   6.858   7.784 -0.2960  1.6957  1.4590
16581SOL    HW251185   4.186   6.899   7.650  0.8407 -2.3962  0.5203
16582SOL     OW51186   3.915   5.798   7.757  0.0432  0.6169 -0.1617
16582SOL    HW151187   3.842   5.758   7.804 -0.3811 -0.3300 -1.5547
16582SOL    HW251188   3.984   5.732   7.760  0.7657  1.3841  0.8743
16583SOL     OW51189   6.137   6.952   7.240 -0.5702 -0.1790 -0.5838
16583SOL    HW151190   6.087   6.923   7.317 -0.0854  0.4524 -0.0174
16583SOL    HW251191   6.074   7.004   7.189 -0.6953  0.0218 -0.2316
16584SOL     OW51192   5.423   7.986   5.505 -0.7500  0.1026 -0.1995
16584SOL    HW151193   5.360   8.019   5.440  1.0150  0.5203 -1.7915
16584SOL    HW251194   5.477   8.062   5.526  1.2400 -0.9387 -1.3346
16585SOL     OW51195   4.503   7.859   7.433  0.0906 -0.3435  0.2153
16585SOL    HW151196   4.470   7.820   7.514 -1.0233  0.1335  0.0093
16585SOL    HW251197   4.475   7.799   7.364 -0.4507  0.1254  0.0257
16586SOL     OW51198   4.095   5.509   6.226 -0.5781  0.1622 -0.1219
16586SOL    HW151199   4.169   5.480   6.173 -0.0263 -0.3500  0.9123
16586SOL    HW251200   4.039   5.431   6.233 -0.8222  0.3252 -0.2263
16587SOL     OW51201   6.877   6.102   5.154  0.6794  0.0211 -0.0338
16587SOL    HW151202   6.877   6.139   5.242 -0.9057 -2.3253  1.0620
16587SOL    HW251203   6.940   6.155   5.105 -0.5253  3.2821  1.6705
16588SOL     OW51204   3.924   5.327   6.330 -0.3170  0.4257 -0.5387
16588SOL    HW151205   3.934   5.276   6.250 -2.1095  0.2951 -0.7258
16588SOL    HW251206   3.927   5.263   6.401  2.6962  0.6761 -0.2968
16589SOL     OW51207   4.872   6.289   7.110 -0.5005 -0.0231  0.1366
16589SOL    HW151208   4.936   6.218   7.115  0.8472  1.2010  1.6135
16589SOL    HW251209   4.806   6.266   7.176  0.1101  0.2230  0.8527
16590SOL     OW51210   3.948   5.906   6.143  0.5078 -0.4373 -0.1129
16590SOL    HW151211   3.935   5.978   6.205 -0.1081 -1.3696  0.8923
16590SOL    HW251212   3.864   5.859   6.143  1.8063 -3.0115  1.7567
16591SOL     OW51213   4.259   6.140   8.885 -0.2939 -0.0655  0.0781
16591SOL    HW151214   4.237   6.218   8.936 -2.2674 -1.0512  0.8659
16591SOL    HW251215   4.309   6.173   8.810 -0.3710  1.8361  0.8094
16592SOL     OW51216   3.922   6.115   5.141  0.5453 -0.0154  0.6689
16592SOL    HW151217   3.892   6.056   5.210  0.5047  0.1941  0.8314
16592SOL    HW251218   3.864   6.097   5.067  0.6676 -0.3274  0.6505
16593SOL     OW51219   3.885   5.581   6.893  0.0807 -0.3488  1.1274
16593SOL    HW151220   3.844   5.636   6.826  0.3320  0.8625  1.9344
16593SOL    HW251221   3.944   5.524   6.844  0.4671  0.6960  0.3217
16594SOL     OW51222   3.468   7.867   7.475 -0.0244  0.0587 -0.8551
16594SOL    HW151223   3.402   7.878   7.543 -2.6946 -3.1771 -2.6187
16594SOL    HW251224   3.432   7.910   7.398  1.4056  0.8615 -1.1046
16595SOL     OW51225   3.507   6.750   4.988 -0.9868  0.0180  0.5409
16595SOL    HW151226   3.462   6.760   5.072  0.2291 -0.1191  1.2309
16595SOL    HW251227   3.594   6.716   5.011 -0.8954 -0.7617 -0.8305
16596SOL     OW51228   6.954   7.421   9.452  0.6178  0.3832 -0.3972
16596SOL    HW151229   6.981   7.506   9.488  1.7115  0.3144 -1.0092
16596SOL    HW251230   6.916   7.375   9.527  1.9167  0.6275  0.4518
16597SOL     OW51231   4.793   7.231   7.480  0.1404  0.4269  0.3082
16597SOL    HW151232   4.704   7.196   7.490 -0.4894  1.4689 -1.1956
16597SOL    HW251233   4.810   7.277   7.562 -0.6395  0.0809  0.6799
16598SOL     OW51234   2.564   7.799   5.352  0.1904  0.3673 -0.0929
16598SOL    HW151235   2.544   7.706   5.341  2.3663 -0.2359  0.6101
16598SOL    HW251236   2.601   7.826   5.268  1.2541  0.0926  0.2695
16599SOL     OW51237   4.850   6.586   7.107 -0.2032  0.1836  0.1521
16599SOL    HW151238   4.914   6.517   7.121  0.3774  0.9515  1.4582
16599SOL    HW251239   4.902   6.665   7.095 -0.8819  0.6026 -0.1112
16600SOL     OW51240   4.545   5.216   7.032 -0.2012 -0.0597 -0.2104
16600SOL    HW151241   4.478   5.159   6.994 -1.0967  0.8289 -0.0160
16600SOL    HW251242   4.620   5.206   6.975 -1.0628  0.2158 -1.4328
16601SOL     OW51243   4.092   6.766   8.629  0.1313 -0.0056 -0.2264
16601SOL    HW151244   4.177   6.794   8.595  1.0106 -1.4352  0.6497
16601SOL    HW251245   4.035   6.762   8.552  0.4924  2.1139 -0.6615
16602SOL     OW51246   5.961   7.023   5.368  0.3453  0.2146 -0.3505
16602SOL    HW151247   5.970   7.106   5.321 -0.5601 -0.6965 -2.2156
16602SOL    HW251248   6.038   6.973   5.344 -0.9373 -0.9209 -2.3809
16603SOL     OW51249   6.556   5.800   6.512 -0.6244  0.0530 -0.0134
16603SOL    HW151250   6.490   5.760   6.569 -0.7232  1.4169  0.8845
16603SOL    HW251251   6.507   5.862   6.458 -0.2229  0.3596 -0.0338
16604SOL     OW51252   3.652   7.109  10.383  0.5451  0.2876 -0.9278
16604SOL    HW151253   3.730   7.084  10.334  0.4800  0.8589 -1.3316
16604SOL    HW251254   3.580   7.066  10.337  0.5865 -0.0357 -0.7011
16605SOL     OW51255   5.345   6.443   6.844  0.2174 -0.1877 -0.0471
16605SOL    HW151256   5.333   6.493   6.763  0.8437  0.8262  0.4678
16605SOL    HW251257   5.439   6.445   6.860 -0.0447  0.9027  1.4840
16606SOL     OW51258   3.623   5.088   6.722 -0.5371  0.0362  0.6791
16606SOL    HW151259   3.599   5.001   6.690 -0.7666 -0.0272  1.0126
16606SOL    HW251260   3.675   5.070   6.801 -0.7163  0.2030  0.8360
16607SOL     OW51261   5.120   7.269   5.035 -0.5976  0.0078 -0.6032
16607SOL    HW151262   5.198   7.315   5.002  0.6621 -1.5555  0.0808
16607SOL    HW251263   5.051   7.336   5.034  0.2523  0.9757 -2.9839
16608SOL     OW51264   2.387   7.384   5.994  0.2441 -0.2034  0.2176
16608SOL    HW151265   2.411   7.320   6.062 -0.0272 -1.5048 -0.8572
16608SOL    HW251266   2.450   7.367   5.924 -0.1826  0.3490 -0.3007
16609SOL     OW51267   5.012   5.697   5.792  0.7858  0.0533  0.2663
16609SOL    HW151268   4.962   5.682   5.712  0.0232 -2.5527  1.1206
16609SOL    HW251269   4.951   5.739   5.852  0.6915  0.0371  0.1802
16610SOL     OW51270   4.481   6.054   6.735  0.4492  0.1296  0.7799
16610SOL    HW151271   4.501   5.961   6.722 -0.0711  0.0491  0.5492
16610SOL    HW251272   4.542   6.082   6.803  0.1749 -0.5363  1.3073
16611SOL     OW51273   6.177   7.642   6.640  0.4576  0.0267  0.7842
16611SOL    HW151274   6.267   7.612   6.653  0.6664  0.5615  0.6137
16611SOL    HW251275   6.169   7.717   6.700 -0.1989 -0.6346  1.5515
16612SOL     OW51276   4.449   5.197   6.453 -0.1253  0.4544  0.6417
16612SOL    HW151277   4.453   5.127   6.518 -1.0433  0.3825  0.6289
16612SOL    HW251278   4.360   5.193   6.419  0.3676  0.4318 -0.6922
16613SOL     OW51279   5.968   6.651   6.038 -0.1825 -0.0800 -0.1101
16613SOL    HW151280   6.035   6.718   6.032 -0.4597  0.2165  0.0717
16613SOL    HW251281   5.888   6.698   6.062 -0.1930 -0.5732  0.8730
16614SOL     OW51282   4.015   4.876   6.595  0.1202 -0.3881 -0.5583
16614SOL    HW151283   4.041   4.880   6.503  0.7139  1.9502 -0.3430
16614SOL    HW251284   4.096   4.893   6.643 -0.3354 -0.8129  0.3843
16615SOL     OW51285   5.546   6.340   6.507  0.0422  0.3076  0.1409
16615SOL    HW151286   5.474   6.403   6.506 -0.0685  0.1801  0.0070
16615SOL    HW251287   5.515   6.267   6.453  0.6091  0.6120 -0.6061
16616SOL     OW51288   5.200   6.665   7.352  0.6362  0.0967 -0.1035
16616SOL    HW151289   5.173   6.579   7.319  0.1679  0.2222 -0.0536
16616SOL    HW251290   5.241   6.708   7.277  1.7179 -0.5260  0.1159
16617SOL     OW51291   5.683   5.970   7.808 -0.3169 -0.2415 -0.3742
16617SOL    HW151292   5.615   6.035   7.790 -0.1817 -0.2943 -1.1118
16617SOL    HW251293   5.641   5.886   7.792 -0.8995 -0.4457  1.8976
16618SOL     OW51294   4.769   7.762   7.382  0.2433 -0.0886 -0.1244
16618SOL    HW151295   4.681   7.791   7.405 -0.2195 -1.6657  0.2406
16618SOL    HW251296   4.786   7.802   7.297 -0.6296  0.6099  0.0109
16619SOL     OW51297   3.774   6.555   7.051  0.1216  0.4784  0.0189
16619SOL    HW151298   3.689   6.596   7.066 -0.6652 -0.1319 -2.3595
16619SOL    HW251299   3.835   6.628   7.046 -0.0343  0.8880  2.6071
16620SOL     OW51300   5.718   5.754   7.002  0.0485 -0.2693 -0.0449
16620SOL    HW151301   5.781   5.695   6.959 -1.6671 -1.8451 -0.5158
16620SOL    HW251302   5.753   5.766   7.090  0.9088 -1.2701 -0.2264
16621SOL     OW51303   4.878   6.187   6.265 -0.3213  0.2942 -0.3016
16621SOL    HW151304   4.948   6.124   6.281 -0.9034 -0.1429  0.6273
16621SOL    HW251305   4.923   6.269   6.245  0.4630  0.1432  0.7618
16622SOL     OW51306   6.609   5.995   5.509 -0.3739 -0.4390 -0.0417
16622SOL    HW151307   6.656   5.939   5.570 -0.3280 -0.6914 -0.3062
16622SOL    HW251308   6.574   5.935   5.443  0.1990 -0.1075 -0.6706
16623SOL     OW51309   2.599   7.594   3.981 -0.0186  0.0297  0.3212
16623SOL    HW151310   2.619   7.501   3.982 -0.3264 -0.0450  0.0019
16623SOL    HW251311   2.663   7.632   3.921  1.0066  0.2538  1.5104
16624SOL     OW51312   4.936   5.309   5.916  0.3589  0.3440 -0.1220
16624SOL    HW151313   4.869   5.354   5.865 -0.4014 -2.1243 -1.4643
16624SOL    HW251314   4.886   5.249   5.972  1.3591  0.2671  0.7095
16625SOL     OW51315   5.343   5.532   5.067  0.0052 -0.1707 -0.2729
16625SOL    HW151316   5.424   5.544   5.116 -1.1619 -0.5292  1.8587
16625SOL    HW251317   5.366   5.554   4.976  2.5460 -0.6399  0.1891
16626SOL     OW51318   3.381   6.330   5.573 -0.2659  0.0765  0.1007
16626SOL    HW151319   3.344   6.273   5.640 -0.8971  2.1231  1.5534
16626SOL    HW251320   3.476   6.319   5.582 -0.3654 -1.2065 -0.1175
16627SOL     OW51321   4.060   0.175   4.115 -0.3618  0.3411 -0.1907
16627SOL    HW151322   4.001   0.130   4.175  0.1718 -0.3021 -0.1350
16627SOL    HW251323   4.011   0.252   4.085 -0.4278  0.9920  1.5008
16628SOL     OW51324   4.575   5.861   5.101  0.0435 -0.0614  0.1408
16628SOL    HW151325   4.574   5.778   5.052 -0.5847  0.1787 -0.2714
16628SOL    HW251326   4.662   5.897   5.085  0.4080 -0.7542  0.5192
16629SOL     OW51327   5.525   6.454   5.325  0.7501  0.2211 -0.3777
16629SOL    HW151328   5.579   6.527   5.357  2.2614 -1.3248  0.7486
16629SOL    HW251329   5.538   6.384   5.389 -1.7296 -0.6275 -0.7082
16630SOL     OW51330   4.897   5.974   6.548  0.6660  0.7952 -0.2140
16630SOL    HW151331   4.978   5.934   6.517 -1.1383 -2.2667 -1.3918
16630SOL    HW251332   4.841   5.979   6.470 -1.6864 -1.0859  1.2003
16631SOL     OW51333   5.633   6.648   5.518 -0.5598 -0.0569  0.5168
16631SOL    HW151334   5.692   6.720   5.540 -1.2027  1.1458 -1.4222
16631SOL    HW251335   5.617   6.604   5.601  0.7787  1.3186  1.5696
16632SOL     OW51336   3.128   6.353   5.482  0.3250  0.0869 -0.4975
16632SOL    HW151337   3.095   6.413   5.549  0.6482 -0.0656 -0.1939
16632SOL    HW251338   3.221   6.342   5.504 -0.0809 -1.9034  0.5618
16633SOL     OW51339   6.299   0.269   7.069  0.1995 -0.1312  0.1931
16633SOL    HW151340   6.344   0.308   6.994  0.7574  1.5001  1.3113
16633SOL    HW251341   6.319   0.175   7.063  2.2581  0.2897 -0.3711
16634SOL     OW51342   4.885   0.907   8.500  0.4316  0.3882 -0.3680
16634SOL    HW151343   4.914   0.995   8.476 -2.3942  0.7765 -3.1542
16634SOL    HW251344   4.807   0.922   8.554 -0.7677 -0.2736 -1.8313
16635SOL     OW51345   6.452   5.611   8.094 -0.2338  0.3601  0.2653
16635SOL    HW151346   6.370   5.650   8.062 -2.1224 -2.5673  1.1458
16635SOL    HW251347   6.461   5.646   8.183  0.7376  2.3235 -0.5243
16636SOL     OW51348   3.519   7.019   4.906  0.0289 -0.7630 -0.0811
16636SOL    HW151349   3.518   6.929   4.871 -1.5666 -0.5414 -0.6790
16636SOL    HW251350   3.455   7.017   4.977 -0.0450 -0.0847 -0.1271
16637SOL     OW51351   6.154   6.832   4.432  0.5577 -0.3888 -0.3257
16637SOL    HW151352   6.156   6.794   4.520  0.8819 -1.2489 -0.6886
16637SOL    HW251353   6.154   6.927   4.446  1.1778 -0.5185  0.5913
16638SOL     OW51354   5.219   6.360   5.021 -0.0573 -0.1563 -0.0215
16638SOL    HW151355   5.253   6.409   4.946  1.0219 -0.4242  0.2699
16638SOL    HW251356   5.248   6.411   5.097  0.0363 -0.5995  0.2456
16639SOL     OW51357   4.619   6.518   4.765  0.5356 -0.1876 -0.1008
16639SOL    HW151358   4.562   6.466   4.709 -0.5856  0.8026  0.0842
16639SOL    HW251359   4.614   6.476   4.851 -0.4462  0.2506  0.0736
16640SOL     OW51360   4.544   0.207   8.929  0.5367 -0.7059 -1.0962
16640SOL    HW151361   4.537   0.128   8.981 -0.6973  0.7917  1.1770
16640SOL    HW251362   4.458   0.249   8.936  0.8172  0.3362 -3.1042
16641SOL     OW51363   4.281   0.334   6.250 -0.4949 -0.1825  0.3432
16641SOL    HW151364   4.278   0.397   6.322 -1.3014 -0.4390  0.5381
16641SOL    HW251365   4.375   0.315   6.239 -0.1231  1.9480 -0.5308
16642SOL     OW51366   4.871   1.468   7.648 -0.2655 -0.2477  0.4139
16642SOL    HW151367   4.802   1.451   7.584 -1.8274 -1.0464  2.1884
16642SOL    HW251368   4.843   1.548   7.693 -0.1132 -0.6493  1.2408
16643SOL     OW51369   5.798   6.303   7.852 -0.2029 -0.4453 -0.2445
16643SOL    HW151370   5.857   6.264   7.917 -2.5240 -1.2078  1.5645
16643SOL    HW251371   5.781   6.231   7.791  1.1370 -0.0432 -1.1409
16644SOL     OW51372   6.313   7.280   7.414 -0.1659  0.3849  0.5755
16644SOL    HW151373   6.314   7.186   7.427 -0.1346  0.3875  0.5883
16644SOL    HW251374   6.374   7.295   7.341  1.5622  0.6417  2.0223
16645SOL     OW51375   4.688   7.027   6.711 -0.0556 -0.2386  0.0028
16645SOL    HW151376   4.638   6.989   6.784 -0.4168 -2.3191 -1.2568
16645SOL    HW251377   4.621   7.070   6.657 -0.0424 -0.3336 -0.0877
16646SOL     OW51378   4.496   6.146   5.528 -0.2184  0.4001  0.0320
16646SOL    HW151379   4.504   6.066   5.476  0.9643  0.9396 -0.6567
16646SOL    HW251380   4.407   6.178   5.510 -0.3912 -0.2989 -0.3741
16647SOL     OW51381   5.107   0.117   5.601 -0.5989 -0.2078  0.4959
16647SOL    HW151382   5.036   0.054   5.607 -0.5203 -0.3494 -0.0562
16647SOL    HW251383   5.141   0.107   5.512 -0.3527  0.3596  0.5227
16648SOL     OW51384   4.563   5.105   7.284 -0.0836  0.0832 -0.3032
16648SOL    HW151385   4.559   5.010   7.268 -1.7440  0.2519 -1.0152
16648SOL    HW251386   4.571   5.143   7.197 -1.7942  0.6951 -0.2132
16649SOL     OW51387   6.204   5.294   5.232  0.4562 -1.0923  0.2092
16649SOL    HW151388   6.286   5.294   5.282  0.1875 -0.4277  0.6693
16649SOL    HW251389   6.165   5.209   5.249 -0.0072 -0.5958  1.8003
16650SOL     OW51390   4.196   6.063   6.744 -0.3722 -0.2592  0.2420
16650SOL    HW151391   4.153   6.019   6.671  1.0489  0.5727 -1.1590
16650SOL    HW251392   4.289   6.058   6.725 -0.0214  0.9445  1.4385
16651SOL     OW51393   4.206   5.958   6.184  0.5590  0.3036 -0.4503
16651SOL    HW151394   4.114   5.938   6.165  0.2294  1.5348 -0.2646
16651SOL    HW251395   4.244   5.981   6.100  0.7806 -0.5165 -0.5742
16652SOL     OW51396   4.320   6.338   7.938 -0.1684  0.5128 -0.0005
16652SOL    HW151397   4.392   6.401   7.943 -0.7148  1.4048 -2.1981
16652SOL    HW251398   4.241   6.392   7.937 -0.9206 -0.4440  2.1197
16653SOL     OW51399   4.033   6.421   6.574  0.2145  0.0565 -0.1258
16653SOL    HW151400   4.001   6.488   6.634  0.9861  0.4931 -0.1963
16653SOL    HW251401   3.957   6.364   6.560 -0.1810  0.3666  0.6795
16654SOL     OW51402   5.367   7.823   7.543  0.1339  0.3139 -0.3161
16654SOL    HW151403   5.449   7.830   7.494  0.3599  0.3439  0.0648
16654SOL    HW251404   5.303   7.794   7.478  0.6926 -0.8419 -0.3747
16655SOL     OW51405   4.617   6.396   6.548  0.2330  0.0822 -0.1006
16655SOL    HW151406   4.549   6.389   6.615  0.8918  0.3191  0.6150
16655SOL    HW251407   4.599   6.324   6.488  0.4255 -1.0197  1.0968
16656SOL     OW51408   4.461   6.817   6.597  0.0455 -0.6161  0.1016
16656SOL    HW151409   4.412   6.888   6.639 -0.5450 -1.3146  0.6364
16656SOL    HW251410   4.467   6.750   6.665 -0.2225 -1.4511 -0.6888
16657SOL     OW51411   5.760   5.011   5.716 -0.3029 -0.6451  0.4335
16657SOL    HW151412   5.742   5.102   5.741  1.3995 -0.0544 -0.3444
16657SOL    HW251413   5.673   4.972   5.707 -1.1230  1.1682 -0.1604
16658SOL     OW51414   5.670   5.996   6.316 -0.1852 -0.3798 -0.0090
16658SOL    HW151415   5.689   5.937   6.243 -1.4820 -2.2589  1.0766
16658SOL    HW251416   5.706   5.951   6.393  0.6446  1.2845  0.6294
16659SOL     OW51417   5.061   5.543   8.570  0.3938  0.2011 -0.2802
16659SOL    HW151418   4.994   5.530   8.502  0.7722 -0.1143 -0.6013
16659SOL    HW251419   5.098   5.629   8.551 -1.5708  1.4930  1.3674
16660SOL     OW51420   4.751   6.806   7.573 -0.7056 -0.2366  0.2686
16660SOL    HW151421   4.698   6.749   7.516 -1.9454  0.7159  0.4303
16660SOL    HW251422   4.841   6.777   7.557 -1.0753 -0.5291 -1.5958
16661SOL     OW51423   4.767   7.269   7.791  0.1319  0.3830  0.4263
16661SOL    HW151424   4.768   7.184   7.835  3.3292 -0.2589 -0.6481
16661SOL    HW251425   4.687   7.311   7.823  0.0461 -1.7260  3.4611
16662SOL     OW51426   3.579   7.560   5.888 -0.2960  0.7951 -0.5157
16662SOL    HW151427   3.649   7.582   5.949  0.9668 -0.1352 -1.5802
16662SOL    HW251428   3.599   7.610   5.809  0.0294 -0.5998 -1.3499
16663SOL     OW51429   6.382   5.672   6.689 -0.4750 -0.1527 -0.3758
16663SOL    HW151430   6.357   5.580   6.694 -1.2501  0.0971  0.8644
16663SOL    HW251431   6.307   5.716   6.650 -0.1816 -0.0167 -0.7908
16664SOL     OW51432   4.168   6.224   6.287 -0.3117 -0.1919 -0.7203
16664SOL    HW151433   4.181   6.317   6.307  0.5588 -0.5463  0.4822
16664SOL    HW251434   4.257   6.187   6.285 -0.6515 -1.0238 -1.0895
16665SOL     OW51435   4.505   6.527   6.143  0.1622 -0.8003  0.1574
16665SOL    HW151436   4.541   6.579   6.071  0.8495  0.6555  1.4966
16665SOL    HW251437   4.579   6.510   6.200 -0.5605 -1.0494  1.0508
16666SOL     OW51438   4.664   6.798   6.408  0.0347  0.1628  0.0584
16666SOL    HW151439   4.594   6.805   6.473 -1.9724 -0.0537 -1.9681
16666SOL    HW251440   4.657   6.877   6.355  0.0932 -0.6861 -1.2882
16667SOL     OW51441   4.467   5.216   7.497  0.0779 -0.0041  0.1773
16667SOL    HW151442   4.387   5.164   7.502 -0.0979  0.3034  0.7064
16667SOL    HW251443   4.503   5.198   7.410 -0.3591 -0.4440  0.0855
16668SOL     OW51444   5.784   6.805   8.909  0.3164  0.0924 -0.2054
16668SOL    HW151445   5.729   6.730   8.888  1.1397 -0.8789  0.9155
16668SOL    HW251446   5.814   6.838   8.825 -2.3742  1.0162 -0.8940
16669SOL     OW51447   3.337   7.456   6.084 -0.5159 -0.6706 -0.4219
16669SOL    HW151448   3.415   7.475   6.136  0.9189 -3.5004 -1.3690
16669SOL    HW251449   3.265   7.464   6.147  0.1677  3.4046  0.1727
16670SOL     OW51450   5.747   7.350   8.354  0.0348 -0.7654  1.0111
16670SOL    HW151451   5.761   7.258   8.332  1.1363 -0.2471 -0.6652
16670SOL    HW251452   5.811   7.369   8.422  2.4172 -0.3841 -1.1810
16671SOL     OW51453   4.368   5.308   8.136 -0.0174 -0.9188 -0.5041
16671SOL    HW151454   4.337   5.246   8.070 -0.9157 -1.7189  0.6364
16671SOL    HW251455   4.289   5.356   8.163  0.7291  1.1280 -1.7168
16672SOL     OW51456   3.131   0.034   8.448 -0.2160 -0.1830 -0.5233
16672SOL    HW151457   3.223   0.056   8.459 -0.1608 -0.1904 -0.9412
16672SOL    HW251458   3.094   0.037   8.536 -0.1051  1.1152 -0.5009
16673SOL     OW51459   3.624   5.678   6.065  0.2932 -0.9514  0.6342
16673SOL    HW151460   3.668   5.653   5.983  0.5162  0.0294  0.4415
16673SOL    HW251461   3.686   5.655   6.133  0.4529 -1.0264  0.4641
16674SOL     OW51462   4.696   6.641   5.464 -0.0070 -0.2164 -0.3934
16674SOL    HW151463   4.669   6.555   5.432  0.2732 -0.6076  0.3888
16674SOL    HW251464   4.625   6.700   5.438 -1.5417 -1.1732  1.4025
16675SOL     OW51465   6.367   6.465   7.591  0.2925  0.3210 -0.2034
16675SOL    HW151466   6.342   6.374   7.609 -0.3550  0.4224 -0.5515
16675SOL    HW251467   6.293   6.516   7.625  0.3739  0.6789 -0.5614
16676SOL     OW51468   2.607   6.417   6.041  0.1118 -0.2202  0.0469
16676SOL    HW151469   2.590   6.466   6.122  2.5171  1.7443 -0.5355
16676SOL    HW251470   2.535   6.353   6.037 -0.9045  0.5645  2.9516
16677SOL     OW51471   6.497   7.310   6.098  0.0179  0.0447  0.2851
16677SOL    HW151472   6.555   7.284   6.169  2.1190 -1.7218 -1.9025
16677SOL    HW251473   6.531   7.396   6.070 -0.4770  0.4936  1.0334
16678SOL     OW51474   4.989   6.489   6.815 -0.2724 -0.6191 -0.5649
16678SOL    HW151475   4.961   6.571   6.856 -0.3693 -0.8154 -0.2341
16678SOL    HW251476   5.073   6.469   6.856  0.0163 -0.4068 -1.0369
16679SOL     OW51477   5.021   6.787   6.634  0.0456  0.7637  0.2814
16679SOL    HW151478   4.975   6.869   6.616 -1.7828 -0.1539  0.4869
16679SOL    HW251479   4.951   6.725   6.657  1.1850 -1.2739 -1.3853
16680SOL     OW51480   3.980   6.726   7.016 -0.2974  0.0190  0.2237
16680SOL    HW151481   3.919   6.746   6.945 -0.5420  0.2773  0.5079
16680SOL    HW251482   4.067   6.731   6.975 -0.2524  2.5489  0.4523
16681SOL     OW51483   3.523   0.146   7.328  0.1840 -0.2155  0.3773
16681SOL    HW151484   3.451   0.203   7.355 -1.7594 -1.4346 -1.7395
16681SOL    HW251485   3.565   0.118   7.409 -2.0731  0.1928  1.7720
16682SOL     OW51486   4.629   6.731   7.221  0.7678 -0.1765  0.0202
16682SOL    HW151487   4.719   6.701   7.202  1.2968  1.2154  0.2362
16682SOL    HW251488   4.573   6.665   7.179  1.8811 -1.2484  0.1554
16683SOL     OW51489   5.692   6.853   6.747  0.0401 -0.2645 -0.0120
16683SOL    HW151490   5.603   6.829   6.719  0.6813 -2.5494 -0.2664
16683SOL    HW251491   5.695   6.948   6.738 -2.4563 -0.0956  0.2345
16684SOL     OW51492   3.568   5.375   8.044 -0.4194 -0.0757 -0.9152
16684SOL    HW151493   3.527   5.300   8.001 -0.6093 -0.6034  0.1323
16684SOL    HW251494   3.635   5.336   8.100 -1.0226  0.4538  0.2052
16685SOL     OW51495   3.342   0.887   7.478 -0.4247  0.2926 -0.2169
16685SOL    HW151496   3.366   0.951   7.411 -0.1193  0.5893  0.1781
16685SOL    HW251497   3.350   0.934   7.561 -0.1951 -0.2561  0.0745
16686SOL     OW51498   3.763   6.243   6.498  0.3554  0.6092  0.6792
16686SOL    HW151499   3.681   6.196   6.508  0.2111  0.6136 -0.4230
16686SOL    HW251500   3.811   6.195   6.431 -0.3725  2.7662 -1.5172
16687SOL     OW51501   3.957   6.819   5.542  1.1758  0.0085  0.4162
16687SOL    HW151502   4.046   6.814   5.576  0.7677  1.3455  1.7924
16687SOL    HW251503   3.961   6.884   5.472  0.9397  1.6403  1.8491
16688SOL     OW51504   5.963   4.495   6.794 -0.8657  0.3425  0.0885
16688SOL    HW151505   6.035   4.504   6.857  0.0897 -0.1462 -0.8772
16688SOL    HW251506   5.932   4.405   6.806  0.5959 -0.4137 -1.3777
16689SOL     OW51507   4.014   0.126   6.066  0.6006 -0.2178 -0.3132
16689SOL    HW151508   4.104   0.145   6.038  1.3079 -2.2843  0.4287
16689SOL    HW251509   4.022   0.105   6.159 -0.5694 -1.0186 -0.3841
16690SOL     OW51510   4.223   6.147   5.959  0.2993  0.5547  0.4932
16690SOL    HW151511   4.143   6.199   5.947 -0.4404 -0.9184 -1.6513
16690SOL    HW251512   4.291   6.211   5.979 -0.8589  2.2118 -0.6105
16691SOL     OW51513   6.070   6.041   8.026  0.2277  0.2115  0.1834
16691SOL    HW151514   6.105   6.108   7.967  0.3339  0.6358  0.7245
16691SOL    HW251515   5.975   6.048   8.018  0.1323  2.1639  2.1165
16692SOL     OW51516   4.651   5.258   5.796 -0.1232 -0.1018  0.5875
16692SOL    HW151517   4.671   5.244   5.888  0.5994 -1.3014  0.2676
16692SOL    HW251518   4.571   5.208   5.780  0.1061 -0.4233  0.4253
16693SOL     OW51519   4.131   7.400   7.165  0.6778  0.3405  0.1085
16693SOL    HW151520   4.119   7.364   7.253  0.2743  0.3102  0.0438
16693SOL    HW251521   4.088   7.486   7.169 -0.1818 -0.0681 -0.3380
16694SOL     OW51522   5.484   6.650   5.895  0.1615  0.1982  0.1823
16694SOL    HW151523   5.420   6.595   5.941  0.5906 -0.0828  0.4452
16694SOL    HW251524   5.552   6.590   5.867  0.9904  0.6928  1.0803
16695SOL     OW51525   6.015   5.637   7.907  0.8285 -0.2119 -0.3809
16695SOL    HW151526   6.087   5.697   7.886  0.5799  0.1295 -0.2576
16695SOL    HW251527   5.973   5.618   7.823  0.1006  0.8129 -0.2598
16696SOL     OW51528   6.418   7.535   6.681  0.0302 -0.6245  0.1843
16696SOL    HW151529   6.474   7.511   6.754  0.3222  2.1128  0.9609
16696SOL    HW251530   6.475   7.530   6.604  0.6223 -0.3954  0.6057
16697SOL     OW51531   6.233   6.811   6.586  0.0613 -0.2858 -0.0472
16697SOL    HW151532   6.144   6.817   6.553  0.7916 -1.1078 -2.3716
16697SOL    HW251533   6.239   6.722   6.623 -0.6047  0.4592  2.0074
16698SOL     OW51534   4.771   6.672   6.698  0.3111  0.0430 -0.2118
16698SOL    HW151535   4.733   6.732   6.635 -1.0858 -1.0071 -0.4211
16698SOL    HW251536   4.705   6.666   6.768  0.0389 -1.8003 -0.5725
16699SOL     OW51537   3.355   0.298   5.202 -1.2962  0.3498  0.9019
16699SOL    HW151538   3.412   0.310   5.278  0.0093  0.6984 -0.0978
16699SOL    HW251539   3.339   0.387   5.170  0.5650  0.1078 -0.9089
16700SOL     OW51540   5.163   5.328   6.096 -0.3210 -0.0815  0.0800
16700SOL    HW151541   5.084   5.321   6.042 -0.8791 -1.0341  0.9948
16700SOL    HW251542   5.134   5.375   6.174  0.7200  2.2557 -0.8489
16701SOL     OW51543   6.985   5.875   4.826 -0.1125  0.7846  0.3158
16701SOL    HW151544   6.951   5.814   4.762  1.6155  0.4212 -0.3000
16701SOL    HW251545   6.924   5.949   4.823 -0.7606  0.2313 -0.8240
16702SOL     OW51546   4.913   7.294   7.239 -0.4285 -0.2034 -0.3583
16702SOL    HW151547   4.884   7.255   7.321 -0.7014  1.5642  0.4370
16702SOL    HW251548   4.924   7.387   7.259  2.6102 -0.2055 -1.4843
16703SOL     OW51549   5.800   6.391   6.418 -0.5674  0.6280 -0.1849
16703SOL    HW151550   5.823   6.337   6.342  1.2127  2.2796 -0.9029
16703SOL    HW251551   5.708   6.370   6.435 -0.8983 -0.1162 -2.5184
16704SOL     OW51552   3.522   6.717   6.921 -0.8500 -0.4571 -0.2372
16704SOL    HW151553   3.484   6.739   7.006 -0.7314  2.0081 -0.7585
16704SOL    HW251554   3.448   6.688   6.869 -1.5772  1.4164 -0.3197
16705SOL     OW51555   5.941   6.237   6.217  0.2495  0.0380  0.3770
16705SOL    HW151556   5.932   6.246   6.122  2.2210 -0.5312  0.0871
16705SOL    HW251557   5.895   6.155   6.238 -0.5979  0.4054  0.0077
16706SOL     OW51558   5.248   7.413   7.163  0.6563 -0.7588 -0.1976
16706SOL    HW151559   5.163   7.427   7.120  0.3326  0.2981  0.7406
16706SOL    HW251560   5.310   7.464   7.111  0.4914 -0.5122 -0.1545
16707SOL     OW51561   5.231   4.628   6.754  0.0613 -0.3942  0.6780
16707SOL    HW151562   5.256   4.683   6.828  0.3608 -1.3261  1.2867
16707SOL    HW251563   5.169   4.682   6.704  1.2495  0.9405  0.5863
16708SOL     OW51564   2.418   6.017   8.614  0.2871  0.6958 -0.0360
16708SOL    HW151565   2.342   5.962   8.592 -1.0532  2.6132 -0.5266
16708SOL    HW251566   2.489   5.983   8.559 -0.4208 -0.6602 -0.1483
16709SOL     OW51567   4.439   6.874   5.938 -0.2351 -0.3286  0.1091
16709SOL    HW151568   4.512   6.818   5.962  1.1653  1.3795 -0.0389
16709SOL    HW251569   4.392   6.889   6.020 -0.2746 -1.1926  0.2557
16710SOL     OW51570   3.531   5.720   8.114 -0.1858  0.6258  0.4554
16710SOL    HW151571   3.575   5.688   8.035 -0.6195 -1.5650  1.0422
16710SOL    HW251572   3.589   5.788   8.148  1.0852  0.0898 -0.5707
16711SOL     OW51573   5.782   6.382   5.289  0.9448  0.1041 -0.0122
16711SOL    HW151574   5.846   6.314   5.271  2.2007  1.0133  0.8061
16711SOL    HW251575   5.701   6.350   5.251  1.4171 -1.9841  0.6229
16712SOL     OW51576   7.427   7.203   7.595  0.1842  0.2604  0.1835
16712SOL    HW151577   7.411   7.153   7.516  0.1008 -0.0292  0.3842
16712SOL    HW251578   7.369   7.165   7.661  0.9116 -0.1027  0.6296
16713SOL     OW51579   5.065   6.114   8.215  0.1266  0.4428 -0.8164
16713SOL    HW151580   5.009   6.190   8.230 -0.3083 -0.0033 -0.1642
16713SOL    HW251581   5.016   6.040   8.252  1.0520  0.0161 -0.4313
16714SOL     OW51582   5.448   7.935   7.031  0.3761  0.2159 -0.8824
16714SOL    HW151583   5.461   7.861   7.091 -1.3620 -1.6617 -2.6309
16714SOL    HW251584   5.374   7.983   7.068  0.3350  0.0127 -0.6974
16715SOL     OW51585   4.655   6.697   5.988  0.2778  0.6920  0.2767
16715SOL    HW151586   4.738   6.689   6.036  0.2847  0.1123  0.1766
16715SOL    HW251587   4.671   6.650   5.906  0.0560  1.1289 -0.0189
16716SOL     OW51588   3.705   7.065   6.409 -0.5588  0.3358 -0.1369
16716SOL    HW151589   3.634   7.021   6.457  0.1548 -0.0234  0.6142
16716SOL    HW251590   3.775   7.075   6.474  1.0343 -1.5386 -1.4680
16717SOL     OW51591   6.722   0.991   7.081 -0.3425 -0.0390 -0.0512
16717SOL    HW151592   6.738   0.913   7.135  2.8596 -1.4933 -2.7611
16717SOL    HW251593   6.798   1.046   7.096 -0.5767  0.6404 -1.2725
16718SOL     OW51594   3.712   5.568   7.888  0.1304 -0.3355 -0.1026
16718SOL    HW151595   3.674   5.526   7.811 -0.7928 -1.0593  0.7217
16718SOL    HW251596   3.703   5.504   7.958  3.1698 -0.6651  0.1108
16719SOL     OW51597   5.626   0.896   5.995  0.5366 -0.0314 -0.3329
16719SOL    HW151598   5.539   0.890   6.035  0.4654  2.2600 -0.0468
16719SOL    HW251599   5.672   0.819   6.028 -1.3553 -1.3103 -0.4936
16720SOL     OW51600   4.418   6.799   8.214 -0.1490 -0.4311 -0.6116
16720SOL    HW151601   4.388   6.785   8.124 -1.0072 -1.3264 -0.2133
16720SOL    HW251602   4.510   6.821   8.206 -0.3786  0.2255 -1.7523
16721SOL     OW51603   4.188   5.714   8.660  0.9194 -0.3054 -0.0755
16721SOL    HW151604   4.263   5.665   8.627  1.4178  1.4726 -1.8193
16721SOL    HW251605   4.118   5.697   8.596  0.6762  0.0951  0.0748
16722SOL     OW51606   2.614   5.550   5.925  0.5854  0.7265  0.4143
16722SOL    HW151607   2.529   5.591   5.939  0.0000 -0.5993  0.8937
16722SOL    HW251608   2.619   5.482   5.992  1.7424  0.3456 -0.0388
16723SOL     OW51609   5.499   5.644   5.948 -0.1642 -0.0122  0.0699
16723SOL    HW151610   5.512   5.584   6.022  0.0633  0.8451  0.7341
16723SOL    HW251611   5.418   5.613   5.907  0.8438 -1.8707 -0.6835
16724SOL     OW51612   4.183   0.183   4.629 -0.3260 -0.5087  0.8917
16724SOL    HW151613   4.143   0.097   4.618 -0.9812  0.0209 -1.2045
16724SOL    HW251614   4.112   0.245   4.615 -0.3583  0.4556  4.4103
16725SOL     OW51615   4.931   7.995   6.467  0.0613  0.4773  0.1210
16725SOL    HW151616   4.883   8.043   6.399 -1.1783 -1.3351 -0.3688
16725SOL    HW251617   4.868   7.931   6.500  1.7159 -1.0868  0.4361
16726SOL     OW51618   5.564   6.396   8.670  0.2503 -0.8552  0.5282
16726SOL    HW151619   5.632   6.397   8.603  1.2252 -1.6209  1.4628
16726SOL    HW251620   5.514   6.316   8.654 -1.9735  0.7830 -1.5548
16727SOL     OW51621   5.366   7.597   6.987  0.6980  1.1841  0.6693
16727SOL    HW151622   5.362   7.613   6.893  0.6449  0.1392  0.4889
16727SOL    HW251623   5.459   7.604   7.009  1.2871 -2.3491 -0.1822
16728SOL     OW51624   4.888   7.166   6.823 -0.0587 -0.1995 -0.3571
16728SOL    HW151625   4.829   7.228   6.865 -0.9494 -0.3415 -1.3728
16728SOL    HW251626   4.830   7.105   6.778  0.8504 -0.8385 -0.6784
16729SOL     OW51627   6.199   5.989   8.282  0.3761 -0.7180  0.3001
16729SOL    HW151628   6.108   5.981   8.311  0.1797 -0.1843 -0.1707
16729SOL    HW251629   6.194   6.008   8.189  0.8713  1.8822  0.7259
16730SOL     OW51630   5.240   1.157   5.960  0.0933  0.2015  0.1345
16730SOL    HW151631   5.322   1.121   5.926  0.5729  2.4132 -1.2278
16730SOL    HW251632   5.266   1.204   6.039 -0.4493 -1.8458  1.6058
16731SOL     OW51633   4.720   6.446   8.922  0.5713  0.4358 -0.2556
16731SOL    HW151634   4.754   6.361   8.893 -0.5637 -0.2449  0.3629
16731SOL    HW251635   4.726   6.502   8.844 -2.0774 -1.2584 -1.8279
16732SOL     OW51636   5.204   6.390   6.053  0.3543 -0.1993  0.1266
16732SOL    HW151637   5.134   6.455   6.048  0.9476  0.3258 -2.4048
16732SOL    HW251638   5.164   6.309   6.024  0.5931 -0.0629 -0.5991
16733SOL     OW51639   4.683   5.055   4.889 -0.5413  0.2557 -0.1773
16733SOL    HW151640   4.624   5.113   4.842  0.8991  0.9481 -1.2082
16733SOL    HW251641   4.727   5.111   4.952  0.3389  0.1483 -0.6846
16734SOL     OW51642   6.265   6.285   5.417  0.6151  0.2461  0.2447
16734SOL    HW151643   6.286   6.218   5.483 -1.4788 -0.5509  0.1864
16734SOL    HW251644   6.302   6.250   5.336 -0.7507 -1.0695  0.1450
16735SOL     OW51645   4.040   6.345   5.940  0.3373 -0.0704 -0.0034
16735SOL    HW151646   3.962   6.322   5.991 -0.4945 -0.8571 -1.5381
16735SOL    HW251647   4.047   6.440   5.949 -1.1488  0.0969 -0.2570
16736SOL     OW51648   6.217   7.269   5.878  0.1399  0.8008 -0.6310
16736SOL    HW151649   6.289   7.207   5.882 -1.3478 -1.0087 -0.4628
16736SOL    HW251650   6.155   7.231   5.816 -1.0289  1.8796 -0.1789
16737SOL     OW51651   4.881   1.240   6.953  0.2566  0.0148 -0.8118
16737SOL    HW151652   4.957   1.190   6.924  0.8345  0.1596  0.3930
16737SOL    HW251653   4.881   1.230   7.049 -1.9454 -1.0186 -0.8537
16738SOL     OW51654   5.751   7.768   6.374  0.3470  0.3937  0.0632
16738SOL    HW151655   5.714   7.799   6.292 -0.4516 -0.1650  0.2043
16738SOL    HW251656   5.787   7.682   6.353 -1.0130 -0.3299  0.5710
16739SOL     OW51657   4.585   6.260   4.233 -0.0744 -0.2299  0.5715
16739SOL    HW151658   4.637   6.214   4.167  0.5414  1.7285 -0.4020
16739SOL    HW251659   4.494   6.247   4.206  0.1885  1.0893 -1.1223
16740SOL     OW51660   5.765   6.790   6.145  0.3149 -0.5468 -0.4892
16740SOL    HW151661   5.787   6.744   6.227  0.3721 -0.5954 -0.5316
16740SOL    HW251662   5.678   6.757   6.122  0.7116 -1.2858 -0.9766
16741SOL     OW51663   3.041   6.012   6.850 -0.1132 -0.1182 -0.0898
16741SOL    HW151664   3.085   5.985   6.931  1.5067 -0.6352 -1.1055
16741SOL    HW251665   2.951   5.980   6.861  0.4854 -1.6257  0.8364
16742SOL     OW51666   2.817   6.661   5.628 -0.0046 -0.1601  0.3799
16742SOL    HW151667   2.907   6.634   5.610  0.7488  1.8792  0.8620
16742SOL    HW251668   2.799   6.628   5.716  0.8386  0.7363  0.9044
16743SOL     OW51669   5.204   5.683   7.288 -0.4271  0.0655  0.2381
16743SOL    HW151670   5.168   5.648   7.207 -0.4077  0.2783  0.1366
16743SOL    HW251671   5.291   5.643   7.296 -0.5022 -0.0928  0.2450
16744SOL     OW51672   6.610   5.910   7.973 -0.7442 -0.5426 -0.3526
16744SOL    HW151673   6.678   5.844   7.958  0.0356  0.3100 -0.6210
16744SOL    HW251674   6.587   5.901   8.065 -0.0190 -0.6108 -0.1726
16745SOL     OW51675   2.932   4.845   6.883 -0.8356  0.2219 -0.5576
16745SOL    HW151676   2.871   4.809   6.819  0.0917 -2.0662 -0.2295
16745SOL    HW251677   2.881   4.850   6.964 -0.5044 -2.2430 -0.1365
16746SOL     OW51678   7.250   7.216   6.662 -0.0836 -0.1045 -0.9809
16746SOL    HW151679   7.173   7.221   6.719 -0.4728  2.1005 -1.5979
16746SOL    HW251680   7.225   7.265   6.584  1.3223 -0.9181 -1.9907
16747SOL     OW51681   4.071   6.068   4.894  0.2502  0.3706 -0.6012
16747SOL    HW151682   4.052   5.998   4.831  2.3787 -0.8544 -0.0034
16747SOL    HW251683   4.000   6.062   4.958 -0.4943 -0.1357 -1.4416
16748SOL     OW51684   4.353   0.093   6.695  0.3975  0.2001  0.9195
16748SOL    HW151685   4.346   0.175   6.743 -1.9038  1.0464 -0.7016
16748SOL    HW251686   4.409   0.114   6.620 -0.5360  0.4439  0.2753
16749SOL     OW51687   3.569   5.405   6.251  0.2322  0.2833  0.0070
16749SOL    HW151688   3.617   5.339   6.301 -0.8903  0.7403  1.8158
16749SOL    HW251689   3.632   5.475   6.237  0.7952 -0.1968  0.0939
16750SOL     OW51690   4.667   6.451   6.890  0.0314 -0.2001  0.0009
16750SOL    HW151691   4.733   6.467   6.958  1.7018 -0.9872 -1.3479
16750SOL    HW251692   4.603   6.394   6.932  0.1710  0.6049  1.3671
16751SOL     OW51693   4.390   7.375   4.499  0.7576  0.0122 -0.3113
16751SOL    HW151694   4.478   7.348   4.527 -0.1574 -2.5853  0.3397
16751SOL    HW251695   4.382   7.343   4.409  0.9000  1.4005 -0.8411
16752SOL     OW51696   3.827   5.532   8.303  0.3897 -0.2361 -0.5876
16752SOL    HW151697   3.852   5.510   8.392  0.6538 -1.2761 -0.9087
16752SOL    HW251698   3.787   5.452   8.268  0.2219  0.1784 -1.3744
16753SOL     OW51699   5.536   6.193   7.091 -0.4485  0.1234  0.2690
16753SOL    HW151700   5.453   6.231   7.064 -0.4755  0.5477  0.9214
16753SOL    HW251701   5.597   6.267   7.092  0.0399 -0.2517 -0.5837
16754SOL     OW51702   5.368   5.844   5.324  0.6050 -0.3393 -0.7436
16754SOL    HW151703   5.458   5.877   5.324  0.9246 -1.1894 -1.3996
16754SOL    HW251704   5.369   5.770   5.384  0.1710  0.0658 -0.2242
16755SOL     OW51705   4.892   5.602   6.107 -0.1710  0.5281 -0.3445
16755SOL    HW151706   4.986   5.590   6.123  0.0111 -0.0388 -1.7482
16755SOL    HW251707   4.881   5.696   6.097 -0.1367  0.8446  1.8812
16756SOL     OW51708   4.280   1.185   6.194  0.4211 -0.1137 -0.0791
16756SOL    HW151709   4.218   1.156   6.128  2.0866 -0.7399 -1.4292
16756SOL    HW251710   4.257   1.277   6.210 -1.3670 -0.5590  0.1238
16757SOL     OW51711   5.193   7.131   5.888  0.2299 -0.4807 -0.3669
16757SOL    HW151712   5.201   7.159   5.797 -0.2343 -0.7849 -0.5056
16757SOL    HW251713   5.282   7.138   5.923  0.6887 -1.6486 -1.2233
16758SOL     OW51714   4.043   5.909   7.245  0.1802  0.6745  0.8838
16758SOL    HW151715   4.001   5.827   7.222  0.4156  0.4091  1.3887
16758SOL    HW251716   4.121   5.912   7.189 -0.4280  1.1012  0.0510
16759SOL     OW51717   4.581   6.114   8.789 -0.3870 -0.2937  0.7266
16759SOL    HW151718   4.671   6.100   8.819 -0.5298  0.1006  1.3456
16759SOL    HW251719   4.533   6.037   8.819 -0.2952 -0.4295  0.5312
16760SOL     OW51720   3.118   5.882   7.090  0.5047  0.1099 -0.0058
16760SOL    HW151721   3.165   5.929   7.158  0.6911  0.9985 -0.7278
16760SOL    HW251722   3.049   5.834   7.137  1.1703  0.0054  0.8898
16761SOL     OW51723   2.765   7.548   8.099  0.2198  0.0441  0.3088
16761SOL    HW151724   2.834   7.602   8.137  1.2761 -1.1845  0.2190
16761SOL    HW251725   2.730   7.599   8.027  2.6681 -0.2223 -1.1707
16762SOL     OW51726   4.270   6.199   9.400 -0.0511  0.2189  0.1869
16762SOL    HW151727   4.291   6.231   9.488  0.3047  0.6918 -0.0628
16762SOL    HW251728   4.264   6.104   9.409  0.3125  0.2399  0.6529
16763SOL     OW51729   7.586   6.696   7.466  0.7590 -0.3450 -0.4849
16763SOL    HW151730   7.643   6.771   7.448  0.6938 -0.1437  0.1245
16763SOL    HW251731   7.503   6.735   7.491  0.7030 -0.6231 -0.2346
16764SOL     OW51732   6.242   0.814   6.793 -0.3614  0.1615  0.0543
16764SOL    HW151733   6.163   0.865   6.779 -0.8423 -0.9778 -1.7327
16764SOL    HW251734   6.289   0.861   6.861 -2.2241  1.2606  0.6579
16765SOL     OW51735   3.445   6.070   7.486  0.6373 -0.5114  0.2273
16765SOL    HW151736   3.530   6.092   7.447  1.3197  0.8903  2.3065
16765SOL    HW251737   3.464   5.992   7.540 -0.0345 -1.7472 -1.2486
16766SOL     OW51738   4.140   5.009  10.101  0.4803 -0.5717  0.0346
16766SOL    HW151739   4.066   5.042  10.050 -0.8481  0.2070  2.3497
16766SOL    HW251740   4.136   4.914  10.091  0.3174 -0.4412 -1.3296
16767SOL     OW51741   4.637   5.541   9.823  0.0105 -0.0701 -0.2244
16767SOL    HW151742   4.668   5.456   9.855  0.5753  0.4109  0.5449
16767SOL    HW251743   4.716   5.595   9.819 -0.4006  0.5277 -0.3495
16768SOL     OW51744   3.279   6.641   6.771  0.2948  0.0196  0.6794
16768SOL    HW151745   3.215   6.579   6.736  0.8792 -1.5213  2.1860
16768SOL    HW251746   3.230   6.724   6.778 -1.3246 -0.9081  1.0400
16769SOL     OW51747   3.354   7.316   8.695 -0.1117  0.4614  0.5056
16769SOL    HW151748   3.396   7.278   8.618  0.4184 -0.7998  1.3690
16769SOL    HW251749   3.360   7.410   8.683  0.7348  0.2817 -0.5789
16770SOL     OW51750   3.898   6.125   9.401  0.3163 -0.0847  0.3144
16770SOL    HW151751   3.939   6.181   9.334  0.9186  0.6649  1.2846
16770SOL    HW251752   3.811   6.163   9.414 -1.1617 -2.1898 -2.3769
16771SOL     OW51753   4.324   5.357  10.293  0.2457 -0.0013 -0.4650
16771SOL    HW151754   4.247   5.314  10.330 -0.7100  1.4105 -0.7231
16771SOL    HW251755   4.304   5.450  10.297  1.0400  0.3130 -2.4653
16772SOL     OW51756   4.659   7.679   9.353 -0.6613  0.0896  0.0228
16772SOL    HW151757   4.667   7.635   9.438 -0.2405  0.3489  0.1235
16772SOL    HW251758   4.575   7.724   9.357 -1.3508 -1.1339 -0.2894
16773SOL     OW51759   4.388   6.856   9.726  0.0605 -0.6412 -0.9246
16773SOL    HW151760   4.478   6.846   9.757  0.4814 -1.6535 -2.3430
16773SOL    HW251761   4.339   6.885   9.802  1.6269  0.1255 -0.1712
16774SOL     OW51762   3.895   7.092   9.895 -0.1957 -0.4626  0.0513
16774SOL    HW151763   3.982   7.055   9.887 -0.9667 -2.1799 -0.9506
16774SOL    HW251764   3.847   7.056   9.821 -1.1084  2.4010 -0.8800
16775SOL     OW51765   3.696   7.476   8.418  0.4791  0.4455 -0.5069
16775SOL    HW151766   3.737   7.500   8.501 -1.9182 -2.2275  1.6629
16775SOL    HW251767   3.605   7.505   8.426 -0.0405 -0.7153 -1.7657
16776SOL     OW51768   4.573   6.964   7.701  0.4953  0.6340 -0.0482
16776SOL    HW151769   4.644   6.966   7.636 -2.3736 -1.1051 -3.6234
16776SOL    HW251770   4.593   6.887   7.755  1.4985  0.3467 -0.7871
16777SOL     OW51771   5.170   6.799   9.329 -0.3221  0.1915 -0.3665
16777SOL    HW151772   5.194   6.709   9.305  1.6899  0.6157 -0.1409
16777SOL    HW251773   5.163   6.797   9.424 -1.9058 -0.0545 -0.4623
16778SOL     OW51774   5.094   6.527   7.764  0.0539 -0.7950 -0.6610
16778SOL    HW151775   5.134   6.614   7.769  0.4793 -1.0110 -0.2800
16778SOL    HW251776   5.071   6.518   7.671 -0.9211  0.1264 -0.5346
16779SOL     OW51777   5.190   4.803   7.842 -0.4055 -0.3783 -0.4062
16779SOL    HW151778   5.117   4.865   7.848 -0.0848  0.3923 -3.0754
16779SOL    HW251779   5.170   4.751   7.763  1.6051 -0.5423 -0.8503
16780SOL     OW51780   3.614   5.354   8.866  1.1151  0.1256  0.3888
16780SOL    HW151781   3.589   5.443   8.890 -0.1785 -0.1121 -0.0078
16780SOL    HW251782   3.587   5.301   8.941 -2.0846 -0.4894 -1.0273
16781SOL     OW51783   7.038   0.656   8.397  0.1960  0.1951  0.2627
16781SOL    HW151784   7.081   0.577   8.366 -0.2115  0.2731 -0.5446
16781SOL    HW251785   7.108   0.711   8.429  0.6433  0.0766 -0.4782
16782SOL     OW51786   2.856   7.225   9.180  0.0650  0.3320  0.0695
16782SOL    HW151787   2.833   7.148   9.233  1.6373  1.1200  2.0743
16782SOL    HW251788   2.923   7.270   9.232  0.0328  2.4538 -1.5755
16783SOL     OW51789   5.620   4.779   6.501  0.3157 -0.3603  0.0545
16783SOL    HW151790   5.544   4.721   6.507  0.3952 -0.2772  3.5107
16783SOL    HW251791   5.681   4.733   6.442 -1.2006 -1.8220 -0.4489
16784SOL     OW51792   5.194   6.334   8.991  0.4638  0.1557  0.0226
16784SOL    HW151793   5.136   6.330   9.067 -0.6624 -0.7872 -0.8211
16784SOL    HW251794   5.134   6.344   8.917  1.5689  1.7204 -0.7022
16785SOL     OW51795   5.207   0.040  10.680 -0.4883  0.6723  0.2497
16785SOL    HW151796   5.302   0.036  10.670 -0.5257 -0.1971  0.1152
16785SOL    HW251797   5.188  -0.018  10.753 -0.9919  0.0188 -0.3822
16786SOL     OW51798   5.527   7.290   9.619 -0.1296 -0.1446 -0.4076
16786SOL    HW151799   5.619   7.305   9.639 -0.1847  0.5783 -0.6797
16786SOL    HW251800   5.528   7.211   9.565  0.5284  0.8487 -1.9249
16787SOL     OW51801   5.447   7.169   9.919  0.1658 -0.1082  0.1067
16787SOL    HW151802   5.454   7.186   9.825 -1.7912  1.0716  0.0952
16787SOL    HW251803   5.411   7.081   9.925 -0.4598  0.1050 -0.3151
16788SOL     OW51804   4.749   5.824   8.070 -0.0607 -0.2648 -0.1475
16788SOL    HW151805   4.690   5.761   8.113 -0.4815  0.1651 -0.0874
16788SOL    HW251806   4.692   5.897   8.046  0.4890  0.2424  0.0801
16789SOL     OW51807   2.700   5.534   8.509 -0.4694 -0.1712 -0.2925
16789SOL    HW151808   2.737   5.603   8.454 -0.2951  0.5221  0.6655
16789SOL    HW251809   2.612   5.519   8.474  0.0991 -0.6916 -1.5774
16790SOL     OW51810   5.077   7.403   9.128 -0.0489  0.1655 -0.3489
16790SOL    HW151811   5.011   7.471   9.113  0.1245 -0.0790 -2.5241
16790SOL    HW251812   5.028   7.321   9.121  0.1585  0.0118 -0.0345
16791SOL     OW51813   5.770   7.437   8.625 -0.7185 -0.0746  0.0295
16791SOL    HW151814   5.783   7.529   8.599 -1.3372  0.1889  0.6200
16791SOL    HW251815   5.685   7.414   8.587 -0.5051 -0.4464 -0.2217
16792SOL     OW51816   3.346   4.610  10.806  0.0411  0.3498  0.3583
16792SOL    HW151817   3.362   4.565  10.723 -0.6059  0.6233  0.0825
16792SOL    HW251818   3.403   4.565  10.869  0.7032  0.2844 -0.2773
16793SOL     OW51819   3.949   6.571   8.946 -0.0365  0.0641 -0.0671
16793SOL    HW151820   4.020   6.635   8.949 -0.0159  0.0234  0.2892
16793SOL    HW251821   3.869   6.622   8.960 -0.1837  0.2744 -1.5348
16794SOL     OW51822   6.271   7.635   7.305  0.2009  0.7439 -0.2017
16794SOL    HW151823   6.334   7.627   7.233  0.5634 -0.0127  0.1918
16794SOL    HW251824   6.324   7.632   7.384 -0.2778  0.6772  0.1212
16795SOL     OW51825   4.785   7.040   7.946 -0.1641 -0.0881  0.3993
16795SOL    HW151826   4.770   7.103   8.016 -1.4544 -0.5464  0.5645
16795SOL    HW251827   4.741   6.961   7.975  0.7584 -0.8322 -0.1666
16796SOL     OW51828   5.403   4.305   8.183 -0.5502 -0.7371 -0.9090
16796SOL    HW151829   5.346   4.237   8.146  0.3353 -1.3321 -1.2492
16796SOL    HW251830   5.364   4.387   8.156 -0.6473 -1.1494 -2.1050
16797SOL     OW51831   5.717   6.453   8.218 -0.2861 -0.3229  0.3383
16797SOL    HW151832   5.772   6.531   8.221  0.0434 -0.5435  0.1545
16797SOL    HW251833   5.714   6.422   8.309 -0.2747 -0.1952  0.3830
16798SOL     OW51834   3.286   6.122   9.673  0.1413 -0.8555 -0.2631
16798SOL    HW151835   3.305   6.198   9.728 -0.8490  0.0499 -1.1239
16798SOL    HW251836   3.212   6.079   9.716 -0.0409 -0.6745 -0.3967
16799SOL     OW51837   5.588   4.749   8.176  0.3386 -0.0970 -0.1273
16799SOL    HW151838   5.612   4.669   8.129  0.5956 -0.9186  1.3373
16799SOL    HW251839   5.532   4.718   8.248 -0.9457  1.2411 -0.5034
16800SOL     OW51840   6.455   7.294   8.971  0.1965 -0.0999 -0.2511
16800SOL    HW151841   6.549   7.307   8.977  0.2825 -1.2400  1.4499
16800SOL    HW251842   6.435   7.311   8.879  2.4108 -1.9108 -1.1750
16801SOL     OW51843   4.138   5.948   9.322 -0.6816 -0.7367  0.5736
16801SOL    HW151844   4.165   6.006   9.250  0.1801 -0.1857  1.3195
16801SOL    HW251845   4.063   5.992   9.361 -2.0638 -1.7347 -0.8321
16802SOL     OW51846   5.397   5.788   8.207 -0.0589  0.4381  0.1312
16802SOL    HW151847   5.358   5.864   8.251  0.3320  0.0414  1.1713
16802SOL    HW251848   5.343   5.714   8.235  0.5990  0.0876  0.4738
16803SOL     OW51849   3.181   6.811   8.314  0.4864  0.0509  0.1049
16803SOL    HW151850   3.117   6.803   8.243 -1.1411 -0.6928  1.5670
16803SOL    HW251851   3.257   6.760   8.284  0.3861  0.8684 -1.6356
16804SOL     OW51852   4.765   0.071  10.072  0.4399 -0.5522 -0.4175
16804SOL    HW151853   4.754   0.035  10.160  1.6954  2.0736  0.9476
16804SOL    HW251854   4.683   0.051  10.026 -1.7431  1.0227  2.5116
16805SOL     OW51855   4.277   6.012   8.276  0.2215  0.8282  0.4163
16805SOL    HW151856   4.208   5.945   8.269 -0.5926  1.4963  1.6259
16805SOL    HW251857   4.342   5.986   8.211  0.1440 -1.3938  1.1276
16806SOL     OW51858   4.330   6.427   8.810 -0.2840  0.6040  0.5047
16806SOL    HW151859   4.269   6.431   8.736  0.2218  0.5382  0.0772
16806SOL    HW251860   4.273   6.428   8.887 -0.8151  0.8042  0.1228
16807SOL     OW51861   2.654   6.419   6.365  0.1197 -0.1231  0.0224
16807SOL    HW151862   2.595   6.451   6.433  1.0217  0.5914  0.4821
16807SOL    HW251863   2.665   6.326   6.385  2.1116  0.5124  2.2092
16808SOL     OW51864   4.540   5.180   9.672  0.0616  0.3129  0.8075
16808SOL    HW151865   4.542   5.250   9.607 -0.9259 -2.2624 -2.2599
16808SOL    HW251866   4.612   5.122   9.648 -0.7906 -1.1108  1.5353
16809SOL     OW51867   4.713   7.703  10.326 -0.3703 -0.3824 -0.3259
16809SOL    HW151868   4.721   7.612  10.353 -1.4717 -0.2792  0.4247
16809SOL    HW251869   4.713   7.701  10.231 -0.5323 -1.1831 -0.3130
16810SOL     OW51870   2.036   6.673   9.308  0.9699  0.5349  0.0744
16810SOL    HW151871   1.987   6.641   9.232  0.7920  1.9007 -0.4109
16810SOL    HW251872   1.975   6.732   9.353  1.6046  0.9647  0.3867
16811SOL     OW51873   6.852   7.025   7.932  0.6350 -0.4534  0.5414
16811SOL    HW151874   6.911   7.001   8.004  2.0925 -0.0470 -0.4741
16811SOL    HW251875   6.784   6.958   7.933  2.5576 -2.5152  0.1150
16812SOL     OW51876   6.112   6.543   8.836  0.1844  0.4433  0.0278
16812SOL    HW151877   6.088   6.625   8.793 -1.7310  0.4375  0.9905
16812SOL    HW251878   6.079   6.553   8.925  1.2508 -0.8082  0.5950
16813SOL     OW51879   3.862   7.552   6.330 -0.3762 -0.1962 -0.5227
16813SOL    HW151880   3.836   7.621   6.392  0.4167  0.2336 -0.6510
16813SOL    HW251881   3.791   7.488   6.334  0.0942 -0.6661  1.5531
16814SOL     OW51882   5.376   5.236   9.723 -0.1807 -0.1183  0.5445
16814SOL    HW151883   5.329   5.234   9.807 -0.3730 -0.5763  0.4278
16814SOL    HW251884   5.433   5.159   9.725  0.7724  0.5767  0.7977
16815SOL     OW51885   4.539   6.736  10.561 -0.4193  0.3756  0.1929
16815SOL    HW151886   4.453   6.726  10.522  0.0303  0.6462 -0.8870
16815SOL    HW251887   4.589   6.660  10.530  0.0545  0.7871 -0.0529
16816SOL     OW51888   4.141   7.788   6.130 -0.1525 -0.0731  0.1500
16816SOL    HW151889   4.135   7.693   6.143  0.3007  0.0480  1.4993
16816SOL    HW251890   4.132   7.824   6.219  0.2280  1.1089 -0.2734
16817SOL     OW51891   4.510   5.419   9.523  0.2287 -0.7375 -0.4930
16817SOL    HW151892   4.491   5.512   9.539  0.0764 -0.6546 -1.1012
16817SOL    HW251893   4.587   5.421   9.466  2.5958 -1.0706  2.4525
16818SOL     OW51894   6.160   7.332   7.660 -0.0638 -0.2974 -0.4814
16818SOL    HW151895   6.128   7.245   7.681 -1.7973  0.1393 -1.1401
16818SOL    HW251896   6.206   7.322   7.576 -0.9402 -0.4555 -0.9523
16819SOL     OW51897   4.146   6.559   7.224 -0.0206 -0.2649  0.3095
16819SOL    HW151898   4.224   6.566   7.169 -0.5631  0.2295 -0.4215
16819SOL    HW251899   4.075   6.544   7.162 -0.6993  0.6806  0.8378
16820SOL     OW51900   4.757   4.692  10.214  0.1554 -0.1548 -0.5848
16820SOL    HW151901   4.725   4.717  10.301  1.4313 -0.7609  0.0916
16820SOL    HW251902   4.706   4.616  10.190 -0.3335  0.1266 -0.4481
16821SOL     OW51903   3.273   7.215   8.178  0.1177 -0.0491  0.0292
16821SOL    HW151904   3.364   7.197   8.202  1.0483  0.8903 -2.4596
16821SOL    HW251905   3.263   7.309   8.194 -0.4255 -0.1622  0.3418
16822SOL     OW51906   4.132   6.391   9.032 -1.0853  0.3061  0.1008
16822SOL    HW151907   4.103   6.357   9.117 -1.9675 -0.3868 -0.4538
16822SOL    HW251908   4.060   6.447   9.003 -1.0852  0.0136 -0.4846
16823SOL     OW51909   3.841   7.588   9.559 -0.0836 -0.0717 -0.1278
16823SOL    HW151910   3.914   7.575   9.619  1.0995  0.0720 -1.4713
16823SOL    HW251911   3.868   7.543   9.479 -0.6924  1.4122 -1.2207
16824SOL     OW51912   5.999   5.100   8.553 -0.6339 -0.4296  0.2876
16824SOL    HW151913   6.071   5.072   8.610 -1.2218 -3.3595 -0.2449
16824SOL    HW251914   5.953   5.167   8.603  1.2515  0.0617  1.4723
16825SOL     OW51915   4.328   5.702   5.959 -0.1409  0.0408 -0.1613
16825SOL    HW151916   4.337   5.638   6.030  0.0478  0.4034  0.1494
16825SOL    HW251917   4.233   5.714   5.949 -0.1766  1.1240  1.0921
16826SOL     OW51918   4.275   6.383   7.527 -0.2459 -0.3740  0.1921
16826SOL    HW151919   4.197   6.330   7.545 -0.3504 -0.4164 -0.3517
16826SOL    HW251920   4.267   6.406   7.434 -0.0689  0.3766  0.3550
16827SOL     OW51921   4.925   7.098   9.400 -0.2971 -0.4484  0.1823
16827SOL    HW151922   4.970   7.031   9.348  1.9956 -0.4110  1.9678
16827SOL    HW251923   4.921   7.174   9.342  1.6023 -0.6124 -0.2308
16828SOL     OW51924   6.725   7.288   9.080  0.3183 -0.0777  0.3348
16828SOL    HW151925   6.777   7.208   9.075  1.1976  0.4621  0.5028
16828SOL    HW251926   6.737   7.319   9.170  1.2434  1.0289 -0.1341
16829SOL     OW51927   2.560   0.397   8.581  0.2350  0.3592 -0.3376
16829SOL    HW151928   2.573   0.422   8.489 -0.7947 -0.8705 -0.8591
16829SOL    HW251929   2.645   0.362   8.608  0.8346  1.6365 -0.4896
16830SOL     OW51930   5.058   4.305   9.170 -0.0742 -0.2029  0.0077
16830SOL    HW151931   4.979   4.275   9.214 -0.1016  1.0027  0.8108
16830SOL    HW251932   5.029   4.326   9.081 -0.6719  0.2523  0.3025
16831SOL     OW51933   4.657   4.762   7.472  0.0105 -0.2065 -0.3800
16831SOL    HW151934   4.662   4.674   7.508  0.8554  0.0840  0.2468
16831SOL    HW251935   4.574   4.797   7.505 -1.5841 -1.5918 -2.6441
16832SOL     OW51936   5.773   5.505   6.394  0.0826  0.0727  0.1126
16832SOL    HW151937   5.686   5.522   6.358  0.1025  0.8847  0.4222
16832SOL    HW251938   5.772   5.412   6.417 -1.9713  0.7348  3.4279
16833SOL     OW51939   4.223   5.602   8.180  0.0613 -0.0306 -0.2776
16833SOL    HW151940   4.163   5.533   8.208 -0.6047  0.7331  0.2565
16833SOL    HW251941   4.176   5.683   8.199  0.7115  0.5717 -1.1341
16834SOL     OW51942   4.355   4.864   7.599  0.2677  0.0440 -0.0438
16834SOL    HW151943   4.319   4.944   7.561  0.2379  0.5650  1.0559
16834SOL    HW251944   4.282   4.802   7.597 -0.4718  0.8168  1.3451
16835SOL     OW51945   4.783   4.288   9.233  0.2828 -0.7910 -0.0150
16835SOL    HW151946   4.692   4.267   9.251 -0.1380  1.5614  0.9727
16835SOL    HW251947   4.782   4.331   9.148  0.1156  1.0742  0.8868
16836SOL     OW51948   6.770   6.140   9.682  0.0530  0.2498  0.5577
16836SOL    HW151949   6.803   6.051   9.692  2.3718  1.1428  1.5178
16836SOL    HW251950   6.832   6.182   9.622 -0.3469  1.5128  0.9941
16837SOL     OW51951   3.370   7.175   8.929 -0.1315 -0.1447  0.2631
16837SOL    HW151952   3.355   7.231   8.853  1.1317 -0.7930 -0.4890
16837SOL    HW251953   3.284   7.170   8.973 -1.0843 -0.3825 -1.5384
16838SOL     OW51954   5.255   6.234   7.017 -0.2380  0.4815 -0.2183
16838SOL    HW151955   5.252   6.283   6.936 -3.0086  1.0956  0.1679
16838SOL    HW251956   5.192   6.163   7.005 -0.8862  0.7305  1.4545
16839SOL     OW51957   3.338   5.891   8.575 -0.2098 -0.3773  0.1894
16839SOL    HW151958   3.414   5.874   8.519 -0.2849  0.9695 -0.3583
16839SOL    HW251959   3.266   5.844   8.533 -0.3639  0.9665 -1.1341
16840SOL     OW51960   3.858   6.809   8.452  0.1013  0.6748  0.0067
16840SOL    HW151961   3.771   6.811   8.492 -0.3479  1.0495 -0.9525
16840SOL    HW251962   3.867   6.895   8.411  0.5529  0.3102 -0.6752
16841SOL     OW51963   3.089   4.885   8.791 -0.5623 -0.4009 -0.3554
16841SOL    HW151964   3.129   4.899   8.705 -2.0894  1.9443 -0.7909
16841SOL    HW251965   3.129   4.951   8.847 -1.4935 -0.1506  0.0287
16842SOL     OW51966   3.517   5.807   6.566  0.1680  0.1476  0.0140
16842SOL    HW151967   3.600   5.835   6.605  0.8013 -1.5631  0.0278
16842SOL    HW251968   3.519   5.842   6.477 -0.1689  2.0313  0.7067
16843SOL     OW51969   5.118   0.644   9.474  0.0229 -0.4149 -0.5044
16843SOL    HW151970   5.092   0.552   9.482 -0.3924 -0.3439 -1.0118
16843SOL    HW251971   5.208   0.646   9.506  0.4592 -1.2176 -1.6268
16844SOL     OW51972   5.112   7.024   9.183  0.1515  0.1782  0.1133
16844SOL    HW151973   5.181   7.084   9.157  0.6518 -0.0776  0.8095
16844SOL    HW251974   5.158   6.952   9.227 -0.5718  0.1018  0.7658
16845SOL     OW51975   5.075   5.601   8.181 -0.0046 -1.1784 -0.9559
16845SOL    HW151976   4.992   5.573   8.221  0.9978 -0.3188  2.0066
16845SOL    HW251977   5.128   5.522   8.179 -0.3160 -1.3832 -1.3088
16846SOL     OW51978   3.592   0.971   6.195 -0.0258  0.1167 -0.6615
16846SOL    HW151979   3.650   1.031   6.241 -0.6490  0.5991 -0.5022
16846SOL    HW251980   3.635   0.886   6.202  0.8421  0.5311 -0.8533
16847SOL     OW51981   4.391   6.777   7.953 -0.3822  0.3802  0.0943
16847SOL    HW151982   4.424   6.749   7.868 -2.2105 -1.4034 -0.1138
16847SOL    HW251983   4.299   6.800   7.936 -0.4190  1.2557  1.3492
16848SOL     OW51984   6.971   6.044   7.513  0.0621  0.1033  0.6039
16848SOL    HW151985   7.026   5.976   7.475 -0.6892  0.2338 -0.7963
16848SOL    HW251986   7.032   6.109   7.547  0.7763 -0.9333  1.3507
16849SOL     OW51987   3.744   5.521   7.467 -0.5135  0.2468  0.5331
16849SOL    HW151988   3.703   5.549   7.385  0.8142 -1.0077 -0.6223
16849SOL    HW251989   3.811   5.587   7.484  1.6378 -1.2625 -1.4080
16850SOL     OW51990   4.596   5.638   8.214 -0.8755  0.5243  0.5409
16850SOL    HW151991   4.553   5.575   8.272 -1.3419  0.2347 -0.1007
16850SOL    HW251992   4.554   5.624   8.129  1.1489 -0.4520 -0.3635
16851SOL     OW51993   5.133   6.971  11.500 -0.1604  0.3485 -0.4122
16851SOL    HW151994   5.199   7.012  11.444 -2.3355  2.4068 -1.6407
16851SOL    HW251995   5.070   6.934  11.439 -2.0050  1.6246  0.6236
16852SOL     OW51996   6.575   0.281   9.651 -0.3131  0.3806  0.3843
16852SOL    HW151997   6.655   0.231   9.635 -1.7956 -2.3736  0.9641
16852SOL    HW251998   6.546   0.309   9.564 -0.3992 -1.4800 -0.2361
16853SOL     OW51999   2.722   6.423   9.460 -0.2390  0.0992  0.1365
16853SOL    HW152000   2.645   6.442   9.406 -0.9278 -1.1033  0.6672
16853SOL    HW252001   2.751   6.337   9.431  0.1839  0.0237  0.7767
16854SOL     OW52002   4.240   7.818   9.525 -0.8616  0.1061 -0.3443
16854SOL    HW152003   4.296   7.745   9.501  0.3802  0.5884  0.8986
16854SOL    HW252004   4.213   7.799   9.615 -0.8509  0.9580 -0.1453
16855SOL     OW52005   5.172   6.014   8.876 -0.0795  0.4945 -0.2341
16855SOL    HW152006   5.265   5.990   8.872  0.3119  1.9245 -0.1559
16855SOL    HW252007   5.147   6.025   8.784 -0.6988 -1.6719 -0.3828
16856SOL     OW52008   6.509   6.284   9.550 -0.6563 -0.0722  0.6664
16856SOL    HW152009   6.533   6.193   9.565 -0.0468 -0.0423 -0.0710
16856SOL    HW252010   6.425   6.295   9.595 -1.3467 -1.3325 -0.2718
16857SOL     OW52011   4.426   6.222   8.191 -0.1009 -0.2150  0.2778
16857SOL    HW152012   4.388   6.278   8.123 -0.2729 -0.2126  0.3745
16857SOL    HW252013   4.361   6.153   8.203 -0.3900  0.1717  0.9363
16858SOL     OW52014   4.674   7.071  10.567 -0.4585 -0.2202 -0.0460
16858SOL    HW152015   4.742   7.116  10.617 -0.9970  0.7898 -0.1914
16858SOL    HW252016   4.592   7.090  10.614 -0.6078 -1.9077  0.4698
16859SOL     OW52017   4.270   6.811  10.313 -0.0574  0.5752 -0.1228
16859SOL    HW152018   4.364   6.811  10.292  0.2960 -0.7588  1.3045
16859SOL    HW252019   4.262   6.752  10.388 -1.9845  1.0559  0.0967
16860SOL     OW52020   4.292   6.162   7.155 -0.5145  0.2159 -0.1291
16860SOL    HW152021   4.316   6.109   7.230  1.8884  2.2087  0.6637
16860SOL    HW252022   4.230   6.226   7.189  0.0803  0.7136  0.0442
16861SOL     OW52023   4.892   6.332   8.267 -0.6656 -0.4907  0.4026
16861SOL    HW152024   4.832   6.291   8.205  0.5272 -1.2470 -0.2869
16861SOL    HW252025   4.905   6.421   8.233 -1.7149 -0.1837  0.7935
16862SOL     OW52026   5.370   6.786   7.530  0.6184  0.1508 -0.0255
16862SOL    HW152027   5.339   6.703   7.494  0.1048  0.7179 -0.9062
16862SOL    HW252028   5.381   6.843   7.455 -2.4705  2.0393  0.8019
16863SOL     OW52029   3.965   7.195   8.051  0.4035  0.0034 -0.1779
16863SOL    HW152030   4.039   7.197   8.112  1.3204  4.1238 -1.1258
16863SOL    HW252031   3.903   7.259   8.087  1.2942  3.1679 -3.6452
16864SOL     OW52032   4.628   6.168   9.303 -0.1020 -0.5470  0.1455
16864SOL    HW152033   4.641   6.088   9.253 -3.0606 -0.4340 -0.9919
16864SOL    HW252034   4.628   6.238   9.238  3.4382  0.6541  1.2145
16865SOL     OW52035   5.175   5.794   8.527  0.4488  0.4681 -0.0218
16865SOL    HW152036   5.270   5.790   8.541  0.7522  2.4527 -1.1019
16865SOL    HW252037   5.154   5.887   8.534 -1.5072  0.0093  0.6084
16866SOL     OW52038   4.165   6.477   8.576  0.1856  0.0277  0.6819
16866SOL    HW152039   4.181   6.474   8.482 -0.2151 -0.4714  0.6250
16866SOL    HW252040   4.120   6.560   8.590  1.8636  0.9884  0.7082
16867SOL     OW52041   3.014   5.522  10.248 -0.0102 -0.5404 -0.0225
16867SOL    HW152042   3.032   5.549  10.338 -0.5797  1.0947 -0.3647
16867SOL    HW252043   3.099   5.526  10.205 -0.0664  0.6567 -0.0353
16868SOL     OW52044   5.425   6.063   8.811 -0.1210 -0.5552  0.1722
16868SOL    HW152045   5.457   6.134   8.866 -0.7902 -1.8111  2.2951
16868SOL    HW252046   5.462   5.984   8.850 -0.1766 -1.4737 -1.5449
16869SOL     OW52047   4.280   5.085   8.992  0.9892 -0.0969 -0.0313
16869SOL    HW152048   4.321   5.006   8.957  1.1417  0.1445 -0.3946
16869SOL    HW252049   4.237   5.126   8.917  1.1132  0.2914  0.1074
16870SOL     OW52050   5.863   5.999   9.707  0.6609 -0.0818  0.4732
16870SOL    HW152051   5.832   5.988   9.796  0.4186 -1.3935  0.2501
16870SOL    HW252052   5.784   5.995   9.653  0.8051  0.7036  0.1938
16871SOL     OW52053   4.619   6.043   8.016  0.2027 -0.0764 -0.0718
16871SOL    HW152054   4.537   5.997   8.030 -0.1782  0.8000  0.6892
16871SOL    HW252055   4.625   6.053   7.921 -1.6374  1.6772 -0.0697
16872SOL     OW52056   3.929   5.509   8.573  0.6585 -0.9665  0.1848
16872SOL    HW152057   3.864   5.497   8.642 -0.3343 -1.3216 -0.7635
16872SOL    HW252058   4.013   5.508   8.617  0.0253 -0.7421  1.4273
16873SOL     OW52059   5.859   6.341   5.660 -0.5878 -0.3543  0.3900
16873SOL    HW152060   5.868   6.311   5.569 -1.4449  0.5814 -0.0207
16873SOL    HW252061   5.945   6.378   5.681 -0.9850  1.4127 -0.8186
16874SOL     OW52062   3.332   5.449   8.517  0.3345 -0.4269  0.2930
16874SOL    HW152063   3.336   5.429   8.424  0.2178 -2.0742  0.6226
16874SOL    HW252064   3.365   5.370   8.561  0.4011  0.3135  1.6537
16875SOL     OW52065   3.162   7.095   7.795  0.5945  0.0010 -0.1361
16875SOL    HW152066   3.201   7.124   7.713  1.3129  2.8310  1.0921
16875SOL    HW252067   3.231   7.107   7.860 -0.7776  0.4388  1.3005
16876SOL     OW52068   3.135   4.993   9.813  0.8706  0.1059  0.0085
16876SOL    HW152069   3.131   5.081   9.850 -1.0965 -0.2924  0.8911
16876SOL    HW252070   3.115   5.004   9.720  0.8861  0.6161  0.0656
16877SOL     OW52071   5.732   4.949  10.231 -0.7898  0.0767 -1.3228
16877SOL    HW152072   5.637   4.952  10.243 -0.9081 -3.0410 -0.7309
16877SOL    HW252073   5.747   4.871  10.178  1.3804  1.5575 -3.0968
16878SOL     OW52074   3.666   5.948   8.214  0.7750  0.4977  0.1747
16878SOL    HW152075   3.703   6.036   8.215 -0.2625  0.9861 -1.3161
16878SOL    HW252076   3.571   5.962   8.222  0.6361 -0.5133  0.4401
16879SOL     OW52077   4.033   5.683   9.276  0.5722  0.1297 -0.0513
16879SOL    HW152078   4.052   5.776   9.269  0.4489  0.0523 -1.8739
16879SOL    HW252079   4.001   5.658   9.189  0.7570 -1.6437  0.3464
16880SOL     OW52080   4.517   6.512   8.639 -0.6146 -0.4855  0.6452
16880SOL    HW152081   4.521   6.605   8.664 -1.2328 -0.4708  0.7174
16880SOL    HW252082   4.445   6.477   8.692  1.1359 -1.5855  2.4433
16881SOL     OW52083   5.919   7.041  11.123 -0.2636  0.3270  0.3459
16881SOL    HW152084   5.885   7.000  11.202  1.1753  0.7746  1.2331
16881SOL    HW252085   6.009   7.010  11.116 -0.4368  0.0971 -1.2731
16882SOL     OW52086   5.451   7.387   8.539  0.2986 -0.2076 -0.0871
16882SOL    HW152087   5.461   7.292   8.528 -1.5489 -0.4604  0.1213
16882SOL    HW252088   5.456   7.422   8.450 -0.1542 -0.6411 -0.2930
16883SOL     OW52089   3.701   7.203   9.298 -0.0503 -0.1199 -0.0545
16883SOL    HW152090   3.760   7.202   9.374 -0.4833 -0.2400  0.2853
16883SOL    HW252091   3.661   7.290   9.301 -1.7934 -0.9000  1.2193
16884SOL     OW52092   4.581   7.059   6.363  0.0085  0.1156 -0.0377
16884SOL    HW152093   4.510   7.035   6.303  1.2381  0.8728 -1.8883
16884SOL    HW252094   4.646   7.102   6.308  3.1777 -2.8588  1.0013
16885SOL     OW52095   5.498   5.684   6.744  0.2177  0.1026  0.3874
16885SOL    HW152096   5.553   5.762   6.751  2.2011 -1.1700 -0.1376
16885SOL    HW252097   5.560   5.612   6.734 -1.5990 -1.2274 -2.2651
16886SOL     OW52098   5.545   6.000   8.497  0.1144  1.0733  0.0480
16886SOL    HW152099   5.474   6.063   8.505  0.7141  1.8791 -0.7961
16886SOL    HW252100   5.509   5.918   8.530 -0.9209  1.6787  0.4391
16887SOL     OW52101   3.406   6.165   8.565 -0.1033  0.3121 -0.4427
16887SOL    HW152102   3.500   6.169   8.547  0.0616 -1.0510 -0.0352
16887SOL    HW252103   3.391   6.074   8.589 -1.4331  0.6466  0.0659
16888SOL     OW52104   2.427   6.930   7.465 -0.2318  0.2308  0.0127
16888SOL    HW152105   2.336   6.922   7.493  0.3748  0.4186  2.2448
16888SOL    HW252106   2.463   6.842   7.476 -0.0616  0.2228 -0.5877
16889SOL     OW52107   3.729   4.254   9.940  0.7214  0.6623  0.3281
16889SOL    HW152108   3.734   4.163   9.910 -1.0781 -0.3909  2.8809
16889SOL    HW252109   3.697   4.302   9.863 -1.4628 -1.4531 -0.2194
16890SOL     OW52110   4.588   6.252   9.702 -0.2223 -0.2401  0.5911
16890SOL    HW152111   4.571   6.160   9.684  1.9132 -0.2910 -1.8471
16890SOL    HW252112   4.673   6.253   9.745  0.0133  0.5832  0.1460
16891SOL     OW52113   6.005   7.410   8.996  0.1362 -0.1824 -0.0850
16891SOL    HW152114   6.047   7.442   8.916  0.3429  0.1802  0.1652
16891SOL    HW252115   6.077   7.377   9.049  0.1710  0.8665  0.5396
16892SOL     OW52116   3.442   7.734   9.746 -0.2977  0.5777 -0.4309
16892SOL    HW152117   3.355   7.714   9.782  0.2188  1.0125  1.1473
16892SOL    HW252118   3.482   7.793   9.811  1.1203  0.4971 -1.1932
16893SOL     OW52119   4.437   6.510   7.183 -0.7470  0.3495  0.0169
16893SOL    HW152120   4.447   6.493   7.277  1.3696  1.5449  0.0652
16893SOL    HW252121   4.489   6.442   7.141 -0.1682  0.9120 -0.1900
16894SOL     OW52122   3.577   6.226   9.120 -0.4328  0.1841  0.2575
16894SOL    HW152123   3.483   6.245   9.129 -0.6328 -1.1868  1.4713
16894SOL    HW252124   3.620   6.289   9.178 -0.5859  0.8358 -0.3247
16895SOL     OW52125   3.025   5.318   9.548 -0.3134  0.0475 -0.1189
16895SOL    HW152126   2.976   5.312   9.630  0.0475  0.3704  0.1269
16895SOL    HW252127   2.985   5.253   9.491 -0.0310 -0.7842  0.6032
16896SOL     OW52128   4.122   6.709   8.287  0.1172 -0.3040  0.3032
16896SOL    HW152129   4.065   6.783   8.266 -0.8202 -1.4263 -1.2726
16896SOL    HW252130   4.208   6.749   8.303 -0.4650  1.1508 -0.0436
16897SOL     OW52131   3.515   6.680  10.452 -0.4438  0.2559  0.0095
16897SOL    HW152132   3.462   6.756  10.429 -1.4562 -0.4694 -0.1266
16897SOL    HW252133   3.586   6.679  10.388 -0.0803  1.4055  0.3698
16898SOL     OW52134   6.632   5.760   7.125  0.1918 -0.5916  0.3418
16898SOL    HW152135   6.595   5.819   7.190 -1.4987  1.3697 -2.2196
16898SOL    HW252136   6.617   5.672   7.161 -2.2379  0.3452  1.8345
16899SOL     OW52137   5.014   5.384   9.835 -0.3058 -0.2409 -0.3063
16899SOL    HW152138   4.936   5.397   9.889 -0.2195 -0.0196 -0.2294
16899SOL    HW252139   4.980   5.363   9.748 -0.5519  2.6145 -1.0193
16900SOL     OW52140   3.245   7.292   9.718 -0.1747  0.0960 -0.4136
16900SOL    HW152141   3.229   7.362   9.654  3.3066 -0.2012 -1.8386
16900SOL    HW252142   3.235   7.211   9.668  0.9625 -0.2074 -0.1730
16901SOL     OW52143   2.041   0.288   8.154 -0.1533  0.2942 -0.0623
16901SOL    HW152144   1.976   0.246   8.211  0.8350  0.9472  1.6044
16901SOL    HW252145   1.995   0.365   8.118 -0.8267 -0.2003 -0.2843
16902SOL     OW52146   4.634   7.628  11.121 -0.5201  0.1905  0.0674
16902SOL    HW152147   4.630   7.533  11.117 -0.9623  0.2486 -1.8433
16902SOL    HW252148   4.708   7.647  11.178 -0.2637 -1.2917  0.2618
16903SOL     OW52149   6.326   5.247   7.740  0.0791 -0.3877 -0.2055
16903SOL    HW152150   6.389   5.255   7.812 -0.4663 -0.5787  0.2966
16903SOL    HW252151   6.366   5.183   7.680 -0.6069 -2.2303  1.1899
16904SOL     OW52152   4.005   6.269   9.990 -0.1152  0.0400  0.1626
16904SOL    HW152153   3.977   6.204  10.055  0.9149 -0.5971 -0.0218
16904SOL    HW252154   4.015   6.219   9.909  1.0636  0.3414  0.1063
16905SOL     OW52155   5.411   7.151  10.736  0.1180 -0.2540  0.4171
16905SOL    HW152156   5.391   7.099  10.659 -0.3119  1.0434 -0.3791
16905SOL    HW252157   5.327   7.186  10.765  0.2877 -0.6572  1.4328
16906SOL     OW52158   4.904   0.047  11.438  0.2358 -0.9274  0.2991
16906SOL    HW152159   4.931   0.061  11.528  2.0269  1.6601 -0.5048
16906SOL    HW252160   4.956   0.110  11.387 -2.8375 -0.1030 -2.1906
16907SOL     OW52161   4.477   7.593   8.952  0.0661  0.2628  0.2447
16907SOL    HW152162   4.405   7.557   9.004  0.4175 -0.7350  0.0444
16907SOL    HW252163   4.461   7.688   8.953 -1.0963  0.0867  0.4353
16908SOL     OW52164   4.303   6.663   9.540 -0.1876 -0.0543  0.5770
16908SOL    HW152165   4.302   6.585   9.596 -1.7355 -0.0142  0.6325
16908SOL    HW252166   4.299   6.736   9.601 -1.1422  0.0037  0.4591
16909SOL     OW52167   4.770   7.417  10.415  0.0660 -0.2476  0.1485
16909SOL    HW152168   4.802   7.347  10.359 -0.8215 -0.9294  0.4749
16909SOL    HW252169   4.838   7.426  10.483 -0.0202 -1.1035  0.3602
16910SOL     OW52170   3.562   0.415   7.899 -0.2656  0.5334  0.7318
16910SOL    HW152171   3.642   0.373   7.930 -1.0346  0.3007  2.6136
16910SOL    HW252172   3.588   0.504   7.875  0.6629  0.2671  0.7213
16911SOL     OW52173   4.969   6.056   9.082 -0.0016 -0.0350  0.2990
16911SOL    HW152174   4.944   5.996   9.152 -1.7739  0.1263 -0.1516
16911SOL    HW252175   5.051   6.020   9.048 -0.5257 -1.6597  0.6727
16912SOL     OW52176   5.433   7.602  10.787  0.0120 -0.7113  0.2191
16912SOL    HW152177   5.394   7.535  10.732  0.7564 -0.7445 -0.2796
16912SOL    HW252178   5.358   7.644  10.830 -0.6759 -0.0634 -1.5137
16913SOL     OW52179   3.723   7.721  10.816 -0.3798  0.1565  0.9510
16913SOL    HW152180   3.807   7.683  10.842 -0.3158 -1.0908 -0.8386
16913SOL    HW252181   3.711   7.796  10.874  2.3367  0.8201  0.8176
16914SOL     OW52182   3.200   5.443   8.880  0.4522 -0.5274 -0.3894
16914SOL    HW152183   3.285   5.487   8.873  0.2187 -0.1373 -0.7742
16914SOL    HW252184   3.147   5.480   8.810 -0.3766 -0.0132  0.4766
16915SOL     OW52185   4.281   6.643  10.503 -0.5973 -0.1901 -0.2913
16915SOL    HW152186   4.255   6.553  10.486  0.3386 -0.1817 -2.0056
16915SOL    HW252187   4.233   6.668  10.582 -1.9186 -1.7279 -0.5626
16916SOL     OW52188   4.571   6.010   7.130 -0.2519 -0.1945  0.1341
16916SOL    HW152189   4.498   5.952   7.110 -0.3435 -0.4483  1.1669
16916SOL    HW252190   4.583   6.003   7.225  0.2178  0.9020  0.1734
16917SOL     OW52191   3.113   0.214  10.696  0.2247  0.5436  0.2535
16917SOL    HW152192   3.193   0.266  10.699  0.0626  0.8983 -1.0423
16917SOL    HW252193   3.086   0.216  10.604 -1.5544  0.8785  0.7430
16918SOL     OW52194   4.423   7.351   7.329 -0.0918 -0.5665 -0.3904
16918SOL    HW152195   4.391   7.320   7.244 -0.5535 -0.0337 -0.4204
16918SOL    HW252196   4.477   7.279   7.363 -0.9945 -1.3288 -0.5283
16919SOL     OW52197   2.465   5.551   8.340 -0.1150 -0.0160 -0.1612
16919SOL    HW152198   2.400   5.619   8.325  2.3005  2.7494  0.9967
16919SOL    HW252199   2.500   5.531   8.253 -0.7164  0.3715 -0.4964
16920SOL     OW52200   5.096   6.101  10.753  0.3435 -0.4293  0.1539
16920SOL    HW152201   5.144   6.149  10.820  0.3772  1.5709 -1.2334
16920SOL    HW252202   5.029   6.053  10.802 -0.8559  2.4204  1.5289
16921SOL     OW52203   4.896   5.979   7.571 -0.1078 -0.6365 -0.0598
16921SOL    HW152204   4.939   5.943   7.493  0.3582  0.1322 -0.1720
16921SOL    HW252205   4.816   5.927   7.581 -0.6828 -0.1253 -1.6407
16922SOL     OW52206   6.164   0.544   6.833  0.6884  0.3420  0.2850
16922SOL    HW152207   6.236   0.482   6.848  0.5891 -0.5089 -2.3254
16922SOL    HW252208   6.207   0.623   6.801  0.5738  0.3913  0.2546
16923SOL     OW52209   4.310   5.938   9.058  0.6013  0.3929  0.7782
16923SOL    HW152210   4.305   6.011   8.997 -0.3457  0.0511  0.4286
16923SOL    HW252211   4.286   5.861   9.006 -0.5374  0.1393  1.6460
16924SOL     OW52212   6.482   7.070   9.827 -0.1186  0.6236 -0.4026
16924SOL    HW152213   6.533   7.148   9.850  0.4231 -0.3061  1.8552
16924SOL    HW252214   6.542   6.997   9.843 -1.3000 -0.3605 -0.3559
16925SOL     OW52215   2.435   5.426   7.404  0.6547  0.3444 -0.1815
16925SOL    HW152216   2.431   5.355   7.469  0.4733 -1.3534 -1.9618
16925SOL    HW252217   2.357   5.478   7.421 -0.0727 -0.8165  0.1493
16926SOL     OW52218   5.187   5.941   7.641 -0.2505  0.4167  0.4625
16926SOL    HW152219   5.193   5.846   7.648 -0.0938  0.2211 -1.6625
16926SOL    HW252220   5.095   5.961   7.654 -0.4826 -0.1671 -0.2679
16927SOL     OW52221   4.986   6.249   9.994 -0.5662 -0.6410 -0.1706
16927SOL    HW152222   5.007   6.204   9.912 -0.4491 -0.5098 -0.2145
16927SOL    HW252223   5.021   6.192  10.062  1.6742  0.4372 -0.3067
16928SOL     OW52224   6.828   4.525   9.829 -0.0573 -0.0413  0.6831
16928SOL    HW152225   6.915   4.563   9.836 -0.4437  1.0943 -0.3131
16928SOL    HW252226   6.826   4.455   9.895  1.4816  0.1227  0.9245
16929SOL     OW52227   5.557   6.640   8.775 -0.1764 -0.0305 -0.4477
16929SOL    HW152228   5.524   6.696   8.705 -1.3543 -1.2838 -0.9559
16929SOL    HW252229   5.537   6.551   8.745 -2.1751 -0.5567  2.1310
16930SOL     OW52230   4.581   5.804   8.923 -0.4723 -0.0393 -0.1637
16930SOL    HW152231   4.506   5.825   8.866 -1.3588 -1.7104  0.3310
16930SOL    HW252232   4.647   5.770   8.863  0.1198  1.8813 -0.6685
16931SOL     OW52233   5.518   5.241   8.496  0.1745  0.8118  0.2878
16931SOL    HW152234   5.575   5.238   8.419  1.0423  0.2191  0.9227
16931SOL    HW252235   5.474   5.326   8.490 -1.8094 -0.2864 -2.2433
16932SOL     OW52236   3.666   6.652   7.313 -0.3719 -0.2046  0.0250
16932SOL    HW152237   3.741   6.706   7.337  0.0154 -1.4405  1.7708
16932SOL    HW252238   3.590   6.710   7.324  0.1648  0.4556  0.2633
16933SOL     OW52239   5.653   6.626   9.973 -0.1714 -0.7733  0.1993
16933SOL    HW152240   5.594   6.569  10.023 -0.7072  0.0440  0.5151
16933SOL    HW252241   5.708   6.667  10.039  0.6753 -1.4239 -0.0844
16934SOL     OW52242   5.208   7.635   8.015 -0.0250 -0.0486  0.3767
16934SOL    HW152243   5.122   7.606   7.983 -0.1893  1.0831 -0.2475
16934SOL    HW252244   5.270   7.598   7.952 -0.2403  0.9763 -0.4646
16935SOL     OW52245   5.511   5.950   7.198  0.7470 -0.5638  0.3179
16935SOL    HW152246   5.430   5.964   7.246  1.2234 -1.2924  1.3798
16935SOL    HW252247   5.543   6.038   7.178 -0.3559 -0.2713 -0.2372
16936SOL     OW52248   4.975   6.601   9.534  0.5231 -0.2112  0.2933
16936SOL    HW152249   4.930   6.685   9.520 -0.0586 -0.4609  0.6454
16936SOL    HW252250   4.938   6.543   9.467  1.8363  0.1450 -0.7835
16937SOL     OW52251   2.825   7.613   8.973  0.1153 -0.0656  0.0724
16937SOL    HW152252   2.743   7.658   8.995 -0.4333 -1.4405  0.9418
16937SOL    HW252253   2.865   7.669   8.906 -2.0248  0.1291 -1.1508
16938SOL     OW52254   4.195   6.128  10.281  1.2885 -0.0157 -0.0186
16938SOL    HW152255   4.139   6.205  10.273 -1.4496 -1.9036 -0.2156
16938SOL    HW252256   4.248   6.145  10.359 -1.2920  0.9000  1.6708
16939SOL     OW52257   5.283   4.535   7.964 -0.1830  0.7541  0.1467
16939SOL    HW152258   5.201   4.498   7.995  0.4079  0.9531  2.0526
16939SOL    HW252259   5.266   4.629   7.958 -0.3103  0.7109 -0.2355
16940SOL     OW52260   4.913   7.732   9.241  0.1580 -0.9638  0.2498
16940SOL    HW152261   4.963   7.682   9.305 -0.8553 -1.8077  0.4028
16940SOL    HW252262   4.826   7.742   9.281 -0.6648 -1.9708 -1.1866
16941SOL     OW52263   4.613   7.307   8.867 -0.1102 -0.5524 -0.2580
16941SOL    HW152264   4.525   7.272   8.877 -0.2017 -0.3251 -0.2704
16941SOL    HW252265   4.654   7.294   8.952 -1.0895  1.9582  0.6760
16942SOL     OW52266   3.946   7.576   5.500 -0.5228 -0.3625 -0.2615
16942SOL    HW152267   3.915   7.642   5.438 -2.9515 -0.8921  0.2529
16942SOL    HW252268   4.034   7.604   5.524 -0.9417  1.8953 -1.1233
16943SOL     OW52269   5.072   6.030   7.942 -0.4665 -0.6640 -0.2934
16943SOL    HW152270   5.058   6.047   8.036 -1.2888 -1.3252 -0.2849
16943SOL    HW252271   5.065   5.935   7.934  2.8310 -1.0185 -0.5141
16944SOL     OW52272   5.367   6.202   8.511  0.1629  0.3290 -0.2597
16944SOL    HW152273   5.308   6.176   8.582  0.4216 -0.7692 -0.4314
16944SOL    HW252274   5.341   6.291   8.489 -0.5878  0.3117  0.5271
16945SOL     OW52275   5.258   4.996  10.758 -0.3241  0.6101  0.0179
16945SOL    HW152276   5.209   5.075  10.781 -1.5422  0.4889 -2.0065
16945SOL    HW252277   5.334   5.028  10.710 -0.1288  0.6048  0.3175
16946SOL     OW52278   2.793   6.066   7.758 -0.1948 -0.3523 -0.2038
16946SOL    HW152279   2.823   6.151   7.789 -1.4466  0.1908 -0.3923
16946SOL    HW252280   2.827   6.059   7.668  0.7049 -0.4867  0.1408
16947SOL     OW52281   5.355   7.508   9.622 -0.0761 -0.2225  0.0326
16947SOL    HW152282   5.394   7.457   9.550 -1.2885 -0.9908 -0.1097
16947SOL    HW252283   5.347   7.445   9.694 -0.4441  0.0981  0.2741
16948SOL     OW52284   4.165   6.955   9.915  0.3948  0.3303 -0.2413
16948SOL    HW152285   4.142   6.907   9.995 -0.1757  0.4365 -0.3343
16948SOL    HW252286   4.225   7.023   9.946 -2.2294  2.4300  0.7282
16949SOL     OW52287   5.509   5.963   7.518 -0.7707 -0.1156  0.1440
16949SOL    HW152288   5.514   5.941   7.425 -1.7771  1.9910 -0.4788
16949SOL    HW252289   5.513   5.879   7.563  0.5851 -1.1393 -1.7363
16950SOL     OW52290   4.983   6.306   9.166  0.3837 -0.3945 -0.1118
16950SOL    HW152291   4.970   6.226   9.116  0.0769 -0.0925 -0.5333
16950SOL    HW252292   4.949   6.287   9.253 -1.4249 -0.1549 -0.7235
16951SOL     OW52293   3.891   1.126   9.285 -0.0137 -0.4267  0.2888
16951SOL    HW152294   3.931   1.039   9.293 -0.4708 -0.5762  1.0921
16951SOL    HW252295   3.800   1.108   9.261  0.1756 -0.1211 -0.6885
16952SOL     OW52296   4.150   7.586   8.781 -0.4539  0.5972 -0.5363
16952SOL    HW152297   4.169   7.580   8.874 -0.1480  0.7713 -0.5860
16952SOL    HW252298   4.133   7.679   8.766  0.5443  0.7426 -0.8460
16953SOL     OW52299   3.385   6.911   8.862 -0.8254  0.2080  0.0936
16953SOL    HW152300   3.348   6.891   8.777  2.9282  0.4641 -1.8163
16953SOL    HW252301   3.372   7.005   8.873  0.4477  0.5780 -1.2593
16954SOL     OW52302   5.991   4.489   7.930 -0.0992 -0.5056 -0.1964
16954SOL    HW152303   6.062   4.542   7.966  1.5344 -2.3112 -0.5594
16954SOL    HW252304   5.999   4.499   7.835  0.3654 -1.5067 -0.2812
16955SOL     OW52305   5.600   5.418   9.794 -0.1375  0.0255  0.2175
16955SOL    HW152306   5.525   5.367   9.764 -1.2038  0.8132  1.4180
16955SOL    HW252307   5.655   5.427   9.717 -0.7239 -1.5121 -0.4219
16956SOL     OW52308   5.905   7.384  10.372 -0.1184 -0.0655  0.0710
16956SOL    HW152309   5.954   7.460  10.403  0.9572 -0.4833 -0.5591
16956SOL    HW252310   5.930   7.376  10.280 -1.2318 -0.4147 -0.2154
16957SOL     OW52311   4.943   6.824   7.043  0.3005  0.1025 -0.0551
16957SOL    HW152312   4.867   6.878   7.022 -0.3603 -1.0489 -0.7281
16957SOL    HW252313   4.986   6.870   7.115 -1.6182  0.2605  1.0793
16958SOL     OW52314   5.901   6.883   9.236  0.1367 -0.1609 -0.2471
16958SOL    HW152315   5.835   6.930   9.185  1.9324  0.9321 -1.6634
16958SOL    HW252316   5.973   6.868   9.175  0.6018 -2.7590  0.7944
16959SOL     OW52317   4.528   5.390   8.333  0.1604  0.1306  0.0477
16959SOL    HW152318   4.605   5.335   8.341 -0.0911 -0.2324  0.0187
16959SOL    HW252319   4.466   5.337   8.281 -0.5798 -0.1018  1.1297
16960SOL     OW52320   3.711   5.442   9.511  0.2839  0.5192 -0.2518
16960SOL    HW152321   3.734   5.533   9.530  2.0387  0.2709 -1.0005
16960SOL    HW252322   3.657   5.448   9.432 -1.9373  1.0698  1.2108
16961SOL     OW52323   4.728   6.614   8.214 -0.1975 -0.1853  0.4641
16961SOL    HW152324   4.653   6.567   8.249 -1.1229  0.0991 -1.0353
16961SOL    HW252325   4.780   6.638   8.291 -1.6951 -0.2809  1.5478
16962SOL     OW52326   5.357   6.988   8.592 -0.0752 -0.4603 -0.2627
16962SOL    HW152327   5.399   7.074   8.589 -1.1433  0.1391  1.1352
16962SOL    HW252328   5.334   6.975   8.684 -0.8727 -1.7787 -0.6203
16963SOL     OW52329   5.524   6.778   7.758 -0.0862  0.3344  0.0242
16963SOL    HW152330   5.475   6.784   7.676 -0.4695  2.8321  0.3710
16963SOL    HW252331   5.488   6.701   7.802  0.0097 -0.9688 -2.0234
16964SOL     OW52332   4.621   6.064   7.750 -0.2019  0.3666 -0.0276
16964SOL    HW152333   4.669   6.137   7.710 -1.1308 -0.9914 -4.1034
16964SOL    HW252334   4.535   6.065   7.707 -1.2007 -1.6001  1.7168
16965SOL     OW52335   3.722   6.604   9.681 -0.2926 -0.6128 -0.8876
16965SOL    HW152336   3.793   6.562   9.729  0.5437  0.6513 -0.9471
16965SOL    HW252337   3.689   6.671   9.741 -2.0914 -1.7703 -0.5086
16966SOL     OW52338   4.029   5.126   6.793  0.2206 -0.5733  0.2076
16966SOL    HW152339   4.104   5.068   6.779  1.0529  0.4608  0.2232
16966SOL    HW252340   3.999   5.106   6.881  0.2934 -1.1929  0.0981
16967SOL     OW52341   2.075   0.028   6.123  0.3612  0.4856 -0.6609
16967SOL    HW152342   1.990   0.063   6.098  0.4080  1.7479  0.8053
16967SOL    HW252343   2.094  -0.039   6.057 -1.0986  1.1741 -1.8335
16968SOL     OW52344   4.224   0.499  11.856 -0.7589  0.2490  0.1100
16968SOL    HW152345   4.132   0.508  11.881 -0.3950  2.5805  0.8525
16968SOL    HW252346   4.266   0.457  11.931 -1.0423  0.0284  0.1468
16969SOL     OW52347   3.343   6.325   9.415  0.0794 -0.2214  0.3120
16969SOL    HW152348   3.268   6.384   9.420 -0.4902 -1.0171  1.6393
16969SOL    HW252349   3.317   6.249   9.466  1.4003 -0.9650 -0.0753
16970SOL     OW52350   1.839   5.196   9.871  0.1312  0.0881 -0.2829
16970SOL    HW152351   1.839   5.184   9.776  0.3679  0.2064 -0.2977
16970SOL    HW252352   1.923   5.159   9.900  0.3497  0.6463 -0.1975
16971SOL     OW52353   4.258   0.658   8.681  0.0274  0.0877  0.0106
16971SOL    HW152354   4.239   0.658   8.775  1.4883  1.2409  0.3433
16971SOL    HW252355   4.286   0.568   8.662  0.4386  0.0311  0.8550
16972SOL     OW52356   6.451   5.658  10.124  0.3222 -0.5221 -0.1762
16972SOL    HW152357   6.392   5.717  10.171  1.5979 -0.7650  1.8451
16972SOL    HW252358   6.415   5.654  10.035 -1.0188  1.5966  0.1947
16973SOL     OW52359   4.124   7.478  10.307  0.0538  0.1301  0.1494
16973SOL    HW152360   4.175   7.448  10.232 -0.9572 -0.5032 -0.3037
16973SOL    HW252361   4.038   7.498  10.271 -0.3794  0.0263  1.1039
16974SOL     OW52362   4.789   5.583   9.031 -0.2096 -0.2181  0.1294
16974SOL    HW152363   4.810   5.492   9.050 -0.2577  0.2562  2.7782
16974SOL    HW252364   4.845   5.605   8.956  1.1155 -1.9149  0.5677
16975SOL     OW52365   3.344   7.156  11.062 -0.1712  0.5808  0.3396
16975SOL    HW152366   3.251   7.173  11.070 -0.1937  0.1193  1.0908
16975SOL    HW252367   3.383   7.195  11.140  0.2400  0.5945  0.1337
16976SOL     OW52368   2.939   6.910  12.167  0.2192  0.1771 -0.0862
16976SOL    HW152369   2.867   6.906  12.229 -0.4954 -0.6465 -0.9433
16976SOL    HW252370   3.018   6.898  12.220 -0.3775 -0.4785  0.6549
16977SOL     OW52371   3.673   5.967  11.433 -0.5122 -0.2325  0.9649
16977SOL    HW152372   3.581   5.992  11.423 -0.5111 -0.5356  0.1632
16977SOL    HW252373   3.703   6.016  11.510 -1.2271  0.1950  0.9755
16978SOL     OW52374   4.258   7.791  10.763 -0.5424 -0.1532 -0.5533
16978SOL    HW152375   4.262   7.728  10.691  0.3872 -0.5119 -0.2039
16978SOL    HW252376   4.337   7.773  10.815 -0.5975  0.8650 -0.0901
16979SOL     OW52377   5.952   6.799  12.162 -0.2334  0.1205  1.1096
16979SOL    HW152378   6.026   6.851  12.131  1.2780 -2.7671 -0.4706
16979SOL    HW252379   5.883   6.813  12.097  0.7843 -1.1672 -0.2827
16980SOL     OW52380   5.332   7.491  12.111 -0.2527 -0.3702  0.3353
16980SOL    HW152381   5.351   7.562  12.049 -0.6171 -0.3913  0.1953
16980SOL    HW252382   5.418   7.467  12.147 -0.2863  1.3442  1.7217
16981SOL     OW52383   5.959   7.974  12.032 -0.0717  0.2070 -0.1463
16981SOL    HW152384   5.945   8.047  12.092  0.4112 -0.7809  1.2083
16981SOL    HW252385   5.870   7.945  12.010 -0.2500  0.4169  0.2833
16982SOL     OW52386   5.620   4.927  10.633  0.5428 -0.7123 -0.1610
16982SOL    HW152387   5.574   5.010  10.625  0.4216 -0.9312 -2.5745
16982SOL    HW252388   5.671   4.920  10.552  0.6956 -2.8840  0.0620
16983SOL     OW52389   4.690   7.459  11.549  0.3253  0.1765  0.0873
16983SOL    HW152390   4.601   7.474  11.515 -1.0394 -1.2690  2.7337
16983SOL    HW252391   4.721   7.382  11.501 -0.6199 -0.4094  0.3741
16984SOL     OW52392   4.383   7.343  11.721 -0.0778 -0.2547 -0.0129
16984SOL    HW152393   4.346   7.337  11.633 -0.0064 -0.3331 -0.0387
16984SOL    HW252394   4.383   7.437  11.740 -0.1650 -0.2437 -0.0652
16985SOL     OW52395   2.825   6.359   9.104  0.1085  0.3410 -0.2482
16985SOL    HW152396   2.789   6.445   9.128  0.5712 -0.0622  2.1723
16985SOL    HW252397   2.758   6.297   9.134  0.7712 -0.2102  0.1196
16986SOL     OW52398   3.774   7.154   8.595  0.1897  0.2749  0.6036
16986SOL    HW152399   3.820   7.236   8.575 -0.5224  0.9123  1.4648
16986SOL    HW252400   3.773   7.151   8.691 -0.0848 -0.5786  0.5767
16987SOL     OW52401   4.377   7.857  10.138 -0.4828 -0.5501 -0.8027
16987SOL    HW152402   4.357   7.877  10.229  1.9884 -3.2369  0.5178
16987SOL    HW252403   4.412   7.938  10.102  0.8029 -0.0349  1.4405
16988SOL     OW52404   5.275   7.316  10.416 -0.2420 -0.3865  0.3179
16988SOL    HW152405   5.206   7.258  10.447  1.6530 -1.4871  2.9429
16988SOL    HW252406   5.320   7.267  10.348 -2.4221  0.6866 -2.0482
16989SOL     OW52407   4.114   5.205  10.715  0.1234 -0.0152 -0.0099
16989SOL    HW152408   4.141   5.159  10.795  1.8669  0.4576 -0.2797
16989SOL    HW252409   4.150   5.152  10.644 -2.2198 -0.9473 -0.5802
16990SOL     OW52410   3.318   6.346   9.892 -0.1806  0.4419  0.1328
16990SOL    HW152411   3.333   6.434   9.857 -0.5146 -0.5261 -2.6718
16990SOL    HW252412   3.242   6.355   9.949  0.6477  2.1892  1.0529
16991SOL     OW52413   3.823   6.432   9.481 -0.5358 -0.6901  0.0209
16991SOL    HW152414   3.744   6.378   9.479 -0.9630 -0.2331 -3.9155
16991SOL    HW252415   3.803   6.501   9.544 -1.4815 -2.8840  2.3153
16992SOL     OW52416   3.574   0.290   8.851 -0.2609 -0.1057  0.3240
16992SOL    HW152417   3.608   0.343   8.924  0.6767  0.5243 -0.5436
16992SOL    HW252418   3.516   0.349   8.803 -0.7314 -0.4650  0.4392
16993SOL     OW52419   5.664   7.014   9.736 -0.2231  0.3992 -0.0959
16993SOL    HW152420   5.583   6.969   9.762  0.9634 -1.3220  0.8779
16993SOL    HW252421   5.711   6.950   9.682  0.3300  1.5093 -0.9699
16994SOL     OW52422   4.719   6.231  10.374  0.2931  0.4225  0.3659
16994SOL    HW152423   4.712   6.230  10.278 -0.8312 -1.3656  0.4174
16994SOL    HW252424   4.812   6.218  10.391  0.2644 -1.1207 -0.5085
16995SOL     OW52425   3.413   5.266  12.049  0.1751  0.1411 -0.5871
16995SOL    HW152426   3.450   5.193  11.999  2.4724  1.4178 -0.9013
16995SOL    HW252427   3.362   5.225  12.118 -0.0699 -1.7191 -1.8119
16996SOL     OW52428   3.161   7.454  10.668 -0.2515  0.4820  0.3386
16996SOL    HW152429   3.256   7.460  10.661 -0.3576  1.2102 -0.7420
16996SOL    HW252430   3.144   7.365  10.699  0.8048  0.5815  1.2470
16997SOL     OW52431   4.031   7.899  12.242  0.0424 -0.2693  0.4368
16997SOL    HW152432   3.953   7.954  12.235 -1.4862 -2.1648  1.4432
16997SOL    HW252433   4.065   7.917  12.330 -1.6533 -2.2414  1.6114
16998SOL     OW52434   3.335   5.381   9.589 -0.1773  0.3850  1.1596
16998SOL    HW152435   3.267   5.337   9.538  0.3793  0.1444  0.5935
16998SOL    HW252436   3.404   5.400   9.524  0.6032 -0.0401  1.8408
16999SOL     OW52437   3.717   0.339  11.027  0.0162  0.5387 -0.0029
16999SOL    HW152438   3.728   0.322  10.933  1.7462 -2.4945  0.6003
16999SOL    HW252439   3.786   0.402  11.048  0.8920 -0.2143 -0.4955
17000SOL     OW52440   3.970   6.956  10.466  0.2465  0.3522 -0.6631
17000SOL    HW152441   3.958   7.025  10.532  0.0399  0.5443 -0.8943
17000SOL    HW252442   4.042   6.904  10.498 -1.1804 -0.8229  0.7916
17001SOL     OW52443   5.071   0.278  11.787 -0.0847  0.2216 -0.2292
17001SOL    HW152444   5.077   0.339  11.861  1.1627  0.0710 -0.1933
17001SOL    HW252445   5.100   0.329  11.711  0.5233 -0.1973 -0.2765
17002SOL     OW52446   5.249   6.611  11.220  0.5074 -0.0924 -0.2316
17002SOL    HW152447   5.256   6.614  11.315 -0.7754  1.9621 -0.1251
17002SOL    HW252448   5.190   6.538  11.203 -0.7694  0.6581  0.7305
17003SOL     OW52449   5.884   5.888  12.155  0.6192 -0.2711 -0.0454
17003SOL    HW152450   5.881   5.857  12.246 -0.9648 -0.0819 -0.0064
17003SOL    HW252451   5.824   5.830  12.108 -1.4057  1.8520 -0.2264
17004SOL     OW52452   4.708   7.165   9.556 -0.6336 -0.3090  0.1541
17004SOL    HW152453   4.785   7.126   9.515 -0.3622  0.7835 -0.4031
17004SOL    HW252454   4.635   7.112   9.524 -0.1877 -0.9467  0.1713
17005SOL     OW52455   4.347   5.007   9.488  0.3333 -0.1214  0.2137
17005SOL    HW152456   4.323   4.930   9.436 -2.4255  0.6072  0.2267
17005SOL    HW252457   4.364   4.973   9.576 -2.7055 -0.6305  0.7067
17006SOL     OW52458   6.429   7.253   0.224 -0.1019  0.4904  0.2166
17006SOL    HW152459   6.413   7.326   0.282 -1.6669 -0.4262  0.9922
17006SOL    HW252460   6.379   7.273   0.145  0.6090  0.8961 -0.1469
17007SOL     OW52461   5.305   5.818  10.102 -0.0015 -0.5192  0.0402
17007SOL    HW152462   5.374   5.763  10.138 -0.0365 -1.3632 -1.1257
17007SOL    HW252463   5.232   5.757  10.086 -0.1949 -0.0657 -0.8763
17008SOL     OW52464   4.041   6.754  11.014 -0.0404  0.1465 -0.0594
17008SOL    HW152465   3.978   6.824  11.032  0.9391  0.6464  1.6185
17008SOL    HW252466   4.094   6.788  10.942  0.6532  1.3177  0.9637
17009SOL     OW52467   4.750   6.931  11.739 -0.1535 -0.2435  0.1511
17009SOL    HW152468   4.708   6.848  11.762 -0.4826 -0.1803 -0.2130
17009SOL    HW252469   4.762   6.975  11.823 -2.2575  0.4216  0.1679
17010SOL     OW52470   4.217   6.443  11.095 -0.2288 -0.4361 -0.3898
17010SOL    HW152471   4.162   6.518  11.119  1.4331  1.4568 -2.2008
17010SOL    HW252472   4.158   6.368  11.103 -1.6844  0.8240  2.5570
17011SOL     OW52473   4.459   6.670  11.317 -0.2129  0.2607 -0.2317
17011SOL    HW152474   4.378   6.629  11.286  0.1710  0.4641 -1.5637
17011SOL    HW252475   4.443   6.686  11.411 -0.9728 -1.4134 -0.0445
17012SOL     OW52476   3.382   5.461  10.781  0.2745  0.0888  0.2718
17012SOL    HW152477   3.419   5.396  10.722  0.8918 -1.5805  2.3844
17012SOL    HW252478   3.458   5.505  10.820 -0.0912  3.1640 -2.0681
17013SOL     OW52479   3.853   0.298  10.771 -0.1070 -0.3718 -0.0916
17013SOL    HW152480   3.926   0.359  10.786 -0.1301 -0.4341  0.2807
17013SOL    HW252481   3.895   0.212  10.765 -0.2732 -0.5929  1.5330
17014SOL     OW52482   2.527   7.175  10.576 -0.3788  0.5037  0.0483
17014SOL    HW152483   2.542   7.095  10.525 -0.1915  0.1385  0.6581
17014SOL    HW252484   2.465   7.148  10.644 -1.1545  1.1507 -0.3804
17015SOL     OW52485   4.867   6.593  10.778  0.3926  0.6407  0.2540
17015SOL    HW152486   4.831   6.666  10.726  0.8521  0.2448 -0.6440
17015SOL    HW252487   4.956   6.621  10.798  0.9904 -0.1568 -1.1271
17016SOL     OW52488   6.587   6.397  10.983 -0.6586 -0.4811 -0.3810
17016SOL    HW152489   6.524   6.470  10.985 -0.8777 -0.6809  1.0650
17016SOL    HW252490   6.667   6.433  11.022 -0.7438 -0.9638  0.2741
17017SOL     OW52491   5.446   5.260  10.099  0.3123 -0.3844 -0.4379
17017SOL    HW152492   5.477   5.348  10.076  1.9466 -0.3079  1.7037
17017SOL    HW252493   5.475   5.248  10.189 -0.3388 -2.9400 -0.5049
17018SOL     OW52494   6.266   5.592   0.456  0.4202 -0.4707  0.3924
17018SOL    HW152495   6.192   5.649   0.436 -0.2168 -1.8057 -1.4459
17018SOL    HW252496   6.227   5.517   0.500  0.9920 -0.2670  1.2588
17019SOL     OW52497   6.061   0.702   9.673 -0.0180  0.1850 -0.0084
17019SOL    HW152498   5.980   0.702   9.725  0.2721  0.0439  0.4511
17019SOL    HW252499   6.046   0.634   9.607 -0.2862  0.1727  0.0611
17020SOL     OW52500   4.111   7.400  10.729 -0.4744 -0.5488  0.4764
17020SOL    HW152501   4.206   7.394  10.723 -0.2235  3.0326 -2.7905
17020SOL    HW252502   4.081   7.309  10.732  2.9589 -1.7960  1.1693
17021SOL     OW52503   5.474   6.384  10.842 -0.0888  0.5543 -0.0867
17021SOL    HW152504   5.501   6.331  10.917 -3.2239  0.9354  1.5193
17021SOL    HW252505   5.499   6.473  10.867  0.3949  0.4759 -0.2892
17022SOL     OW52506   5.143   1.370  11.230 -0.6631  0.6480  0.1643
17022SOL    HW152507   5.100   1.343  11.311  2.3942 -2.7046  0.9346
17022SOL    HW252508   5.088   1.335  11.160 -1.6042  0.6469  0.8883
17023SOL     OW52509   3.926   6.053  10.147  0.2094  0.5381  0.3808
17023SOL    HW152510   3.974   5.971  10.132  0.8954  1.2459 -1.5537
17023SOL    HW252511   3.877   6.037  10.228  0.2301 -1.8194  0.0061
17024SOL     OW52512   6.448   6.689   8.725  0.4763 -0.3089  0.4134
17024SOL    HW152513   6.463   6.659   8.814  1.0485  0.0966  0.4599
17024SOL    HW252514   6.380   6.755   8.733 -0.4763 -1.2460  0.3638
17025SOL     OW52515   4.929   7.145  11.035 -0.1721 -0.0067  0.1732
17025SOL    HW152516   4.871   7.213  11.069  1.2262  0.7337  1.1454
17025SOL    HW252517   4.926   7.076  11.101  0.3217  0.1831  0.3934
17026SOL     OW52518   2.039   0.487   9.210  0.2895  0.0415  0.5658
17026SOL    HW152519   2.108   0.423   9.229  1.0611  0.1835 -1.5203
17026SOL    HW252520   2.083   0.554   9.157 -1.2013  0.7142  0.1442
17027SOL     OW52521   3.970   6.379  10.307  0.2252  0.2048  0.6026
17027SOL    HW152522   3.941   6.356  10.395  0.0556 -0.2494  0.4356
17027SOL    HW252523   4.036   6.447  10.320  0.7578 -0.3953  1.1323
17028SOL     OW52524   5.120   4.816  10.882  0.0210 -0.0396 -0.1802
17028SOL    HW152525   5.172   4.883  10.838  0.1988 -0.2508 -0.2987
17028SOL    HW252526   5.089   4.759  10.811 -0.3141  0.0456 -0.1018
17029SOL     OW52527   3.782   7.327   8.228 -0.1879 -0.3270 -0.0090
17029SOL    HW152528   3.736   7.375   8.159 -0.1221 -0.5633 -0.2203
17029SOL    HW252529   3.756   7.370   8.309  0.0884  0.2472 -0.2153
17030SOL     OW52530   5.192   6.169  10.392 -0.0855  0.6540  0.3075
17030SOL    HW152531   5.247   6.092  10.401  0.1355  0.5112 -1.7437
17030SOL    HW252532   5.251   6.239  10.364 -0.4324  1.3701  1.2836
17031SOL     OW52533   4.294   1.874  11.197 -0.0193 -0.8865 -0.4262
17031SOL    HW152534   4.270   1.794  11.242  0.4679 -1.7322 -1.6068
17031SOL    HW252535   4.375   1.852  11.151  0.7760  0.6507  0.1739
17032SOL     OW52536   5.226   7.362  11.092  0.0016  0.4154 -0.6491
17032SOL    HW152537   5.289   7.317  11.147 -0.8868 -1.5996 -1.1739
17032SOL    HW252538   5.182   7.424  11.151  0.6029 -0.0740  0.3395
17033SOL     OW52539   3.262   7.430   9.211  0.3548 -0.4658 -0.3373
17033SOL    HW152540   3.246   7.337   9.196  0.3140 -0.4100 -0.6417
17033SOL    HW252541   3.249   7.442   9.305 -0.2210 -0.6539 -0.3892
17034SOL     OW52542   5.102   4.292  11.367 -0.2624 -0.1516 -0.0708
17034SOL    HW152543   5.097   4.225  11.436 -1.3703 -0.7265 -0.6715
17034SOL    HW252544   5.096   4.375  11.414 -2.0268 -0.5449  0.4915
17035SOL     OW52545   4.294   5.657  10.466 -0.0001  0.8331 -0.1449
17035SOL    HW152546   4.224   5.594  10.485 -1.0441  2.3981  1.5472
17035SOL    HW252547   4.250   5.729  10.421  0.5577  1.6697  0.6062
17036SOL     OW52548   6.172   5.485  10.807  0.1724  0.2373  0.2257
17036SOL    HW152549   6.201   5.398  10.779  0.6864 -0.4137  2.5601
17036SOL    HW252550   6.103   5.467  10.872  0.1079  1.5632  0.5500
17037SOL     OW52551   5.908   7.692  11.271  0.0451  0.0014 -0.1681
17037SOL    HW152552   6.002   7.685  11.290  0.1982 -0.5982 -1.1021
17037SOL    HW252553   5.867   7.700  11.357  0.7934 -1.7188  0.3781
17038SOL     OW52554   4.480   4.749   9.060  0.0353  0.2264  0.3582
17038SOL    HW152555   4.528   4.718   8.983  0.1818  1.0954  0.0854
17038SOL    HW252556   4.398   4.785   9.026 -0.6100 -0.8026  0.7755
17039SOL     OW52557   4.065   7.416  11.237 -0.0550 -0.0302  0.5344
17039SOL    HW152558   4.121   7.446  11.166  0.0909 -0.7643  0.3359
17039SOL    HW252559   3.987   7.471  11.231 -0.0537 -0.1070 -0.2123
17040SOL     OW52560   3.930   4.991  10.858 -0.0079 -0.8174 -0.0862
17040SOL    HW152561   3.886   5.075  10.873  0.5324 -0.4136 -0.6945
17040SOL    HW252562   4.023   5.010  10.872  0.0148 -1.5786  0.8528
17041SOL     OW52563   3.110   7.668  10.841  0.4778  0.0081  0.2427
17041SOL    HW152564   3.193   7.716  10.830  0.2859 -0.0927 -2.0215
17041SOL    HW252565   3.123   7.586  10.794 -1.1169  0.2703 -0.7370
17042SOL     OW52566   5.143   6.708   9.046 -0.4131  0.2349  0.2094
17042SOL    HW152567   5.164   6.661   9.127  0.2815  2.7969  1.6191
17042SOL    HW252568   5.227   6.715   9.000 -0.2791  1.0173  0.5547
17043SOL     OW52569   4.292   6.261  11.446 -0.3394 -0.8216  0.1899
17043SOL    HW152570   4.370   6.259  11.502  0.6799 -0.1473 -1.1532
17043SOL    HW252571   4.278   6.170  11.421 -0.1646 -0.9871  0.6868
17044SOL     OW52572   4.523   6.074  11.215  0.5567 -0.1988 -0.0182
17044SOL    HW152573   4.528   6.166  11.189 -0.1821 -0.2719 -0.4647
17044SOL    HW252574   4.496   6.028  11.135 -0.2557 -0.6329  0.4856
17045SOL     OW52575   3.421   6.487  12.388  0.0379  0.5398 -0.6348
17045SOL    HW152576   3.406   6.462  12.479  0.4981  1.1259 -0.3924
17045SOL    HW252577   3.363   6.429  12.337  0.0605 -0.0532  0.0004
17046SOL     OW52578   5.477   0.698  11.144  0.2907  0.2609 -0.6263
17046SOL    HW152579   5.475   0.605  11.121  0.7442 -0.1064  0.7464
17046SOL    HW252580   5.511   0.700  11.233 -2.1821  1.5785  0.3697
17047SOL     OW52581   4.904   6.850   0.965 -0.4996  0.7090  0.0099
17047SOL    HW152582   4.885   6.898   0.885 -2.8249  1.3386  0.8465
17047SOL    HW252583   4.993   6.876   0.989 -0.7035  2.4891 -1.0008
17048SOL     OW52584   6.386   0.756   9.267  0.1511 -0.1883  0.0542
17048SOL    HW152585   6.317   0.780   9.329 -0.0662 -1.5121  0.3560
17048SOL    HW252586   6.460   0.730   9.322  0.1563 -0.8089 -0.2419
17049SOL     OW52587   4.804   5.079   9.745 -0.4305  0.1315  0.6891
17049SOL    HW152588   4.829   5.105   9.657 -0.5149  0.0500  0.6413
17049SOL    HW252589   4.855   5.000   9.762 -1.2433 -0.4980  0.2870
17050SOL     OW52590   3.534   6.362  10.882  0.5705 -0.6734  0.0359
17050SOL    HW152591   3.548   6.289  10.822 -1.5797 -1.6853  0.6365
17050SOL    HW252592   3.534   6.440  10.827  2.1579 -1.1795 -0.7334
17051SOL     OW52593   4.554   3.102  11.474 -0.1717 -0.6543 -0.5194
17051SOL    HW152594   4.597   3.178  11.514 -0.9140 -0.8231  0.6729
17051SOL    HW252595   4.529   3.131  11.387 -0.1002  0.3557 -0.2164
17052SOL     OW52596   3.859   6.798   9.507 -0.1434  0.3207  0.2124
17052SOL    HW152597   3.909   6.764   9.582  0.4501  2.0100  0.6333
17052SOL    HW252598   3.782   6.742   9.502  0.4488 -0.6333  1.2739
17053SOL     OW52599   3.051   6.460  10.900  0.6729  0.5817 -0.1999
17053SOL    HW152600   3.097   6.486  10.820  0.1075  1.5109 -0.2448
17053SOL    HW252601   2.967   6.427  10.869  0.4807  0.8772  0.0007
17054SOL     OW52602   4.699   5.732  10.945 -0.3290 -0.0586 -0.1654
17054SOL    HW152603   4.621   5.707  10.995  0.2337 -0.2034  0.6748
17054SOL    HW252604   4.771   5.725  11.008  0.2238  1.1010 -0.6272
17055SOL     OW52605   5.071   7.501   9.437  0.1793  0.2880 -0.2441
17055SOL    HW152606   5.149   7.542   9.477  0.1147  1.2473 -1.0595
17055SOL    HW252607   5.084   7.407   9.451  1.2921  0.4530 -0.0241
17056SOL     OW52608   5.165   6.536  10.175 -0.0452  0.6232 -0.0229
17056SOL    HW152609   5.092   6.496  10.221  0.8197 -0.5458  0.3675
17056SOL    HW252610   5.194   6.470  10.112  1.7895  0.3191  1.0551
17057SOL     OW52611   5.410   4.664   8.920  0.2137  0.1140 -0.4576
17057SOL    HW152612   5.401   4.758   8.904 -1.0102 -0.2120 -2.0140
17057SOL    HW252613   5.326   4.639   8.961 -0.4883 -0.6751 -2.2843
17058SOL     OW52614   5.123   5.219  10.713 -0.0206 -0.4351  0.1056
17058SOL    HW152615   5.167   5.244  10.632  2.3432 -1.6656  0.9372
17058SOL    HW252616   5.047   5.278  10.718  0.8009  0.9118 -2.0285
17059SOL     OW52617   3.702   7.174  10.078 -0.2899 -0.3241 -0.3589
17059SOL    HW152618   3.726   7.159   9.987 -1.8794 -1.0855 -0.6934
17059SOL    HW252619   3.745   7.103  10.126 -0.5207 -0.7219 -0.7215
17060SOL     OW52620   4.183   4.080  10.075  0.2869 -0.3907  1.2714
17060SOL    HW152621   4.095   4.058  10.046  1.3146 -0.7785 -1.9593
17060SOL    HW252622   4.190   4.175  10.062  0.6008 -0.4931  0.6387
17061SOL     OW52623   4.783   0.339   9.923  0.4648  0.0385 -0.2138
17061SOL    HW152624   4.737   0.324   9.840 -0.6404 -0.9207  0.5440
17061SOL    HW252625   4.785   0.253   9.964  1.1427  0.4778  0.6961
17062SOL     OW52626   6.202   7.768  10.756  0.1292  0.3196 -0.1752
17062SOL    HW152627   6.227   7.861  10.760  0.1651  0.2965  0.1563
17062SOL    HW252628   6.223   7.742  10.666  2.2229  0.0384  0.3337
17063SOL     OW52629   5.448   6.714   0.266 -0.3365  0.7685  0.1740
17063SOL    HW152630   5.383   6.780   0.242  0.7306  2.2278  1.1336
17063SOL    HW252631   5.505   6.758   0.329 -0.3572 -1.4964  1.9047
17064SOL     OW52632   5.627   6.501  12.250 -0.1825 -0.0782  0.1086
17064SOL    HW152633   5.705   6.505  12.306 -1.0736 -0.8798  1.4505
17064SOL    HW252634   5.566   6.445  12.298 -1.3641  0.0371 -1.2120
17065SOL     OW52635   4.091   0.465  10.526  0.9109  0.0710  0.2880
17065SOL    HW152636   4.096   0.464  10.622 -0.1862  2.0681  0.4248
17065SOL    HW252637   4.152   0.398  10.498  1.1103 -0.7000  2.3969
17066SOL     OW52638   3.298   7.104  11.798 -0.1725  0.0536  0.5715
17066SOL    HW152639   3.378   7.056  11.775 -0.0653  1.0122 -1.1835
17066SOL    HW252640   3.250   7.043  11.855  0.4434 -1.7053 -0.6983
17067SOL     OW52641   3.475   7.238  11.336  0.2954  0.0719  0.5707
17067SOL    HW152642   3.465   7.333  11.335  0.4906  0.0845 -0.2182
17067SOL    HW252643   3.444   7.212  11.423 -0.0173  0.8246  0.6893
17068SOL     OW52644   3.828   6.578   8.310  0.7132 -0.2037 -0.2763
17068SOL    HW152645   3.894   6.584   8.241  0.4346 -0.4380 -0.5721
17068SOL    HW252646   3.850   6.648   8.372  1.9706 -1.0554  0.2767
17069SOL     OW52647   5.166   5.825  11.574  0.1553  0.2536 -0.0801
17069SOL    HW152648   5.096   5.768  11.605  0.0390  0.3495 -0.1649
17069SOL    HW252649   5.243   5.798  11.624  0.2516 -0.4013 -0.5701
17070SOL     OW52650   3.856   5.641  11.628  0.2813 -0.1378 -0.1118
17070SOL    HW152651   3.791   5.634  11.559  0.2756 -0.1998 -0.0995
17070SOL    HW252652   3.933   5.594  11.594  0.3493  0.0080 -0.1611
17071SOL     OW52653   4.189   0.560  11.209  0.6985  0.2465  0.3902
17071SOL    HW152654   4.279   0.574  11.181  0.7237  0.0156  0.3466
17071SOL    HW252655   4.163   0.642  11.251  0.8689  0.3744  0.2459
17072SOL     OW52656   4.128   6.833  11.513  0.0083 -0.1350 -0.4662
17072SOL    HW152657   4.085   6.911  11.479  2.0908  0.9328 -0.8626
17072SOL    HW252658   4.083   6.815  11.596 -0.6147  1.4126 -0.4306
17073SOL     OW52659   4.873   4.111  10.547  0.4119 -0.7696  0.6899
17073SOL    HW152660   4.890   4.077  10.635 -0.1116  1.1397  1.5774
17073SOL    HW252661   4.953   4.157  10.523  0.0940 -0.2126  0.6954
17074SOL     OW52662   4.003   7.597  10.580 -0.6435 -0.6519  0.2318
17074SOL    HW152663   3.923   7.545  10.568  1.5737 -4.4103 -0.0675
17074SOL    HW252664   4.059   7.541  10.634  1.6734  2.0130  0.8135
17075SOL     OW52665   3.882   7.627  11.229 -0.2590  0.2825  0.4025
17075SOL    HW152666   3.936   7.703  11.249  0.7583 -0.5108  0.7660
17075SOL    HW252667   3.817   7.660  11.166  0.9397  1.1604 -0.4414
17076SOL     OW52668   4.536   4.977  11.439  0.0993 -0.6399 -0.3485
17076SOL    HW152669   4.468   5.026  11.484 -0.3025 -0.2292 -1.3722
17076SOL    HW252670   4.592   4.945  11.509 -0.1978  0.4287  0.4151
17077SOL     OW52671   3.466   5.772  11.219  0.5072  0.5736 -0.4673
17077SOL    HW152672   3.561   5.775  11.231  0.4998  0.2622 -0.3390
17077SOL    HW252673   3.450   5.692  11.169  0.1081 -0.5948  1.4380
17078SOL     OW52674   4.812   6.552   8.677  0.0751 -0.1606 -0.3665
17078SOL    HW152675   4.839   6.614   8.609 -0.2841  0.4549  0.0422
17078SOL    HW252676   4.716   6.550   8.671  0.0879 -0.7993 -0.4745
17079SOL     OW52677   5.165   6.587  12.262 -0.2495  0.0888 -0.2950
17079SOL    HW152678   5.195   6.599  12.172  0.5404 -0.8042 -0.1627
17079SOL    HW252679   5.246   6.577  12.313 -0.7323 -1.4762  0.2038
17080SOL     OW52680   6.845   6.444   0.610 -0.6165 -0.4464 -0.5205
17080SOL    HW152681   6.835   6.533   0.574  1.8336  0.8159  1.5499
17080SOL    HW252682   6.774   6.436   0.673 -0.1264  0.6212  0.2062
17081SOL     OW52683   4.542   6.281  11.582  0.6934  0.0967 -0.8777
17081SOL    HW152684   4.608   6.350  11.578  1.7880 -0.7847  0.9688
17081SOL    HW252685   4.555   6.240  11.668 -1.4337 -0.9256 -0.9864
17082SOL     OW52686   4.885   6.653  12.112 -0.1984 -0.5435 -0.2065
17082SOL    HW152687   4.924   6.595  12.178 -0.1348 -1.7641 -1.2822
17082SOL    HW252688   4.793   6.659  12.136  0.2313  0.9209  1.3160
17083SOL     OW52689   5.812   7.118  12.487 -0.5519 -0.7582  0.5140
17083SOL    HW152690   5.724   7.156  12.488 -0.9028 -1.5392  0.1604
17083SOL    HW252691   5.844   7.137  12.399 -0.5419 -0.8494  0.4974
17084SOL     OW52692   4.035   7.354   9.919 -0.0865 -0.2455 -0.9106
17084SOL    HW152693   4.112   7.368   9.974  0.2956 -0.8741 -1.2749
17084SOL    HW252694   4.012   7.262   9.933 -1.7894  0.3395  0.4785
17085SOL     OW52695   3.924   7.092  11.876  0.3579 -0.4960  0.5772
17085SOL    HW152696   3.997   7.091  11.815  0.3074 -0.6295  0.5165
17085SOL    HW252697   3.854   7.137  11.829  0.4874 -0.1187  0.7408
17086SOL     OW52698   4.105   0.166  10.196  0.4766 -0.1338  0.0142
17086SOL    HW152699   4.189   0.158  10.152 -0.5873 -2.2289 -1.8616
17086SOL    HW252700   4.048   0.209  10.132 -0.1588  0.3063  0.8433
17087SOL     OW52701   5.148   7.245   9.514 -0.1556  0.0363  0.1900
17087SOL    HW152702   5.198   7.176   9.559  1.0894 -1.0359 -2.5634
17087SOL    HW252703   5.068   7.201   9.486  0.3065 -0.1245 -0.9284
17088SOL     OW52704   6.356   6.609  11.027  0.7916  0.7348  0.0490
17088SOL    HW152705   6.274   6.628  10.981  1.0012 -0.5219 -0.9000
17088SOL    HW252706   6.330   6.554  11.100  0.6274  1.5490  0.6134
17089SOL     OW52707   4.846   4.273   9.755 -0.0145  0.0079 -0.1010
17089SOL    HW152708   4.836   4.182   9.727 -1.7013  0.0765  0.1603
17089SOL    HW252709   4.858   4.321   9.673 -0.6485 -0.2820 -0.3726
17090SOL     OW52710   5.041   4.351   8.910  0.0587 -0.1260 -0.3095
17090SOL    HW152711   4.959   4.309   8.884 -0.7437  0.5526  1.0208
17090SOL    HW252712   5.105   4.281   8.909 -0.0460 -0.3215 -3.2614
17091SOL     OW52713   5.210   5.988   1.433 -0.0998 -0.3027 -0.0150
17091SOL    HW152714   5.202   6.063   1.375  0.1109  0.5992  1.0825
17091SOL    HW252715   5.303   5.965   1.431 -0.4107 -1.6137 -1.6153
17092SOL     OW52716   3.105   6.960  11.953 -0.2218  0.0176 -0.0876
17092SOL    HW152717   3.073   6.901  11.884  0.0015  1.0169 -1.0671
17092SOL    HW252718   3.034   6.963  12.017 -0.8384 -0.1639 -0.7529
17093SOL     OW52719   5.449   0.167  11.680  0.3126  0.1751  0.4061
17093SOL    HW152720   5.399   0.171  11.762 -1.0444 -1.6835 -0.2528
17093SOL    HW252721   5.463   0.073  11.665  0.0999  0.4309 -1.7335
17094SOL     OW52722   4.098   6.167  11.191 -0.0204  0.2548 -0.0600
17094SOL    HW152723   4.179   6.128  11.225  0.8670 -0.0731 -2.3683
17094SOL    HW252724   4.048   6.094  11.156 -1.1198  0.5248  0.8744
17095SOL     OW52725   4.533   3.343  10.334  0.2154  0.3020  0.0310
17095SOL    HW152726   4.625   3.349  10.358  0.6175 -1.7161 -0.7860
17095SOL    HW252727   4.490   3.311  10.413  0.4267  0.1031  0.0669
17096SOL     OW52728   4.015   7.983  10.355 -0.1697  0.8803 -0.0179
17096SOL    HW152729   4.039   8.047  10.287 -1.1976  0.1657 -1.0995
17096SOL    HW252730   4.098   7.960  10.396  1.1466 -1.3505 -3.4785
17097SOL     OW52731   4.136   3.861  11.644  0.0047  0.2732 -0.1734
17097SOL    HW152732   4.053   3.907  11.657  0.6312  1.1598  0.7645
17097SOL    HW252733   4.155   3.819  11.728  1.3860  1.5746  0.2089
17098SOL     OW52734   3.827   7.838   1.789  0.8536 -0.7474  0.1971
17098SOL    HW152735   3.829   7.832   1.885 -2.8557  0.8334  0.5620
17098SOL    HW252736   3.771   7.913   1.772 -0.3117 -2.2235 -3.2352
17099SOL     OW52737   2.538   7.890  10.583 -0.3237 -0.1446 -0.3517
17099SOL    HW152738   2.578   7.960  10.530  0.8341 -0.3618  0.1854
17099SOL    HW252739   2.469   7.854  10.528  1.0160 -0.5511 -1.8462
17100SOL     OW52740   5.434   6.298  12.367  0.1177  0.8133 -0.2346
17100SOL    HW152741   5.342   6.273  12.378  0.2637  0.3171 -0.1384
17100SOL    HW252742   5.465   6.313  12.456  0.6320 -0.8285 -0.1100
17101SOL     OW52743   3.056   7.142   8.723  0.5970  0.0399  0.2408
17101SOL    HW152744   3.076   7.115   8.633 -0.7676 -0.6984  0.1247
17101SOL    HW252745   3.056   7.238   8.720  0.8582  0.0256 -0.4812
17102SOL     OW52746   5.152   7.232  10.854  0.1726 -0.2925 -0.2519
17102SOL    HW152747   5.196   7.273  10.928  0.7286  0.2761 -0.8835
17102SOL    HW252748   5.069   7.200  10.890 -0.0089  0.8515  0.4024
17103SOL     OW52749   5.268   6.806  10.708  0.5905 -0.2577  0.6021
17103SOL    HW152750   5.304   6.864  10.641  0.0417 -0.3936  0.1759
17103SOL    HW252751   5.228   6.734  10.658 -0.1161 -0.1949  1.0562
17104SOL     OW52752   5.530   0.417  10.638 -0.0897 -0.2221  0.2379
17104SOL    HW152753   5.525   0.323  10.622  1.5701 -0.2001 -0.6114
17104SOL    HW252754   5.543   0.455  10.551 -1.8333  0.9074  0.4392
17105SOL     OW52755   2.469   7.168  10.214  0.3400  0.3644  0.1148
17105SOL    HW152756   2.489   7.257  10.246  0.1452 -0.1481  1.7794
17105SOL    HW252757   2.485   7.172  10.120  0.7962  2.0419  0.2297
17106SOL     OW52758   3.857   7.006  10.212  0.0688 -0.2275 -0.2558
17106SOL    HW152759   3.922   6.954  10.164 -0.2449 -1.3724  0.5410
17106SOL    HW252760   3.890   7.010  10.301 -0.1804  0.5146 -0.1863
17107SOL     OW52761   5.241   7.397   9.897 -0.3228 -0.8127  0.0387
17107SOL    HW152762   5.328   7.357   9.905  0.5588  0.4168 -2.4094
17107SOL    HW252763   5.236   7.458   9.971  0.6824 -1.2691  0.5037
17108SOL     OW52764   4.041   7.051  11.394  0.1058 -1.4329 -0.1553
17108SOL    HW152765   4.112   7.094  11.347 -0.3576 -1.4914 -0.9251
17108SOL    HW252766   3.976   7.121  11.409 -1.3701 -2.0810 -2.7956
17109SOL     OW52767   6.308   7.062  10.251  0.1659 -0.0550  0.1584
17109SOL    HW152768   6.254   6.985  10.268 -2.2697  1.9210  1.9875
17109SOL    HW252769   6.395   7.026  10.234 -1.0555 -3.2382 -0.0468
17110SOL     OW52770   5.518   7.043  12.227 -0.2242  0.5120  0.1235
17110SOL    HW152771   5.523   7.061  12.321  0.6741 -0.4769  0.2828
17110SOL    HW252772   5.587   7.098  12.189 -0.3940  0.6889  0.0657
17111SOL     OW52773   5.716   6.562  11.997  0.1609 -0.2863 -0.5254
17111SOL    HW152774   5.716   6.482  11.944  3.5086  0.0278 -1.2349
17111SOL    HW252775   5.706   6.531  12.087 -0.3045 -1.3127 -0.9154
17112SOL     OW52776   4.374   6.522  10.883  0.0821 -0.4167 -0.1919
17112SOL    HW152777   4.449   6.565  10.923 -0.1203  0.5277 -0.7880
17112SOL    HW252778   4.315   6.502  10.956 -0.0846  0.8853  0.0480
17113SOL     OW52779   5.472   7.635   8.771 -0.3554  0.0473 -0.0583
17113SOL    HW152780   5.479   7.697   8.844 -0.4159  0.6171 -0.5296
17113SOL    HW252781   5.549   7.653   8.717 -0.3218 -0.3583 -0.1469
17114SOL     OW52782   3.680   6.697  11.819 -0.3687  0.2328  0.5276
17114SOL    HW152783   3.678   6.641  11.896 -1.3162 -1.8889 -0.9430
17114SOL    HW252784   3.597   6.745  11.823 -2.0193 -2.2645 -0.7139
17115SOL     OW52785   5.049   6.497   0.271 -0.4889 -0.1399  0.1484
17115SOL    HW152786   4.970   6.531   0.313 -0.1071  1.0666 -0.0613
17115SOL    HW252787   5.042   6.525   0.180  0.5230  0.6572  0.2929
17116SOL     OW52788   4.816   5.059  10.189 -0.0724 -0.0338  0.2195
17116SOL    HW152789   4.743   5.116  10.165 -1.2471 -0.6166  2.1242
17116SOL    HW252790   4.822   4.996  10.118 -1.1371  0.2964 -0.1860
17117SOL     OW52791   5.983   0.301  12.385  0.2292  0.0888 -0.0488
17117SOL    HW152792   6.024   0.226  12.430 -1.7326 -1.0245 -0.0389
17117SOL    HW252793   5.946   0.353  12.456 -1.3489 -0.7538 -0.2078
17118SOL     OW52794   4.681   6.545  11.561  0.9725  0.3662 -0.0775
17118SOL    HW152795   4.631   6.592  11.628 -1.1170  1.1418 -2.0821
17118SOL    HW252796   4.745   6.610  11.529  0.6213  0.6422 -0.2235
17119SOL     OW52797   2.905   6.574  11.101  0.2345 -0.2408 -0.4077
17119SOL    HW152798   2.953   6.524  11.035  1.4090 -0.7676  0.7843
17119SOL    HW252799   2.951   6.555  11.183  0.0816  1.9970  0.2579
17120SOL     OW52800   1.585   5.155  11.691 -0.0139 -0.3211 -0.3258
17120SOL    HW152801   1.679   5.159  11.708 -0.0861 -3.8324  1.9419
17120SOL    HW252802   1.544   5.160  11.778 -2.0177  1.4226 -1.2738
17121SOL     OW52803   4.715   6.051  10.946  0.7657 -0.0744 -0.3510
17121SOL    HW152804   4.720   6.077  10.854 -0.6506  2.4411  0.2052
17121SOL    HW252805   4.633   6.003  10.953  0.6829  0.0741 -0.3149
17122SOL     OW52806   5.035   7.803  11.632  0.2739  0.0894  0.9232
17122SOL    HW152807   5.020   7.876  11.693  0.4846  0.2288  0.8084
17122SOL    HW252808   4.951   7.757  11.628  0.2845  0.0265  1.3896
17123SOL     OW52809   2.234   6.875  11.793 -0.1889  0.5993  0.2358
17123SOL    HW152810   2.245   6.873  11.888 -0.6759  1.8371  0.3370
17123SOL    HW252811   2.140   6.889  11.781  0.1255  2.5604 -0.3611
17124SOL     OW52812   5.118   6.873  10.343  0.1662 -0.3881  0.9563
17124SOL    HW152813   5.055   6.881  10.415 -0.5928  3.2590  0.0382
17124SOL    HW252814   5.189   6.932  10.367  0.6644 -0.3344 -0.5657
17125SOL     OW52815   3.718   6.739  11.137 -0.3816  0.2638  0.6383
17125SOL    HW152816   3.629   6.772  11.126 -0.0049  1.4362  0.9693
17125SOL    HW252817   3.774   6.816  11.130  0.4598 -0.1283  2.4051
17126SOL     OW52818   3.523   6.678   8.874 -0.0333  0.2624  0.4136
17126SOL    HW152819   3.480   6.762   8.864  0.3549  0.2616 -1.8625
17126SOL    HW252820   3.587   6.691   8.944 -0.3083  1.7143  0.4177
17127SOL     OW52821   3.985   0.616   9.793 -0.4116 -0.3793 -0.1217
17127SOL    HW152822   3.940   0.539   9.759  1.8424 -1.3161 -1.1713
17127SOL    HW252823   4.027   0.655   9.717  0.6062  0.4138  0.8114
17128SOL     OW52824   4.821   5.328   9.064  0.0089 -0.2303  0.5244
17128SOL    HW152825   4.771   5.257   9.103 -0.2816  0.3484  1.2258
17128SOL    HW252826   4.833   5.302   8.973 -2.0693 -0.1274  0.1815
17129SOL     OW52827   4.316   6.366  10.489 -0.0771 -0.1309  0.4494
17129SOL    HW152828   4.401   6.407  10.505 -0.8613  1.5518  0.5386
17129SOL    HW252829   4.302   6.308  10.565  0.3553  0.6875  1.1665
17130SOL     OW52830   5.770   7.927  11.215 -0.2966  0.0835 -0.0780
17130SOL    HW152831   5.699   7.918  11.279  0.0010 -0.6277  0.1637
17130SOL    HW252832   5.822   7.848  11.226 -0.1126  0.0605 -1.0598
17131SOL     OW52833   3.796   7.432   0.915  0.3136  0.1523  0.5143
17131SOL    HW152834   3.714   7.473   0.943 -0.7396 -0.4245 -1.5559
17131SOL    HW252835   3.813   7.365   0.981  1.0338  2.5077  2.8906
17132SOL     OW52836   4.102   6.067  11.599 -0.0048 -0.5235 -0.0201
17132SOL    HW152837   4.068   5.979  11.613 -1.2480 -0.0476  0.0821
17132SOL    HW252838   4.094   6.081  11.505 -0.5546 -0.2356  0.0658
17133SOL     OW52839   6.123   6.497  11.921  0.5966 -0.0783  0.0236
17133SOL    HW152840   6.179   6.454  11.985 -0.0799 -1.9626 -0.5946
17133SOL    HW252841   6.036   6.495  11.960  0.5730  0.8468  0.0320
17134SOL     OW52842   4.988   7.793  10.379 -0.2501 -0.1889  0.0509
17134SOL    HW152843   4.924   7.728  10.349 -0.2452 -0.1373 -0.0705
17134SOL    HW252844   4.992   7.857  10.308  1.4856 -1.2709 -0.8795
17135SOL     OW52845   6.671   6.406   0.140 -0.7568  0.2268 -0.2504
17135SOL    HW152846   6.700   6.325   0.183  0.4212 -0.9308 -2.9262
17135SOL    HW252847   6.576   6.395   0.130 -1.4118  1.3360  3.3534
17136SOL     OW52848   6.329   6.087  12.485 -0.5414 -0.8644 -0.0103
17136SOL    HW152849   6.242   6.068  12.448 -0.1290 -3.0269  0.0121
17136SOL    HW252850   6.350   6.009  12.537  0.4261  0.6039  1.9094
17137SOL     OW52851   3.207   6.544  11.135  0.0963 -0.3527  0.3840
17137SOL    HW152852   3.290   6.499  11.153  1.1513  1.3208 -0.0811
17137SOL    HW252853   3.171   6.498  11.059  1.7281  0.2656 -0.8210
17138SOL     OW52854   4.099   7.519   9.366  0.4015  0.3788  0.2945
17138SOL    HW152855   4.032   7.451   9.362  1.9354 -1.1747 -1.0973
17138SOL    HW252856   4.142   7.506   9.450  1.2125 -1.0094 -0.2863
17139SOL     OW52857   5.308   5.542  10.639  0.3058 -0.2783 -1.2212
17139SOL    HW152858   5.335   5.568  10.727 -0.5598  1.1745 -1.3518
17139SOL    HW252859   5.258   5.461  10.653 -0.3590  0.2750 -0.2868
17140SOL     OW52860   4.614   0.215  11.253 -0.0765 -0.1653 -0.0093
17140SOL    HW152861   4.599   0.133  11.205  0.6342 -0.5849  0.4557
17140SOL    HW252862   4.558   0.208  11.330 -1.3369  0.5785 -0.8263
17141SOL     OW52863   2.957   5.853  12.095  0.1040 -0.4180  0.4116
17141SOL    HW152864   2.910   5.802  12.029  1.8103  0.2205 -1.4197
17141SOL    HW252865   2.918   5.941  12.089 -0.0608 -0.4772  0.6066
17142SOL     OW52866   3.853   7.219  11.510 -0.1398  0.0328 -0.0941
17142SOL    HW152867   3.911   7.260  11.575  1.4719 -0.9091 -0.8658
17142SOL    HW252868   3.824   7.291  11.455  2.1986  0.3074 -1.0887
17143SOL     OW52869   3.487   5.690   9.304  0.1276 -0.3741  0.4358
17143SOL    HW152870   3.517   5.604   9.275  0.5800  0.0172 -0.2826
17143SOL    HW252871   3.548   5.714   9.375 -1.8075 -1.9340  2.7747
17144SOL     OW52872   4.292   6.007  11.368  0.2680  0.5313  0.6102
17144SOL    HW152873   4.371   5.999  11.315 -0.4934 -2.3874 -0.2545
17144SOL    HW252874   4.305   5.948  11.442 -0.3145  1.5478  1.5626
17145SOL     OW52875   4.032   4.883   9.527  0.6396 -0.0772 -0.5557
17145SOL    HW152876   4.015   4.952   9.462  2.0530 -0.6060 -1.5501
17145SOL    HW252877   4.072   4.929   9.601  0.7738  0.2915 -0.8520
17146SOL     OW52878   5.894   7.571   0.136 -0.3999  0.4311  0.3192
17146SOL    HW152879   5.954   7.565   0.062 -0.5591  2.0532  0.0161
17146SOL    HW252880   5.940   7.529   0.209  0.0802 -0.4837 -0.4940
17147SOL     OW52881   3.540   7.136   0.694  0.4626 -0.5898  0.7846
17147SOL    HW152882   3.618   7.170   0.651  0.5486 -0.3183  1.1493
17147SOL    HW252883   3.552   7.159   0.786  0.4079 -1.3911  0.9966
17148SOL     OW52884   4.832   0.179  10.983 -0.6625 -0.1636  0.4709
17148SOL    HW152885   4.784   0.215  10.908 -2.1441  0.7620  1.7941
17148SOL    HW252886   4.922   0.209  10.970 -0.9727  0.3227 -0.7243
17149SOL     OW52887   4.766   5.150  11.384  0.0786  0.7505  0.2505
17149SOL    HW152888   4.824   5.108  11.320 -1.1316  0.6409 -0.8024
17149SOL    HW252889   4.685   5.099  11.381 -0.4187  1.4646  1.0153
17150SOL     OW52890   5.805   6.686  11.183  0.2089  0.3956 -0.1999
17150SOL    HW152891   5.783   6.623  11.251 -0.7749  1.9575  0.9744
17150SOL    HW252892   5.820   6.768  11.230  2.1740  0.9187 -1.6138
17151SOL     OW52893   4.284   0.003  11.563  0.0322 -0.4272  0.2012
17151SOL    HW152894   4.295  -0.032  11.474  0.7568  2.0312 -0.7510
17151SOL    HW252895   4.195  -0.022  11.588 -0.3288 -0.8180 -1.3684
17152SOL     OW52896   5.736   7.195  11.668 -0.0017 -0.8141  0.5196
17152SOL    HW152897   5.812   7.143  11.694  0.2358  0.2437  2.0549
17152SOL    HW252898   5.728   7.179  11.574  3.5927  0.8252 -0.2567
17153SOL     OW52899   2.637   5.192   9.227 -0.0777  0.5601 -0.1176
17153SOL    HW152900   2.704   5.261   9.226 -1.2460  1.8083  1.4368
17153SOL    HW252901   2.685   5.112   9.208  1.8410  1.4299  0.7208
17154SOL     OW52902   3.186   6.806  11.154 -0.3333  0.3321 -0.0748
17154SOL    HW152903   3.279   6.799  11.176 -0.3260  0.2273 -0.1380
17154SOL    HW252904   3.162   6.718  11.125 -0.1562  0.6541 -1.2417
17155SOL     OW52905   3.830   7.759  11.882 -0.1360  0.2706  0.3254
17155SOL    HW152906   3.747   7.732  11.922 -0.8797 -0.7240 -1.6918
17155SOL    HW252907   3.810   7.842  11.838 -0.2689 -0.2406 -0.6267
17156SOL     OW52908   6.357   5.007   9.953  0.1136 -0.2559  0.3104
17156SOL    HW152909   6.366   5.098   9.981 -1.4171  0.0987 -0.2859
17156SOL    HW252910   6.335   5.012   9.860  1.6284 -1.3067 -0.1400
17157SOL     OW52911   4.935   5.016   8.402 -0.3292  0.2128 -0.5674
17157SOL    HW152912   4.855   5.044   8.447 -0.0388  0.0820  0.0360
17157SOL    HW252913   4.931   4.920   8.402 -0.1794  0.2061 -0.5581
17158SOL     OW52914   4.394   7.585   9.506  0.6368  0.5711 -0.4308
17158SOL    HW152915   4.375   7.496   9.479 -0.1783  0.9151 -1.0171
17158SOL    HW252916   4.464   7.576   9.572  1.6945 -0.3802 -1.6364
17159SOL     OW52917   3.361   6.758  11.549 -0.0430  0.0778 -0.2698
17159SOL    HW152918   3.313   6.835  11.520 -0.3815  0.8146  2.0059
17159SOL    HW252919   3.363   6.700  11.473  0.9329  2.6240 -2.3146
17160SOL     OW52920   3.533   7.170  10.820  0.1183  0.1268 -0.1356
17160SOL    HW152921   3.455   7.155  10.872 -0.4170  1.5846 -0.4538
17160SOL    HW252922   3.523   7.113  10.743 -0.3776 -0.0697  0.0760
17161SOL     OW52923   5.815   6.823   9.617 -0.2411  0.2306  0.0222
17161SOL    HW152924   5.776   6.737   9.632 -2.2454  0.7983 -1.4677
17161SOL    HW252925   5.897   6.805   9.572  0.4535 -0.9498  1.6517
17162SOL     OW52926   3.570   6.957  10.633  0.0278 -0.5872 -0.1640
17162SOL    HW152927   3.639   6.947  10.699 -0.6669  2.7695  1.2665
17162SOL    HW252928   3.613   6.996  10.558  0.0346 -0.2762  0.0008
17163SOL     OW52929   4.037   7.642   0.085  0.0597 -0.3665  0.1334
17163SOL    HW152930   4.023   7.700   0.160  0.9486 -1.6064  1.3037
17163SOL    HW252931   3.949   7.618   0.056 -0.2928  0.1781  0.7373
17164SOL     OW52932   4.804   7.976  12.213  0.4432 -0.4973 -0.5160
17164SOL    HW152933   4.716   7.948  12.188  0.2480 -0.5604  0.2281
17164SOL    HW252934   4.820   7.935  12.298  1.0734 -0.2392 -0.4986
17165SOL     OW52935   6.226   5.937  12.075  0.4510 -0.1186 -0.7414
17165SOL    HW152936   6.246   5.908  12.163  0.1113 -0.3236 -0.7296
17165SOL    HW252937   6.172   5.867  12.038 -0.3981  0.4916 -0.7021
17166SOL     OW52938   4.942   6.754  11.111  0.3551  0.3140  0.9403
17166SOL    HW152939   4.957   6.659  11.110 -1.4333 -0.0078  0.1545
17166SOL    HW252940   4.921   6.775  11.020 -0.0136  1.3319  1.2482
17167SOL     OW52941   4.715   7.349  11.107 -0.1755 -0.3402 -0.4605
17167SOL    HW152942   4.778   7.351  11.179 -0.9718  0.2711  0.2393
17167SOL    HW252943   4.654   7.280  11.131  0.5273 -1.3168 -1.4139
17168SOL     OW52944   4.704   7.947   9.528 -0.1748  0.0811  0.1701
17168SOL    HW152945   4.657   8.016   9.575  0.9055  2.2219 -1.6719
17168SOL    HW252946   4.640   7.911   9.467 -0.2535  0.9036 -0.2542
17169SOL     OW52947   4.558   6.716  11.755 -0.1301  0.3418  0.0554
17169SOL    HW152948   4.591   6.666  11.829  0.1471  2.1622  1.2219
17169SOL    HW252949   4.468   6.738  11.779 -1.3485 -2.1375 -1.8240
17170SOL     OW52950   5.754   4.744  11.083 -0.1610  0.2277  0.2482
17170SOL    HW152951   5.848   4.750  11.063 -0.2990 -0.2688 -0.5785
17170SOL    HW252952   5.748   4.678  11.152  0.1795  0.9079  0.9414
17171SOL     OW52953   5.060   7.807  11.323  0.1808  0.0986 -0.0860
17171SOL    HW152954   5.059   7.820  11.418 -0.1946  0.1900 -0.1015
17171SOL    HW252955   4.970   7.782  11.301  0.3224 -0.1654 -0.3840
17172SOL     OW52956   5.668   0.927   9.712 -0.4112 -0.1321  0.5168
17172SOL    HW152957   5.759   0.954   9.719 -0.2677 -0.2141 -0.8833
17172SOL    HW252958   5.630   0.985   9.646 -1.1012 -0.7960  0.3126
17173SOL     OW52959   3.951   5.573   9.661  0.1704 -0.1914  0.4876
17173SOL    HW152960   3.932   5.649   9.715  1.1404 -0.1225  0.7488
17173SOL    HW252961   3.921   5.498   9.713 -0.3682 -0.0252  0.4213
17174SOL     OW52962   3.781   6.021  10.665 -0.3719  0.0928 -0.4894
17174SOL    HW152963   3.698   6.050  10.702 -0.2630  0.1685 -0.3026
17174SOL    HW252964   3.847   6.049  10.728 -0.3384 -1.3500  0.1780
17175SOL     OW52965   4.059   5.746  10.629 -0.3497 -0.3911  0.7816
17175SOL    HW152966   4.002   5.671  10.611 -0.6358  0.0867 -0.4042
17175SOL    HW252967   4.057   5.798  10.548  1.3207 -0.0635  0.9176
17176SOL     OW52968   2.851   5.983   9.213  0.0977 -0.1974  0.2852
17176SOL    HW152969   2.891   6.008   9.296  0.0779 -2.6889  1.1552
17176SOL    HW252970   2.782   5.921   9.238 -1.9477  1.2637 -1.4146
17177SOL     OW52971   4.128   7.088  11.685 -0.0711 -0.3806 -0.7262
17177SOL    HW152972   4.214   7.070  11.722  1.4360  3.7876 -1.6860
17177SOL    HW252973   4.133   7.056  11.595  0.0105 -1.2505 -0.4158
17178SOL     OW52974   4.715   4.647  12.401 -0.0592 -0.4021  0.4974
17178SOL    HW152975   4.749   4.686  12.482  1.0822  1.1159 -0.6550
17178SOL    HW252976   4.647   4.708  12.372 -0.8317 -1.2145  0.5590
17179SOL     OW52977   3.603   5.593  10.893  0.3743 -0.2431 -0.0981
17179SOL    HW152978   3.619   5.687  10.897 -0.6607 -0.0450 -0.1167
17179SOL    HW252979   3.671   5.554  10.948 -0.8792  0.7619  2.3266
17180SOL     OW52980   3.376   7.072   0.054 -0.0420 -0.4977  0.3762
17180SOL    HW152981   3.416   7.143   0.104  0.1088 -1.0055  0.9895
17180SOL    HW252982   3.447   7.039  -0.002  0.0440 -0.5405  0.5106
17181SOL     OW52983   4.825   5.907  11.656 -0.1170  0.4648  0.0289
17181SOL    HW152984   4.834   5.944  11.568 -0.5750 -0.5383 -0.4583
17181SOL    HW252985   4.868   5.821  11.649  0.8634  0.8359  1.1063
17182SOL     OW52986   5.154   6.064  11.724  0.1345 -0.7838  0.3697
17182SOL    HW152987   5.221   6.101  11.668  2.1480 -0.7450  2.6379
17182SOL    HW252988   5.135   5.978  11.686 -1.4192  0.6720 -2.4415
17183SOL     OW52989   6.206   6.040   1.065  0.2409  0.4376  0.0726
17183SOL    HW152990   6.279   6.057   1.125 -1.3373  2.2431  1.6122
17183SOL    HW252991   6.223   6.096   0.990  0.8291  0.2476  0.0576
17184SOL     OW52992   4.849   5.487  11.433 -0.2904 -0.2844 -0.5424
17184SOL    HW152993   4.780   5.458  11.374  0.5779 -1.6169 -0.9517
17184SOL    HW252994   4.902   5.409  11.449  2.0214  0.9880 -1.4805
17185SOL     OW52995   4.539   0.448   0.909  0.1510  0.1786 -0.0222
17185SOL    HW152996   4.491   0.368   0.888  1.0617 -0.5521  0.5718
17185SOL    HW252997   4.493   0.485   0.985 -1.0252  0.9246 -1.0582
17186SOL     OW52998   1.865   7.162   1.288  0.0748 -0.3657 -0.0271
17186SOL    HW152999   1.898   7.251   1.279  0.4644 -0.3270  1.5435
17186SOL    HW253000   1.778   7.164   1.248  0.6038  0.3830 -1.1553
17187SOL     OW53001   4.344   7.612  11.823  0.3979 -0.1192 -0.3216
17187SOL    HW153002   4.272   7.671  11.799  1.5796  1.5786  0.1171
17187SOL    HW253003   4.327   7.590  11.914 -0.6656 -1.4481 -0.8029
17188SOL     OW53004   6.182   7.178   0.814 -0.1362  0.0492  0.4705
17188SOL    HW153005   6.274   7.178   0.841 -0.8442 -0.2900  3.2264
17188SOL    HW253006   6.164   7.086   0.791  0.1222  0.0511  0.2584
17189SOL     OW53007   4.332   6.916  11.825 -0.3546 -0.1499 -0.1454
17189SOL    HW153008   4.319   6.893  11.917  0.8051 -0.6577 -0.0952
17189SOL    HW253009   4.388   6.994  11.827  0.0429 -0.4233 -0.4220
17190SOL     OW53010   3.678   6.623  12.108 -0.1013 -0.1100  0.6093
17190SOL    HW153011   3.735   6.698  12.124 -0.0086 -0.0466  0.0086
17190SOL    HW253012   3.593   6.649  12.142 -0.0888  0.3007  0.3282
17191SOL     OW53013   3.857   7.127  12.312 -0.0170 -0.1758  0.7738
17191SOL    HW153014   3.946   7.091  12.316  0.2464  0.3257 -0.2530
17191SOL    HW253015   3.809   7.065  12.257  0.1187  0.3926  0.0099
17192SOL     OW53016   4.982   6.352  10.885 -0.1429  0.2567  0.6469
17192SOL    HW153017   4.955   6.431  10.838  0.2422 -1.0316 -1.9083
17192SOL    HW253018   4.902   6.320  10.927 -0.2626  2.0364  1.8803
17193SOL     OW53019   4.677   4.576   0.709 -0.5867 -0.0804 -0.2768
17193SOL    HW153020   4.677   4.670   0.691  1.3974  0.3085  1.3861
17193SOL    HW253021   4.598   4.562   0.762 -0.9983  0.6034 -0.6922
17194SOL     OW53022   4.911   7.232  11.796  0.0697  0.0557 -0.0164
17194SOL    HW153023   4.915   7.156  11.855  0.7929  0.4642  0.4738
17194SOL    HW253024   4.990   7.225  11.743 -0.3297 -0.0330 -0.6144
17195SOL     OW53025   3.529   6.578  10.703 -0.3280  0.2543  0.0784
17195SOL    HW153026   3.524   6.626  10.621 -1.8968  3.0301  1.6351
17195SOL    HW253027   3.617   6.598  10.737 -0.0057 -0.1782 -0.4841
17196SOL     OW53028   5.938   5.546   0.031  0.0163 -0.0503 -0.1923
17196SOL    HW153029   5.984   5.485   0.089  0.8516  0.0580 -0.7212
17196SOL    HW253030   5.854   5.504   0.014 -0.0898 -0.2561  0.7937
17197SOL     OW53031   6.327   7.523   0.275 -0.3682  0.0986 -0.0852
17197SOL    HW153032   6.365   7.554   0.357  0.9815 -3.4957  0.8180
17197SOL    HW253033   6.394   7.542   0.209 -0.4348  0.8736  0.0645
17198SOL     OW53034   5.006   6.919   2.704  0.4204  0.3187  0.0538
17198SOL    HW153035   4.993   7.011   2.725  0.4948 -0.1267  2.3162
17198SOL    HW253036   4.944   6.872   2.760  0.5523 -1.0399 -0.8674
17199SOL     OW53037   3.988   0.059   0.591 -0.6310 -0.3734  0.1869
17199SOL    HW153038   3.929   0.083   0.662  0.2662  0.1468  0.7722
17199SOL    HW253039   3.963   0.117   0.518  0.9586  1.9253  1.3152
17200SOL     OW53040   4.994   7.218   0.251  0.0864  0.1238  0.2861
17200SOL    HW153041   4.998   7.219   0.155 -1.6326  0.3868  0.1834
17200SOL    HW253042   4.911   7.261   0.271 -1.0751 -2.5578  1.7693
17201SOL     OW53043   4.224   5.959  12.125 -1.0998 -0.1881  0.0136
17201SOL    HW153044   4.231   6.014  12.047 -0.9160 -0.5802 -0.2491
17201SOL    HW253045   4.314   5.935  12.146 -1.0364  0.8742  1.0475
17202SOL     OW53046   5.945   7.649   0.436  0.1695  0.3537  0.1866
17202SOL    HW153047   5.892   7.623   0.511  1.1255 -0.9345  0.4505
17202SOL    HW253048   5.937   7.745   0.433 -0.1194  0.4064  1.7602
17203SOL     OW53049   5.772   4.858  12.241 -0.3687  0.0454 -0.5994
17203SOL    HW153050   5.742   4.769  12.259 -2.3599  0.8697  0.4940
17203SOL    HW253051   5.846   4.870  12.300 -1.1160 -0.3764  0.4723
17204SOL     OW53052   6.306   0.177   9.172 -0.2064  0.0490 -0.8864
17204SOL    HW153053   6.292   0.128   9.253 -0.6984 -0.0251 -1.0158
17204SOL    HW253054   6.303   0.112   9.103 -0.2895  0.1816 -1.0083
17205SOL     OW53055   3.324   6.849   0.349  0.2113  0.1158 -0.4762
17205SOL    HW153056   3.353   6.897   0.427  1.2499  0.1628 -0.8737
17205SOL    HW253057   3.252   6.901   0.314  1.3042  1.4270 -0.8991
17206SOL     OW53058   4.141   4.893  11.610  0.2364 -0.6211 -0.0065
17206SOL    HW153059   4.160   4.803  11.636 -1.0946 -0.6795  0.8509
17206SOL    HW253060   4.062   4.887  11.557  0.6303 -0.0436 -0.6738
17207SOL     OW53061   6.944   7.128  11.730 -0.3108 -0.2745 -0.4340
17207SOL    HW153062   6.862   7.138  11.779 -1.7402 -0.6309 -2.6264
17207SOL    HW253063   7.005   7.090  11.794 -1.5452  0.8277  1.5134
17208SOL     OW53064   3.880   6.287  11.936 -0.3988 -0.3747 -0.2166
17208SOL    HW153065   3.940   6.220  11.903 -1.2013 -0.8265 -0.8112
17208SOL    HW253066   3.936   6.357  11.969  0.4438 -0.9174 -0.4847
17209SOL     OW53067   4.571   7.108  11.175  0.6291  0.0490  0.1205
17209SOL    HW153068   4.616   7.032  11.213  1.0451  0.1446 -0.1778
17209SOL    HW253069   4.519   7.144  11.247  0.8021 -0.2352  0.3889
17210SOL     OW53070   4.244   6.204  12.497  0.0974 -0.5290  0.0184
17210SOL    HW153071   4.302   6.178  12.569 -0.5584  0.1577  0.8101
17210SOL    HW253072   4.162   6.227  12.539 -1.2842 -2.8389 -1.1716
17211SOL     OW53073   3.219   5.922  12.149 -0.2703 -0.3486  0.2636
17211SOL    HW153074   3.213   5.990  12.216 -1.3394 -0.0779 -0.0894
17211SOL    HW253075   3.129   5.893  12.135 -0.1986  0.1686 -1.6297
17212SOL     OW53076   5.514   7.320  10.559 -0.2051  0.2725  0.1004
17212SOL    HW153077   5.491   7.269  10.636 -0.4369  0.4137  0.1247
17212SOL    HW253078   5.432   7.327  10.510  0.5714 -2.6572 -1.8683
17213SOL     OW53079   2.050   5.628   9.952  0.5439  0.1064 -0.1000
17213SOL    HW153080   2.015   5.716   9.940  0.6211 -0.1835 -3.2818
17213SOL    HW253081   1.973   5.572   9.961  0.4702  0.3798  1.0539
17214SOL     OW53082   3.621   7.564  11.095 -0.4544 -0.9054  0.5734
17214SOL    HW153083   3.597   7.598  11.009  0.3168 -1.4091  0.1537
17214SOL    HW253084   3.650   7.474  11.079 -0.6766 -1.1347  1.4117
17215SOL     OW53085   3.957   1.316  12.353  0.3168  0.0222 -0.3974
17215SOL    HW153086   4.020   1.281  12.290 -1.3978 -0.0957 -2.1482
17215SOL    HW253087   3.895   1.244  12.367  1.1306 -0.2729  2.1987
17216SOL     OW53088   6.465   5.991  11.833  0.0839 -0.3145 -0.0547
17216SOL    HW153089   6.549   6.035  11.823  0.5844 -1.1224  0.4917
17216SOL    HW253090   6.401   6.061  11.830  0.8013  0.3506 -0.1490
17217SOL     OW53091   4.951   5.007  11.244 -0.4239 -0.2634 -0.0621
17217SOL    HW153092   4.977   5.081  11.189 -1.8566  0.0734 -0.3346
17217SOL    HW253093   4.931   4.937  11.181  0.5455 -0.7723  0.1776
17218SOL     OW53094   7.215   7.088  11.905  0.5557 -0.5204  0.3149
17218SOL    HW153095   7.248   7.000  11.922  0.1100 -0.8264 -0.3435
17218SOL    HW253096   7.279   7.126  11.844 -0.2006 -1.0564 -0.8382
17219SOL     OW53097   3.116   6.145  10.773  0.2929  0.1871 -0.0042
17219SOL    HW153098   3.045   6.185  10.825 -0.0400 -0.8435  0.3660
17219SOL    HW253099   3.171   6.219  10.747 -1.9279  1.2829 -1.9159
17220SOL     OW53100   6.086   7.290  10.858  0.1531 -0.4930  0.0495
17220SOL    HW153101   6.154   7.356  10.849 -1.3132  1.0014 -0.5325
17220SOL    HW253102   6.134   7.209  10.876  2.1109  0.3813 -0.8922
17221SOL     OW53103   4.695   1.245  12.377  0.3361 -0.2332  0.5033
17221SOL    HW153104   4.768   1.196  12.414  0.7004 -0.6548 -0.7271
17221SOL    HW253105   4.736   1.321  12.336 -0.1408  0.6659  1.6495
17222SOL     OW53106   4.092   4.873  12.095 -0.3938  0.6422  0.1612
17222SOL    HW153107   4.111   4.940  12.030 -1.5032  1.7489  0.9162
17222SOL    HW253108   4.013   4.829  12.063 -0.1074  0.2000  0.0474
17223SOL     OW53109   4.705   0.884  11.265  0.1541 -0.4027 -0.0226
17223SOL    HW153110   4.747   0.817  11.318  0.1830  0.5993  1.2704
17223SOL    HW253111   4.777   0.930  11.222  0.2682  0.0172  0.6038
17224SOL     OW53112   5.512   7.905  11.720 -0.6567 -0.0019 -0.5498
17224SOL    HW153113   5.576   7.880  11.787  1.0661  3.9974 -0.3903
17224SOL    HW253114   5.428   7.881  11.758  0.4323 -0.4669  1.7858
17225SOL     OW53115   2.931   6.787   1.549  0.2258  0.9681  0.0155
17225SOL    HW153116   3.022   6.764   1.570  0.3436  0.8666 -0.5746
17225SOL    HW253117   2.938   6.840   1.469 -0.2840  0.3366 -0.4579
17226SOL     OW53118   3.624   5.579  12.047  0.1225 -0.1747 -0.1780
17226SOL    HW153119   3.581   5.594  11.963  0.6801 -1.1923 -0.6690
17226SOL    HW253120   3.565   5.618  12.112 -1.7165 -1.7746 -0.8025
17227SOL     OW53121   4.600   6.250  12.497  0.2731  0.4396 -0.4679
17227SOL    HW153122   4.589   6.188  12.569  0.7090  0.6057 -0.2495
17227SOL    HW253123   4.589   6.336  12.538  2.1073  0.6153 -0.2473
17228SOL     OW53124   5.158   7.016  11.795 -0.0550 -0.3400 -0.1499
17228SOL    HW153125   5.145   6.981  11.707 -2.1485  0.9697 -0.4342
17228SOL    HW253126   5.117   6.952  11.853 -0.4191 -0.2632 -0.3186
17229SOL     OW53127   4.961   5.921  10.910 -0.0462  0.6514  0.0466
17229SOL    HW153128   4.940   5.839  10.865 -0.1474  0.0566  1.1499
17229SOL    HW253129   4.881   5.943  10.959 -0.2200  1.7214 -0.6583
17230SOL     OW53130   4.659   1.091   0.766 -0.3371  0.0085 -0.0098
17230SOL    HW153131   4.617   1.006   0.781 -1.2535  0.6313  1.1518
17230SOL    HW253132   4.599   1.138   0.709 -0.0152  0.0187 -0.3428
17231SOL     OW53133   5.139   6.423  11.834 -0.1064 -0.0470  0.1930
17231SOL    HW153134   5.196   6.385  11.901 -0.4354 -0.3856  0.2829
17231SOL    HW253135   5.164   6.515  11.831  0.5854 -0.2305  0.0874
17232SOL     OW53136   4.729   7.709   0.111 -0.0187  0.2143 -0.2277
17232SOL    HW153137   4.741   7.675   0.200 -0.3110  1.1976  0.1971
17232SOL    HW253138   4.650   7.666   0.080 -1.1582  1.4436  0.8045
17233SOL     OW53139   6.378   0.394   1.264  0.3655 -0.4238 -0.0033
17233SOL    HW153140   6.333   0.477   1.254  1.0008 -0.0679  0.0377
17233SOL    HW253141   6.392   0.384   1.358  0.0143 -0.7321  0.0203
17234SOL     OW53142   4.038   6.258  12.270  0.3727 -0.1254 -0.1415
17234SOL    HW153143   4.054   6.195  12.200 -1.9496 -0.6177 -0.3023
17234SOL    HW253144   4.025   6.204  12.348 -0.0553  0.2316  0.0404
17235SOL     OW53145   5.011   7.221  11.536 -0.5457 -0.3292  0.4529
17235SOL    HW153146   5.033   7.128  11.544 -1.3488 -1.1632 -4.0148
17235SOL    HW253147   5.092   7.262  11.505 -1.0612 -0.3468 -1.0253
17236SOL     OW53148   5.680   5.741  12.024 -0.2476  0.3823 -0.7276
17236SOL    HW153149   5.704   5.650  12.011  0.2947  0.5169 -0.7306
17236SOL    HW253150   5.653   5.772  11.937 -2.6580 -0.3730 -0.3114
17237SOL     OW53151   2.949   6.085  11.566 -0.4627 -0.2830  0.6173
17237SOL    HW153152   2.935   6.170  11.609  2.9922  2.0247 -2.2907
17237SOL    HW253153   3.026   6.048  11.611  1.1965  0.6635 -1.2849
17238SOL     OW53154   4.678   5.401  11.238 -0.6038  0.6328 -0.3115
17238SOL    HW153155   4.680   5.424  11.145 -1.4555  1.2022 -0.2036
17238SOL    HW253156   4.603   5.343  11.247 -1.6457  2.0120  0.3098
17239SOL     OW53157   4.393   5.582  11.330  0.2133  0.6162  0.4931
17239SOL    HW153158   4.416   5.492  11.355  0.7380  0.3839 -0.7751
17239SOL    HW253159   4.392   5.630  11.413  1.7361 -0.1648  1.0046
17240SOL     OW53160   4.313   1.035  10.522 -0.0865 -0.1735  0.2013
17240SOL    HW153161   4.324   0.995  10.436 -0.9178  1.0499 -0.5090
17240SOL    HW253162   4.347   0.970  10.583 -1.4558 -2.0138 -0.8748
17241SOL     OW53163   6.504   7.164  11.350 -0.1130 -0.2579 -0.0470
17241SOL    HW153164   6.501   7.208  11.265 -1.4432 -0.3856 -0.0777
17241SOL    HW253165   6.466   7.227  11.411  2.5613  0.6376  0.8759
17242SOL     OW53166   5.580   7.421  11.760 -0.0451  0.3919 -0.4300
17242SOL    HW153167   5.622   7.347  11.717 -0.2266  1.1706 -2.0052
17242SOL    HW253168   5.491   7.391  11.778 -0.6073  0.7044 -2.4785
17243SOL     OW53169   3.853   5.811   9.809  0.2766 -0.1940 -0.6840
17243SOL    HW153170   3.927   5.860   9.844 -0.1428 -0.1273  0.1319
17243SOL    HW253171   3.806   5.874   9.753 -0.0905  0.2625  0.1210
17244SOL     OW53172   6.743   0.577   0.781 -0.2558  0.0542  0.1883
17244SOL    HW153173   6.660   0.619   0.802 -0.6042 -0.4354 -0.2000
17244SOL    HW253174   6.800   0.650   0.753 -1.1781  0.1664 -1.5065
17245SOL     OW53175   5.831   0.978  12.295 -0.1384 -0.2736  0.2803
17245SOL    HW153176   5.804   0.998  12.385  1.9743  2.0683  0.5102
17245SOL    HW253177   5.750   0.951  12.251 -1.8244  1.4307  2.1205
17246SOL     OW53178   3.634   4.613  11.281 -0.0331 -0.3001 -0.2693
17246SOL    HW153179   3.646   4.522  11.308 -2.0951 -1.0424 -1.5688
17246SOL    HW253180   3.716   4.637  11.238 -0.0178 -2.1467 -1.3685
17247SOL     OW53181   4.328   7.065   2.649 -0.4902  0.1358  0.0548
17247SOL    HW153182   4.250   7.075   2.704  0.1495  0.3708  0.9344
17247SOL    HW253183   4.385   7.137   2.676  0.3385 -0.4768 -0.0632
17248SOL     OW53184   5.126   6.679   1.758  0.1453  0.6484 -0.0843
17248SOL    HW153185   5.100   6.588   1.747  0.0671  0.5139  1.0615
17248SOL    HW253186   5.057   6.717   1.813  0.1680  1.4060 -0.5634
17249SOL     OW53187   4.684   4.899  11.699 -0.0511 -0.6973 -0.3631
17249SOL    HW153188   4.638   4.827  11.743  0.2896  0.2273  1.5752
17249SOL    HW253189   4.769   4.904  11.743  0.2134  0.4207 -0.9664
17250SOL     OW53190   2.894   4.951  11.174  0.5501  0.3590 -0.4758
17250SOL    HW153191   2.814   4.949  11.226  2.0696  1.3561  2.0581
17250SOL    HW253192   2.914   4.859  11.158 -0.0418  0.0240  0.5952
17251SOL     OW53193   4.602   4.092   9.897 -0.4520 -0.6131  0.2532
17251SOL    HW153194   4.508   4.108   9.905 -0.3810  0.0925 -0.2510
17251SOL    HW253195   4.620   4.024   9.963 -0.9768  0.5552  1.6620
17252SOL     OW53196   3.698   6.086  11.677  0.0666 -0.2473 -0.4459
17252SOL    HW153197   3.613   6.052  11.705  0.4745 -0.5800  0.4165
17252SOL    HW253198   3.761   6.045  11.736  0.5007  3.0597  1.6547
17253SOL     OW53199   5.447   6.819   0.661 -0.2045 -0.5583 -0.8529
17253SOL    HW153200   5.475   6.865   0.582  0.0875  0.1413 -0.3591
17253SOL    HW253201   5.527   6.807   0.712 -0.6997  1.2008  0.4362
17254SOL     OW53202   4.489   6.632   1.022  0.1526  0.3519  0.5117
17254SOL    HW153203   4.542   6.570   1.072  0.2656 -0.8518 -1.0347
17254SOL    HW253204   4.406   6.588   1.008 -0.1282  0.9524  0.2352
17255SOL     OW53205   5.709   5.417  12.444 -0.5623  0.6596 -0.9305
17255SOL    HW153206   5.666   5.476  12.382  0.0610  3.0690  0.7852
17255SOL    HW253207   5.727   5.338  12.393 -2.3145  1.5358 -3.0909
17256SOL     OW53208   5.383   6.394   0.881  0.0231  0.1855 -0.4253
17256SOL    HW153209   5.422   6.343   0.952 -0.9944  1.6540  1.2863
17256SOL    HW253210   5.458   6.428   0.832  0.7595 -0.7545  0.0233
17257SOL     OW53211   4.475   5.085   1.310  0.6061 -0.0452  0.0987
17257SOL    HW153212   4.506   5.095   1.400  1.3547 -0.9052 -0.0596
17257SOL    HW253213   4.552   5.057   1.260 -0.4228 -2.4013 -0.2757
17258SOL     OW53214   3.719   6.363  11.610  0.2487  0.0803  0.4887
17258SOL    HW153215   3.719   6.275  11.650 -1.8480 -0.7074 -1.0790
17258SOL    HW253216   3.805   6.398  11.631  1.2607 -2.4555  0.9613
17259SOL     OW53217   3.768   4.716   0.773  0.3174  0.1368 -0.4575
17259SOL    HW153218   3.823   4.781   0.816 -0.0727 -1.0251  1.9608
17259SOL    HW253219   3.795   4.633   0.812 -0.8108 -0.8647 -1.7358
17260SOL     OW53220   5.345   5.942   0.642  0.4475  0.7049  0.0459
17260SOL    HW153221   5.284   5.937   0.715  1.0878  1.6675  0.6706
17260SOL    HW253222   5.289   5.953   0.565 -0.3167 -1.8897  0.1434
17261SOL     OW53223   4.497   6.919   0.593  0.3520  0.0664  0.0461
17261SOL    HW153224   4.528   6.856   0.658  1.6466  0.2049 -0.4063
17261SOL    HW253225   4.576   6.947   0.547 -0.4656  0.3555 -1.2458
17262SOL     OW53226   3.531   5.004  12.006  0.7408  0.0723  0.1047
17262SOL    HW153227   3.571   4.957  11.933 -0.1727 -0.5490 -0.0016
17262SOL    HW253228   3.605   5.042  12.053  1.3200  1.1272 -1.5655
17263SOL     OW53229   2.917   6.345  11.692  0.2294  0.2911 -0.5027
17263SOL    HW153230   2.976   6.417  11.713 -1.2833  1.7276 -0.9407
17263SOL    HW253231   2.850   6.385  11.636 -0.9910 -1.3219 -0.2527
17264SOL     OW53232   3.482   5.857  11.746 -0.2561  0.2787 -0.1867
17264SOL    HW153233   3.400   5.868  11.795 -1.3590  1.5130 -2.1905
17264SOL    HW253234   3.454   5.830  11.659  1.6390 -1.6218 -0.2794
17265SOL     OW53235   4.367   0.869  10.740 -0.0237 -0.0028 -0.7405
17265SOL    HW153236   4.286   0.820  10.730 -0.4881  0.6397 -0.2260
17265SOL    HW253237   4.434   0.803  10.758 -0.3984 -0.5533 -1.3451
17266SOL     OW53238   5.420   0.534   0.283  0.2199  0.4153 -0.4800
17266SOL    HW153239   5.420   0.528   0.188  2.4532  2.7806 -0.7466
17266SOL    HW253240   5.511   0.553   0.306 -0.8873  4.1894  1.6860
17267SOL     OW53241   5.819   6.917  11.959  0.0075  0.1594 -0.0826
17267SOL    HW153242   5.745   6.863  11.932 -0.2200  0.2300  0.3758
17267SOL    HW253243   5.778   6.998  11.991  0.2713  0.1453  0.2976
17268SOL     OW53244   5.059   7.502   0.276  0.1447 -0.2211  0.0528
17268SOL    HW153245   4.971   7.532   0.254 -0.8045 -2.1078  0.9952
17268SOL    HW253246   5.099   7.482   0.191 -1.0026 -1.0125 -0.3394
17269SOL     OW53247   4.292   6.865   1.288  0.3535  0.0724 -0.2461
17269SOL    HW153248   4.245   6.870   1.205  0.7789 -0.3173 -0.5144
17269SOL    HW253249   4.240   6.919   1.348 -0.8173 -0.8639 -0.3584
17270SOL     OW53250   4.194   6.477   0.298 -0.1439 -0.0310 -0.2329
17270SOL    HW153251   4.171   6.508   0.210  0.7493 -0.3784 -0.5926
17270SOL    HW253252   4.175   6.551   0.355  1.7791  1.1515 -1.0539
17271SOL     OW53253   4.278   6.053   0.613  0.6002 -0.4676  0.4088
17271SOL    HW153254   4.275   6.146   0.634 -1.3355  0.0680 -1.8411
17271SOL    HW253255   4.355   6.020   0.660  1.6047  2.3499  0.9090
17272SOL     OW53256   4.321   6.067   1.995  0.3226 -0.3821 -0.3304
17272SOL    HW153257   4.279   6.139   1.947  1.5160  0.9714  0.5423
17272SOL    HW253258   4.405   6.056   1.950  0.8350 -0.0830  0.5219
17273SOL     OW53259   2.389   6.207   9.495  0.4333 -0.2511  0.1345
17273SOL    HW153260   2.475   6.170   9.511  0.8410  1.0633  1.2453
17273SOL    HW253261   2.361   6.170   9.411  0.7906 -2.9697  1.1218
17274SOL     OW53262   4.254   7.275  12.299 -0.2472 -0.2322  0.0897
17274SOL    HW153263   4.196   7.213  12.255 -0.0746 -0.3520  0.0313
17274SOL    HW253264   4.332   7.280  12.243 -0.8778  1.1974 -0.7271
17275SOL     OW53265   6.367   7.637  11.576 -0.3465  0.2352 -0.0298
17275SOL    HW153266   6.457   7.643  11.541 -0.8709 -0.3952 -1.5894
17275SOL    HW253267   6.366   7.556  11.626  0.3285  0.9730  1.2261
17276SOL     OW53268   4.664   7.792   0.870 -0.1823 -0.4448  0.1350
17276SOL    HW153269   4.742   7.845   0.856 -1.7967  2.1998  0.4169
17276SOL    HW253270   4.680   7.748   0.954  0.5684  0.9307  0.7491
17277SOL     OW53271   2.918   7.131  11.221 -0.6477  0.5950  0.0496
17277SOL    HW153272   2.922   7.038  11.241 -4.9791  0.2098  0.0799
17277SOL    HW253273   2.895   7.172  11.305  1.4217  1.8200  0.0875
17278SOL     OW53274   5.243   6.064   0.402  0.2935 -0.6795 -0.3542
17278SOL    HW153275   5.164   6.118   0.400 -1.9281 -3.7061 -0.4400
17278SOL    HW253276   5.259   6.043   0.310  0.3277 -1.2405 -0.2216
17279SOL     OW53277   3.792   7.389   0.175 -0.1462 -0.5710  0.0552
17279SOL    HW153278   3.875   7.377   0.223 -0.3695  0.0495  0.6207
17279SOL    HW253279   3.768   7.301   0.146  0.2564 -0.8958  0.6712
17280SOL     OW53280   3.744   3.427  11.758 -0.0622  0.3838  0.5268
17280SOL    HW153281   3.750   3.351  11.817  0.9103 -2.0952 -2.5007
17280SOL    HW253282   3.652   3.431  11.733  0.0950 -0.6319 -0.2585
17281SOL     OW53283   5.201   7.080  12.498 -0.0203 -0.6630 -0.2236
17281SOL    HW153284   5.127   7.139  12.511 -0.4121 -1.3201  0.6618
17281SOL    HW253285   5.267   7.110  12.560 -0.8082 -2.0570  1.3780
17282SOL     OW53286   4.381   5.791   0.369  0.5517 -0.3143 -0.2608
17282SOL    HW153287   4.352   5.721   0.310  0.6500 -2.8490  2.4772
17282SOL    HW253288   4.450   5.751   0.421  0.2859  1.6927  1.7664
17283SOL     OW53289   6.321   5.665   0.886 -0.4547 -0.6534 -0.0510
17283SOL    HW153290   6.394   5.696   0.941 -0.2271 -2.6669  0.8435
17283SOL    HW253291   6.251   5.729   0.902  1.1349  1.5394 -1.1817
17284SOL     OW53292   4.459   5.919  10.974 -0.1079 -0.5039  0.3767
17284SOL    HW153293   4.458   5.827  10.948 -0.4947 -0.6096  0.7539
17284SOL    HW253294   4.373   5.952  10.948  0.5520  0.1336 -1.0924
17285SOL     OW53295   5.581   6.403   0.672 -0.0038  0.7951 -0.3136
17285SOL    HW153296   5.511   6.363   0.621  1.0196  0.9974 -1.9761
17285SOL    HW253297   5.606   6.480   0.621  1.4477  0.6987  0.2028
17286SOL     OW53298   4.874   6.342  12.092 -0.3603 -0.6494  0.4390
17286SOL    HW153299   4.877   6.380  12.005 -0.1238 -0.0433  0.7090
17286SOL    HW253300   4.847   6.251  12.078 -0.9489 -0.3813 -0.2077
17287SOL     OW53301   5.215   7.617  10.968  0.4171 -0.0639 -0.4597
17287SOL    HW153302   5.261   7.646  11.047  1.9811 -0.8393 -1.0599
17287SOL    HW253303   5.213   7.522  10.974 -0.2791 -0.0918 -0.9220
17288SOL     OW53304   6.813   6.206   0.276  0.5319  0.5110  0.2623
17288SOL    HW153305   6.771   6.123   0.254  1.9457 -0.0401 -0.4164
17288SOL    HW253306   6.834   6.198   0.369  0.9794 -0.0352  0.1185
17289SOL     OW53307   3.814   7.327  10.817  0.2953 -1.0662 -0.0349
17289SOL    HW153308   3.758   7.293  10.888  0.3728  0.7833  0.9879
17289SOL    HW253309   3.882   7.261  10.807  1.9276 -0.2152  3.6494
17290SOL     OW53310   4.214   5.541   0.289 -0.0932  0.0340 -0.3377
17290SOL    HW153311   4.123   5.524   0.264 -0.0301 -0.6199 -0.1553
17290SOL    HW253312   4.252   5.454   0.299  0.8277  0.2931 -1.3718
17291SOL     OW53313   5.212   6.699  11.877  0.4931  0.1879  0.5266
17291SOL    HW153314   5.169   6.773  11.920  0.4793  0.3176  0.2935
17291SOL    HW253315   5.306   6.716  11.888  0.4838 -0.2396  1.2785
17292SOL     OW53316   6.372   7.631   0.953 -0.4558 -0.5115  0.4915
17292SOL    HW153317   6.293   7.665   0.994  0.6151  1.6305  0.9520
17292SOL    HW253318   6.368   7.662   0.863 -0.6759 -1.4079  0.1795
17293SOL     OW53319   4.680   7.337  11.831  0.5814  0.0712  0.0524
17293SOL    HW153320   4.769   7.301  11.827  1.1367  1.4527 -0.7773
17293SOL    HW253321   4.667   7.377  11.746 -0.9326 -0.2710  0.1046
17294SOL     OW53322   4.313   5.386   1.318  1.2210 -0.1869 -0.1426
17294SOL    HW153323   4.253   5.461   1.318  1.4106  0.0140  1.3912
17294SOL    HW253324   4.313   5.354   1.228 -1.3357 -0.3075 -0.1644
17295SOL     OW53325   5.587   6.303  11.066 -0.2330  0.0258  0.1191
17295SOL    HW153326   5.612   6.277  11.154 -0.3366 -1.8737 -0.3780
17295SOL    HW253327   5.666   6.291  11.013 -0.7753 -1.0294 -0.4687
17296SOL     OW53328   3.624   7.158  11.664 -0.3549  0.0381  0.3538
17296SOL    HW153329   3.627   7.064  11.647 -0.4314  0.1502 -0.3197
17296SOL    HW253330   3.687   7.196  11.603  1.7472  0.2048  2.4814
17297SOL     OW53331   5.844   5.335   0.297 -0.0356  0.2914  0.5978
17297SOL    HW153332   5.874   5.261   0.350  1.7080  0.2069 -0.4455
17297SOL    HW253333   5.919   5.358   0.243 -0.2570  3.3222  1.4208
17298SOL     OW53334   4.883   7.331  11.311  0.1417  0.3678 -0.0286
17298SOL    HW153335   4.934   7.284  11.377 -0.1701 -0.5690 -0.4401
17298SOL    HW253336   4.934   7.410  11.294  1.6482 -0.6867 -0.6574
17299SOL     OW53337   4.484   7.644   0.359 -0.4998 -0.7591  0.0807
17299SOL    HW153338   4.421   7.643   0.431  0.6444 -1.3864  1.1092
17299SOL    HW253339   4.469   7.562   0.312  0.0703 -1.2797  0.7998
17300SOL     OW53340   5.589   6.351   1.712 -0.6136  0.0438 -0.1944
17300SOL    HW153341   5.503   6.329   1.677 -0.8729 -0.2508  0.6080
17300SOL    HW253342   5.642   6.272   1.696  0.2442  1.0539 -2.8886
17301SOL     OW53343   4.231   7.477  11.017  0.3523 -0.2458 -0.3216
17301SOL    HW153344   4.147   7.492  10.973  0.4658  0.3961 -0.3265
17301SOL    HW253345   4.286   7.437  10.950  0.4980  0.6429 -0.7487
17302SOL     OW53346   7.306   4.113  11.000  0.4674  0.4499 -0.0982
17302SOL    HW153347   7.377   4.150  11.053  0.0716  0.7014  0.2610
17302SOL    HW253348   7.286   4.181  10.936  0.5689  0.3683 -0.2167
17303SOL     OW53349   3.159   5.491  10.469  0.6661 -0.3617 -0.0896
17303SOL    HW153350   3.203   5.407  10.459  0.6379 -0.7122  2.1876
17303SOL    HW253351   3.115   5.485  10.554 -1.7409  0.9048 -1.1630
17304SOL     OW53352   3.984   7.482  11.901 -0.3411 -0.0288 -0.1287
17304SOL    HW153353   3.905   7.532  11.924 -0.7779 -0.4142 -0.7769
17304SOL    HW253354   4.002   7.429  11.979 -1.8384 -1.3617 -0.6535
17305SOL     OW53355   3.674   4.705   9.326 -0.0261  0.2709  0.2584
17305SOL    HW153356   3.707   4.754   9.251 -1.4844  0.7740 -0.0717
17305SOL    HW253357   3.618   4.637   9.288 -1.1840  0.8495  0.9105
17306SOL     OW53358   7.726   0.285   0.094  0.2143 -0.2994  0.2694
17306SOL    HW153359   7.700   0.371   0.061  1.0464  0.1181  0.6863
17306SOL    HW253360   7.657   0.226   0.062 -0.6446  0.5933  0.4291
17307SOL     OW53361   4.730   7.655  12.118 -0.2580 -0.0057 -0.2753
17307SOL    HW153362   4.730   7.660  12.023  0.4235  3.8497 -0.2481
17307SOL    HW253363   4.651   7.703  12.144  0.8582  1.2049  1.0483
17308SOL     OW53364   6.897   5.967  11.741 -0.0858  0.0886 -0.6498
17308SOL    HW153365   6.820   6.023  11.752 -0.5635  0.3779 -4.0963
17308SOL    HW253366   6.937   5.962  11.827 -2.1445  2.6211  0.5750
17309SOL     OW53367   3.912   7.496  10.147 -0.7731  0.4926  0.3099
17309SOL    HW153368   3.828   7.459  10.175  0.1268 -2.0652 -0.1042
17309SOL    HW253369   3.921   7.469  10.056  0.9560 -0.2166  0.6583
17310SOL     OW53370   4.912   5.950  12.339 -0.0991  0.3128 -0.0913
17310SOL    HW153371   4.886   5.985  12.254 -0.5880  2.1825  0.7555
17310SOL    HW253372   4.946   5.863  12.321  1.7591  1.4372 -2.4615
17311SOL     OW53373   7.178   7.642   0.082 -0.1900 -0.1259  0.0805
17311SOL    HW153374   7.144   7.674   0.166 -0.0485 -1.7536  0.8130
17311SOL    HW253375   7.105   7.651   0.021 -1.1027 -1.1246  0.9866
17312SOL     OW53376   3.443   6.119  11.392  0.2969 -0.0899  0.4039
17312SOL    HW153377   3.513   6.178  11.363  0.4088 -0.1773  0.4933
17312SOL    HW253378   3.364   6.154  11.351  0.5024 -0.3959 -0.2647
17313SOL     OW53379   4.543   1.635  11.642 -0.4872 -0.3044 -0.5172
17313SOL    HW153380   4.628   1.593  11.631  0.3527  0.7485  1.3616
17313SOL    HW253381   4.482   1.581  11.592  0.6763 -3.1961  0.9436
17314SOL     OW53382   5.575   7.429  12.229 -0.0467 -0.3461  0.1624
17314SOL    HW153383   5.624   7.442  12.148  0.1139 -1.2035  0.1134
17314SOL    HW253384   5.614   7.490  12.292 -0.2309  0.3901 -0.4214
17315SOL     OW53385   5.318   7.014   0.892  0.1501  0.0621  0.3765
17315SOL    HW153386   5.367   6.970   0.822  0.9937 -0.2289  1.1182
17315SOL    HW253387   5.360   7.100   0.899 -2.0091  1.3783 -1.6110
17316SOL     OW53388   6.330   0.317   0.050  0.1659  0.1208  0.5298
17316SOL    HW153389   6.267   0.247   0.032 -0.6076  0.1591  2.7596
17316SOL    HW253390   6.297   0.392   0.002 -0.4346 -0.3822  0.1444
17317SOL     OW53391   4.076   5.555  11.205 -0.3584 -0.0916 -0.0399
17317SOL    HW153392   4.056   5.545  11.299  0.7645 -2.5706  0.0025
17317SOL    HW253393   4.151   5.614  11.203 -0.9400  0.6902  0.5410
17318SOL     OW53394   6.210   5.771  12.329 -0.2561  0.1452  0.2889
17318SOL    HW153395   6.146   5.704  12.305  0.1014 -0.1385  0.1275
17318SOL    HW253396   6.160   5.834  12.381 -0.7543  0.1222 -0.1531
17319SOL     OW53397   4.223   6.432  11.859  0.2240 -0.8254 -0.4085
17319SOL    HW153398   4.279   6.485  11.802  1.0685 -2.0550 -0.7511
17319SOL    HW253399   4.145   6.486  11.873  1.7471  1.2404  0.6424
17320SOL     OW53400   7.683   6.702  11.934  0.7050  0.2836  0.3097
17320SOL    HW153401   7.651   6.632  11.876  0.4803 -0.0172  0.7899
17320SOL    HW253402   7.662   6.783  11.887  0.3801  0.0495  0.0436
17321SOL     OW53403   3.878   6.568  10.612  0.1612  0.6388 -0.4976
17321SOL    HW153404   3.966   6.554  10.645  0.6568 -0.2252 -2.0752
17321SOL    HW253405   3.833   6.614  10.682  1.9945  1.5040  0.1792
17322SOL     OW53406   3.586   7.129   0.954 -0.2869  0.5301  0.2973
17322SOL    HW153407   3.551   7.055   1.004 -0.3423  0.1696 -0.2612
17322SOL    HW253408   3.639   7.177   1.017 -0.8797  0.4563  0.8698
17323SOL     OW53409   5.771   5.040   0.170  0.2028 -0.3933 -0.7283
17323SOL    HW153410   5.732   5.030   0.257 -1.0617 -0.9974 -1.3306
17323SOL    HW253411   5.784   4.950   0.140  0.2770 -0.1891 -1.3162
17324SOL     OW53412   5.038   1.355  11.501 -0.1427  0.2303  0.4061
17324SOL    HW153413   5.026   1.297  11.575 -1.8655  1.1109  0.8851
17324SOL    HW253414   5.020   1.443  11.536 -0.1007  0.7581 -0.8317
17325SOL     OW53415   5.509   6.759  11.478  0.4472  0.0647 -0.3768
17325SOL    HW153416   5.492   6.800  11.393 -1.3439  1.4978  0.6033
17325SOL    HW253417   5.506   6.831  11.540  0.8930 -1.0716  1.0083
17326SOL     OW53418   3.758   7.248   0.511 -0.2030  1.1937  0.2232
17326SOL    HW153419   3.681   7.303   0.492 -0.0792  1.4235  0.3791
17326SOL    HW253420   3.748   7.172   0.454 -1.4751  0.3517  1.5025
17327SOL     OW53421   4.327   4.758  10.933  0.0509  0.3283 -0.2719
17327SOL    HW153422   4.399   4.791  10.987 -0.5522  2.0718 -0.4669
17327SOL    HW253423   4.302   4.675  10.974  0.5487  0.9069  1.2717
17328SOL     OW53424   3.952   7.826   0.839 -0.5087 -0.2921  0.0323
17328SOL    HW153425   4.039   7.847   0.871  0.2228 -1.3370 -1.1664
17328SOL    HW253426   3.965   7.750   0.782 -2.0492  0.1337 -0.9503
17329SOL     OW53427   4.365   7.201  10.620 -0.6995  0.2255 -0.0783
17329SOL    HW153428   4.329   7.210  10.532 -0.3578  1.6942 -0.0899
17329SOL    HW253429   4.309   7.135  10.662 -1.4042  0.1455 -1.1075
17330SOL     OW53430   2.155   0.848   0.886 -0.3600 -0.2979 -0.4298
17330SOL    HW153431   2.078   0.899   0.910 -0.1593 -0.3310  0.3132
17330SOL    HW253432   2.164   0.860   0.791 -0.1064  1.3267 -0.2206
17331SOL     OW53433   4.532   6.883   0.014 -0.0525  0.0818  0.4890
17331SOL    HW153434   4.570   6.955  -0.036 -0.1001  0.2968  0.7603
17331SOL    HW253435   4.607   6.841   0.057  0.1570 -0.9115 -0.7775
17332SOL     OW53436   5.298   1.574  11.753  0.0477 -0.2023  0.4690
17332SOL    HW153437   5.244   1.557  11.831 -2.5764  1.2871 -0.8760
17332SOL    HW253438   5.284   1.496  11.698 -1.6906  0.6130 -0.3155
17333SOL     OW53439   3.508   7.943   1.968 -0.2872 -0.5138 -0.0073
17333SOL    HW153440   3.433   7.993   2.001  0.8181 -0.2322  2.2456
17333SOL    HW253441   3.480   7.852   1.974 -1.0105 -0.3605 -0.7546
17334SOL     OW53442   4.975   7.279   2.124 -0.0834 -0.6550 -0.3930
17334SOL    HW153443   4.882   7.269   2.144  0.3000  0.5804  2.4359
17334SOL    HW253444   5.020   7.226   2.189  1.2446 -0.5231 -1.1617
17335SOL     OW53445   4.674   7.058  12.366 -0.6399 -0.3641  0.3348
17335SOL    HW153446   4.768   7.042  12.360 -0.2945  1.9681 -3.6537
17335SOL    HW253447   4.667   7.135  12.423 -0.3326 -1.2263  1.5929
17336SOL     OW53448   4.743   7.402  12.292 -0.1967  0.0462  0.1632
17336SOL    HW153449   4.664   7.371  12.248 -0.8659  0.3736  1.0905
17336SOL    HW253450   4.756   7.491  12.259 -0.6218  0.2429  0.5115
17337SOL     OW53451   4.525   7.709   1.908 -0.2639 -0.6858  0.1697
17337SOL    HW153452   4.560   7.675   1.990  0.7991 -2.3174 -0.9132
17337SOL    HW253453   4.589   7.684   1.842 -2.4630 -1.9901 -1.6000
17338SOL     OW53454   4.339   5.666   2.453 -0.4759  0.1152 -0.5543
17338SOL    HW153455   4.279   5.710   2.513 -0.3976  0.3210 -0.6276
17338SOL    HW253456   4.412   5.638   2.508 -0.5829 -0.0329 -0.4857
17339SOL     OW53457   3.484   7.314   2.987  0.1951 -0.7376  0.6609
17339SOL    HW153458   3.434   7.358   3.056  0.7376 -0.1912  0.7199
17339SOL    HW253459   3.481   7.374   2.913  0.9651 -0.5763  0.7498
17340SOL     OW53460   4.388   0.740   0.902 -0.1279 -0.0365 -0.1049
17340SOL    HW153461   4.479   0.745   0.872 -0.0665  0.9916  0.1888
17340SOL    HW253462   4.338   0.781   0.832  0.0338  2.5301  1.1344
17341SOL     OW53463   5.638   0.301   2.461 -0.0141  0.9144 -0.2244
17341SOL    HW153464   5.682   0.386   2.460 -0.0225  0.9981  1.7408
17341SOL    HW253465   5.710   0.237   2.461  0.1207  1.0199  1.2688
17342SOL     OW53466   5.478   7.872   0.136 -0.0396 -0.1421 -0.1389
17342SOL    HW153467   5.462   7.938   0.203  0.7614 -0.0332 -0.0455
17342SOL    HW253468   5.563   7.834   0.159  1.0778  1.0460 -1.9937
17343SOL     OW53469   3.668   0.648   1.260  0.2869 -0.1492  0.2863
17343SOL    HW153470   3.576   0.661   1.281  0.5188  1.9264  0.2747
17343SOL    HW253471   3.707   0.735   1.270  1.4148  0.0188 -3.7846
17344SOL     OW53472   4.369   0.249   0.852 -0.1054  0.1229 -0.0134
17344SOL    HW153473   4.316   0.257   0.932 -0.5998  1.4989 -0.4462
17344SOL    HW253474   4.441   0.191   0.877  0.3789  1.3982  1.7953
17345SOL     OW53475   3.539   0.138   0.752  0.0520 -0.3554  0.5382
17345SOL    HW153476   3.631   0.122   0.772 -0.4196 -1.9208  1.5760
17345SOL    HW253477   3.491   0.092   0.821 -1.5708 -2.2467 -1.7161
17346SOL     OW53478   5.576   0.237  11.309 -0.6021  0.1108  0.3121
17346SOL    HW153479   5.608   0.152  11.338  0.3942  0.5910  0.6546
17346SOL    HW253480   5.654   0.290  11.298 -1.2830  1.5327  1.8170
17347SOL     OW53481   4.928   6.944   2.274  0.4143 -0.2744  0.0543
17347SOL    HW153482   4.877   7.024   2.269  0.5119 -0.1186  1.3169
17347SOL    HW253483   4.877   6.886   2.331  1.6050 -0.1276  1.3139
17348SOL     OW53484   5.703   7.232   0.331 -0.5703 -0.0548 -0.2248
17348SOL    HW153485   5.737   7.144   0.344 -0.4100 -0.1232 -1.0748
17348SOL    HW253486   5.614   7.220   0.298 -0.1733  0.0795 -1.3714
17349SOL     OW53487   3.706   7.649   1.633  0.0351  0.2524 -0.1247
17349SOL    HW153488   3.735   7.711   1.699 -1.5975  1.6888 -0.6926
17349SOL    HW253489   3.786   7.624   1.587  0.8185  1.4826  0.5176
17350SOL     OW53490   7.125   1.633  12.378  0.5090 -0.0763  0.2184
17350SOL    HW153491   7.202   1.679  12.343 -1.3443  2.3257 -1.0211
17350SOL    HW253492   7.095   1.578  12.305 -0.3895  0.9785 -0.2316
17351SOL     OW53493   4.009   7.415  11.647  0.0678 -0.5072  0.3189
17351SOL    HW153494   4.001   7.430  11.741 -0.8590  0.0451  0.1575
17351SOL    HW253495   3.982   7.497  11.607  1.3961 -0.3910 -0.4217
17352SOL     OW53496   4.169   0.737  12.212 -0.4429  0.3168 -0.5040
17352SOL    HW153497   4.113   0.812  12.234 -0.7290 -0.1393  0.3661
17352SOL    HW253498   4.250   0.777  12.181 -0.7072  0.9870 -0.3680
17353SOL     OW53499   3.872   0.027   1.180 -0.1156  1.0913  0.4123
17353SOL    HW153500   3.831   0.006   1.096 -0.8371 -0.5631  1.1451
17353SOL    HW253501   3.800   0.026   1.243  0.9514 -2.1180  1.7859
17354SOL     OW53502   4.237   1.008  12.429  0.1052 -0.3520 -0.0461
17354SOL    HW153503   4.193   1.051  12.502 -2.1512 -2.4885 -0.0279
17354SOL    HW253504   4.329   1.033  12.438 -0.6995  2.4697  1.2746
17355SOL     OW53505   3.271   6.983   1.288 -1.2376  0.2420 -0.8552
17355SOL    HW153506   3.258   6.992   1.382  2.4851  0.8853 -0.2333
17355SOL    HW253507   3.235   6.897   1.267 -0.2615 -0.8704  1.6486
17356SOL     OW53508   4.239   7.455   2.487 -0.1466  0.0373  0.0195
17356SOL    HW153509   4.326   7.488   2.507 -0.0494 -0.9701  1.4373
17356SOL    HW253510   4.253   7.384   2.424  0.3525 -1.6449  1.9185
17357SOL     OW53511   5.184   7.566   2.089 -0.3274 -0.1119 -0.2186
17357SOL    HW153512   5.218   7.629   2.153 -1.8549  0.2409  0.2916
17357SOL    HW253513   5.201   7.607   2.004  0.9120 -0.1686 -0.0081
17358SOL     OW53514   5.035   6.222   0.334 -0.7579  0.6606  0.3462
17358SOL    HW153515   5.050   6.312   0.304 -0.7261  0.5062 -0.0999
17358SOL    HW253516   5.015   6.173   0.255  1.7005 -0.2701  0.2158
17359SOL     OW53517   4.613   0.412   1.332  0.2367  0.3658  0.4563
17359SOL    HW153518   4.702   0.414   1.298  0.2001 -0.2589  0.3030
17359SOL    HW253519   4.622   0.426   1.426  0.2747  2.9779  0.1299
17360SOL     OW53520   4.664   7.304   2.064 -0.2151 -0.2237  0.0760
17360SOL    HW153521   4.582   7.270   2.028 -0.8601 -0.7185  1.8874
17360SOL    HW253522   4.684   7.246   2.137  0.6029  1.1477  0.9996
17361SOL     OW53523   4.551   7.853  12.187 -0.2546 -0.3629  0.0623
17361SOL    HW153524   4.477   7.872  12.129  0.1259  0.4231 -0.1823
17361SOL    HW253525   4.513   7.854  12.275 -0.4238  0.7006 -0.0071
17362SOL     OW53526   5.222   7.479   1.695 -0.0788  0.0831 -0.0607
17362SOL    HW153527   5.181   7.418   1.756  0.6409 -0.5789 -0.2211
17362SOL    HW253528   5.170   7.472   1.615  0.4709 -0.9228 -0.3389
17363SOL     OW53529   3.886   0.540   1.356  0.6651 -0.8095  0.1335
17363SOL    HW153530   3.806   0.579   1.323  2.1239  1.5663 -0.8768
17363SOL    HW253531   3.925   0.609   1.411  2.2198 -1.6943  0.2036
17364SOL     OW53532   4.403   7.634   1.254 -0.6031 -0.0432  0.2960
17364SOL    HW153533   4.357   7.662   1.175  1.0471  0.3204 -0.5755
17364SOL    HW253534   4.334   7.602   1.311 -2.3176  3.2027  0.2716
17365SOL     OW53535   2.910   7.042  12.494 -0.1453  0.7993 -0.9307
17365SOL    HW153536   2.846   7.043  12.565  0.8393  0.9784 -0.0199
17365SOL    HW253537   2.967   7.117  12.511  0.5317  0.4332 -1.5085
17366SOL     OW53538   3.572   7.426   0.421 -0.1061 -0.2606 -0.1990
17366SOL    HW153539   3.514   7.454   0.491  0.4699 -0.1450  0.2451
17366SOL    HW253540   3.581   7.504   0.366 -0.1619 -0.1976 -0.1207
17367SOL     OW53541   3.605   7.343   1.414 -0.2116 -0.4805 -0.3227
17367SOL    HW153542   3.619   7.285   1.489 -0.0614  0.4468  0.3930
17367SOL    HW253543   3.692   7.378   1.394 -0.1420 -1.2306 -1.3689
17368SOL     OW53544   4.264   7.814   0.558 -0.6295 -0.1771  0.7537
17368SOL    HW153545   4.332   7.819   0.626  2.2296 -1.6202 -1.7658
17368SOL    HW253546   4.259   7.721   0.536 -0.9925  0.3125 -1.4199
17369SOL     OW53547   2.960   0.747   1.645 -0.2930 -0.5104  0.1232
17369SOL    HW153548   2.879   0.787   1.677 -0.9368 -1.3256 -0.4538
17369SOL    HW253549   3.009   0.725   1.725  0.4216  2.0315  0.4614
17370SOL     OW53550   5.703   0.304   2.939  0.6062  0.9538 -0.3395
17370SOL    HW153551   5.754   0.270   3.013 -0.6986  1.1718  0.6912
17370SOL    HW253552   5.675   0.226   2.891  0.6762  0.7657 -0.0764
17371SOL     OW53553   4.112   5.618   2.291 -0.2594  0.4387 -0.2172
17371SOL    HW153554   4.114   5.602   2.197 -0.2711 -0.3189 -0.0896
17371SOL    HW253555   4.204   5.620   2.317 -0.2624  0.4647 -0.2087
17372SOL     OW53556   3.820   0.088   1.538 -0.6961 -0.5312  0.3124
17372SOL    HW153557   3.763   0.061   1.466 -0.0136  1.2943 -0.9837
17372SOL    HW253558   3.765   0.083   1.616 -2.5153  0.7386 -0.8275
17373SOL     OW53559   0.996   0.119   2.535  0.2763 -0.1902  0.3111
17373SOL    HW153560   0.925   0.055   2.531  0.0782  0.0751 -0.5980
17373SOL    HW253561   0.954   0.202   2.514  0.8138  0.0116  0.0318
17374SOL     OW53562   2.259   7.466  12.377  0.3695  0.1269 -0.7591
17374SOL    HW153563   2.272   7.454  12.471 -0.9741  1.3124 -0.3884
17374SOL    HW253564   2.301   7.550  12.358 -2.1676  1.5606 -0.5035
17375SOL     OW53565   4.498   0.183   1.242  0.0624  0.4668  0.0281
17375SOL    HW153566   4.513   0.155   1.152 -0.1012  0.2762  0.0599
17375SOL    HW253567   4.542   0.268   1.248  1.0814 -0.0534  0.1118
17376SOL     OW53568   4.685   0.793   1.214  0.1596  0.5543  0.3631
17376SOL    HW153569   4.605   0.828   1.176  0.1166  0.3413  0.2552
17376SOL    HW253570   4.713   0.724   1.153  1.4136  1.8275 -0.5684
17377SOL     OW53571   3.046   1.422   1.376  0.0212 -0.2366 -0.3526
17377SOL    HW153572   2.978   1.408   1.310  0.0768  2.1478 -0.9983
17377SOL    HW253573   3.015   1.373   1.452 -1.7569 -0.2987 -1.0578
17378SOL     OW53574   4.963   4.414  11.147  0.0270  0.0169  0.1339
17378SOL    HW153575   4.894   4.349  11.130  0.3615  0.2784 -2.5218
17378SOL    HW253576   5.016   4.374  11.217 -0.2094 -2.2606 -0.9080
17379SOL     OW53577   2.136   0.590   1.326  0.3894 -0.4532  0.3688
17379SOL    HW153578   2.104   0.522   1.386  1.8982  0.8270  2.7876
17379SOL    HW253579   2.230   0.596   1.344  0.4133  1.8283 -0.2024
17380SOL     OW53580   2.293   0.057   2.192 -0.7051  0.2002  0.2522
17380SOL    HW153581   2.252   0.125   2.138 -1.3667  0.1006  0.6143
17380SOL    HW253582   2.247   0.062   2.276 -0.1639 -0.1134  0.5740
17381SOL     OW53583   4.329   6.890   1.775  0.3119  0.1876 -0.1083
17381SOL    HW153584   4.398   6.876   1.841  0.4259  2.3831  0.3052
17381SOL    HW253585   4.248   6.881   1.824  0.3663  0.3057  0.0047
17382SOL     OW53586   4.536   6.038   0.715 -0.2181 -0.0977  0.3091
17382SOL    HW153587   4.607   6.096   0.743 -0.9988  0.6297  0.8495
17382SOL    HW253588   4.494   6.011   0.797  1.2885 -2.9878  0.2189
17383SOL     OW53589   3.655   0.549   0.805 -0.3689 -0.3110  0.2622
17383SOL    HW153590   3.671   0.469   0.755 -0.3067  0.6509 -1.3213
17383SOL    HW253591   3.687   0.529   0.893  0.0952 -1.8513 -0.2232
17384SOL     OW53592   4.494   7.758   1.477  0.3438  0.3318 -0.0819
17384SOL    HW153593   4.520   7.675   1.516 -0.5798 -0.7745 -1.6931
17384SOL    HW253594   4.436   7.733   1.404 -0.8164  2.4294  0.0448
17385SOL     OW53595   5.331   0.007  12.360 -0.1029  0.2437  0.3971
17385SOL    HW153596   5.401  -0.033  12.308 -0.6210  1.2478 -1.1114
17385SOL    HW253597   5.371   0.086  12.396 -0.1589  0.2801  0.3795
17386SOL     OW53598   5.151   6.862  12.294 -0.3376  0.0903  0.3356
17386SOL    HW153599   5.207   6.913  12.353 -1.7429  1.1951  0.7982
17386SOL    HW253600   5.168   6.771  12.318 -0.3265  0.4807  1.9706
17387SOL     OW53601   4.703   7.547   3.432 -0.0945 -0.3687 -0.3357
17387SOL    HW153602   4.690   7.607   3.359  0.2972  0.4609  0.2694
17387SOL    HW253603   4.687   7.599   3.510  3.4558 -0.0662  0.3780
17388SOL     OW53604   4.818   5.690   1.579  0.4717  0.2740  0.2113
17388SOL    HW153605   4.858   5.609   1.547  1.9624  0.3024  1.8222
17388SOL    HW253606   4.865   5.760   1.534  1.2878  0.2686  1.0069
17389SOL     OW53607   5.755   0.762  11.738  0.5153  0.9873  0.2308
17389SOL    HW153608   5.701   0.723  11.807  1.8607  2.5714  2.2949
17389SOL    HW253609   5.745   0.703  11.664 -4.3002  1.3014  0.2890
17390SOL     OW53610   4.872   7.573   1.005 -0.0533  0.3826  0.7055
17390SOL    HW153611   4.922   7.493   1.018 -1.4744 -0.6633  0.0749
17390SOL    HW253612   4.913   7.614   0.929  0.5865  0.1761  0.9311
17391SOL     OW53613   5.902   1.526   2.077  0.1927 -0.2753 -0.0679
17391SOL    HW153614   5.961   1.536   2.152  0.0803 -0.9610  0.1164
17391SOL    HW253615   5.954   1.556   2.002  0.8458 -1.0370  0.0673
17392SOL     OW53616   4.519   7.105  11.821  0.3013  0.2187  0.1526
17392SOL    HW153617   4.608   7.117  11.856  0.5584  1.4459 -0.8709
17392SOL    HW253618   4.497   7.189  11.782 -2.8863  1.3902  3.7864
17393SOL     OW53619   4.915   2.052   0.958  0.2037  0.5395 -0.1589
17393SOL    HW153620   4.988   2.036   0.897 -0.0865  0.6702 -0.5483
17393SOL    HW253621   4.900   2.146   0.952  1.8340  1.0358  2.0449
17394SOL     OW53622   4.906   7.833   1.967 -0.3653  0.0508  0.6159
17394SOL    HW153623   4.904   7.737   1.961  0.1169  0.1303 -1.0594
17394SOL    HW253624   4.816   7.859   1.948  0.1216  0.0419 -2.0047
17395SOL     OW53625   4.020   7.849   1.328  0.0180  0.4529 -0.5231
17395SOL    HW153626   3.973   7.776   1.287 -0.4679  1.2218 -1.3829
17395SOL    HW253627   3.981   7.927   1.288 -0.5743  1.2599  1.5238
17396SOL     OW53628   2.471   7.350   2.171 -0.3972 -0.1256  0.1759
17396SOL    HW153629   2.518   7.285   2.224 -0.0177 -1.0758 -1.2413
17396SOL    HW253630   2.541   7.401   2.129 -0.6972  1.2552  1.3158
17397SOL     OW53631   4.740   6.577   2.591 -0.0305 -0.0556  0.4288
17397SOL    HW153632   4.670   6.516   2.614  1.0170 -1.3861  0.2660
17397SOL    HW253633   4.813   6.552   2.648  0.3567  1.2336  0.5311
17398SOL     OW53634   3.492   0.027   2.974  0.1907 -0.2536  0.2182
17398SOL    HW153635   3.499  -0.048   3.033  1.3640 -1.0815 -0.9475
17398SOL    HW253636   3.479  -0.011   2.888 -0.7932  0.9347 -0.1846
17399SOL     OW53637   4.624   0.464   0.648 -0.3787 -0.3718 -0.0682
17399SOL    HW153638   4.569   0.449   0.725 -0.4134  1.6712  0.3660
17399SOL    HW253639   4.619   0.559   0.633  2.2538 -0.2500 -0.6061
17400SOL     OW53640   4.705   7.764   3.893  0.1867  0.0650  0.1881
17400SOL    HW153641   4.637   7.784   3.957  0.2514  0.1320  0.2361
17400SOL    HW253642   4.758   7.844   3.887 -1.5599  1.1482 -2.1800
17401SOL     OW53643   3.441   6.870   4.168  0.0557  0.0473 -0.3139
17401SOL    HW153644   3.349   6.892   4.155 -0.0691 -0.1561  0.2283
17401SOL    HW253645   3.445   6.774   4.161  0.4682  0.1377 -1.8360
17402SOL     OW53646   3.924   7.202   2.697 -0.0070  0.3867 -0.5636
17402SOL    HW153647   3.916   7.296   2.713  0.9742  0.4797 -0.5533
17402SOL    HW253648   3.835   7.168   2.710 -0.0854  1.0823  0.9282
17403SOL     OW53649   4.368   0.043   4.440 -0.3364  0.3008  0.2668
17403SOL    HW153650   4.294   0.071   4.493 -0.2700  0.5272  0.2393
17403SOL    HW253651   4.345   0.069   4.351  0.4345  1.7426  0.4617
17404SOL     OW53652   5.846   7.035   1.514 -0.0506 -0.0602  0.1178
17404SOL    HW153653   5.753   7.011   1.516 -0.1461  0.2742  2.5669
17404SOL    HW253654   5.890   6.965   1.562  0.5908  1.0612  1.2295
17405SOL     OW53655   5.835   1.257   4.960  0.0094 -0.2028 -0.0768
17405SOL    HW153656   5.766   1.299   4.909 -0.1423  0.5020  0.6746
17405SOL    HW253657   5.911   1.258   4.902 -0.1166  0.7085 -0.2506
17406SOL     OW53658   2.984   7.942   2.685  0.3376 -0.5651 -0.9811
17406SOL    HW153659   2.890   7.944   2.668  0.0887  0.9500  0.3269
17406SOL    HW253660   3.001   7.853   2.716 -1.2023 -0.1500  1.3226
17407SOL     OW53661   3.595   0.458   3.455 -0.1818  0.1481  0.1739
17407SOL    HW153662   3.553   0.378   3.423 -0.5403 -0.4852  2.1332
17407SOL    HW253663   3.687   0.434   3.464 -0.2357  0.0460  0.4623
17408SOL     OW53664   4.354   0.168   3.056  0.2467  0.0036  0.2250
17408SOL    HW153665   4.430   0.111   3.045  1.0761  1.1584 -0.1924
17408SOL    HW253666   4.285   0.125   3.006  1.0551 -0.2828 -0.6758
17409SOL     OW53667   7.384   0.013   2.902  0.4138  0.2000  0.1136
17409SOL    HW153668   7.457   0.046   2.954  1.0122 -0.6840 -0.1436
17409SOL    HW253669   7.324  -0.025   2.966  0.0988  1.0774  0.3405
17410SOL     OW53670   5.353   0.858   2.972 -0.4279  0.5068 -0.3079
17410SOL    HW153671   5.437   0.884   3.009 -0.7352  2.0379 -0.6200
17410SOL    HW253672   5.292   0.864   3.046 -0.0429 -2.0933  0.3053
17411SOL     OW53673   4.289   0.199   2.522 -0.5540 -0.2783 -0.4488
17411SOL    HW153674   4.279   0.293   2.541 -0.2316  0.0865 -1.9452
17411SOL    HW253675   4.363   0.172   2.578  1.0618  0.9991 -1.8439
17412SOL     OW53676   5.144   7.302   1.482 -0.0426  0.4222 -0.0381
17412SOL    HW153677   5.126   7.241   1.410 -0.3436  0.4762 -0.0098
17412SOL    HW253678   5.221   7.265   1.525  2.2296  2.1429 -2.3624
17413SOL     OW53679   5.750   7.585   3.529  0.0546  0.0137 -0.2308
17413SOL    HW153680   5.845   7.571   3.526  0.0033 -1.1400  1.9286
17413SOL    HW253681   5.720   7.530   3.601 -1.5900  4.1327  2.5486
17414SOL     OW53682   3.550   7.200   1.674  0.1219  0.3773 -0.0808
17414SOL    HW153683   3.518   7.110   1.677  0.4610  0.2512 -0.1979
17414SOL    HW253684   3.640   7.195   1.705 -0.6469  1.0721  2.5531
17415SOL     OW53685   4.764   7.724   4.387  0.3408 -0.4288 -0.2218
17415SOL    HW153686   4.677   7.752   4.357 -0.7554 -1.3891  1.8084
17415SOL    HW253687   4.779   7.641   4.342 -1.0270 -1.5688  1.2641
17416SOL     OW53688   3.952   6.255   3.465 -0.0420  0.0017  0.0815
17416SOL    HW153689   3.883   6.295   3.411 -0.0619 -1.2772 -0.8992
17416SOL    HW253690   3.992   6.328   3.511 -1.0688  0.9540 -0.4831
17417SOL     OW53691   3.836   6.846   3.093 -0.2557 -0.7492 -0.2137
17417SOL    HW153692   3.903   6.852   3.025 -0.3312  0.8921 -0.1919
17417SOL    HW253693   3.869   6.902   3.164 -0.9785 -1.0775  0.4013
17418SOL     OW53694   3.252   0.024   2.026 -0.5189 -0.3995 -0.3473
17418SOL    HW153695   3.227   0.116   2.013 -0.8534 -0.5012 -0.4250
17418SOL    HW253696   3.292   0.022   2.113  2.8413  0.5289 -1.7009
17419SOL     OW53697   5.731   7.979   3.921 -0.3272 -0.7058  0.2230
17419SOL    HW153698   5.777   7.916   3.976 -0.9112 -1.0658  0.3123
17419SOL    HW253699   5.777   8.062   3.936  0.0988 -0.9929  0.5320
17420SOL     OW53700   3.952   5.939   4.678  0.6278  0.0029 -0.4181
17420SOL    HW153701   3.947   5.849   4.644  1.3254 -0.5557  0.8891
17420SOL    HW253702   3.862   5.972   4.671 -0.5695 -2.1486  2.4970
17421SOL     OW53703   3.085   7.296   3.839 -0.5172 -0.5170 -0.0335
17421SOL    HW153704   3.116   7.206   3.829  0.4716 -0.2685  0.5754
17421SOL    HW253705   3.152   7.349   3.795  2.1973  0.3551  4.5095
17422SOL     OW53706   5.152   0.295   3.162 -0.1843  0.0439  0.2896
17422SOL    HW153707   5.162   0.310   3.068 -0.5162 -0.9934  0.0683
17422SOL    HW253708   5.221   0.232   3.184  3.0624  3.7113  1.7649
17423SOL     OW53709   3.494   7.655   2.020  0.1903  0.3509  0.0212
17423SOL    HW153710   3.403   7.624   2.025  0.4223 -0.2220  0.8188
17423SOL    HW253711   3.541   7.584   1.976  0.3811  0.3695  0.1970
17424SOL     OW53712   3.733   7.172   2.172  0.0405 -0.0227 -0.2403
17424SOL    HW153713   3.789   7.174   2.094 -0.3107  0.4542 -0.4869
17424SOL    HW253714   3.777   7.230   2.234  1.9065 -2.6385  1.0528
17425SOL     OW53715   3.407   6.297   2.119 -0.1912  0.1467 -0.7390
17425SOL    HW153716   3.481   6.358   2.119 -0.3042  0.3096 -2.0591
17425SOL    HW253717   3.443   6.216   2.155  0.2398  0.6549  0.0186
17426SOL     OW53718   3.266   7.268   3.537 -0.0863  0.1119  0.7516
17426SOL    HW153719   3.346   7.224   3.565 -0.0637  0.4732  1.2779
17426SOL    HW253720   3.206   7.197   3.514  0.7888 -0.1491 -0.8528
17427SOL     OW53721   3.211   0.294   2.038 -0.2175  0.1341  0.2681
17427SOL    HW153722   3.205   0.340   2.122 -2.8066 -0.7930  0.6897
17427SOL    HW253723   3.138   0.327   1.987 -0.7812 -1.7964 -0.2637
17428SOL     OW53724   5.848   6.109   3.556  0.2148  0.1473 -0.1327
17428SOL    HW153725   5.856   6.103   3.651  1.0880 -1.2954 -0.2673
17428SOL    HW253726   5.851   6.203   3.537 -1.5463  0.5649  1.3691
17429SOL     OW53727   4.679   0.953   5.451 -0.2811 -0.1946  0.4483
17429SOL    HW153728   4.742   0.988   5.514 -1.7473  0.5654  1.5447
17429SOL    HW253729   4.731   0.895   5.396  1.7281  1.6740  0.2301
17430SOL     OW53730   3.378   7.710   2.421  0.4711 -0.7280  0.5102
17430SOL    HW153731   3.289   7.741   2.406  0.1159 -1.4213  1.1748
17430SOL    HW253732   3.376   7.669   2.507  1.2184 -1.5308  0.1666
17431SOL     OW53733   3.229   5.625   3.000 -0.2621  0.2914  0.0141
17431SOL    HW153734   3.174   5.564   2.949  0.4965 -0.8754  0.5550
17431SOL    HW253735   3.182   5.708   2.995 -1.5703 -0.4292 -0.3815
17432SOL     OW53736   5.021   5.796   3.128  0.0983  0.0920  0.8156
17432SOL    HW153737   5.022   5.798   3.032 -1.9568 -0.6021  0.7456
17432SOL    HW253738   5.090   5.734   3.151  0.4360  0.0643 -0.2240
17433SOL     OW53739   4.137   7.866   1.601 -1.0163 -0.0951  0.6999
17433SOL    HW153740   4.090   7.890   1.521  2.1263 -1.3060 -1.7419
17433SOL    HW253741   4.213   7.925   1.602  0.8705 -2.3740  0.7063
17434SOL     OW53742   5.686   7.825   1.580  0.2195  0.2427  0.2716
17434SOL    HW153743   5.668   7.827   1.674 -0.5177  1.5830  0.1307
17434SOL    HW253744   5.600   7.814   1.540  0.7849 -4.3797 -0.2419
17435SOL     OW53745   4.061   0.410   1.819 -0.3307 -0.0902 -0.1818
17435SOL    HW153746   4.127   0.347   1.790 -2.6231 -2.8706  0.1889
17435SOL    HW253747   4.061   0.402   1.915 -0.0848  1.1734 -0.0522
17436SOL     OW53748   4.547   1.016   3.627 -0.2422  0.0995  0.3629
17436SOL    HW153749   4.529   1.028   3.720  0.8191 -0.3371  0.6436
17436SOL    HW253750   4.639   1.043   3.617  0.1837 -1.4591 -0.2176
17437SOL     OW53751   3.814   7.647   3.053  0.7955 -0.3493 -0.5492
17437SOL    HW153752   3.796   7.627   3.145  0.2804  0.1331 -0.5417
17437SOL    HW253753   3.901   7.686   3.054 -0.6855  3.3217  0.2874
17438SOL     OW53754   2.803   5.649   0.541 -0.0823  0.1082 -0.0475
17438SOL    HW153755   2.772   5.563   0.570 -0.2669 -0.2153 -1.1496
17438SOL    HW253756   2.894   5.653   0.570 -0.9735  0.9754  3.0364
17439SOL     OW53757   1.828   7.218   2.255 -0.1090 -0.4606  0.4493
17439SOL    HW153758   1.737   7.236   2.230 -0.1753  1.3395  1.7779
17439SOL    HW253759   1.835   7.252   2.344  2.2885  0.9546 -0.1969
17440SOL     OW53760   3.356   6.256   4.396 -0.0724 -0.0310 -0.2898
17440SOL    HW153761   3.450   6.257   4.378 -0.3926 -0.8330 -2.1335
17440SOL    HW253762   3.348   6.210   4.480  1.3355  2.3671  1.3068
17441SOL     OW53763   5.648   0.640   3.419 -0.0074 -0.5184 -0.4866
17441SOL    HW153764   5.693   0.634   3.335 -0.1833 -0.1297 -0.6117
17441SOL    HW253765   5.624   0.550   3.440  0.8276 -0.7310 -0.4190
17442SOL     OW53766   3.112   6.371   2.522 -0.7989  0.7805  0.2562
17442SOL    HW153767   3.163   6.307   2.573 -0.2960 -0.6151 -1.8460
17442SOL    HW253768   3.137   6.354   2.432 -1.6518  3.1526 -0.4935
17443SOL     OW53769   6.271   7.962   2.330  0.4889 -0.0475  0.3126
17443SOL    HW153770   6.302   7.980   2.241  1.7981  0.3478  0.8364
17443SOL    HW253771   6.247   8.047   2.365 -0.8864 -0.2989  0.0580
17444SOL     OW53772   4.667   7.023   2.910 -0.5691 -0.0107  0.2629
17444SOL    HW153773   4.644   7.098   2.856 -0.1836 -0.7355 -0.9411
17444SOL    HW253774   4.750   6.991   2.874  0.7843  0.6551  2.5283
17445SOL     OW53775   2.399   7.551   3.351 -0.4917  0.4345  0.3119
17445SOL    HW153776   2.344   7.548   3.430  1.6294 -0.4794  1.8532
17445SOL    HW253777   2.426   7.460   3.338 -0.5401  0.6287 -1.3144
17446SOL     OW53778   4.893   0.572   4.280 -0.2800 -0.0479 -0.0235
17446SOL    HW153779   4.808   0.608   4.304  0.0666  0.1467  0.9436
17446SOL    HW253780   4.872   0.487   4.240 -0.9804  0.4351 -0.7048
17447SOL     OW53781   4.267   7.399   3.701 -0.2204  0.6126 -0.4625
17447SOL    HW153782   4.305   7.471   3.651 -0.3116  1.8197  1.1075
17447SOL    HW253783   4.219   7.442   3.772  0.6219 -0.9999  1.1719
17448SOL     OW53784   2.841   1.090   2.077 -0.0396  0.2218 -0.2884
17448SOL    HW153785   2.825   1.015   2.019 -0.9118 -1.0415  1.4984
17448SOL    HW253786   2.848   1.052   2.165  0.0746  2.1886  0.6179
17449SOL     OW53787   2.555   7.906   0.520 -0.0102  1.1363  0.0497
17449SOL    HW153788   2.554   7.974   0.453  1.9504 -0.0292 -1.2601
17449SOL    HW253789   2.648   7.894   0.540 -0.4812  0.7860  2.3483
17450SOL     OW53790   1.925   1.522   0.854 -0.6338 -0.1294  0.7758
17450SOL    HW153791   1.896   1.609   0.826 -1.1274  0.1037  1.9741
17450SOL    HW253792   1.944   1.532   0.947 -1.7053 -1.5586  1.1822
17451SOL     OW53793   3.953   1.306   2.216  0.6990 -0.2962 -0.1837
17451SOL    HW153794   3.982   1.308   2.125  0.4728 -1.0885 -0.2837
17451SOL    HW253795   4.034   1.307   2.268  0.8114  1.9167 -0.3227
17452SOL     OW53796   4.859   7.975   1.189  0.2333 -0.1014 -0.1576
17452SOL    HW153797   4.823   7.898   1.234  2.8502  0.4606  3.4020
17452SOL    HW253798   4.937   7.942   1.145  0.4747  0.2157  0.0297
17453SOL     OW53799   3.930   0.418   0.755 -0.5859  0.8983 -0.5514
17453SOL    HW153800   4.009   0.382   0.715 -2.1018 -1.2962 -1.7889
17453SOL    HW253801   3.886   0.465   0.685 -0.4897  1.9382  0.0765
17454SOL     OW53802   5.342   0.189   4.269  0.2530  0.0498  0.5832
17454SOL    HW153803   5.274   0.241   4.226 -0.1943  0.1369  1.3579
17454SOL    HW253804   5.351   0.110   4.215  0.4508  0.6163 -0.2267
17455SOL     OW53805   6.665   7.891   3.348  1.1168  0.2770 -0.1066
17455SOL    HW153806   6.640   7.889   3.256  1.5686 -1.2380 -0.2229
17455SOL    HW253807   6.705   7.977   3.360 -0.6356  1.2430 -0.8414
17456SOL     OW53808   2.125   0.465   1.556 -0.5294  0.6655  0.0373
17456SOL    HW153809   2.131   0.548   1.603  0.3866 -0.1699  1.4358
17456SOL    HW253810   2.126   0.398   1.624 -1.3573 -0.5059 -1.0657
17457SOL     OW53811   3.609   6.489   2.063  0.2950  0.5464 -0.2653
17457SOL    HW153812   3.582   6.527   1.979 -1.1313  0.2244  0.0167
17457SOL    HW253813   3.688   6.537   2.087  0.1495  1.3417 -1.3039
17458SOL     OW53814   5.805   6.319   2.258 -0.1342 -0.1559  0.2637
17458SOL    HW153815   5.815   6.249   2.322  1.4737 -0.3394 -0.1434
17458SOL    HW253816   5.753   6.386   2.303 -1.4294 -1.4326  0.7662
17459SOL     OW53817   4.279   7.724   1.051  0.0688 -0.0750  0.0018
17459SOL    HW153818   4.210   7.658   1.045  0.1721 -0.0620 -1.7081
17459SOL    HW253819   4.261   7.785   0.979  0.0806  1.6945  1.4076
17460SOL     OW53820   5.053   0.080   4.677  0.0372 -0.5086  0.2331
17460SOL    HW153821   5.060   0.165   4.720  0.3285 -0.2907 -0.2422
17460SOL    HW253822   4.959   0.059   4.680  0.1506 -0.8907  1.7095
17461SOL     OW53823   5.624   7.337   3.077  0.0959 -1.5596 -0.3892
17461SOL    HW153824   5.641   7.422   3.119 -0.7048 -0.6016 -1.9057
17461SOL    HW253825   5.692   7.329   3.010  1.7798 -3.3921  1.4346
17462SOL     OW53826   3.956   0.798   2.419  0.7878 -0.2810  0.1635
17462SOL    HW153827   3.934   0.877   2.468  0.3663  0.1487 -0.6971
17462SOL    HW253828   3.968   0.731   2.486  3.0116  0.9116  1.0750
17463SOL     OW53829   3.410   5.812   3.489 -0.4238 -0.5923  0.0955
17463SOL    HW153830   3.413   5.837   3.581 -0.6331  1.5410 -0.4347
17463SOL    HW253831   3.442   5.722   3.488 -0.7391 -0.7866  2.2798
17464SOL     OW53832   5.560   7.928   3.288  0.3399  0.2955 -0.7642
17464SOL    HW153833   5.617   7.889   3.353 -2.0352 -0.3408  1.0508
17464SOL    HW253834   5.589   7.890   3.205  1.6064 -1.0645  0.2534
17465SOL     OW53835   5.620   7.520   6.266  1.1527  0.2224 -0.0539
17465SOL    HW153836   5.582   7.502   6.180 -0.3544 -4.4067  1.3302
17465SOL    HW253837   5.714   7.501   6.255  1.7056  3.1321 -1.3503
17466SOL     OW53838   5.096   7.778   5.700 -0.3053 -0.6783 -0.6006
17466SOL    HW153839   5.016   7.822   5.671 -0.0119  0.0559 -0.3227
17466SOL    HW253840   5.111   7.813   5.788 -0.4065 -1.8112 -0.1127
17467SOL     OW53841   4.068   7.530   5.179 -0.3526  0.3826  0.2041
17467SOL    HW153842   4.145   7.520   5.234 -0.9946  1.8413  1.4583
17467SOL    HW253843   4.020   7.604   5.218 -2.0206 -0.0271 -0.9452
17468SOL     OW53844   2.911   1.883   6.104  0.4466  0.2641  0.2645
17468SOL    HW153845   2.951   1.839   6.029  1.7573  0.4368  0.8342
17468SOL    HW253846   2.970   1.956   6.122 -1.8037  2.5156 -0.8434
17469SOL     OW53847   4.996   0.207   6.212 -0.5664 -0.8511 -0.6621
17469SOL    HW153848   5.085   0.242   6.221 -0.8509 -0.2636 -0.1054
17469SOL    HW253849   5.006   0.131   6.154  0.4132 -1.2073 -0.0540
17470SOL     OW53850   2.572   7.314   4.322 -0.0214  0.2847 -0.3389
17470SOL    HW153851   2.519   7.347   4.250 -0.9131  1.1746  0.6781
17470SOL    HW253852   2.620   7.240   4.286 -2.6140 -1.1409 -1.0848
17471SOL     OW53853   4.269   7.895   6.856  0.6071  0.1174  0.0439
17471SOL    HW153854   4.281   7.956   6.784 -2.5577  2.7087  1.4576
17471SOL    HW253855   4.322   7.932   6.927 -0.4550  0.6801  0.5712
17472SOL     OW53856   4.510   7.235   5.102  0.2659  0.4211  0.5123
17472SOL    HW153857   4.496   7.281   5.019 -0.6252  0.8913  0.9095
17472SOL    HW253858   4.484   7.144   5.084 -2.9901  1.1019  1.0302
17473SOL     OW53859   5.065   1.607   5.978 -0.6824 -0.6758  0.3999
17473SOL    HW153860   5.122   1.681   5.955 -1.6605  0.0483  0.2670
17473SOL    HW253861   4.982   1.626   5.935 -1.1283 -1.5788  0.8291
17474SOL     OW53862   2.679   7.267   5.232 -0.3064 -0.5172  0.0796
17474SOL    HW153863   2.740   7.242   5.162 -0.3699  0.9539 -0.5564
17474SOL    HW253864   2.605   7.208   5.222 -0.4308 -0.1659 -1.3015
17475SOL     OW53865   4.134   0.680   5.339 -0.5383 -0.1455  0.2821
17475SOL    HW153866   4.217   0.677   5.386 -0.7947  1.1598  0.8741
17475SOL    HW253867   4.075   0.627   5.392  0.0216 -1.5407 -0.4308
17476SOL     OW53868   5.222   7.179   5.604 -0.4306 -0.0622 -0.0359
17476SOL    HW153869   5.138   7.218   5.579 -0.2891 -0.5845 -1.4178
17476SOL    HW253870   5.231   7.104   5.546  1.3663  0.4681 -0.4918
17477SOL     OW53871   4.501   0.813   5.692  0.7010  0.0814 -0.4317
17477SOL    HW153872   4.492   0.885   5.630 -2.5383 -1.1208 -1.5826
17477SOL    HW253873   4.575   0.762   5.659  2.5240  2.3269 -0.0576
17478SOL     OW53874   4.990   4.765   3.469 -0.1121  0.0524 -0.3349
17478SOL    HW153875   4.901   4.753   3.435 -0.5064  0.9441  0.3605
17478SOL    HW253876   5.042   4.702   3.419 -1.2659 -1.0713 -0.1977
17479SOL     OW53877   4.267   0.085   3.725  0.0156 -0.2056  0.1898
17479SOL    HW153878   4.298  -0.004   3.736  1.0944  0.1236 -0.0694
17479SOL    HW253879   4.199   0.079   3.657 -1.8423 -1.1995  2.0157
17480SOL     OW53880   6.138   0.272   6.032 -0.2870 -0.3689  0.0857
17480SOL    HW153881   6.090   0.189   6.034 -1.2923  0.2001  1.4821
17480SOL    HW253882   6.074   0.335   6.001  0.8339 -0.2586 -2.2617
17481SOL     OW53883   3.361   0.230   3.779 -0.6400 -0.2138 -0.0093
17481SOL    HW153884   3.430   0.288   3.811  0.3175 -0.7735 -0.9774
17481SOL    HW253885   3.405   0.146   3.764 -0.3382  0.5054 -4.7874
17482SOL     OW53886   6.990   0.148   5.131 -0.0445 -0.0998 -0.0092
17482SOL    HW153887   7.024   0.096   5.057  0.5083 -0.5034  0.5216
17482SOL    HW253888   7.059   0.213   5.147  0.2180 -0.5421  0.6834
17483SOL     OW53889   3.849   0.379   3.458 -0.4858  0.1519 -0.2706
17483SOL    HW153890   3.945   0.379   3.456 -0.3883 -0.6196  1.5467
17483SOL    HW253891   3.826   0.286   3.452 -1.2459  0.4436 -2.5643
17484SOL     OW53892   4.577   7.134   5.535 -0.5004  0.1644  0.2360
17484SOL    HW153893   4.490   7.171   5.551 -0.1231  0.8122  0.8314
17484SOL    HW253894   4.584   7.060   5.594 -0.6651  0.0743  0.1438
17485SOL     OW53895   3.836   7.820   4.614  0.0304  0.8023 -0.4945
17485SOL    HW153896   3.798   7.759   4.550 -0.7224  2.8413 -2.1017
17485SOL    HW253897   3.798   7.795   4.697 -0.3875 -0.7950 -1.1275
17486SOL     OW53898   4.527   0.576   4.941 -0.2682 -0.1361 -0.4890
17486SOL    HW153899   4.434   0.599   4.938 -0.6793 -1.7143 -1.2669
17486SOL    HW253900   4.569   0.640   4.884 -0.6288  1.4837  0.9911
17487SOL     OW53901   4.299   7.751   4.760  0.2434 -0.6982  0.0211
17487SOL    HW153902   4.265   7.840   4.768  2.1879 -0.0408  1.8568
17487SOL    HW253903   4.256   7.703   4.830  1.8505 -0.2174  1.4173
17488SOL     OW53904   4.929   6.849   4.299 -0.2307  0.4298  0.0342
17488SOL    HW153905   4.993   6.864   4.369  0.6958 -0.1297 -0.6817
17488SOL    HW253906   4.846   6.840   4.345  0.6490 -2.0964  1.2863
17489SOL     OW53907   3.856   7.609   5.950 -0.1707 -0.2100  0.1572
17489SOL    HW153908   3.940   7.623   5.906  0.3352 -0.1503  1.1057
17489SOL    HW253909   3.860   7.664   6.028 -2.1080  1.7304 -0.9903
17490SOL     OW53910   5.120   7.398   3.203 -0.6347 -0.5048  0.2697
17490SOL    HW153911   5.099   7.416   3.295  0.5613  1.7580  0.1791
17490SOL    HW253912   5.104   7.481   3.159  0.1086 -1.1762 -1.3337
17491SOL     OW53913   4.953   7.706   4.839  0.0763 -0.4601  0.2300
17491SOL    HW153914   5.008   7.658   4.777 -0.2046  0.4900 -0.7785
17491SOL    HW253915   4.990   7.794   4.839 -0.2649 -0.3155  1.0182
17492SOL     OW53916   2.717   6.902   5.532 -0.2568 -0.2552 -0.0979
17492SOL    HW153917   2.762   6.827   5.571 -0.8750 -1.0789 -0.9221
17492SOL    HW253918   2.624   6.881   5.539 -0.4218  0.1906 -0.8009
17493SOL     OW53919   5.879   6.092   7.075 -0.1845 -0.0981  0.1687
17493SOL    HW153920   5.815   6.138   7.130 -0.3144 -1.4884  1.2461
17493SOL    HW253921   5.874   6.001   7.104  1.1476 -0.5294 -0.8498
17494SOL     OW53922   3.123   7.858   3.045 -0.2822 -0.7000  0.0933
17494SOL    HW153923   3.103   7.857   3.138  0.8560 -1.4114  0.3453
17494SOL    HW253924   3.108   7.949   3.018 -0.5404 -0.4750  0.9860
17495SOL     OW53925   4.501   7.993   5.715 -0.5748  0.1317  0.2665
17495SOL    HW153926   4.408   8.010   5.703 -0.5792 -0.9678 -1.6962
17495SOL    HW253927   4.528   8.052   5.785 -2.6784  0.6468  0.6973
17496SOL     OW53928   1.652   7.955   5.722 -0.0750  0.6900 -0.1311
17496SOL    HW153929   1.692   7.926   5.804 -0.9134  0.3480  0.1684
17496SOL    HW253930   1.671   7.885   5.659  3.0329  2.1879 -1.0706
17497SOL     OW53931   3.246   6.050   4.262  0.3331  0.2276 -0.1585
17497SOL    HW153932   3.180   6.057   4.331 -0.6366  0.8893 -1.1155
17497SOL    HW253933   3.295   6.132   4.266  1.5271 -0.5172  0.9492
17498SOL     OW53934   4.255   0.965   5.187 -0.2322 -0.2041  0.0921
17498SOL    HW153935   4.310   0.887   5.198  0.4527  0.1193 -0.8948
17498SOL    HW253936   4.251   1.003   5.275  1.8327  0.1963  0.0772
17499SOL     OW53937   4.371   0.409   5.807 -1.0149  0.0389 -0.1738
17499SOL    HW153938   4.440   0.375   5.750 -1.1499 -0.1356 -0.2338
17499SOL    HW253939   4.359   0.500   5.778  2.0796  1.4722  2.5314
17500SOL     OW53940   3.177   7.584   2.940 -0.1542  0.5437  0.5364
17500SOL    HW153941   3.163   7.669   2.982 -0.5568  0.1642  1.1694
17500SOL    HW253942   3.262   7.555   2.973  0.1729  0.8740  0.0096
17501SOL     OW53943   4.381   7.760   5.164 -0.5043  0.2809  0.2547
17501SOL    HW153944   4.455   7.700   5.170 -0.8933 -0.2379 -0.0566
17501SOL    HW253945   4.353   7.773   5.254 -2.6920 -2.8909  0.1872
17502SOL     OW53946   4.656   0.379   4.759 -0.1110  0.4626 -0.2132
17502SOL    HW153947   4.571   0.342   4.735  0.2211 -0.4587 -0.0019
17502SOL    HW253948   4.635   0.445   4.825 -0.7556  1.0097 -0.9352
17503SOL     OW53949   4.256   6.924   5.354  0.3021 -0.0257  0.5488
17503SOL    HW153950   4.168   6.887   5.351  0.6304 -0.7805 -0.5552
17503SOL    HW253951   4.250   6.998   5.414 -0.7646 -0.8841  1.5380
17504SOL     OW53952   6.457   7.726   5.871 -0.1437 -0.0780  0.3449
17504SOL    HW153953   6.405   7.650   5.897 -0.9484  0.2394 -0.3139
17504SOL    HW253954   6.468   7.776   5.952 -0.3864 -0.4371  0.6032
17505SOL     OW53955   4.357   7.551   6.086  0.0187 -0.0130 -0.3454
17505SOL    HW153956   4.359   7.504   6.003  1.8167 -1.1298  0.2724
17505SOL    HW253957   4.274   7.524   6.127 -1.0479  0.8128 -1.8670
17506SOL     OW53958   4.596   0.182   4.060 -0.4244  0.1448  0.0701
17506SOL    HW153959   4.591   0.089   4.079  1.0462 -0.2163 -1.1459
17506SOL    HW253960   4.545   0.224   4.129 -3.0142 -1.6795 -0.5792
17507SOL     OW53961   3.015   5.558   3.691  0.2426  0.3617  0.1326
17507SOL    HW153962   3.029   5.652   3.677  0.0766  0.3388 -0.1985
17507SOL    HW253963   2.922   5.550   3.711  0.7455  0.5827  2.9496
17508SOL     OW53964   5.719   6.900   5.773 -0.2327 -0.2999 -0.1994
17508SOL    HW153965   5.759   6.825   5.729 -1.5460 -0.7525 -0.6622
17508SOL    HW253966   5.769   6.975   5.741 -0.3331 -0.7506 -1.4957
17509SOL     OW53967   4.276   7.627   6.469  0.4714  0.3839  0.2629
17509SOL    HW153968   4.304   7.622   6.560  0.2783  0.3614  0.3199
17509SOL    HW253969   4.212   7.698   6.466  0.7165  0.6018  0.0834
17510SOL     OW53970   5.119   6.927   3.750  0.0129  0.4797 -0.0699
17510SOL    HW153971   5.081   6.868   3.685  0.4237  2.0965 -1.8774
17510SOL    HW253972   5.043   6.973   3.787 -0.1211  0.5139 -0.3854
17511SOL     OW53973   5.268   0.149   4.994 -0.0384 -0.7869 -0.0576
17511SOL    HW153974   5.314   0.171   5.075 -1.4106 -1.9402  1.0907
17511SOL    HW253975   5.217   0.071   5.016 -2.0835  0.0892 -1.4231
17512SOL     OW53976   2.645   7.141   3.343 -0.0207  0.3357  0.5557
17512SOL    HW153977   2.720   7.116   3.288 -0.2463 -0.4363  0.5795
17512SOL    HW253978   2.684   7.160   3.428  0.1273 -0.3316  0.6424
17513SOL     OW53979   3.644   7.861   3.176 -0.0217 -0.3194  0.0748
17513SOL    HW153980   3.719   7.890   3.228 -0.1468 -0.7220  0.4827
17513SOL    HW253981   3.679   7.790   3.122  0.0850  0.0360 -0.3396
17514SOL     OW53982   4.954   7.437   4.455 -0.2563 -0.3896  0.5411
17514SOL    HW153983   4.913   7.447   4.369 -0.7991  1.0340  0.9265
17514SOL    HW253984   4.962   7.343   4.467  0.7280 -0.6247 -1.4826
17515SOL     OW53985   5.265   5.919   3.857  0.1493 -0.4620  0.1895
17515SOL    HW153986   5.268   5.921   3.762  0.4769 -0.4323  0.1999
17515SOL    HW253987   5.208   5.992   3.881  0.9448  0.2143  0.0563
17516SOL     OW53988   4.040   6.650   3.216 -0.1072  0.5906  0.2510
17516SOL    HW153989   3.990   6.724   3.182 -0.7791  1.5132  3.0383
17516SOL    HW253990   3.984   6.574   3.201 -0.5358  1.0059 -0.3122
17517SOL     OW53991   2.416   7.792   4.095 -0.2228 -0.0664 -0.5211
17517SOL    HW153992   2.343   7.786   4.033  0.1766 -1.7228 -0.8823
17517SOL    HW253993   2.488   7.746   4.051  1.5928  2.8398 -0.8806
17518SOL     OW53994   2.855   6.725   3.357 -0.3477  0.4397  0.3724
17518SOL    HW153995   2.799   6.648   3.349  1.1860 -0.6105 -0.9918
17518SOL    HW253996   2.898   6.732   3.272  1.6128  1.1540  1.3614
17519SOL     OW53997   0.387   7.116   3.226  0.3553 -0.1763 -0.7547
17519SOL    HW153998   0.367   7.038   3.277 -2.9318  0.3418 -1.0364
17519SOL    HW253999   0.479   7.106   3.202  1.1147 -2.0849  2.3320
17520SOL     OW54000   4.584   7.660   3.205 -0.3820  0.6517  0.1282
17520SOL    HW154001   4.497   7.646   3.243 -0.1207 -2.1973 -0.1339
17520SOL    HW254002   4.570   7.655   3.111  0.1691 -0.9548  0.0993
17521SOL     OW54003   5.839   6.807   5.146 -0.9442  0.0600  0.8118
17521SOL    HW154004   5.786   6.767   5.077 -1.2803  0.5571  0.7717
17521SOL    HW254005   5.785   6.800   5.225 -0.3377 -0.9809  1.1439
17522SOL     OW54006   4.123   7.030   4.904 -0.2509  0.2320 -0.7829
17522SOL    HW154007   4.135   7.101   4.841 -1.0965  0.0017 -1.2114
17522SOL    HW254008   4.038   6.991   4.881 -0.4780  0.0201  0.3745
17523SOL     OW54009   3.629   1.508   2.070 -0.3446  0.2291  0.0364
17523SOL    HW154010   3.717   1.543   2.060  0.2422 -1.0818  0.3664
17523SOL    HW254011   3.574   1.562   2.013  0.9018  0.2443 -1.1886
17524SOL     OW54012   4.644   7.315   3.897  0.3284 -0.4381 -0.4233
17524SOL    HW154013   4.661   7.272   3.813  0.5343 -2.1988  0.4709
17524SOL    HW254014   4.696   7.395   3.893 -0.7090  0.1937 -2.4803
17525SOL     OW54015   2.524   7.454   4.959  0.1028 -0.0000 -0.3733
17525SOL    HW154016   2.488   7.370   4.989 -0.1762  0.3644  0.3394
17525SOL    HW254017   2.599   7.430   4.906 -0.1033 -0.7145 -0.3523
17526SOL     OW54018   5.276   7.003   3.051  0.4694  0.1265  0.5230
17526SOL    HW154019   5.300   7.016   2.960 -1.6790 -0.9311 -0.2671
17526SOL    HW254020   5.298   7.086   3.094  3.1432  0.0386 -0.5246
17527SOL     OW54021   5.837   7.748   2.879  0.3513  0.0017  0.2263
17527SOL    HW154022   5.850   7.801   2.800  0.0059  1.0386  0.8422
17527SOL    HW254023   5.905   7.681   2.875  0.2095 -0.0770 -1.0466
17528SOL     OW54024   7.444   6.767   6.036 -0.1065 -0.1303 -0.5992
17528SOL    HW154025   7.534   6.793   6.056 -0.1345 -0.2047 -0.3619
17528SOL    HW254026   7.391   6.839   6.068 -0.1903 -0.5049  0.1394
17529SOL     OW54027   4.165   5.999   5.730  0.4948  0.5101  0.2465
17529SOL    HW154028   4.132   5.923   5.777 -1.0413  0.8577 -0.2295
17529SOL    HW254029   4.202   6.055   5.798  1.3869 -0.5063  0.6286
17530SOL     OW54030   4.181   6.760   7.427 -0.2790 -0.1513  0.3768
17530SOL    HW154031   4.133   6.829   7.383  0.9360 -0.0271 -0.8234
17530SOL    HW254032   4.162   6.681   7.377 -1.4026 -0.6717  1.5499
17531SOL     OW54033   3.994   0.553   5.525 -0.0911  0.2503  0.1910
17531SOL    HW154034   3.910   0.596   5.540  0.0934  1.4235 -1.7290
17531SOL    HW254035   4.039   0.557   5.609 -1.7189  0.0821  1.1144
17532SOL     OW54036   4.328   5.689   6.623  0.0298  0.3026  0.1821
17532SOL    HW154037   4.392   5.640   6.571 -1.0050  0.0339 -0.8976
17532SOL    HW254038   4.247   5.685   6.571 -0.3252  2.3732  0.4976
17533SOL     OW54039   5.890   6.529   6.796 -0.2976  0.3658 -0.1981
17533SOL    HW154040   5.889   6.482   6.713  0.3149 -0.1589  0.0832
17533SOL    HW254041   5.872   6.462   6.862  0.8951  0.4480  0.2336
17534SOL     OW54042   5.078   6.425   7.526 -0.0324 -0.3373 -0.3667
17534SOL    HW154043   5.107   6.426   7.435 -1.3605  0.3100 -0.8078
17534SOL    HW254044   5.034   6.340   7.536  2.4234 -1.6250  0.4955
17535SOL     OW54045   3.243   7.229   7.536  0.0353  0.4797 -0.4640
17535SOL    HW154046   3.240   7.322   7.560 -1.2325  0.5493 -0.8303
17535SOL    HW254047   3.311   7.224   7.469  1.7676  0.7268  1.1667
17536SOL     OW54048   6.217   6.153   6.573  0.2329  0.3894  0.0172
17536SOL    HW154049   6.124   6.168   6.587  0.2456  0.1579  0.3566
17536SOL    HW254050   6.247   6.107   6.652  0.5169 -0.0506 -0.3415
17537SOL     OW54051   5.110   4.973   7.362 -0.1719  0.4680 -0.4078
17537SOL    HW154052   5.020   4.998   7.341 -0.8919 -0.1351  1.6727
17537SOL    HW254053   5.116   4.880   7.340  0.4703  0.8670 -2.0290
17538SOL     OW54054   4.404   7.215   8.063  0.0508  0.5615 -0.0741
17538SOL    HW154055   4.444   7.157   7.998 -0.3891  0.0434  0.1129
17538SOL    HW254056   4.396   7.299   8.017 -0.2964  0.1907 -0.7173
17539SOL     OW54057   5.761   7.758   8.299 -0.7863 -0.3337  0.1244
17539SOL    HW154058   5.815   7.808   8.238  1.4756 -2.5164  0.2039
17539SOL    HW254059   5.678   7.745   8.252 -0.0116  0.1957 -1.4517
17540SOL     OW54060   6.135   0.342   7.748 -0.5350  0.4985 -0.2834
17540SOL    HW154061   6.049   0.317   7.781 -0.1165 -0.4983  0.1165
17540SOL    HW254062   6.121   0.358   7.654 -1.0542 -0.2240 -0.3408
17541SOL     OW54063   3.329   1.332   6.810 -0.4870 -0.1728  0.0548
17541SOL    HW154064   3.394   1.335   6.740 -0.3733 -0.7892  0.1288
17541SOL    HW254065   3.307   1.240   6.819  0.3363 -0.2649  1.5900
17542SOL     OW54066   4.295   0.027   5.082  0.5651  0.3059 -0.2065
17542SOL    HW154067   4.278  -0.066   5.097 -1.7745  0.1005 -3.0509
17542SOL    HW254068   4.331   0.031   4.994 -2.0845  2.1838 -1.3377
17543SOL     OW54069   4.227   1.170   8.740  0.4526  0.3229  0.1206
17543SOL    HW154070   4.152   1.155   8.798  1.8275  0.1513  1.9603
17543SOL    HW254071   4.293   1.212   8.796  2.1248 -0.4965 -1.1303
17544SOL     OW54072   4.782   5.117   6.098  0.0935 -0.5258 -0.2584
17544SOL    HW154073   4.686   5.118   6.103  0.1241  0.6469  0.3915
17544SOL    HW254074   4.803   5.026   6.076 -1.0462 -1.6068  2.6045
17545SOL     OW54075   5.452   7.155   7.784 -0.0478 -0.1506  0.6659
17545SOL    HW154076   5.536   7.122   7.752 -1.1193  0.2009 -2.8841
17545SOL    HW254077   5.475   7.227   7.843  2.1074 -1.4574  1.5589
17546SOL     OW54078   5.368   7.707   4.019 -0.2442  0.3557 -0.3142
17546SOL    HW154079   5.376   7.646   4.093  1.3850  0.9213  0.0189
17546SOL    HW254080   5.276   7.700   3.992 -0.1753 -2.0597 -0.1466
17547SOL     OW54081   3.642   6.211   7.848 -0.3459  0.7232  0.0963
17547SOL    HW154082   3.676   6.164   7.771  0.8671  0.6140  0.6663
17547SOL    HW254083   3.635   6.143   7.916  0.8819  1.2193  0.7609
17548SOL     OW54084   5.533   0.977   5.039  0.5204 -0.0775 -0.5959
17548SOL    HW154085   5.469   0.924   5.086  0.7691 -0.0079 -0.1817
17548SOL    HW254086   5.590   1.013   5.106  1.7818 -1.1648 -1.0415
17549SOL     OW54087   3.697   0.700   6.013  0.1725 -0.4297 -0.2834
17549SOL    HW154088   3.691   0.718   6.107  1.9759 -1.3259  0.0524
17549SOL    HW254089   3.791   0.697   5.996 -0.1277 -1.0973 -1.9604
17550SOL     OW54090   4.488   6.828   5.443  0.3964 -0.3610 -0.0598
17550SOL    HW154091   4.408   6.860   5.400  0.7138  0.2737 -0.1761
17550SOL    HW254092   4.479   6.857   5.534  1.0036  0.6677 -0.3172
17551SOL     OW54093   4.751   1.429   6.464 -0.1055 -0.1466  0.3283
17551SOL    HW154094   4.752   1.499   6.398  0.6104 -1.1404 -0.7446
17551SOL    HW254095   4.811   1.461   6.533  0.7847  0.0018 -0.4919
17552SOL     OW54096   4.695   7.701   5.487  0.0603 -0.1732 -0.3736
17552SOL    HW154097   4.706   7.788   5.451  0.2251 -0.3880 -0.8497
17552SOL    HW254098   4.772   7.688   5.542 -0.1628  0.1322  0.0179
17553SOL     OW54099   6.259   6.864   7.661 -0.3006 -0.1794 -0.2049
17553SOL    HW154100   6.232   6.818   7.741  0.4133 -0.3964 -0.0773
17553SOL    HW254101   6.347   6.896   7.681 -0.6430  0.9200 -0.4330
17554SOL     OW54102   3.776   0.435   6.630  0.0220  0.2782  0.3345
17554SOL    HW154103   3.689   0.452   6.594 -0.4660 -0.2729  1.2067
17554SOL    HW254104   3.834   0.494   6.581 -0.5437 -0.6372 -1.5347
17555SOL     OW54105   4.597   7.576   8.665  0.1395  0.0148  0.1034
17555SOL    HW154106   4.527   7.513   8.677  0.3361 -0.6173 -1.8677
17555SOL    HW254107   4.573   7.626   8.588  1.5337  0.2176 -0.2326
17556SOL     OW54108   2.395   0.015   6.927  0.6591 -0.3916 -0.1267
17556SOL    HW154109   2.347   0.057   6.998 -2.4903 -0.3520 -2.0801
17556SOL    HW254110   2.468   0.074   6.909  0.0089  0.9394  1.3506
17557SOL     OW54111   5.549   7.254   4.840 -0.2373  0.4133  0.1726
17557SOL    HW154112   5.600   7.220   4.912  0.4486  0.8584 -0.0922
17557SOL    HW254113   5.558   7.188   4.770 -0.2018  0.3893  0.2002
17558SOL     OW54114   5.658   6.828   7.986 -0.3163 -0.1776  0.0722
17558SOL    HW154115   5.664   6.921   8.004 -0.4736 -0.4578  1.7010
17558SOL    HW254116   5.593   6.821   7.916 -0.6889  0.8890  0.2999
17559SOL     OW54117   3.831   0.082   6.498 -0.5814 -0.3787 -0.2216
17559SOL    HW154118   3.821   0.157   6.440  0.3178 -0.7421 -0.8722
17559SOL    HW254119   3.882   0.116   6.572  0.0625 -0.4085 -0.6462
17560SOL     OW54120   4.301   0.621   7.541 -0.3230  0.5075 -0.3126
17560SOL    HW154121   4.261   0.675   7.473 -1.9038  1.3807  1.2457
17560SOL    HW254122   4.263   0.652   7.623  0.1125 -1.7325  0.8354
17561SOL     OW54123   5.293   0.004   6.452 -0.0243 -0.0823 -1.1540
17561SOL    HW154124   5.382  -0.022   6.475 -0.2660  0.3861  0.3760
17561SOL    HW254125   5.304   0.067   6.381  0.8887  0.3088 -0.6810
17562SOL     OW54126   2.234   0.275   5.807  0.2582  0.1149 -0.0783
17562SOL    HW154127   2.202   0.305   5.892  0.8195  1.0764 -0.1918
17562SOL    HW254128   2.181   0.322   5.743 -0.5610 -1.0454 -0.2814
17563SOL     OW54129   2.651   0.142   6.868 -0.0136  0.2246 -0.1424
17563SOL    HW154130   2.629   0.119   6.778  0.1378  0.6164 -0.2839
17563SOL    HW254131   2.746   0.150   6.869 -0.0377  0.5252 -0.0255
17564SOL     OW54132   5.420   6.240   7.365 -0.2100 -0.9161 -0.2454
17564SOL    HW154133   5.360   6.175   7.328  2.1514 -2.9902 -0.6731
17564SOL    HW254134   5.507   6.212   7.335  0.9885  2.1419  0.0661
17565SOL     OW54135   5.606   6.650   7.024 -0.4810  0.1082  0.1060
17565SOL    HW154136   5.625   6.695   7.106  0.4811 -0.9279  0.4803
17565SOL    HW254137   5.642   6.706   6.956 -0.8034  0.7154  0.4271
17566SOL     OW54138   5.315   6.721   5.433 -0.2322 -0.1580 -0.1067
17566SOL    HW154139   5.351   6.694   5.518  2.2136 -1.8170 -1.5428
17566SOL    HW254140   5.314   6.640   5.382 -0.0445  1.0955 -2.1850
17567SOL     OW54141   7.138   0.896   6.046 -0.1102 -0.2476 -0.0551
17567SOL    HW154142   7.068   0.852   6.095  1.4239 -0.9314  1.6492
17567SOL    HW254143   7.190   0.824   6.010  2.7025 -0.0789  3.1452
17568SOL     OW54144   3.665   7.709   5.660 -0.6295  0.2355  0.2966
17568SOL    HW154145   3.741   7.754   5.623  1.3266 -2.0870  1.2669
17568SOL    HW254146   3.661   7.626   5.612 -1.0420 -0.7158  1.9113
17569SOL     OW54147   4.435   1.728   5.921 -0.1249 -0.3333  0.2219
17569SOL    HW154148   4.381   1.804   5.900  0.6660  0.1323 -0.1526
17569SOL    HW254149   4.376   1.668   5.967 -1.2167 -0.2610 -1.0521
17570SOL     OW54150   5.546   7.351   7.969 -0.2402  0.1434 -0.0873
17570SOL    HW154151   5.542   7.402   8.050  0.3837 -1.4376  0.9684
17570SOL    HW254152   5.596   7.407   7.909  3.2071 -0.3839  2.0293
17571SOL     OW54153   3.753   7.366   7.145 -0.1736  0.1148  0.1608
17571SOL    HW154154   3.669   7.387   7.184 -0.5796  0.1350 -0.6928
17571SOL    HW254155   3.787   7.450   7.115 -1.1739 -0.1801 -2.0284
17572SOL     OW54156   4.147   7.222   6.388 -0.4848 -0.0474 -0.2128
17572SOL    HW154157   4.146   7.252   6.297  0.2257  1.3593  0.2194
17572SOL    HW254158   4.104   7.292   6.437  0.6041 -0.0238  0.7414
17573SOL     OW54159   4.649   7.554   7.078  0.4518  0.5622 -0.4862
17573SOL    HW154160   4.707   7.629   7.086  0.6414  0.4497 -0.8011
17573SOL    HW254161   4.579   7.570   7.141  0.4750  1.0168 -0.5789
17574SOL     OW54162   5.385   7.605   7.759 -0.2567  0.2694 -0.5786
17574SOL    HW154163   5.409   7.532   7.701  0.0412  0.2877 -0.4800
17574SOL    HW254164   5.402   7.683   7.707 -0.8651  0.2639 -0.7933
17575SOL     OW54165   5.895   6.764   6.969 -0.8273 -0.0683  0.6043
17575SOL    HW154166   5.874   6.856   6.986  0.8817  0.4738  0.0195
17575SOL    HW254167   5.853   6.745   6.886 -1.1189  0.2182  0.6851
17576SOL     OW54168   3.830   0.321   6.352  0.3443 -0.1539 -0.5470
17576SOL    HW154169   3.776   0.336   6.429  2.3007 -0.3789  0.9537
17576SOL    HW254170   3.848   0.408   6.316 -2.2010 -0.1312 -2.0496
17577SOL     OW54171   6.299   6.753   7.127 -0.2937  0.1746 -0.3848
17577SOL    HW154172   6.289   6.847   7.138 -1.5821 -0.0529  0.6322
17577SOL    HW254173   6.220   6.715   7.166  0.4027 -1.3521 -0.3620
17578SOL     OW54174   5.860   5.551   5.931  0.3625 -0.0096 -0.8009
17578SOL    HW154175   5.804   5.613   5.884  0.4333  0.7477  0.0873
17578SOL    HW254176   5.941   5.599   5.948  0.2426 -0.1865  0.3082
17579SOL     OW54177   4.891   5.972   5.782 -0.0812  0.1125 -0.0470
17579SOL    HW154178   4.902   5.923   5.700  0.0587 -0.5946  0.3939
17579SOL    HW254179   4.803   6.009   5.776 -0.5799 -1.0189  0.0556
17580SOL     OW54180   4.230   0.318   7.093 -0.7702 -0.1009 -0.2888
17580SOL    HW154181   4.214   0.393   7.150 -2.1576 -0.9976  0.5344
17580SOL    HW254182   4.241   0.244   7.152  3.6585 -0.2126 -0.8514
17581SOL     OW54183   6.197   7.369   8.502 -0.3890  1.0611  0.0342
17581SOL    HW154184   6.196   7.275   8.518 -0.6953  1.1231  0.3844
17581SOL    HW254185   6.119   7.385   8.448 -0.3037  1.1084 -0.0777
17582SOL     OW54186   4.661   6.291   8.600 -0.1847  0.5657  0.7654
17582SOL    HW154187   4.634   6.215   8.652 -2.1042  1.1431  0.6693
17582SOL    HW254188   4.587   6.351   8.605 -0.6992  0.4846 -2.9949
17583SOL     OW54189   3.197   2.473   6.706  0.4231  0.2168 -0.1537
17583SOL    HW154190   3.261   2.543   6.707  0.3040  0.3382 -0.6933
17583SOL    HW254191   3.248   2.393   6.692  0.3232  0.5047 -2.6490
17584SOL     OW54192   2.756   7.374   4.843 -0.0612 -0.3899 -0.3478
17584SOL    HW154193   2.846   7.381   4.814 -0.1972  0.9807 -0.4822
17584SOL    HW254194   2.757   7.304   4.909  1.3107  0.3756  0.4889
17585SOL     OW54195   4.104   1.778   5.700  0.5963  0.2353  0.2985
17585SOL    HW154196   4.055   1.860   5.712 -0.3603 -0.6043  2.8190
17585SOL    HW254197   4.141   1.785   5.612 -0.8622  2.6185 -0.2265
17586SOL     OW54198   4.906   7.030   8.547 -0.2505  0.1212 -0.2621
17586SOL    HW154199   4.992   7.073   8.542  0.7484 -1.8933 -1.5993
17586SOL    HW254200   4.844   7.103   8.558  1.5467  1.6839  0.0842
17587SOL     OW54201   5.107   1.824   6.678 -0.4949 -1.0160 -0.3320
17587SOL    HW154202   5.131   1.739   6.716 -2.4115 -1.5348 -0.1671
17587SOL    HW254203   5.186   1.878   6.687 -0.3334 -1.5824  3.0320
17588SOL     OW54204   3.413   0.695   7.986 -0.2608  0.2455 -0.0972
17588SOL    HW154205   3.470   0.692   7.910  0.4480  3.0680  0.2089
17588SOL    HW254206   3.463   0.651   8.055  1.2679  1.9429 -0.0498
17589SOL     OW54207   4.381   1.172   9.339 -0.2655 -0.5357 -0.2450
17589SOL    HW154208   4.399   1.225   9.261  0.9549 -0.1655  0.2654
17589SOL    HW254209   4.357   1.086   9.304  2.1013 -0.9418 -1.0460
17590SOL     OW54210   5.830   7.518   5.571  0.4641 -0.3970  0.2135
17590SOL    HW154211   5.783   7.459   5.512  1.1050  0.1634 -0.8877
17590SOL    HW254212   5.804   7.606   5.542  1.1440 -0.1064  0.4681
17591SOL     OW54213   3.760   7.287   6.681  0.0785 -0.3735 -0.3584
17591SOL    HW154214   3.828   7.239   6.635  2.1619  0.3832  1.7393
17591SOL    HW254215   3.803   7.366   6.713 -1.7923  0.1709  1.0115
17592SOL     OW54216   3.220   0.338   7.458  0.9004 -0.9168  0.4246
17592SOL    HW154217   3.289   0.379   7.510  0.3054  0.0025  0.4960
17592SOL    HW254218   3.249   0.351   7.367 -0.3706  1.7808  0.2997
17593SOL     OW54219   5.772   7.309   6.992  0.2896 -0.5187 -0.5170
17593SOL    HW154220   5.782   7.230   6.938  1.8919  0.5775 -1.9127
17593SOL    HW254221   5.696   7.354   6.956 -0.5573 -1.3189  0.2066
17594SOL     OW54222   4.631   2.429   5.964 -0.1517 -0.1095 -0.4047
17594SOL    HW154223   4.605   2.505   6.017  0.0179 -1.4943  1.7934
17594SOL    HW254224   4.608   2.454   5.874  2.3053  3.6216 -0.2382
17595SOL     OW54225   4.106   7.855   6.389  0.4272  0.1781 -0.4049
17595SOL    HW154226   4.021   7.844   6.432  1.1163 -0.5876  0.7738
17595SOL    HW254227   4.118   7.950   6.385  0.1808  0.2644  0.7512
17596SOL     OW54228   4.158   0.383   9.310 -0.0964 -0.4437 -0.3770
17596SOL    HW154229   4.233   0.399   9.368  0.1097 -1.4185 -0.3550
17596SOL    HW254230   4.131   0.293   9.331  0.5130 -1.1534 -2.3746
17597SOL     OW54231   2.990   0.855   8.850 -0.1724  0.2719  0.2369
17597SOL    HW154232   2.924   0.812   8.795  0.2419 -1.0263  0.7181
17597SOL    HW254233   2.977   0.949   8.834 -0.7997 -0.0310 -1.2066
17598SOL     OW54234   3.728   6.724   9.072 -0.0368  0.1706  0.6054
17598SOL    HW154235   3.769   6.810   9.062  2.6915 -0.9580  1.2418
17598SOL    HW254236   3.698   6.722   9.163  1.0726  0.0295  0.9866
17599SOL     OW54237   2.723   0.087   8.829  0.4610 -0.3774 -0.6654
17599SOL    HW154238   2.714   0.122   8.918 -0.0330 -0.0224 -0.8514
17599SOL    HW254239   2.746   0.164   8.776 -3.0264  0.2393 -1.5181
17600SOL     OW54240   5.036   5.868   7.361  0.3100 -0.2328 -0.1918
17600SOL    HW154241   5.015   5.863   7.267  0.1311  1.9272 -0.3140
17600SOL    HW254242   5.101   5.800   7.374  0.8089 -0.1711 -2.0406
17601SOL     OW54243   4.590   0.410  10.823  0.4237  0.2410  1.2065
17601SOL    HW154244   4.540   0.409  10.905  0.1011 -0.0732  1.0108
17601SOL    HW254245   4.605   0.318  10.803 -2.7493  0.0240 -1.0114
17602SOL     OW54246   2.504   0.799   6.031 -0.1434 -0.3690  0.0687
17602SOL    HW154247   2.577   0.758   5.984  0.2043  0.6200 -0.2748
17602SOL    HW254248   2.432   0.800   5.968 -0.8171 -2.3107  0.7480
17603SOL     OW54249   3.595   7.791   8.839  0.3391 -0.2349  0.3197
17603SOL    HW154250   3.541   7.869   8.851 -1.1946 -1.6418  4.3124
17603SOL    HW254251   3.682   7.817   8.867  0.1068  0.3317  0.5317
17604SOL     OW54252   5.749   1.289   9.353 -0.0278 -0.6045  0.0957
17604SOL    HW154253   5.770   1.378   9.326 -0.1826 -0.6383 -0.1359
17604SOL    HW254254   5.658   1.294   9.383 -0.4635 -0.9507 -1.1301
17605SOL     OW54255   3.387   0.540   9.018 -0.5842  0.3655  0.0855
17605SOL    HW154256   3.432   0.565   8.937  1.1657 -3.5615 -0.3464
17605SOL    HW254257   3.294   0.544   8.995 -0.1467 -0.1120 -1.9666
17606SOL     OW54258   5.284   7.496  10.171  0.4138 -0.1288 -0.2432
17606SOL    HW154259   5.239   7.432  10.227  0.1003  0.2665 -0.0382
17606SOL    HW254260   5.375   7.495  10.201  0.6173 -1.1324 -0.8387
17607SOL     OW54261   4.646   1.359   9.358  1.1905 -0.0732  0.4911
17607SOL    HW154262   4.691   1.442   9.371 -1.1414  1.2232  0.7342
17607SOL    HW254263   4.691   1.299   9.418  1.2771  1.6729  2.2997
17608SOL     OW54264   4.962   6.970   9.990  0.2123 -0.2606  0.3224
17608SOL    HW154265   4.873   6.945  10.014 -0.0061  1.1014  1.0764
17608SOL    HW254266   5.018   6.911  10.039 -0.2680 -1.0972 -0.1216
17609SOL     OW54267   4.481   6.365   9.015 -0.0332  0.1755 -0.2084
17609SOL    HW154268   4.569   6.402   9.009 -1.0300  2.7934  0.1082
17609SOL    HW254269   4.442   6.379   8.929 -1.6737  3.5019  0.8981
17610SOL     OW54270   6.514   0.580   9.086  0.0770  0.0244  0.1854
17610SOL    HW154271   6.465   0.631   9.151 -0.9132 -1.4960  0.6681
17610SOL    HW254272   6.449   0.559   9.018  1.0344  1.3729 -1.2378
17611SOL     OW54273   4.139   1.179   9.152  0.3440 -0.2299  0.0312
17611SOL    HW154274   4.156   1.097   9.197 -0.1521  0.3387  1.3176
17611SOL    HW254275   4.071   1.222   9.205  0.2312  0.7710 -0.8890
17612SOL     OW54276   3.621   7.483  10.131 -0.3163  0.0911  0.0325
17612SOL    HW154277   3.648   7.428  10.058 -0.2425  4.1174 -3.3553
17612SOL    HW254278   3.531   7.455  10.150 -0.3953 -1.0249 -1.7146
17613SOL     OW54279   3.032   6.939   7.117 -0.1996 -0.3678  0.0005
17613SOL    HW154280   3.067   7.017   7.160 -1.7201  1.5752 -1.9881
17613SOL    HW254281   3.108   6.886   7.094  0.9038  0.6876  1.1529
17614SOL     OW54282   4.213   0.121   9.465 -0.4948  0.1978  0.4615
17614SOL    HW154283   4.217   0.178   9.542  2.5280 -2.6634  2.7303
17614SOL    HW254284   4.181   0.038   9.500 -1.5691 -0.4912 -2.0047
17615SOL     OW54285   5.271   0.500   7.992  0.6134  0.4509 -0.1041
17615SOL    HW154286   5.341   0.438   7.971  0.0901  0.2369 -1.2899
17615SOL    HW254287   5.283   0.520   8.085  0.4807 -1.8316  0.4548
17616SOL     OW54288   5.313   6.619  10.389  0.6335  0.1177 -0.1720
17616SOL    HW154289   5.264   6.647  10.467  0.7807 -1.0394  0.3466
17616SOL    HW254290   5.247   6.616  10.320 -0.0224 -1.2696  0.4846
17617SOL     OW54291   6.199   0.682   8.397  0.4253  0.3928  0.3153
17617SOL    HW154292   6.206   0.693   8.302 -0.7290 -0.6568  0.0872
17617SOL    HW254293   6.182   0.771   8.430  1.8119  0.9307 -0.3306
17618SOL     OW54294   3.573   0.886   8.156 -0.2162  0.0462  0.1821
17618SOL    HW154295   3.488   0.856   8.127  0.5975 -1.4448 -0.7553
17618SOL    HW254296   3.589   0.966   8.105 -1.1628  0.5345  0.6171
17619SOL     OW54297   3.005   7.551   6.156 -0.3986  0.2024 -0.0333
17619SOL    HW154298   3.041   7.462   6.157  0.3865  0.5016  1.0062
17619SOL    HW254299   2.911   7.539   6.146 -0.3271 -0.7676  0.3581
17620SOL     OW54300   4.590   0.632   8.531  0.4136  0.2551 -0.1946
17620SOL    HW154301   4.567   0.724   8.539  2.6184  0.9712 -1.2709
17620SOL    HW254302   4.599   0.617   8.437  2.2995 -0.3939  0.0389
17621SOL     OW54303   4.395   6.620   7.714 -0.1332  0.3202  0.2348
17621SOL    HW154304   4.441   6.647   7.635  1.1058 -0.3372  0.6827
17621SOL    HW254305   4.335   6.552   7.685  0.4657 -0.0685 -0.1287
17622SOL     OW54306   5.254   1.112   7.605 -1.1377  0.7465  0.2471
17622SOL    HW154307   5.328   1.054   7.625 -2.0005 -0.3955  0.2506
17622SOL    HW254308   5.251   1.114   7.509 -1.1949  0.6675  0.2469
17623SOL     OW54309   3.856   7.332   6.038  0.5440 -0.5323 -0.3422
17623SOL    HW154310   3.828   7.330   6.130  1.8163 -1.0414  0.0556
17623SOL    HW254311   3.833   7.420   6.008  1.3959  0.1358  0.8913
17624SOL     OW54312   7.211   7.299   9.359 -0.2132 -0.7170  0.2024
17624SOL    HW154313   7.154   7.338   9.426  1.5949  0.3912  1.1711
17624SOL    HW254314   7.254   7.226   9.403  1.7530  0.6408  0.6410
17625SOL     OW54315   5.467   0.194   9.590 -0.0083 -0.1161 -0.5636
17625SOL    HW154316   5.505   0.281   9.578 -2.0084  0.5899 -2.2195
17625SOL    HW254317   5.392   0.208   9.648 -1.0723 -0.4984 -1.8170
17626SOL     OW54318   5.405   0.764   7.869 -0.5241 -0.0238  0.2274
17626SOL    HW154319   5.310   0.768   7.880 -0.3005 -0.7637  3.3046
17626SOL    HW254320   5.424   0.672   7.853 -0.1942 -0.1986  1.5649
17627SOL     OW54321   5.380   7.096   9.065 -0.2045  0.3856  0.9234
17627SOL    HW154322   5.454   7.040   9.089 -0.7699 -0.7890  0.0141
17627SOL    HW254323   5.362   7.147   9.145  2.1252  1.3711  0.9162
17628SOL     OW54324   2.879   0.122   9.793 -0.1048 -0.0161 -0.1113
17628SOL    HW154325   2.903   0.050   9.851  0.2274  0.0574 -0.1517
17628SOL    HW254326   2.904   0.091   9.705  1.1677  0.6062  0.0016
17629SOL     OW54327   4.583   7.563   9.692  0.1276  0.2532 -0.4798
17629SOL    HW154328   4.668   7.594   9.722  0.3015 -0.1356 -0.5611
17629SOL    HW254329   4.561   7.491   9.751 -0.7348  1.1633  0.3400
17630SOL     OW54330   4.293   0.313   9.717  0.5293 -0.0155 -0.0863
17630SOL    HW154331   4.378   0.271   9.731 -0.1804 -1.3724  0.2597
17630SOL    HW254332   4.315   0.403   9.693  2.0573 -0.2833  0.2084
17631SOL     OW54333   4.186   7.705   8.387  0.7187 -0.3307  0.0645
17631SOL    HW154334   4.091   7.700   8.379  0.6839  1.3447 -1.3081
17631SOL    HW254335   4.201   7.729   8.478 -0.2398  0.1650  0.1076
17632SOL     OW54336   5.944   0.726   7.529 -0.0044 -0.5274 -0.0462
17632SOL    HW154337   5.916   0.796   7.470  0.0879 -1.5189 -1.3175
17632SOL    HW254338   5.879   0.657   7.516  1.6229 -1.9162 -1.2560
17633SOL     OW54339   5.725   0.545   7.528 -0.0559  0.6123  0.4915
17633SOL    HW154340   5.664   0.521   7.598 -0.3996  1.5475  0.5214
17633SOL    HW254341   5.722   0.471   7.467  1.4152 -0.9595  2.2076
17634SOL     OW54342   3.604   0.660   7.788  0.4252 -0.0239  0.4247
17634SOL    HW154343   3.596   0.731   7.724 -0.5804 -1.2467 -0.8572
17634SOL    HW254344   3.699   0.651   7.802  0.6038  0.9660 -0.0714
17635SOL     OW54345   5.045   7.983   7.316  0.2293  0.1602  0.4470
17635SOL    HW154346   4.955   8.003   7.291  0.4919  0.7243 -0.0976
17635SOL    HW254347   5.069   8.053   7.378  0.6479  0.6727 -0.2730
17636SOL     OW54348   4.686   0.462  10.538 -0.3628  0.1796 -0.0962
17636SOL    HW154349   4.708   0.444  10.630  1.7042 -1.1999 -0.7969
17636SOL    HW254350   4.731   0.394  10.489 -2.3992  0.1738 -2.1002
17637SOL     OW54351   3.900   7.392   9.078 -0.4525  0.0243  0.3485
17637SOL    HW154352   3.964   7.323   9.097 -1.9530 -1.3580  0.6558
17637SOL    HW254353   3.890   7.440   9.160  0.2362  0.3056  0.2731
17638SOL     OW54354   2.583   7.943   9.642  0.3414  0.5496 -0.1652
17638SOL    HW154355   2.596   7.994   9.562  1.9543  1.0422  0.3606
17638SOL    HW254356   2.572   8.008   9.711 -1.5651  0.1295 -0.0226
17639SOL     OW54357   2.890   7.008  10.896 -0.5207 -0.1886 -0.6877
17639SOL    HW154358   2.970   6.956  10.887 -1.8610 -2.6167  0.3695
17639SOL    HW254359   2.901   7.054  10.979 -1.0666 -2.2838  0.6219
17640SOL     OW54360   2.450   7.511   7.933 -0.4234  0.3966  0.5908
17640SOL    HW154361   2.360   7.534   7.954 -0.0972 -0.0148  2.7337
17640SOL    HW254362   2.501   7.589   7.954 -0.0440 -0.1261  1.7264
17641SOL     OW54363   5.257   0.291   8.981  0.4193 -0.0341  0.0893
17641SOL    HW154364   5.301   0.222   8.931  2.6725  0.7585  0.8245
17641SOL    HW254365   5.215   0.346   8.915  1.2472 -0.3883 -0.7578
17642SOL     OW54366   5.184   6.864   8.409  0.5028  0.1167  0.1494
17642SOL    HW154367   5.276   6.846   8.388  0.6338  0.8169  0.0835
17642SOL    HW254368   5.188   6.940   8.467 -0.0853  0.7481 -0.6233
17643SOL     OW54369   5.421   6.745   8.982 -0.3331 -0.3307  0.0052
17643SOL    HW154370   5.476   6.725   9.058 -0.6655 -0.8994  0.1065
17643SOL    HW254371   5.462   6.698   8.909  0.0080  0.2463 -0.1854
17644SOL     OW54372   6.958   6.608   9.097 -0.4233 -0.0321 -0.6550
17644SOL    HW154373   6.866   6.613   9.073 -0.3465  0.3397 -0.8870
17644SOL    HW254374   6.988   6.525   9.060 -0.4671  0.2282 -1.2928
17645SOL     OW54375   3.557   0.010   8.013  0.4137  0.0700 -0.0358
17645SOL    HW154376   3.552  -0.086   8.003 -2.2471  0.3580 -3.1671
17645SOL    HW254377   3.636   0.035   7.965  2.0519 -0.5360  2.1460
17646SOL     OW54378   5.697   6.980  10.223  0.1433 -0.4471 -0.8330
17646SOL    HW154379   5.745   7.010  10.300 -1.4654 -2.9486  1.3244
17646SOL    HW254380   5.746   6.905  10.191 -0.5955 -1.0696 -0.5451
17647SOL     OW54381   6.184   7.026   9.068 -0.0780  0.7628  0.0033
17647SOL    HW154382   6.183   6.949   9.124 -0.3453  0.2549 -0.6813
17647SOL    HW254383   6.105   7.018   9.014  0.5669  0.8174 -0.9851
17648SOL     OW54384   4.324   1.393   9.121 -0.4395 -1.0183  0.5742
17648SOL    HW154385   4.253   1.330   9.126  0.8565 -2.5080  0.9547
17648SOL    HW254386   4.344   1.399   9.027 -0.1211 -1.6968  0.5971
17649SOL     OW54387   4.491   6.955   7.301  0.1913 -0.0232  0.1052
17649SOL    HW154388   4.426   6.934   7.234 -0.4638  1.2437  0.3123
17649SOL    HW254389   4.560   6.890   7.289 -0.0769 -0.0437 -1.5782
17650SOL     OW54390   4.424   5.795   6.297  0.2929 -0.4377 -0.1305
17650SOL    HW154391   4.348   5.841   6.260  0.3681  0.4336  0.7523
17650SOL    HW254392   4.386   5.718   6.341 -0.1533  0.2023  0.6509
17651SOL     OW54393   5.039   7.874   9.898  0.3749 -0.2517 -0.4919
17651SOL    HW154394   5.028   7.845   9.808 -0.0927 -2.1841  0.1357
17651SOL    HW254395   5.040   7.793   9.950 -2.2553  0.8464  1.5254
17652SOL     OW54396   5.097   1.637   6.412 -0.6495 -0.1197  0.0010
17652SOL    HW154397   5.163   1.617   6.478 -0.1026  0.7496 -0.2745
17652SOL    HW254398   5.075   1.552   6.374  0.9184 -0.3620 -0.4658
17653SOL     OW54399   4.372   7.199   8.901 -0.1618  0.3042  0.2701
17653SOL    HW154400   4.372   7.134   8.971  0.7601  0.7430  0.7000
17653SOL    HW254401   4.376   7.148   8.821  6.6962 -0.4506  0.5129
17654SOL     OW54402   5.654   7.472  11.165  0.1577 -0.0664  0.0592
17654SOL    HW154403   5.744   7.439  11.177  0.1265  0.1193  0.9198
17654SOL    HW254404   5.662   7.538  11.097  0.9213  0.8621  1.0096
17655SOL     OW54405   4.794   6.409   9.919  0.2217 -0.0599 -0.7746
17655SOL    HW154406   4.843   6.482   9.881  0.5994 -1.2231 -2.6087
17655SOL    HW254407   4.860   6.346   9.945 -0.1539 -0.1691 -0.0523
17656SOL     OW54408   4.781   0.106   9.186  0.0638  0.0148  0.2141
17656SOL    HW154409   4.817   0.130   9.101 -0.4512 -1.3162 -0.4115
17656SOL    HW254410   4.842   0.142   9.250  0.5914  0.8191 -0.7271
17657SOL     OW54411   4.857   7.557  10.085  0.3213 -0.4388  0.9052
17657SOL    HW154412   4.778   7.605  10.060  1.2353  2.2894  2.6996
17657SOL    HW254413   4.832   7.465  10.081 -1.9931  0.1707 -1.4719
17658SOL     OW54414   3.171   7.619  10.291  0.1462  0.2537 -0.2625
17658SOL    HW154415   3.087   7.658  10.266 -0.5028  0.3101  1.7975
17658SOL    HW254416   3.150   7.564  10.367  1.8665 -0.2789 -0.1323
17659SOL     OW54417   5.801   7.198   9.188  0.8529  0.1407 -0.0596
17659SOL    HW154418   5.846   7.188   9.105  0.8146  1.5212 -0.2721
17659SOL    HW254419   5.716   7.237   9.165  0.4637 -0.3241  0.5415
17660SOL     OW54420   4.003   0.716   8.313  0.0916  0.3821 -0.2513
17660SOL    HW154421   3.928   0.775   8.314 -0.3123 -0.1228  1.4409
17660SOL    HW254422   3.982   0.648   8.377  1.7337 -0.1059 -0.1761
17661SOL     OW54423   5.076   7.178  10.508 -0.1167 -0.0340 -0.5637
17661SOL    HW154424   5.020   7.165  10.432 -0.7898  0.4436 -0.1673
17661SOL    HW254425   5.026   7.143  10.582  0.1476  0.3012 -0.2168
17662SOL     OW54426   4.354   0.036  10.691 -0.2292  0.0170  0.4887
17662SOL    HW154427   4.322  -0.053  10.711 -1.7359  0.6451  0.9889
17662SOL    HW254428   4.345   0.044  10.597 -0.3780 -0.2482  0.4790
17663SOL     OW54429   3.601   1.767  10.189 -0.8562  0.0320  0.1963
17663SOL    HW154430   3.521   1.773  10.241 -1.3613  1.9062 -0.7106
17663SOL    HW254431   3.637   1.856  10.191  1.0452 -0.6980  0.3075
17664SOL     OW54432   5.317   7.741   9.835  0.3442  0.1612 -0.0915
17664SOL    HW154433   5.231   7.726   9.873 -0.2097 -0.7195 -1.6112
17664SOL    HW254434   5.375   7.683   9.885 -0.2668 -0.5679 -0.2065
17665SOL     OW54435   5.679   0.339  11.625 -0.3975 -0.1434 -0.0253
17665SOL    HW154436   5.597   0.294  11.646  0.1642 -0.8548  0.6595
17665SOL    HW254437   5.742   0.269  11.607  0.0504  0.3990 -0.6286
17666SOL     OW54438   5.278   0.346  10.924  0.9594  0.1751 -0.1878
17666SOL    HW154439   5.332   0.378  10.997  0.9418  1.1212 -0.5734
17666SOL    HW254440   5.270   0.421  10.866  2.7687 -1.1080 -2.2756
17667SOL     OW54441   4.058   0.106  10.781  0.8611  0.3148 -0.2979
17667SOL    HW154442   4.070   0.043  10.852 -2.6131 -1.0750 -0.7421
17667SOL    HW254443   4.034   0.052  10.705 -0.6644  2.0329 -1.1161
17668SOL     OW54444   2.515   7.880  10.999  0.6782 -0.0799 -0.0968
17668SOL    HW154445   2.441   7.922  10.956  1.3572  1.9751  0.6327
17668SOL    HW254446   2.525   7.797  10.953 -2.0271 -0.4293 -0.2502
17669SOL     OW54447   5.113   6.420   9.698  0.4591  0.1523 -0.0580
17669SOL    HW154448   5.056   6.453   9.629  1.6691  1.6760 -0.4050
17669SOL    HW254449   5.062   6.430   9.779 -0.8429 -1.3385 -0.6399
17670SOL     OW54450   5.596   0.816  12.136 -0.1606  0.2489 -0.2833
17670SOL    HW154451   5.559   0.776  12.058 -0.1096 -0.5702  0.1059
17670SOL    HW254452   5.528   0.807  12.203  0.0887  0.2621 -0.0253
17671SOL     OW54453   4.283   0.479  11.592  0.0608  0.2602  0.3426
17671SOL    HW154454   4.197   0.478  11.549 -0.6097 -3.9281  1.3766
17671SOL    HW254455   4.263   0.465  11.685  1.8362 -1.4328  0.5126
17672SOL     OW54456   6.178   6.660  11.345  0.3498 -0.2837  0.3091
17672SOL    HW154457   6.161   6.645  11.438 -0.6362 -0.6826  0.0781
17672SOL    HW254458   6.254   6.718  11.344  1.3339 -1.4933  1.3216
17673SOL     OW54459   5.380   1.869   9.491 -0.3907 -0.5796 -0.9711
17673SOL    HW154460   5.297   1.839   9.453 -1.6806  1.2313  0.2620
17673SOL    HW254461   5.389   1.959   9.461  1.1482 -0.7395 -1.0572
17674SOL     OW54462   4.987   7.964  10.148  0.1412 -0.3551 -0.7497
17674SOL    HW154463   4.911   8.011  10.112 -0.2027  0.2982  0.7815
17674SOL    HW254464   5.029   7.925  10.071 -1.9545 -1.0613 -1.6077
17675SOL     OW54465   5.138   7.156   8.476  0.0965 -0.4221  0.4969
17675SOL    HW154466   5.080   7.206   8.419  0.4153  0.5118  0.9836
17675SOL    HW254467   5.224   7.161   8.434  0.4919  0.8986  1.4253
17676SOL     OW54468   5.776   2.119  10.046  0.2558 -0.6540 -0.1069
17676SOL    HW154469   5.774   2.050   9.980  0.0222 -0.3654 -0.4005
17676SOL    HW254470   5.692   2.164  10.037 -0.4288 -1.5270  1.3690
17677SOL     OW54471   4.881   6.348  12.347 -0.1307  0.0354 -0.4741
17677SOL    HW154472   4.800   6.301  12.367  0.4263 -1.8975 -2.3149
17677SOL    HW254473   4.892   6.337  12.253  1.6020  1.3852 -0.4776
17678SOL     OW54474   4.252   7.331   9.589  0.4109 -0.8059  0.8719
17678SOL    HW154475   4.287   7.276   9.659  0.8901 -2.0880 -0.3290
17678SOL    HW254476   4.207   7.269   9.531  0.2089  0.1979 -0.0716
17679SOL     OW54477   5.123   7.193  10.127 -0.5771  0.3778 -0.4901
17679SOL    HW154478   5.105   7.235  10.043 -0.4769  1.1927 -0.1064
17679SOL    HW254479   5.043   7.144  10.147 -0.3686 -0.3460 -1.3572
17680SOL     OW54480   4.080   2.232  12.251 -0.4331 -0.3693 -0.7558
17680SOL    HW154481   4.099   2.163  12.314 -1.3740  0.5386  0.5735
17680SOL    HW254482   4.140   2.303  12.273 -0.1712 -0.3656 -1.4562
17681SOL     OW54483   4.073   7.504   9.706  0.2509 -0.9231  0.0257
17681SOL    HW154484   4.158   7.465   9.686  0.4221 -0.2930 -0.5050
17681SOL    HW254485   4.029   7.439   9.762  1.0216 -1.3104  0.1937
17682SOL     OW54486   3.549   7.744  11.910 -0.4921  0.0211  0.4019
17682SOL    HW154487   3.511   7.659  11.930 -1.2820  0.3821  0.4616
17682SOL    HW254488   3.573   7.738  11.817  0.6251 -0.6934  0.7143
17683SOL     OW54489   5.969   1.315  10.400 -0.2051  0.4663 -0.3282
17683SOL    HW154490   5.944   1.305  10.492  0.3795 -1.0029 -0.3093
17683SOL    HW254491   5.902   1.268  10.352  1.2252 -1.6171 -0.4104
17684SOL     OW54492   3.461   7.681  10.608 -0.3026  0.0237 -0.5475
17684SOL    HW154493   3.417   7.731  10.677 -0.0308 -0.2705 -0.1561
17684SOL    HW254494   3.442   7.590  10.628  0.1205 -0.0859 -0.6247
17685SOL     OW54495   2.947   7.527   9.217 -0.7428 -0.3049 -0.4545
17685SOL    HW154496   2.921   7.548   9.128  0.4785  0.5668 -0.6229
17685SOL    HW254497   3.039   7.552   9.222 -0.9019  0.0446  1.1795
17686SOL     OW54498   5.189   0.563   8.471 -0.4661 -0.4614  0.7635
17686SOL    HW154499   5.249   0.535   8.541 -0.4964 -1.7845  0.2983
17686SOL    HW254500   5.109   0.589   8.517  0.5981  1.8287  1.4357
17687SOL     OW54501   5.012   7.912  12.022 -0.1038 -0.1840 -0.2302
17687SOL    HW154502   5.067   7.970  12.075 -0.6337  0.2096 -0.1020
17687SOL    HW254503   4.929   7.907  12.070 -0.5297  0.0328 -0.9263
17688SOL     OW54504   4.244   0.845  11.189 -0.1318  0.0556  0.0926
17688SOL    HW154505   4.224   0.934  11.159  0.1628  0.5442  1.2941
17688SOL    HW254506   4.317   0.856  11.249 -0.6613 -0.8917  0.9347
17689SOL     OW54507   4.058   0.948   9.618  0.3006 -0.1241 -0.4573
17689SOL    HW154508   3.974   0.951   9.572  0.5946 -0.0472 -1.0063
17689SOL    HW254509   4.091   1.038   9.613  0.0530  0.0316  0.4668
17690SOL     OW54510   5.696   1.289   9.728  0.3992  0.3362  0.4800
17690SOL    HW154511   5.759   1.317   9.795  0.3010  0.8031  0.3751
17690SOL    HW254512   5.627   1.245   9.778 -0.6457  2.3665  0.9069
17691SOL     OW54513   2.681   0.264   9.071  0.1066  0.0548  0.2418
17691SOL    HW154514   2.634   0.335   9.028  0.3556 -0.6932 -1.3508
17691SOL    HW254515   2.744   0.307   9.128  0.2832  1.1212 -0.7244
17692SOL     OW54516   5.247   0.471  12.197 -0.5277 -0.1122  0.0477
17692SOL    HW154517   5.336   0.437  12.204 -0.5079 -0.0311  0.2062
17692SOL    HW254518   5.211   0.459  12.285 -1.1170 -1.3576 -0.3495
17693SOL     OW54519   5.102   7.820   9.014  0.7084  0.0064  0.3176
17693SOL    HW154520   5.177   7.820   9.074  0.9060 -0.5744  0.0727
17693SOL    HW254521   5.026   7.804   9.070  0.9224 -0.8204  0.3784
17694SOL     OW54522   5.817   1.434   0.224 -0.2445  0.0374  0.0935
17694SOL    HW154523   5.768   1.493   0.281  0.0289  0.4155 -0.0571
17694SOL    HW254524   5.784   1.453   0.136 -0.7073 -0.5857  0.1310
17695SOL     OW54525   5.922   7.069  10.486  0.2561  0.0624  0.4689
17695SOL    HW154526   5.842   7.120  10.500 -0.3071 -0.6283 -0.1436
17695SOL    HW254527   5.946   7.038  10.573 -0.4134 -0.1150  0.6021
17696SOL     OW54528   3.481   7.474  11.962 -0.2094 -0.1561  0.6313
17696SOL    HW154529   3.444   7.395  12.001 -1.1550 -0.3227 -0.5529
17696SOL    HW254530   3.514   7.446  11.877  1.6402  0.2468  1.1818
17697SOL     OW54531   5.716   0.916   0.575 -0.5133 -0.1475  0.7617
17697SOL    HW154532   5.755   0.952   0.495 -2.8244 -0.1243 -0.4212
17697SOL    HW254533   5.760   0.962   0.646  0.9352  0.5100 -0.5114
17698SOL     OW54534   4.303   2.347  12.396 -0.6296  0.5084 -0.6628
17698SOL    HW154535   4.308   2.412  12.467 -1.9050  0.8733 -0.8834
17698SOL    HW254536   4.346   2.269  12.432 -0.1668  1.0710  0.0549
17699SOL     OW54537   3.820   7.018   0.174  0.1164  0.0651  0.2298
17699SOL    HW154538   3.878   7.093   0.187  2.5209 -1.3807 -1.3267
17699SOL    HW254539   3.744   7.054   0.128  2.1401  1.3325 -2.3719
17700SOL     OW54540   5.490   6.797   9.805 -0.1212  0.7281 -0.0883
17700SOL    HW154541   5.538   6.736   9.860 -1.0749  0.3656  0.3732
17700SOL    HW254542   5.483   6.753   9.721 -0.7098  0.2365  0.2104
17701SOL     OW54543   4.649   0.976   8.640  0.3246 -0.0702 -0.0498
17701SOL    HW154544   4.558   0.959   8.615  0.7042 -2.0622 -0.2426
17701SOL    HW254545   4.652   0.958   8.734  0.2531  1.3427  0.2456
17702SOL     OW54546   4.831   7.689   9.747  0.0660 -0.4763 -0.4136
17702SOL    HW154547   4.873   7.618   9.700 -2.0615 -2.5676  0.6232
17702SOL    HW254548   4.868   7.769   9.709  4.5579 -2.0369  0.1745
17703SOL     OW54549   3.492   2.016   9.441 -0.1326  0.2582  0.3118
17703SOL    HW154550   3.574   2.004   9.393 -0.9593  2.1738 -1.7319
17703SOL    HW254551   3.434   1.947   9.407 -0.1966  0.5708 -0.2177
17704SOL     OW54552   4.823   0.394  11.248  0.5546 -0.5191  0.4775
17704SOL    HW154553   4.862   0.349  11.173  0.9695 -0.6868  0.7887
17704SOL    HW254554   4.739   0.350  11.261 -0.5532  0.9382 -1.2451
17705SOL     OW54555   5.732   7.804   9.351  0.4695  0.2438 -0.1123
17705SOL    HW154556   5.780   7.831   9.430 -0.3580 -0.6371  0.7076
17705SOL    HW254557   5.799   7.796   9.284  1.2752  0.3742  0.6622
17706SOL     OW54558   2.738   1.029  10.420 -0.9795  0.4807 -0.3950
17706SOL    HW154559   2.812   1.090  10.421  0.1338 -0.8183 -0.0817
17706SOL    HW254560   2.717   1.015  10.513 -0.8773 -0.0066 -0.4405
17707SOL     OW54561   6.208   0.669  10.816 -0.1345  0.2496  0.3582
17707SOL    HW154562   6.204   0.638  10.906  1.2537  1.3473  0.8494
17707SOL    HW254563   6.147   0.743  10.813 -1.1341 -0.5689  0.0277
17708SOL     OW54564   5.393   0.765  10.355  0.1687  0.2239  0.5715
17708SOL    HW154565   5.369   0.780  10.263 -1.0767  1.7235  1.1018
17708SOL    HW254566   5.338   0.691  10.381  0.0591  0.1985  0.2804
17709SOL     OW54567   5.216   6.233  10.967  0.4778 -0.5265 -0.2342
17709SOL    HW154568   5.149   6.293  10.934  0.2755 -0.3461  0.4940
17709SOL    HW254569   5.299   6.273  10.940  0.3161 -0.3779 -0.5192
17710SOL     OW54570   6.507   7.498  11.351 -0.3577  0.1178  0.3281
17710SOL    HW154571   6.431   7.480  11.405 -1.1875 -1.1073 -1.1674
17710SOL    HW254572   6.490   7.451  11.269  0.8275  1.8968 -1.0132
17711SOL     OW54573   5.850   0.083   9.718 -0.1039 -0.5593 -0.1699
17711SOL    HW154574   5.779   0.147   9.718 -0.5401 -0.9893 -1.8193
17711SOL    HW254575   5.929   0.136   9.733 -0.3429  0.5992 -2.4223
17712SOL     OW54576   5.494   0.154  10.576 -0.0092  0.0743  0.1035
17712SOL    HW154577   5.520   0.122  10.489 -2.1473  0.1261 -0.6124
17712SOL    HW254578   5.531   0.090  10.637  0.3036 -0.7845 -0.9559
17713SOL     OW54579   4.787   0.241  10.406 -0.1165  0.1241  0.1997
17713SOL    HW154580   4.788   0.202  10.493  0.6691 -2.4866 -0.8709
17713SOL    HW254581   4.879   0.244  10.380 -0.4592 -1.1384 -1.3156
17714SOL     OW54582   4.090   0.303   9.946  0.2128  0.4714 -0.1540
17714SOL    HW154583   4.140   0.380   9.917 -0.1614  0.6372 -0.3719
17714SOL    HW254584   4.116   0.234   9.884 -0.4773  0.7884 -0.8187
17715SOL     OW54585   5.838   7.807  10.039  0.0891  0.3482 -0.4118
17715SOL    HW154586   5.783   7.733  10.065 -1.6308  1.9022  0.5729
17715SOL    HW254587   5.779   7.865   9.991  1.7648  0.4400 -2.4923
17716SOL     OW54588   3.935   7.371  12.164  0.4333  0.4032  0.1694
17716SOL    HW154589   3.904   7.306  12.227  0.0690  1.3381  0.9772
17716SOL    HW254590   3.931   7.454  12.211  0.9862  1.0074 -0.8118
17717SOL     OW54591   3.978   0.194   8.646 -0.1706  0.3144 -0.3473
17717SOL    HW154592   4.011   0.182   8.735  0.7921 -0.4124 -0.7838
17717SOL    HW254593   4.051   0.169   8.590 -0.2630  2.1834 -1.3706
17718SOL     OW54594   4.887   7.156  10.703  0.5072 -0.0009 -0.0231
17718SOL    HW154595   4.904   7.242  10.740  2.0950 -0.8091  1.2372
17718SOL    HW254596   4.865   7.101  10.779 -1.8423 -0.4567 -0.9292
17719SOL     OW54597   2.623   0.388  10.955  0.0677  0.1133  0.0726
17719SOL    HW154598   2.615   0.336  10.875 -1.3732  0.2578  0.1144
17719SOL    HW254599   2.536   0.422  10.971  0.4119  0.3695  1.5256
17720SOL     OW54600   5.330   7.546  11.422 -0.1430 -0.2818 -0.2244
17720SOL    HW154601   5.335   7.458  11.460 -2.4887 -0.8116 -0.9882
17720SOL    HW254602   5.419   7.581  11.431 -0.1300 -0.9166  4.2551
17721SOL     OW54603   4.374   0.162  10.104  0.0102 -0.4623 -0.2707
17721SOL    HW154604   4.403   0.131  10.019 -1.6499  2.1563 -1.9450
17721SOL    HW254605   4.450   0.207  10.141  0.1877  0.1602 -1.3559
17722SOL     OW54606   5.552   7.962  11.408 -0.4053 -0.2392  0.1378
17722SOL    HW154607   5.533   7.909  11.485 -0.7606 -5.9506 -3.3420
17722SOL    HW254608   5.467   7.994  11.379 -1.1045 -2.5828 -0.5975
17723SOL     OW54609   5.645   6.862  10.532 -0.0741  0.6791 -0.0265
17723SOL    HW154610   5.728   6.899  10.563 -0.8336  0.9783  1.7665
17723SOL    HW254611   5.647   6.771  10.561 -0.4815  0.7553  0.2410
17724SOL     OW54612   3.942   1.112  10.217 -0.4420 -0.0100  0.1218
17724SOL    HW154613   3.898   1.177  10.272 -0.5320 -0.6617  0.8514
17724SOL    HW254614   3.968   1.044  10.279  0.4066 -0.2622 -0.5055
17725SOL     OW54615   5.950   5.240   9.829  0.2603 -0.0603 -0.3929
17725SOL    HW154616   5.921   5.163   9.780 -0.2397  0.3119 -0.6952
17725SOL    HW254617   5.929   5.221   9.920 -2.3987  0.8082 -0.7403
17726SOL     OW54618   4.895   0.568   8.841 -0.1447  0.2875  0.3011
17726SOL    HW154619   4.894   0.637   8.908 -0.2302  1.9638 -1.3365
17726SOL    HW254620   4.905   0.616   8.759  1.5154 -1.8064 -0.7886
17727SOL     OW54621   4.061   7.849  10.950 -0.0583 -0.2270  0.3658
17727SOL    HW154622   4.137   7.847  10.892 -0.7364 -0.6390 -0.5469
17727SOL    HW254623   4.023   7.761  10.942 -1.2797  0.3132 -0.1245
17728SOL     OW54624   4.463   7.768  10.947  0.0304  0.5198  0.1122
17728SOL    HW154625   4.467   7.854  10.988  0.9510  0.9156 -0.7977
17728SOL    HW254626   4.532   7.717  10.990 -0.9513 -0.0049  1.1328
17729SOL     OW54627   5.138   7.275   8.732  0.1382 -0.1575 -0.1544
17729SOL    HW154628   5.106   7.207   8.790  0.6577 -1.0764 -0.9020
17729SOL    HW254629   5.152   7.230   8.648  1.8408  0.5281 -0.2863
17730SOL     OW54630   5.289   0.511   1.219 -0.3686 -0.7433 -0.1963
17730SOL    HW154631   5.282   0.416   1.205 -0.6941 -0.8189  0.4330
17730SOL    HW254632   5.210   0.547   1.178 -0.6163 -0.8216  0.2068
17731SOL     OW54633   3.964   6.885   0.368  0.6494 -0.0872 -0.3334
17731SOL    HW154634   3.928   6.800   0.393  1.5169 -0.7051 -1.0937
17731SOL    HW254635   3.896   6.924   0.314  0.6085 -0.7237 -0.7628
17732SOL     OW54636   5.534   7.695   8.158  0.8685  0.0830 -0.2773
17732SOL    HW154637   5.499   7.777   8.192  0.2578 -0.0909 -0.4755
17732SOL    HW254638   5.524   7.701   8.063  1.5000  0.0784 -0.3508
17733SOL     OW54639   6.085   0.760  12.391  0.2955 -0.1103  0.6324
17733SOL    HW154640   6.030   0.770  12.313  1.2649 -1.4598 -0.2764
17733SOL    HW254641   6.024   0.769  12.464 -0.6356  1.2566 -0.2516
17734SOL     OW54642   4.066   0.841  11.928  0.0700 -0.3357  0.1825
17734SOL    HW154643   4.119   0.917  11.905 -1.1013 -0.0913 -1.9088
17734SOL    HW254644   4.008   0.873  11.997  0.0262  0.4930 -0.2278
17735SOL     OW54645   5.042   6.969   0.300  0.1911  0.4025 -0.1460
17735SOL    HW154646   5.063   6.973   0.394 -1.3237 -1.3164  0.3306
17735SOL    HW254647   5.036   7.061   0.273 -0.2737  0.9496  1.6768
17736SOL     OW54648   3.085   0.285  12.428  0.7231  0.0744 -0.2502
17736SOL    HW154649   3.080   0.362  12.484  2.6384  0.0667  0.0065
17736SOL    HW254650   3.001   0.240  12.441  0.0829  1.4482  0.5613
17737SOL     OW54651   3.113   6.532  11.687 -0.5400 -0.1865  0.6880
17737SOL    HW154652   3.194   6.537  11.738 -0.1862  0.3652  0.0830
17737SOL    HW254653   3.142   6.527  11.596 -1.1499 -1.7440  0.5404
17738SOL     OW54654   5.639   6.112  11.418  0.0398 -0.4483  0.0938
17738SOL    HW154655   5.558   6.156  11.444 -0.0043  0.3321 -1.3107
17738SOL    HW254656   5.707   6.153  11.471 -0.2531  0.0547  0.0848
17739SOL     OW54657   6.242   7.719  11.077  0.3257  0.0086 -0.2742
17739SOL    HW154658   6.250   7.758  10.990  2.5336  1.8398  0.6467
17739SOL    HW254659   6.324   7.740  11.120  0.0954 -2.5775  1.6296
17740SOL     OW54660   4.519   7.561  12.486  0.1187  0.2517  0.4096
17740SOL    HW154661   4.433   7.551  12.527  0.3390  2.9370  1.7983
17740SOL    HW254662   4.502   7.563  12.392 -1.3366  0.5874  0.6610
17741SOL     OW54663   6.109   1.614  11.076  0.2329 -0.1959 -0.0221
17741SOL    HW154664   6.025   1.652  11.050 -0.3409 -0.6629  1.1067
17741SOL    HW254665   6.172   1.656  11.018 -0.8871 -0.5734 -1.5921
17742SOL     OW54666   3.409   7.832  11.098  0.0136 -0.1526 -0.1583
17742SOL    HW154667   3.344   7.822  11.168 -0.8587 -0.1050 -0.9484
17742SOL    HW254668   3.492   7.845  11.144 -0.5889  0.1398  0.8667
17743SOL     OW54669   2.882   0.527  11.118  0.1160  0.1158  0.0396
17743SOL    HW154670   2.889   0.549  11.211 -1.7572  2.3985 -0.2485
17743SOL    HW254671   2.957   0.570  11.077  0.7351 -0.5741  0.4474
17744SOL     OW54672   3.451   7.682   0.559  0.4924 -0.2439  0.5857
17744SOL    HW154673   3.429   7.755   0.501 -0.5739 -1.4295 -0.5673
17744SOL    HW254674   3.368   7.656   0.598  0.6879 -1.4436  0.2424
17745SOL     OW54675   5.970   7.540  12.132  0.1825  0.1312 -0.2541
17745SOL    HW154676   5.907   7.541  12.061 -1.3553  1.9312  1.0251
17745SOL    HW254677   6.042   7.595  12.102  0.8536 -1.3247 -1.4294
17746SOL     OW54678   6.487   0.676   0.364  0.8840 -0.5790  0.1772
17746SOL    HW154679   6.404   0.668   0.317  0.1030  0.8629  1.2239
17746SOL    HW254680   6.535   0.743   0.315  0.8813 -0.4731  0.3197
17747SOL     OW54681   5.611   0.110  12.049 -0.6996  0.0697  0.2876
17747SOL    HW154682   5.602   0.017  12.029 -0.2955  0.3973 -1.5962
17747SOL    HW254683   5.675   0.113  12.121  0.4303 -1.0461 -0.6380
17748SOL     OW54684   5.697   0.391   9.995  0.4091  0.2667 -0.4093
17748SOL    HW154685   5.766   0.417  10.056  0.6469 -1.6603  0.1970
17748SOL    HW254686   5.736   0.401   9.908  1.3769 -0.5105 -0.0836
17749SOL     OW54687   4.966   0.175  12.264 -0.1602 -0.1017 -0.2386
17749SOL    HW154688   4.919   0.252  12.297  0.1176 -0.6867  1.6811
17749SOL    HW254689   4.897   0.117  12.232 -0.4355  0.6015 -0.9448
17750SOL     OW54690   4.315   0.657   0.528 -0.5876 -0.0339 -0.4156
17750SOL    HW154691   4.323   0.736   0.583  0.1498  0.1575 -0.7852
17750SOL    HW254692   4.243   0.676   0.469 -1.3572 -0.2180  0.4368
17751SOL     OW54693   2.962   6.859  11.312 -0.1139 -0.1094  0.1969
17751SOL    HW154694   3.040   6.847  11.259 -1.5814 -0.0470 -2.1400
17751SOL    HW254695   2.937   6.770  11.339 -0.5174 -0.4146 -1.0935
17752SOL     OW54696   5.750   7.970   2.073 -0.1172 -0.5826 -0.5369
17752SOL    HW154697   5.800   8.047   2.099  1.0232 -1.0677 -1.1631
17752SOL    HW254698   5.738   7.920   2.154  0.8640 -0.6812 -0.4294
17753SOL     OW54699   2.915   7.780   0.313 -0.2314  0.5334 -0.4514
17753SOL    HW154700   2.932   7.873   0.327 -0.9870  0.7212 -0.7541
17753SOL    HW254701   2.877   7.750   0.395 -1.8338  0.9520 -1.0096
17754SOL     OW54702   5.450   0.698  11.454 -0.0621 -0.2415  0.1027
17754SOL    HW154703   5.472   0.783  11.492 -0.6940  0.3232 -0.7514
17754SOL    HW254704   5.361   0.681  11.483  0.6690 -1.5171  1.7971
17755SOL     OW54705   6.473   6.880  11.434 -0.0087 -0.2406 -0.1625
17755SOL    HW154706   6.423   6.957  11.406  0.3984 -0.1435 -0.6225
17755SOL    HW254707   6.517   6.909  11.515  0.8575  0.3119 -0.8113
17756SOL     OW54708   5.077   0.386   9.617  0.0800  0.2072  0.7738
17756SOL    HW154709   5.036   0.456   9.669 -1.0745 -0.1609  0.3832
17756SOL    HW254710   5.137   0.344   9.678  0.0447  0.9024  1.3061
17757SOL     OW54711   5.488   7.471   0.856 -0.4560 -0.2480  0.1591
17757SOL    HW154712   5.575   7.509   0.870 -0.9487  1.4490 -1.0860
17757SOL    HW254713   5.445   7.479   0.942  0.4451 -0.7122  0.6707
17758SOL     OW54714   4.882   7.925   0.376  0.1852 -0.3142 -0.2484
17758SOL    HW154715   4.865   7.922   0.471 -0.8208  1.9168 -0.3000
17758SOL    HW254716   4.942   7.852   0.361  1.6272  0.1926  2.3564
17759SOL     OW54717   4.359   1.558   0.292 -0.3627  0.6822 -0.1264
17759SOL    HW154718   4.343   1.648   0.320  0.0942  0.1979  1.8170
17759SOL    HW254719   4.372   1.509   0.373  0.2947 -0.9736 -1.1701
17760SOL     OW54720   6.517   7.378  10.339  0.8661 -0.2830  0.5828
17760SOL    HW154721   6.433   7.422  10.348  1.3355  0.9019 -0.5749
17760SOL    HW254722   6.506   7.296  10.387 -0.9815 -0.1996  0.3712
17761SOL     OW54723   5.121   0.247   0.273  0.3949  0.3270 -0.5255
17761SOL    HW154724   5.132   0.218   0.183  2.4158  1.0281 -0.5522
17761SOL    HW254725   5.188   0.199   0.322 -0.2040  0.4891  0.4753
17762SOL     OW54726   4.597   0.327  12.439 -0.2454 -0.3207  0.2296
17762SOL    HW154727   4.572   0.323  12.532 -1.3981  1.9998  0.0987
17762SOL    HW254728   4.606   0.235  12.413  0.7090 -1.0313  2.7655
17763SOL     OW54729   4.943   7.168   9.023  0.7770  0.1610 -0.5694
17763SOL    HW154730   4.963   7.099   9.086 -1.3039  0.4784  0.5358
17763SOL    HW254731   4.895   7.124   8.953  1.0128  0.2042 -0.7591
17764SOL     OW54732   4.700   6.342   0.773 -0.5031 -0.2648  0.0306
17764SOL    HW154733   4.696   6.429   0.732  0.5364 -0.4928 -0.5857
17764SOL    HW254734   4.632   6.344   0.840 -0.3700  1.0891  0.1451
17765SOL     OW54735   2.872   6.736  10.731  0.5615 -0.0664  0.2667
17765SOL    HW154736   2.856   6.708  10.821 -0.0442  0.5980  0.3731
17765SOL    HW254737   2.798   6.702  10.681  0.5707  0.1110  0.1313
17766SOL     OW54738   7.090   0.633   0.677  0.0174 -0.3807 -0.1619
17766SOL    HW154739   7.014   0.690   0.675  0.6753  0.5249  0.2185
17766SOL    HW254740   7.118   0.626   0.586  0.0127  0.0050 -0.1919
17767SOL     OW54741   6.874   7.709  11.170 -0.5490  0.3838 -0.5139
17767SOL    HW154742   6.818   7.714  11.247  0.4496 -0.4135  0.2827
17767SOL    HW254743   6.821   7.746  11.099 -0.9406  2.5605  0.8391
17768SOL     OW54744   3.091   7.240  11.048  0.1430  0.0987 -0.6639
17768SOL    HW154745   3.057   7.329  11.062  0.3017  0.1898 -0.8416
17768SOL    HW254746   3.045   7.186  11.112  1.9789  0.7577  1.3734
17769SOL     OW54747   2.940   7.237  12.026  0.2464  0.2683  0.3206
17769SOL    HW154748   2.987   7.192  12.096  0.6856  0.1797 -0.0256
17769SOL    HW254749   3.005   7.249  11.957 -0.3897 -0.4019 -0.4152
17770SOL     OW54750   4.518   6.574   1.617  0.0678  0.3823 -0.3220
17770SOL    HW154751   4.493   6.500   1.673 -1.7945  1.0871 -0.1505
17770SOL    HW254752   4.609   6.592   1.641  0.8245 -2.2574 -0.8662
17771SOL     OW54753   3.610   0.674  11.167 -0.5579  0.0325 -0.4188
17771SOL    HW154754   3.576   0.760  11.140 -0.2168  0.1196 -0.5685
17771SOL    HW254755   3.705   0.682  11.159 -0.5273 -0.3637 -0.4468
17772SOL     OW54756   6.183   7.823   1.034 -0.7413 -0.5026 -0.2481
17772SOL    HW154757   6.155   7.851   1.121 -0.5652 -2.0154  0.3335
17772SOL    HW254758   6.139   7.883   0.974 -0.5359  0.8292  0.8893
17773SOL     OW54759   4.797   1.672   0.845  0.5640 -0.9503  0.0654
17773SOL    HW154760   4.828   1.715   0.765 -2.2347 -1.2433 -1.3012
17773SOL    HW254761   4.782   1.743   0.907  1.8049 -0.6198  0.0092
17774SOL     OW54762   4.506   6.521   0.105  0.1137  0.6880 -0.4561
17774SOL    HW154763   4.597   6.548   0.111  0.2541  0.0470  0.5365
17774SOL    HW254764   4.456   6.591   0.146 -0.0581  1.9973 -2.7728
17775SOL     OW54765   4.992   0.305   0.546  0.2499  0.9361 -0.2079
17775SOL    HW154766   4.995   0.389   0.591 -0.0060  0.8352 -0.0021
17775SOL    HW254767   4.903   0.299   0.510  0.7892  1.5448 -1.7469
17776SOL     OW54768   5.162   6.264  12.330  0.5337 -0.3806 -0.9450
17776SOL    HW154769   5.076   6.248  12.368  1.3380 -0.1759  1.0643
17776SOL    HW254770   5.161   6.357  12.308  0.1767 -0.4239 -1.1220
17777SOL     OW54771   4.472   1.463  10.379 -0.1744 -0.3213  0.2227
17777SOL    HW154772   4.439   1.406  10.449  0.6841 -1.3124 -0.1568
17777SOL    HW254773   4.394   1.502  10.341 -0.7209 -0.5685  1.0582
17778SOL     OW54774   5.709   1.031   0.021  0.2122  0.5676  0.2030
17778SOL    HW154775   5.732   0.949   0.064 -2.6626  0.5176  1.9319
17778SOL    HW254776   5.724   1.098   0.087 -0.6838  0.9704  0.0177
17779SOL     OW54777   6.081   0.337  12.115  1.0303 -0.3692 -0.1503
17779SOL    HW154778   6.040   0.313  12.198  1.1272  0.6534  0.2109
17779SOL    HW254779   6.134   0.415  12.136  1.6720 -0.5548 -1.0020
17780SOL     OW54780   4.611   6.893   2.218 -0.6909  0.1678  0.5930
17780SOL    HW154781   4.657   6.819   2.257 -1.7866 -0.2487  1.1499
17780SOL    HW254782   4.590   6.950   2.292 -0.5909  0.6150  0.2795
17781SOL     OW54783   5.483   1.543   0.912  0.7105  0.8585  0.2339
17781SOL    HW154784   5.556   1.500   0.956  0.6742  0.5449 -0.0151
17781SOL    HW254785   5.511   1.554   0.822  0.5951  1.0726  0.2219
17782SOL     OW54786   0.705   3.738   0.128 -0.8898 -0.4889  0.1452
17782SOL    HW154787   0.696   3.817   0.074  1.1064  0.0362  0.4649
17782SOL    HW254788   0.728   3.772   0.215  0.2343 -1.4040  0.2236
17783SOL     OW54789   0.982   0.776   1.115 -0.4519  0.3298 -0.3690
17783SOL    HW154790   0.999   0.827   1.035 -0.3418 -1.8105 -1.7951
17783SOL    HW254791   1.065   0.733   1.134 -0.9896 -0.7144 -0.2868
17784SOL     OW54792   6.963   0.034   1.129  0.4005  0.0155  0.1928
17784SOL    HW154793   6.968   0.126   1.156 -0.3173 -0.4174  1.8882
17784SOL    HW254794   6.922   0.037   1.043  0.7908  1.3073  0.0297
17785SOL     OW54795   7.395   7.189  12.318 -0.1049 -0.7569  0.0200
17785SOL    HW154796   7.329   7.127  12.288 -0.2150 -0.2267 -0.8584
17785SOL    HW254797   7.346   7.251  12.373 -0.2943 -0.5172 -0.4149
17786SOL     OW54798   6.154   0.230   1.151  0.1516 -0.2520  0.7415
17786SOL    HW154799   6.145   0.280   1.070  1.3766 -1.5398 -0.2616
17786SOL    HW254800   6.218   0.279   1.202  3.1048 -1.7428 -1.1864
17787SOL     OW54801   5.067   0.586   1.562  0.3103  0.2357  0.1023
17787SOL    HW154802   5.024   0.526   1.622 -1.1799  2.1657  1.0815
17787SOL    HW254803   4.997   0.619   1.505  1.2178  0.4812 -0.9282
17788SOL     OW54804   5.525   2.193   0.495 -0.2259  0.4341  0.3389
17788SOL    HW154805   5.590   2.263   0.486  0.7211 -0.4869 -0.1932
17788SOL    HW254806   5.442   2.233   0.469  0.4031  1.1874 -0.5468
17789SOL     OW54807   6.893   1.714   1.255  0.2444 -0.5116  0.2248
17789SOL    HW154808   6.850   1.708   1.169  0.5700 -0.3417  0.0468
17789SOL    HW254809   6.980   1.675   1.241  1.0002  1.1608 -0.0049
17790SOL     OW54810   5.189   1.389   3.217 -0.7130 -0.1007 -0.0211
17790SOL    HW154811   5.122   1.322   3.206  0.8830 -1.7468 -0.3578
17790SOL    HW254812   5.244   1.381   3.139 -0.6651  1.8970 -0.2513
17791SOL     OW54813   6.424   0.704   3.090  0.8524 -0.0667 -0.3846
17791SOL    HW154814   6.387   0.642   3.152 -0.3055  0.2205 -0.7589
17791SOL    HW254815   6.351   0.727   3.032  1.1667  1.8644 -0.0870
17792SOL     OW54816   6.249   0.793   2.075 -0.6838  0.1077  0.0094
17792SOL    HW154817   6.174   0.754   2.119  0.3707  0.2471  2.0837
17792SOL    HW254818   6.238   0.887   2.088 -0.1318  0.1239  0.4161
17793SOL     OW54819   7.076   6.818   0.411 -0.1265  0.8800  0.5951
17793SOL    HW154820   7.154   6.853   0.367 -0.0901 -0.6063 -0.6020
17793SOL    HW254821   7.017   6.892   0.417  0.0957  1.3020 -1.5118
17794SOL     OW54822   5.604   3.057   0.459 -0.1765  0.4664  0.2346
17794SOL    HW154823   5.553   2.980   0.435 -1.7831  0.3992  3.4082
17794SOL    HW254824   5.569   3.127   0.405 -1.3185 -0.2704 -0.0073
17795SOL     OW54825   7.211   3.553   1.186 -0.7054  0.0269  0.4858
17795SOL    HW154826   7.174   3.553   1.098 -0.3810 -1.1433  0.3337
17795SOL    HW254827   7.295   3.507   1.177  1.0161  2.9060  0.7498
17796SOL     OW54828   6.569   1.018   1.241 -0.5552  0.5635  0.0529
17796SOL    HW154829   6.603   1.076   1.310 -0.4664  0.7751 -0.1664
17796SOL    HW254830   6.478   1.046   1.230 -0.3520  1.0532 -0.4522
17797SOL     OW54831   5.832   1.106   1.733  0.4160 -0.1585  0.0800
17797SOL    HW154832   5.886   1.182   1.756  2.7921 -1.0137 -2.2029
17797SOL    HW254833   5.857   1.039   1.797  0.5244  0.0754  0.2844
17798SOL     OW54834   7.643   3.334   2.063 -0.3487 -0.2942 -0.2179
17798SOL    HW154835   7.571   3.320   2.002 -0.7011 -0.1726  0.1687
17798SOL    HW254836   7.602   3.374   2.140  0.1953  0.1805 -0.1693
17799SOL     OW54837   7.516   0.621   0.896  0.1993  0.3455 -0.6631
17799SOL    HW154838   7.427   0.643   0.870 -0.4566 -0.7257  0.5818
17799SOL    HW254839   7.554   0.705   0.924 -0.5519  0.7483 -0.8330
17800SOL     OW54840   7.680   5.484   1.680  0.0699 -0.2269 -0.2481
17800SOL    HW154841   7.628   5.407   1.659  0.5867 -0.6128 -0.1252
17800SOL    HW254842   7.762   5.449   1.717  0.1340  0.3823  0.2101
17801SOL     OW54843   6.293   1.536   0.558  0.4706  0.6350  0.4684
17801SOL    HW154844   6.299   1.446   0.526 -2.6295 -0.2071  1.9049
17801SOL    HW254845   6.363   1.542   0.623  0.3266 -0.9754  0.8212
17802SOL     OW54846   6.857   2.141  11.875  0.5388  0.1257  0.2998
17802SOL    HW154847   6.837   2.127  11.967  2.4016  1.2604  0.9357
17802SOL    HW254848   6.784   2.194  11.842  1.3277  2.3884  1.9722
17803SOL     OW54849   6.689   7.975  11.279 -0.6009  0.6734 -0.4269
17803SOL    HW154850   6.736   8.057  11.266 -0.4023  0.5791 -0.3266
17803SOL    HW254851   6.709   7.951  11.370  0.7710 -0.3646 -0.9700
17804SOL     OW54852   0.217   1.967   1.690  0.0653 -0.1911  0.1316
17804SOL    HW154853   0.258   1.893   1.644 -1.1936 -0.8424  0.0337
17804SOL    HW254854   0.250   2.044   1.643  1.0505 -0.6975 -0.0426
17805SOL     OW54855   7.084   1.309  11.133  0.3799  0.1203 -0.0915
17805SOL    HW154856   7.136   1.317  11.053  1.3897 -1.1144  0.4029
17805SOL    HW254857   7.046   1.222  11.128  1.8170 -0.6531  1.5169
17806SOL     OW54858   6.126   1.884   0.525 -0.2497 -0.4236  0.2676
17806SOL    HW154859   6.206   1.933   0.504 -1.4979  1.1316 -1.1008
17806SOL    HW254860   6.083   1.936   0.593 -0.7160 -0.5868  0.1008
17807SOL     OW54861   5.531   0.128   1.906 -0.1632  0.0914  0.1466
17807SOL    HW154862   5.549   0.169   1.990  1.1588  1.0463 -0.5609
17807SOL    HW254863   5.454   0.173   1.872 -1.5467 -1.2267  1.4114
17808SOL     OW54864   7.365   1.010  11.596 -0.6588  0.3765  0.3283
17808SOL    HW154865   7.393   0.978  11.510 -0.5037 -3.6845  1.7115
17808SOL    HW254866   7.272   1.032  11.584 -1.1571 -1.9004 -0.5544
17809SOL     OW54867   7.689   1.200  11.940  0.0880  0.8240  0.1308
17809SOL    HW154868   7.752   1.136  11.974 -0.9160 -1.0871 -1.4104
17809SOL    HW254869   7.743   1.264  11.894  0.9930 -0.6142 -0.9005
17810SOL     OW54870   6.426   1.502   0.977  0.0755 -0.1307 -0.5676
17810SOL    HW154871   6.416   1.580   1.032  1.9803  0.2943 -0.7390
17810SOL    HW254872   6.518   1.504   0.951 -0.4182 -1.1356 -2.5587
17811SOL     OW54873   7.079   1.052   0.761  0.0173  0.2339  0.1763
17811SOL    HW154874   7.060   1.108   0.686  0.7056 -1.4823 -1.3397
17811SOL    HW254875   6.993   1.029   0.796 -0.3771 -0.1003 -0.9804
17812SOL     OW54876   6.390   7.503   3.872  0.0293  0.1941 -0.0146
17812SOL    HW154877   6.435   7.514   3.956  0.2022 -1.2427  0.1221
17812SOL    HW254878   6.454   7.532   3.807  0.1890  0.5774  0.3087
17813SOL     OW54879   7.864   7.307  10.943 -0.2031 -0.2196  0.7388
17813SOL    HW154880   7.840   7.233  10.998 -1.8271  0.1826  0.6365
17813SOL    HW254881   7.795   7.310  10.876  1.2346 -0.1661 -0.7941
17814SOL     OW54882   5.733   0.820   1.835  0.1299  0.6798 -0.0765
17814SOL    HW154883   5.653   0.872   1.848 -0.9042 -0.6888 -0.7433
17814SOL    HW254884   5.796   0.858   1.896 -1.4839  0.8224  1.5860
17815SOL     OW54885   4.371   0.335   1.454 -0.0773 -0.1114 -0.0800
17815SOL    HW154886   4.320   0.409   1.485 -0.1069  0.0264 -0.4492
17815SOL    HW254887   4.440   0.374   1.400 -0.1730 -0.3577 -0.3847
17816SOL     OW54888   0.203   0.501  11.982  0.3663  0.6906 -0.2743
17816SOL    HW154889   0.207   0.545  11.897 -2.1188  1.4275 -0.0792
17816SOL    HW254890   0.170   0.414  11.963 -1.1581  1.1855 -0.0050
17817SOL     OW54891   6.110   7.843   1.707  0.0355  0.0354  0.1241
17817SOL    HW154892   6.063   7.776   1.657 -0.3043  1.1575 -1.1265
17817SOL    HW254893   6.041   7.899   1.742  0.3487  0.4524  0.0857
17818SOL     OW54894   6.321   0.365   2.563  0.2894  0.1879  0.0009
17818SOL    HW154895   6.402   0.326   2.530  0.6828  2.0034 -1.2959
17818SOL    HW254896   6.341   0.457   2.575 -1.8245  0.8797 -1.2566
17819SOL     OW54897   6.937   7.483   0.229 -0.4713 -0.0865  0.1448
17819SOL    HW154898   7.000   7.417   0.200 -0.5169 -0.1062  0.0901
17819SOL    HW254899   6.991   7.554   0.264 -0.3299  0.6550 -1.4635
17820SOL     OW54900   5.917   0.026   1.796  0.2604 -0.0640  0.1787
17820SOL    HW154901   5.891   0.083   1.724  0.7136 -0.7991 -0.5716
17820SOL    HW254902   5.837   0.018   1.849  0.2313  1.3730  0.3869
17821SOL     OW54903   5.311   7.679   0.780 -0.3588 -0.3534 -0.0839
17821SOL    HW154904   5.397   7.710   0.807  0.0383 -0.1891 -1.4536
17821SOL    HW254905   5.324   7.586   0.761 -0.7064 -0.5429  0.5707
17822SOL     OW54906   1.181   7.960   1.836 -0.4336  1.0254  0.0983
17822SOL    HW154907   1.133   7.885   1.801  0.4654  0.5910 -0.2292
17822SOL    HW254908   1.203   8.012   1.759  1.3023  0.2146 -0.0042
17823SOL     OW54909   5.896   0.326   0.585 -0.0082 -0.4613 -0.0782
17823SOL    HW154910   5.965   0.266   0.613 -0.5163 -1.1058 -0.1842
17823SOL    HW254911   5.942   0.407   0.562  0.5327 -0.2165  1.6942
17824SOL     OW54912   4.885   2.036   2.926 -0.4330  0.2437 -0.0239
17824SOL    HW154913   4.793   2.042   2.952 -0.9880  0.0727 -1.8076
17824SOL    HW254914   4.926   2.115   2.963 -0.9310 -0.3696  1.9800
17825SOL     OW54915   5.507   0.899   0.286 -0.5798  0.1608  0.1124
17825SOL    HW154916   5.533   0.988   0.264 -0.2424 -0.2144 -1.0640
17825SOL    HW254917   5.430   0.909   0.341  0.3598  1.2227  1.3137
17826SOL     OW54918   4.154   0.075   1.968 -0.0404 -0.5152  0.8430
17826SOL    HW154919   4.214   0.002   1.985  1.9629  1.2623  1.8827
17826SOL    HW254920   4.087   0.068   2.036  0.6134 -0.9185  1.4546
17827SOL     OW54921   6.371   1.313  11.793 -0.0575 -0.0117  0.3958
17827SOL    HW154922   6.402   1.403  11.783 -0.3405 -0.0131 -0.5956
17827SOL    HW254923   6.346   1.306  11.885  1.0060  0.5819  0.7359
17828SOL     OW54924   5.256   0.527   2.131 -0.7932  0.1913 -0.4616
17828SOL    HW154925   5.251   0.509   2.225 -1.3002  0.5594 -0.4114
17828SOL    HW254926   5.209   0.454   2.090  1.8746 -1.5521 -0.6529
17829SOL     OW54927   7.537   0.939  11.384  0.5635  0.1989 -0.0608
17829SOL    HW154928   7.505   0.952  11.295 -1.1743 -0.1862  0.4664
17829SOL    HW254929   7.541   0.844  11.394 -0.3644  0.2163  0.6212
17830SOL     OW54930   6.607   3.198  12.164  0.0856  0.3581 -0.2450
17830SOL    HW154931   6.673   3.266  12.180 -0.8153  1.7855 -2.2419
17830SOL    HW254932   6.549   3.203  12.240  0.9593  0.6855  0.4220
17831SOL     OW54933   1.371   0.358   1.929 -0.0322  0.0769 -0.0846
17831SOL    HW154934   1.283   0.394   1.919 -0.4347 -0.9201 -0.2341
17831SOL    HW254935   1.427   0.435   1.942 -1.3104  0.6366  2.9523
17832SOL     OW54936   7.059   1.898   1.070 -0.1944  0.0856 -0.1760
17832SOL    HW154937   7.136   1.929   1.022  1.8298 -3.4037  0.4470
17832SOL    HW254938   7.026   1.826   1.017 -0.0753 -1.5374  1.8346
17833SOL     OW54939   4.837   7.230   0.779  0.0539  0.4569  0.5017
17833SOL    HW154940   4.756   7.186   0.805 -1.8511  2.3210 -1.7612
17833SOL    HW254941   4.833   7.315   0.823 -0.6802  1.6316 -1.6845
17834SOL     OW54942   7.788   0.391  12.052 -0.2961  0.3652 -0.1735
17834SOL    HW154943   7.865   0.346  12.016 -0.6503  0.3021 -0.8765
17834SOL    HW254944   7.747   0.326  12.109  1.9510  1.4145  2.9412
17835SOL     OW54945   4.855   1.361   3.093 -0.4136  0.4642  0.2141
17835SOL    HW154946   4.877   1.438   3.041  1.0758 -0.1471 -0.0976
17835SOL    HW254947   4.772   1.330   3.056  0.7609 -0.1613 -2.0564
17836SOL     OW54948   5.819   2.118   1.529  0.4729  0.2073 -0.0239
17836SOL    HW154949   5.873   2.087   1.457  0.7074  1.0597 -0.2304
17836SOL    HW254950   5.864   2.088   1.608  0.7388  0.1044 -0.2162
17837SOL     OW54951   6.605   1.486   0.510 -0.2879  0.5209 -0.6206
17837SOL    HW154952   6.571   1.478   0.421 -1.3653 -2.6016 -0.0527
17837SOL    HW254953   6.700   1.489   0.499 -0.2514 -2.2792 -1.9006
17838SOL     OW54954   7.721   0.619  11.516  0.0966  0.1921 -0.2404
17838SOL    HW154955   7.643   0.623  11.461  0.0959  1.1818 -0.1854
17838SOL    HW254956   7.689   0.641  11.604 -0.2469 -3.0995  0.6013
17839SOL     OW54957   6.070   2.656   1.435  0.1934  0.6976  0.2477
17839SOL    HW154958   6.094   2.603   1.511  2.0783  0.2702 -0.5762
17839SOL    HW254959   6.033   2.593   1.373  4.0347 -0.1970 -1.4362
17840SOL     OW54960   7.642   1.353   1.036 -0.2134  0.3844 -0.1027
17840SOL    HW154961   7.580   1.287   1.065  0.1915  0.3793  0.8011
17840SOL    HW254962   7.643   1.417   1.107 -0.0271  0.9677 -0.6198
17841SOL     OW54963   5.118   3.875   2.087 -0.1963  0.0477 -0.5220
17841SOL    HW154964   5.081   3.871   2.175  1.1826  1.4307  0.1752
17841SOL    HW254965   5.209   3.850   2.097  0.2610  1.2746 -1.3508
17842SOL     OW54966   6.435   1.341   1.248 -0.4301 -0.2398 -0.3970
17842SOL    HW154967   6.391   1.257   1.237  0.9058 -0.9008 -0.9039
17842SOL    HW254968   6.454   1.370   1.159 -0.5462  0.4228 -0.2098
17843SOL     OW54969   7.743   1.756   2.336 -0.1238 -0.3619  0.0924
17843SOL    HW154970   7.824   1.796   2.306 -0.8321  0.2579 -1.0583
17843SOL    HW254971   7.760   1.733   2.428  1.1439  0.2860  0.0367
17844SOL     OW54972   7.742   1.109   1.371 -0.3553 -0.2157  0.4639
17844SOL    HW154973   7.829   1.145   1.387  0.0723 -1.4721  1.1643
17844SOL    HW254974   7.682   1.165   1.421  0.2128 -0.1292  1.0571
17845SOL     OW54975   7.610   0.775  12.324 -0.1173  1.0675  0.0576
17845SOL    HW154976   7.561   0.770  12.242 -0.7187  0.2701  0.4483
17845SOL    HW254977   7.699   0.797  12.297  0.1404 -0.9868 -1.0053
17846SOL     OW54978   7.889   1.645   0.019  0.1735  0.4894  0.3589
17846SOL    HW154979   7.931   1.688  -0.056  0.0919  0.6025  0.3784
17846SOL    HW254980   7.903   1.706   0.091  0.7994  0.0983  0.5787
17847SOL     OW54981   6.290   1.114   1.232 -0.0635 -0.0986  0.1314
17847SOL    HW154982   6.199   1.142   1.220 -0.1490 -0.3097  0.2799
17847SOL    HW254983   6.297   1.093   1.325  0.3318  0.5850  0.2631
17848SOL     OW54984   5.562   7.127   2.888  0.0020  0.3189  0.2842
17848SOL    HW154985   5.642   7.177   2.872 -0.7416  1.5779  0.3990
17848SOL    HW254986   5.525   7.165   2.967 -0.0349 -1.1582  1.0180
17849SOL     OW54987   5.263   1.060   1.914  0.0056 -0.3943 -0.5495
17849SOL    HW154988   5.220   1.039   1.831 -0.8565  0.3155 -0.3045
17849SOL    HW254989   5.191   1.071   1.976  0.6407 -1.0132  0.3263
17850SOL     OW54990   5.730   0.568   1.514 -0.0949  0.1162  0.4010
17850SOL    HW154991   5.806   0.549   1.570 -0.0168  0.1028  0.2907
17850SOL    HW254992   5.706   0.658   1.537  0.6114  0.5046 -0.3167
17851SOL     OW54993   5.787   6.637   1.066 -0.5686  0.1711 -0.3065
17851SOL    HW154994   5.784   6.556   1.115 -0.6835  0.5435  0.3125
17851SOL    HW254995   5.872   6.634   1.020  0.2282  0.4799  1.0896
17852SOL     OW54996   7.754   0.153  12.196 -0.0361 -0.3811  0.0616
17852SOL    HW154997   7.806   0.085  12.153 -1.1326 -2.0470  1.2758
17852SOL    HW254998   7.765   0.137  12.289 -1.6956 -0.0013  0.3632
17853SOL     OW54999   6.501   0.313  11.756 -0.1223  0.0983  0.1776
17853SOL    HW155000   6.497   0.317  11.852 -3.4245  0.2516  0.1394
17853SOL    HW255001   6.536   0.225  11.738  0.1898 -0.0817  1.5066
17854SOL     OW55002   6.401   7.372   1.296 -0.2705 -0.1482 -0.1345
17854SOL    HW155003   6.427   7.281   1.280  0.1275 -0.5000  2.1306
17854SOL    HW255004   6.435   7.420   1.220 -1.6722 -2.0243 -2.0710
17855SOL     OW55005   5.563   7.412   3.718  0.5846  0.5986 -0.4035
17855SOL    HW155006   5.492   7.470   3.691  0.1981  0.4927  0.3540
17855SOL    HW255007   5.581   7.436   3.809 -0.1902 -1.0497  0.2177
17856SOL     OW55008   6.857   1.088  11.150  0.1998 -0.1956  0.2740
17856SOL    HW155009   6.796   1.160  11.160 -0.5370 -0.8827  0.9178
17856SOL    HW255010   6.802   1.012  11.129  1.0617 -0.3246 -1.8253
17857SOL     OW55011   6.119   0.906   1.051 -0.0004  0.1160 -0.2314
17857SOL    HW155012   6.134   0.916   1.145  0.8565 -0.3063 -0.3131
17857SOL    HW255013   6.030   0.938   1.037  1.0189  3.5417  0.1825
17858SOL     OW55014   6.763   1.814   0.179  0.3838  0.2445  0.1559
17858SOL    HW155015   6.795   1.732   0.141  0.2633 -0.1221  0.8322
17858SOL    HW255016   6.670   1.816   0.158  0.3518  0.1246  0.2878
17859SOL     OW55017   7.751   0.226   0.350 -0.0097 -0.3287 -0.4041
17859SOL    HW155018   7.775   0.306   0.395  0.0501 -0.2400 -0.5925
17859SOL    HW255019   7.755   0.248   0.257  1.5627 -0.9823 -0.5207
17860SOL     OW55020   5.711   0.937   2.417 -0.5645 -0.3751  0.2493
17860SOL    HW155021   5.683   0.927   2.508 -2.4944  1.9060  0.0053
17860SOL    HW255022   5.634   0.971   2.372  0.8628  0.2347 -1.8670
17861SOL     OW55023   5.061   0.542   0.331  0.1823  0.1212 -0.2245
17861SOL    HW155024   4.984   0.504   0.373  0.5220 -1.9754 -1.3530
17861SOL    HW255025   5.107   0.466   0.294  2.6640  1.3381  0.2227
17862SOL     OW55026   5.417   7.614   0.378  0.0100  0.1504 -0.3060
17862SOL    HW155027   5.371   7.529   0.375  0.4680 -0.1610  0.9120
17862SOL    HW255028   5.480   7.609   0.306  0.7337 -0.9866  0.3602
17863SOL     OW55029   7.750   7.206   0.183  0.4495  0.0646  0.1008
17863SOL    HW155030   7.682   7.226   0.118  1.2912 -0.2827 -0.9271
17863SOL    HW255031   7.757   7.111   0.181  1.2377  0.1217 -0.1043
17864SOL     OW55032   4.894   0.214   1.344 -0.2491  0.3118  0.0281
17864SOL    HW155033   4.971   0.195   1.396 -0.4377  1.7067  0.8574
17864SOL    HW255034   4.882   0.136   1.289  2.1403  0.3570 -0.6474
17865SOL     OW55035   6.992   1.600  11.885  0.5064 -0.3701 -0.3591
17865SOL    HW155036   6.939   1.675  11.858 -0.8489 -1.3735 -0.5742
17865SOL    HW255037   7.041   1.576  11.805 -0.7917 -1.1055 -0.9687
17866SOL     OW55038   7.317   1.134   0.834 -0.6429 -0.0383  0.1678
17866SOL    HW155039   7.368   1.057   0.809 -0.6911 -0.3290  0.9367
17866SOL    HW255040   7.226   1.109   0.819 -0.5965  0.2711 -0.6465
17867SOL     OW55041   4.224   0.382   0.647  0.5143  0.2287  0.2659
17867SOL    HW155042   4.255   0.472   0.640  0.9311  0.2080  1.4619
17867SOL    HW255043   4.272   0.346   0.722 -0.8416 -0.4734  0.8461
17868SOL     OW55044   0.255   6.799   1.587  0.4822 -0.7242 -0.2345
17868SOL    HW155045   0.348   6.808   1.610  0.3351 -0.8560  0.4437
17868SOL    HW255046   0.211   6.787   1.671 -0.3125  0.6853 -0.4142
17869SOL     OW55047   6.745   7.942  12.209  0.2710  0.5592 -0.0111
17869SOL    HW155048   6.820   7.934  12.150  0.7485 -0.7397  0.7159
17869SOL    HW255049   6.782   7.978  12.290 -0.1579  1.2059 -0.0932
17870SOL     OW55050   7.042   0.334   0.509  0.3503 -0.0871 -0.8322
17870SOL    HW155051   6.947   0.329   0.524  0.2556 -0.1076 -1.3922
17870SOL    HW255052   7.062   0.427   0.510  0.4000 -0.1013 -0.2848
17871SOL     OW55053   6.959   0.630   0.294  0.5162 -0.6557 -0.0556
17871SOL    HW155054   6.996   0.718   0.306 -0.4712 -0.1100 -0.9456
17871SOL    HW255055   7.000   0.597   0.214 -0.8287 -0.0789 -1.0051
17872SOL     OW55056   0.584   1.018   0.356  0.2243  0.1826  0.1703
17872SOL    HW155057   0.675   1.029   0.385 -0.2731 -1.5931  2.7307
17872SOL    HW255058   0.547   0.954   0.417 -2.4278 -0.0708 -1.5479
17873SOL     OW55059   7.471   1.843   0.956  0.0567  0.4938 -0.2245
17873SOL    HW155060   7.387   1.881   0.983 -0.0761 -0.7830  1.3112
17873SOL    HW255061   7.534   1.877   1.020  0.2965 -0.2956 -0.0391
17874SOL     OW55062   6.051   0.994   2.509 -0.6187  0.3326  0.1961
17874SOL    HW155063   6.044   1.088   2.494 -2.7411  0.4832  1.7049
17874SOL    HW255064   6.099   0.986   2.591 -2.3971  0.2680  1.2859
17875SOL     OW55065   0.215   0.256   0.990 -0.4572  0.6384  0.0538
17875SOL    HW155066   0.245   0.167   1.012 -2.5954  0.5815  3.3684
17875SOL    HW255067   0.120   0.247   0.980 -0.6900  2.5224  0.3161
17876SOL     OW55068   7.983   1.217   1.368 -0.0869 -0.5786  0.0919
17876SOL    HW155069   7.957   1.295   1.318 -0.3751 -0.8733 -0.2223
17876SOL    HW255070   8.076   1.232   1.389 -0.0515 -0.3017 -0.2496
17877SOL     OW55071   5.215   1.755   3.521 -0.0282  0.3507 -0.0303
17877SOL    HW155072   5.170   1.834   3.550  1.7492  1.4215 -0.0368
17877SOL    HW255073   5.206   1.694   3.594  0.9153  1.5623  1.1499
17878SOL     OW55074   5.022   1.523   0.612 -0.5454  0.3365 -0.4318
17878SOL    HW155075   4.957   1.468   0.655  0.1590  0.1121  0.3763
17878SOL    HW255076   5.032   1.598   0.671  1.5116 -0.6769  0.6121
17879SOL     OW55077   6.874   7.409  11.118  0.1979  0.1695  0.8191
17879SOL    HW155078   6.799   7.456  11.154  0.3114  0.3484  0.8228
17879SOL    HW255079   6.950   7.461  11.144  0.1909  1.1179 -0.9251
17880SOL     OW55080   7.420   0.164   2.225 -0.8246 -0.1427 -0.5347
17880SOL    HW155081   7.384   0.169   2.136 -0.7924  1.0658 -0.4963
17880SOL    HW255082   7.349   0.126   2.277 -1.8047  1.5427 -0.5965
17881SOL     OW55083   6.473   1.210   2.480 -0.4026  0.1241 -0.4491
17881SOL    HW155084   6.467   1.115   2.492 -1.4429  0.3441  1.0064
17881SOL    HW255085   6.567   1.228   2.482 -0.2568 -0.5450  2.4490
17882SOL     OW55086   5.550   7.785   0.820  0.2487 -0.1902 -0.2301
17882SOL    HW155087   5.560   7.758   0.729 -1.5642  0.6143 -0.7267
17882SOL    HW255088   5.635   7.822   0.843  1.2160 -1.7578 -1.0810
17883SOL     OW55089   0.159   0.275   1.875  0.1814 -0.2359 -0.0038
17883SOL    HW155090   0.099   0.287   1.948  0.4901  0.7939  0.0901
17883SOL    HW255091   0.109   0.301   1.798  0.5564  0.8290  0.0976
17884SOL     OW55092   5.610   3.125   1.688  0.2167 -0.0806 -0.0726
17884SOL    HW155093   5.654   3.115   1.604  0.1900  0.4415 -0.1503
17884SOL    HW255094   5.668   3.083   1.751  0.2091 -0.5230 -0.3579
17885SOL     OW55095   6.756   1.090   1.436  0.2436  0.1437 -0.1808
17885SOL    HW155096   6.788   1.004   1.411  0.9068  0.3889 -0.2154
17885SOL    HW255097   6.749   1.087   1.531  0.4693  0.1159 -0.1644
17886SOL     OW55098   0.978   6.175   0.259 -0.6576 -0.8533  0.0426
17886SOL    HW155099   0.959   6.083   0.279  1.7887 -1.0303  1.9076
17886SOL    HW255100   0.967   6.180   0.164  0.6686 -3.5179 -0.3672
17887SOL     OW55101   3.848   0.606   2.644  0.7815 -0.2593  0.6559
17887SOL    HW155102   3.920   0.567   2.595  0.1027 -0.6056 -0.0914
17887SOL    HW255103   3.882   0.616   2.733  1.4066 -1.3975  0.5648
17888SOL     OW55104   7.341   0.943   1.362  0.5280 -0.5296  0.0587
17888SOL    HW155105   7.379   0.856   1.350 -0.7839 -0.9136 -1.7330
17888SOL    HW255106   7.255   0.938   1.321 -0.8709  0.7651  2.5638
17889SOL     OW55107   6.585   1.190   3.052 -0.0880  0.0659  0.1734
17889SOL    HW155108   6.601   1.096   3.046  0.0788  0.1408 -0.7277
17889SOL    HW255109   6.672   1.229   3.060 -0.2435  0.0369  2.7653
17890SOL     OW55110   6.973   0.738   1.753  0.6201  0.3415 -0.4693
17890SOL    HW155111   6.974   0.764   1.845 -0.5014  0.6688 -0.5395
17890SOL    HW255112   6.953   0.819   1.705 -0.3462 -0.1307 -0.8794
17891SOL     OW55113   6.250   7.697   2.729  0.4034 -0.4714 -0.8572
17891SOL    HW155114   6.185   7.665   2.667 -0.1610 -0.6562 -0.1750
17891SOL    HW255115   6.325   7.722   2.674 -0.0224 -0.7851 -1.5941
17892SOL     OW55116   7.281   0.018   1.162 -0.2243  0.0974 -0.2710
17892SOL    HW155117   7.341   0.014   1.087  1.5774  0.1595  1.1227
17892SOL    HW255118   7.201  -0.025   1.130  0.8895 -0.9133 -1.8751
17893SOL     OW55119   6.998   7.573   1.836 -0.2389  0.0128  0.3185
17893SOL    HW155120   6.929   7.583   1.902 -2.0346 -1.4444 -1.2160
17893SOL    HW255121   6.992   7.652   1.782 -0.6250 -0.0454  0.2768
17894SOL     OW55122   7.760   1.148  12.359  0.3834  0.9395  0.5981
17894SOL    HW155123   7.733   1.106  12.440 -0.5234  1.3408  0.5126
17894SOL    HW255124   7.793   1.076  12.304  0.9336  0.6622  1.2836
17895SOL     OW55125   5.524   1.346   1.923 -0.1071 -0.0315  0.7467
17895SOL    HW155126   5.448   1.331   1.980 -0.7723 -0.6344 -0.2727
17895SOL    HW255127   5.486   1.363   1.837  0.9405 -2.2874 -0.2188
17896SOL     OW55128   5.536   1.033   1.876  0.4596  0.6120  0.8296
17896SOL    HW155129   5.577   1.116   1.851  0.0504 -0.1399 -2.7651
17896SOL    HW255130   5.443   1.054   1.884  0.5870  0.8470  1.9875
17897SOL     OW55131   6.824   0.068   2.024  0.2471  0.0754  0.3628
17897SOL    HW155132   6.751   0.015   1.991 -1.0097  1.8160  0.2064
17897SOL    HW255133   6.839   0.035   2.113 -1.7742  0.6225  0.9696
17898SOL     OW55134   0.359   1.094   2.398  0.2054 -0.2227  0.8086
17898SOL    HW155135   0.410   1.171   2.423  0.0880 -0.8702  3.2863
17898SOL    HW255136   0.268   1.119   2.411  0.0614 -0.2445 -0.0733
17899SOL     OW55137   5.875   1.046   1.077 -0.0566 -1.1409  0.2384
17899SOL    HW155138   5.817   1.019   1.148 -0.7854 -0.6430 -0.1539
17899SOL    HW255139   5.926   1.118   1.115 -0.4515 -0.8682  0.2631
17900SOL     OW55140   7.650   1.714  11.732 -0.4894  0.1895 -0.3112
17900SOL    HW155141   7.633   1.648  11.799  0.2834 -0.5101 -0.7748
17900SOL    HW255142   7.595   1.688  11.658 -0.0320 -0.0669 -0.5671
17901SOL     OW55143   6.804   7.916   0.425 -0.0730 -0.2458 -0.4474
17901SOL    HW155144   6.765   7.973   0.492  0.1255 -0.6168 -0.0119
17901SOL    HW255145   6.731   7.894   0.368 -0.3633 -0.3894 -0.0231
17902SOL     OW55146   6.440   2.663   1.216  0.1107  0.5221  0.1399
17902SOL    HW155147   6.420   2.571   1.202  2.1373  0.2695 -1.5763
17902SOL    HW255148   6.437   2.703   1.129  0.2285  1.8846  0.7255
17903SOL     OW55149   0.944   1.199   1.192 -0.5045  0.1742  0.4830
17903SOL    HW155150   1.016   1.146   1.226 -0.7209 -0.1117  0.4970
17903SOL    HW255151   0.887   1.137   1.147 -0.1331  0.5700 -0.5561
17904SOL     OW55152   5.609   3.209   3.258 -0.7894  0.4998  0.0043
17904SOL    HW155153   5.653   3.130   3.228 -0.3860  1.2790 -1.5347
17904SOL    HW255154   5.546   3.230   3.189 -1.7674  0.8369  0.9744
17905SOL     OW55155   7.278   7.567  12.198  0.0304 -0.0944 -0.8175
17905SOL    HW155156   7.236   7.652  12.188  1.8134  0.7713 -1.5128
17905SOL    HW255157   7.290   7.535  12.109  0.1157 -0.6871 -0.6013
17906SOL     OW55158   6.290   6.968  11.698 -0.3215 -0.0693  0.2656
17906SOL    HW155159   6.370   6.994  11.744 -0.7786 -1.6026  2.0300
17906SOL    HW255160   6.250   6.902  11.754 -1.2984 -1.5528 -2.0180
17907SOL     OW55161   6.410   0.494   1.560 -0.2726 -0.9193  0.1801
17907SOL    HW155162   6.450   0.541   1.633 -1.0156  0.5108 -0.2948
17907SOL    HW255163   6.391   0.407   1.595 -0.6317 -0.2626  1.6901
17908SOL     OW55164   5.605   0.334   1.521 -0.0209 -0.3100  0.2953
17908SOL    HW155165   5.636   0.424   1.524 -0.9064  0.0055  0.1855
17908SOL    HW255166   5.608   0.310   1.428  0.2749 -0.4249  0.3313
17909SOL     OW55167   5.501   0.625   2.379  0.2341  0.0655 -0.0138
17909SOL    HW155168   5.541   0.633   2.466 -1.5452  2.7225  0.6702
17909SOL    HW255169   5.435   0.556   2.390  0.2489  0.1522  0.6797
17910SOL     OW55170   6.068   7.147   2.065  0.8450  0.3491 -0.0659
17910SOL    HW155171   6.146   7.194   2.093  1.3037  0.6457 -1.7401
17910SOL    HW255172   6.101   7.076   2.009 -0.1181  1.2123 -1.7988
17911SOL     OW55173   0.796   0.750   0.721 -0.4198 -0.1138  0.1997
17911SOL    HW155174   0.781   0.671   0.669  0.7807  1.7210 -3.2920
17911SOL    HW255175   0.891   0.758   0.726 -0.5252  0.9511  0.7695
17912SOL     OW55176   5.775   1.417   1.799  0.3400 -0.0384  0.4372
17912SOL    HW155177   5.805   1.447   1.713  0.0736  1.0123  0.7041
17912SOL    HW255178   5.701   1.360   1.779  0.4967 -0.0785 -0.0474
17913SOL     OW55179   7.708   1.583   1.531  0.6995  0.0529 -0.2051
17913SOL    HW155180   7.770   1.621   1.594  2.2558 -1.3327 -0.8431
17913SOL    HW255181   7.636   1.646   1.528  2.0854  1.7597  0.5389
17914SOL     OW55182   7.699   0.516   1.152  0.1913 -0.3671 -0.3222
17914SOL    HW155183   7.770   0.477   1.100 -0.1484 -0.8615 -0.4195
17914SOL    HW255184   7.619   0.495   1.103  0.0420  1.0096 -0.7303
17915SOL     OW55185   5.175   0.194   2.378 -0.4398  0.8341 -0.5972
17915SOL    HW155186   5.092   0.239   2.394 -0.3233  0.9583 -0.3348
17915SOL    HW255187   5.159   0.142   2.300 -0.6326  1.2025 -0.8092
17916SOL     OW55188   5.731   7.860   2.307  0.3942  0.0693 -0.6210
17916SOL    HW155189   5.681   7.779   2.310 -1.4861  1.1808  1.9838
17916SOL    HW255190   5.802   7.846   2.371  0.4026  0.2527 -0.5886
17917SOL     OW55191   0.330   0.708   0.124 -0.6878 -0.3320 -0.7354
17917SOL    HW155192   0.292   0.620   0.131 -0.8561 -0.2321 -0.3418
17917SOL    HW255193   0.351   0.732   0.214 -0.6368  0.0282 -0.8415
17918SOL     OW55194   5.812   0.393   0.301  0.3068  0.4551  0.3092
17918SOL    HW155195   5.754   0.466   0.322  1.5169  1.3742  0.5212
17918SOL    HW255196   5.828   0.350   0.386  0.0509  0.2843  0.2717
17919SOL     OW55197   7.960   3.407   0.197  0.1400  0.2767 -0.1338
17919SOL    HW155198   7.931   3.377   0.283 -0.1544  1.7722  0.3254
17919SOL    HW255199   7.946   3.332   0.139 -1.5246 -0.1344  0.7360
17920SOL     OW55200   6.176   0.948   2.756  0.0013 -0.2591 -0.3007
17920SOL    HW155201   6.223   0.867   2.774 -0.7428 -0.5120  0.5844
17920SOL    HW255202   6.222   1.014   2.807 -0.2821 -0.4157  0.1713
17921SOL     OW55203   7.709   1.162   1.888 -0.3990  0.2647  0.4331
17921SOL    HW155204   7.681   1.254   1.891 -1.2758  0.0705 -0.9238
17921SOL    HW255205   7.780   1.161   1.824 -0.5982 -0.0516  0.2163
17922SOL     OW55206   6.471   7.889   2.634  0.3333 -0.9609 -0.3237
17922SOL    HW155207   6.534   7.886   2.706  1.5885 -0.6524 -1.3747
17922SOL    HW255208   6.399   7.943   2.668  1.2429 -0.1901  0.4466
17923SOL     OW55209   5.553   7.195  12.431 -0.9235  0.6847 -0.1257
17923SOL    HW155210   5.508   7.272  12.396 -0.9731  0.5421 -0.3774
17923SOL    HW255211   5.508   7.177  12.514 -0.0458  1.7298  0.6092
17924SOL     OW55212   6.942   1.241   2.155  0.0301  0.2580  0.6129
17924SOL    HW155213   6.962   1.313   2.095 -0.3896  0.1582  0.3495
17924SOL    HW255214   6.879   1.278   2.217  1.5800  0.8072  1.9268
17925SOL     OW55215   7.843   3.995   0.708 -0.2215  0.0606 -0.0485
17925SOL    HW155216   7.760   3.986   0.756 -1.1730  1.7047 -1.2835
17925SOL    HW255217   7.827   3.949   0.625 -0.6746  2.0309 -1.1241
17926SOL     OW55218   7.166   7.612   1.560 -0.1824 -0.2086  0.2714
17926SOL    HW155219   7.214   7.585   1.638 -1.4188 -0.5122  0.9711
17926SOL    HW255220   7.219   7.681   1.522  0.2000  0.3263  1.6906
17927SOL     OW55221   7.105   3.180   0.835  0.0267 -0.6244 -0.1572
17927SOL    HW155222   7.137   3.259   0.791  1.4975 -1.0531  0.1080
17927SOL    HW255223   7.149   3.180   0.920 -0.1788 -1.5740 -0.0378
17928SOL     OW55224   5.066   0.621   1.043 -0.2851 -0.2821  0.5922
17928SOL    HW155225   5.024   0.539   1.017 -1.4172  0.5499 -0.3082
17928SOL    HW255226   5.101   0.658   0.962 -0.8302  0.6789  0.7664
17929SOL     OW55227   5.631   0.956   3.020 -0.1786  0.0601 -0.0815
17929SOL    HW155228   5.725   0.975   3.017  0.0218 -0.2253  2.5333
17929SOL    HW255229   5.589   1.042   3.030 -0.3013  0.2549 -1.9045
17930SOL     OW55230   4.701   0.250   0.513 -0.7191  0.8263  0.6380
17930SOL    HW155231   4.662   0.329   0.549 -1.0845  0.9754 -0.0672
17930SOL    HW255232   4.628   0.189   0.503 -0.4045  0.3221  1.3725
17931SOL     OW55233   6.585   7.386   1.778 -0.2706 -0.3114 -0.2112
17931SOL    HW155234   6.653   7.391   1.710  0.9001 -1.4941  0.7984
17931SOL    HW255235   6.558   7.294   1.778  0.8220 -0.6936  1.8597
17932SOL     OW55236   7.248   1.220   1.338  0.4746  0.0814 -0.0754
17932SOL    HW155237   7.187   1.224   1.412  1.8296 -1.7330  1.2194
17932SOL    HW255238   7.290   1.134   1.346  1.3744  0.2328 -2.4111
17933SOL     OW55239   5.730   2.409   4.024  0.4036 -0.2958 -0.1951
17933SOL    HW155240   5.702   2.342   4.086 -0.1480  1.2822  1.3361
17933SOL    HW255241   5.824   2.417   4.038  0.1378  0.7672  1.2565
17934SOL     OW55242   7.252   0.759   0.840  0.3402 -0.4526 -0.1415
17934SOL    HW155243   7.292   0.824   0.782  0.8125 -0.7556 -0.1649
17934SOL    HW255244   7.195   0.707   0.783 -1.3137  0.9362  0.1610
17935SOL     OW55245   5.305   1.461   0.542  0.3436 -0.6867 -0.3224
17935SOL    HW155246   5.298   1.455   0.447  0.5390  1.0257 -0.4742
17935SOL    HW255247   5.216   1.448   0.574 -0.1190  0.8411 -0.8997
17936SOL     OW55248   7.307   0.658  11.604  0.5773  0.3223  0.0390
17936SOL    HW155249   7.397   0.691  11.613  1.0141 -1.0096  0.9018
17936SOL    HW255250   7.318   0.563  11.598 -0.8712 -0.0438  2.2068
17937SOL     OW55251   0.330   2.221   1.955 -0.4023  0.0347  0.2953
17937SOL    HW155252   0.381   2.142   1.971 -0.5842 -0.0532  0.4413
17937SOL    HW255253   0.244   2.203   1.993 -0.1293  0.6965  1.2805
17938SOL     OW55254   6.682   7.908   1.153  0.5106 -0.1132  0.3082
17938SOL    HW155255   6.606   7.951   1.113  0.0449 -1.9736 -0.9509
17938SOL    HW255256   6.649   7.824   1.183  1.6641 -0.1484  1.5466
17939SOL     OW55257   6.025   5.764   3.346 -0.3589 -0.5069 -0.1725
17939SOL    HW155258   5.978   5.685   3.318 -0.9238 -0.4750  0.6336
17939SOL    HW255259   6.053   5.744   3.435  0.0152 -0.0186 -0.1792
17940SOL     OW55260   6.599   0.416  12.482 -0.1655  0.1068  0.5696
17940SOL    HW155261   6.617   0.386  12.393 -0.2528 -1.2216  0.9753
17940SOL    HW255262   6.517   0.373  12.506 -0.1864  0.5171  1.2645
17941SOL     OW55263   6.933   1.648   3.480 -0.5231  0.2225  0.1834
17941SOL    HW155264   6.872   1.712   3.443 -0.9895 -0.4520 -0.2484
17941SOL    HW255265   7.015   1.696   3.491 -0.4743  0.5643 -1.3770
17942SOL     OW55266   7.413   2.142  11.061 -0.3115 -0.4209  0.3260
17942SOL    HW155267   7.328   2.163  11.022 -0.8708 -1.3841  0.9695
17942SOL    HW255268   7.407   2.049  11.082  1.1009 -0.6186 -0.0605
17943SOL     OW55269   7.575   3.384   0.661 -0.5119  0.3244  0.3692
17943SOL    HW155270   7.669   3.395   0.676 -0.4628  0.4668 -0.0494
17943SOL    HW255271   7.565   3.291   0.642 -0.5627  0.1568  1.1834
17944SOL     OW55272   6.005   2.071   2.605  0.2090  0.8450 -0.0556
17944SOL    HW155273   6.074   2.129   2.574  0.2021  0.4799 -0.7841
17944SOL    HW255274   6.006   1.997   2.544  0.4867 -0.1357  1.0864
17945SOL     OW55275   7.133   1.508   0.534  0.1617  0.0128 -0.3678
17945SOL    HW155276   7.136   1.575   0.466  0.4591  0.5894  0.1963
17945SOL    HW255277   7.224   1.483   0.547 -0.0755 -1.8554 -1.8480
17946SOL     OW55278   5.338   6.633  12.485 -0.5557 -0.0210  0.5308
17946SOL    HW155279   5.393   6.685  12.427 -1.4099 -0.8522 -1.0809
17946SOL    HW255280   5.293   6.698  12.540  0.0527  0.8003  0.0839
17947SOL     OW55281   7.249   7.432   0.411  0.3774  0.1774  0.4849
17947SOL    HW155282   7.205   7.383   0.341 -2.1606  1.8048  0.7918
17947SOL    HW255283   7.268   7.366   0.478 -1.5244 -0.6960  0.2325
17948SOL     OW55284   6.115   0.992   1.692  0.0121 -0.6836 -0.1762
17948SOL    HW155285   6.052   1.063   1.699  0.7530 -0.1512  1.6673
17948SOL    HW255286   6.141   0.991   1.600 -1.7376 -0.1219 -0.7081
17949SOL     OW55287   6.781   1.058   1.723  0.0201  0.0135 -0.2224
17949SOL    HW155288   6.873   1.048   1.747  0.4026 -2.4531 -2.2098
17949SOL    HW255289   6.735   0.995   1.779 -0.1928  0.0121 -0.3971
17950SOL     OW55290   6.444   2.287  12.045 -0.6217 -0.3036  0.1707
17950SOL    HW155291   6.406   2.370  12.074  0.0465  0.4803 -1.1174
17950SOL    HW255292   6.383   2.255  11.977 -0.1273 -0.1198 -0.3697
17951SOL     OW55293   5.129   0.861   3.153  0.4303 -0.2490 -0.2658
17951SOL    HW155294   5.168   0.881   3.237  0.6843 -1.7900  0.0127
17951SOL    HW255295   5.067   0.790   3.171  0.2711 -0.4055 -1.3161
17952SOL     OW55296   7.594   0.320   2.037 -0.3198 -0.0840 -0.2539
17952SOL    HW155297   7.647   0.339   2.114  0.9805 -0.0523 -1.1183
17952SOL    HW255298   7.595   0.402   1.987  0.5707 -0.6906 -1.2698
17953SOL     OW55299   5.246   7.862   2.479  0.3378  0.0206  0.2690
17953SOL    HW155300   5.263   7.937   2.536 -0.3075  0.6429 -0.3436
17953SOL    HW255301   5.294   7.790   2.520  1.8661  0.9998  0.2752
17954SOL     OW55302   5.861   7.311   1.958 -0.3059 -0.1188  0.5643
17954SOL    HW155303   5.923   7.268   2.016 -0.5140 -1.1782  0.0230
17954SOL    HW255304   5.884   7.404   1.962  0.3641 -0.3192  1.4913
17955SOL     OW55305   5.508   2.473   0.629 -0.1146  0.4562  0.1250
17955SOL    HW155306   5.434   2.513   0.584  0.7379  0.5041 -1.2708
17955SOL    HW255307   5.469   2.400   0.678 -1.2012  1.0297  0.1486
17956SOL     OW55308   7.637   1.966   0.785 -0.0855 -0.2468 -0.5070
17956SOL    HW155309   7.594   2.023   0.722  0.1134 -0.8225 -1.1690
17956SOL    HW255310   7.566   1.920   0.829 -0.1735 -0.8891 -1.3054
17957SOL     OW55311   7.433   2.230  11.804 -0.2887  0.0469  0.3528
17957SOL    HW155312   7.507   2.206  11.859  1.2297  2.5073 -0.4656
17957SOL    HW255313   7.434   2.166  11.732  0.5711 -0.3702  0.7285
17958SOL     OW55314   4.910   0.196   2.867 -0.1116 -0.1165  0.6461
17958SOL    HW155315   4.958   0.279   2.863 -1.2340  0.5867  1.0619
17958SOL    HW255316   4.973   0.130   2.841  0.0504  1.1761 -2.7861
17959SOL     OW55317   7.689   1.418   0.222 -0.2982 -0.0034 -0.0064
17959SOL    HW155318   7.762   1.366   0.187  0.7561  0.8902  0.7901
17959SOL    HW255319   7.726   1.463   0.298 -1.5373  0.9333  0.0718
17960SOL     OW55320   4.431   1.960   2.588 -0.7758 -0.1589 -0.0005
17960SOL    HW155321   4.377   1.944   2.666  0.0438  0.2167  0.6621
17960SOL    HW255322   4.428   2.055   2.576  1.8339  0.2470  1.6645
17961SOL     OW55323   1.289   0.428  11.313 -0.1794  0.0334  0.6924
17961SOL    HW155324   1.278   0.431  11.408 -1.0718  0.7397  0.5738
17961SOL    HW255325   1.299   0.520  11.287 -2.4484  0.1138 -0.1530
17962SOL     OW55326   7.512   7.545  12.346  0.2494 -0.2273 -0.5818
17962SOL    HW155327   7.569   7.528  12.271  1.5318 -0.9580  0.5054
17962SOL    HW255328   7.436   7.590  12.309  1.3917  0.5065 -2.1269
17963SOL     OW55329   5.135   2.062  12.421 -0.1940  0.5236 -0.1440
17963SOL    HW155330   5.158   2.064  12.514  1.5137  1.4546 -0.5528
17963SOL    HW255331   5.091   1.978  12.410 -0.4039  0.3699  1.4799
17964SOL     OW55332   7.454   2.136   0.280 -0.3825  0.1726 -0.0851
17964SOL    HW155333   7.403   2.178   0.211 -0.1882  1.7739  0.7013
17964SOL    HW255334   7.539   2.180   0.278 -0.5003  0.5130  1.4084
17965SOL     OW55335   7.724   1.026   0.688 -0.2693  0.0320 -0.0625
17965SOL    HW155336   7.709   1.008   0.595  0.2568 -0.1043 -0.1268
17965SOL    HW255337   7.810   0.987   0.706  0.6052  1.8660 -0.0410
17966SOL     OW55338   6.665   1.055  12.154 -0.0163 -1.2097 -0.0943
17966SOL    HW155339   6.621   0.979  12.116 -0.8062 -1.2929  0.9336
17966SOL    HW255340   6.758   1.035  12.147 -0.1959 -3.0411  1.5578
17967SOL     OW55341   7.079   1.523   1.573 -0.1940 -0.4242  0.3914
17967SOL    HW155342   7.062   1.429   1.569 -0.1878 -0.3987 -0.3778
17967SOL    HW255343   7.172   1.532   1.554 -0.5750 -0.1392 -1.5105
17968SOL     OW55344   7.960   0.003   1.144 -0.0835  0.3158  0.5841
17968SOL    HW155345   7.996   0.040   1.224  1.1095  0.7026 -0.0890
17968SOL    HW255346   7.883  -0.045   1.171  0.1269  0.7006  1.9143
17969SOL     OW55347   6.977   1.745  11.606  0.1608 -0.3864 -0.6808
17969SOL    HW155348   6.936   1.753  11.519 -0.3267 -0.4956 -0.4671
17969SOL    HW255349   6.954   1.827  11.650  0.6237 -0.2209 -0.7378
17970SOL     OW55350   7.127   3.259   0.529 -0.5517  0.3026 -0.3070
17970SOL    HW155351   7.140   3.205   0.607  0.0015  0.3872 -0.3334
17970SOL    HW255352   7.032   3.268   0.521 -0.7761 -2.1257 -1.3069
17971SOL     OW55353   4.998   1.643   3.155 -0.0186  0.1747  0.0729
17971SOL    HW155354   5.072   1.588   3.182  1.3413  1.3505 -1.0267
17971SOL    HW255355   4.998   1.636   3.059 -1.0853  0.5214  0.0415
17972SOL     OW55356   6.390   1.019   1.754  0.5974 -0.1258  0.3570
17972SOL    HW155357   6.436   0.950   1.801  2.2866 -0.9263 -2.2691
17972SOL    HW255358   6.299   0.990   1.752  0.9578 -1.3520  0.8839
17973SOL     OW55359   5.005   1.461   1.947 -0.0812  0.3566 -0.1050
17973SOL    HW155360   5.039   1.393   1.888  1.8058  0.8161  0.4009
17973SOL    HW255361   4.985   1.534   1.889 -1.7793 -0.4551 -0.6084
17974SOL     OW55362   0.250   0.320  12.392 -0.2720  0.7333 -0.4583
17974SOL    HW155363   0.300   0.241  12.410  1.3945  1.9122  0.3783
17974SOL    HW255364   0.163   0.302  12.429  0.0349 -0.7337 -0.3988
17975SOL     OW55365   6.712   7.842  11.529 -0.1974  0.4984 -0.2757
17975SOL    HW155366   6.697   7.820  11.621  0.1500  0.8153 -0.1372
17975SOL    HW255367   6.711   7.758  11.484 -0.6822  0.3687 -0.0290
17976SOL     OW55368   7.641   0.881   1.216  0.4077  0.3100 -0.2402
17976SOL    HW155369   7.722   0.832   1.229 -0.6391 -0.9799  1.9043
17976SOL    HW255370   7.658   0.968   1.252  1.1611  0.4437 -0.8782
17977SOL     OW55371   5.093   7.381   0.976  0.5495 -0.7162  0.1821
17977SOL    HW155372   5.072   7.324   1.051 -0.2997 -2.3412 -1.2120
17977SOL    HW255373   5.187   7.395   0.983  0.6426 -1.6194  1.0531
17978SOL     OW55374   6.472   0.939   2.468 -0.0865  0.1945 -0.2788
17978SOL    HW155375   6.401   0.888   2.430  1.0502 -0.9263 -0.9614
17978SOL    HW255376   6.517   0.878   2.527  0.0324  1.0285  0.5163
17979SOL     OW55377   6.366   0.241   1.653 -0.8788  0.3095 -0.8854
17979SOL    HW155378   6.326   0.181   1.591 -0.4837 -1.3668  0.4176
17979SOL    HW255379   6.306   0.243   1.727 -0.2722  0.5066 -0.3823
17980SOL     OW55380   5.983   0.293   2.590  0.0209  0.3714 -0.2789
17980SOL    HW155381   6.070   0.326   2.569  0.1784 -0.4582 -1.0271
17980SOL    HW255382   5.974   0.214   2.535  0.2373 -1.6422  2.3588
17981SOL     OW55383   5.461   2.061   1.904 -0.5397 -0.1716 -0.6072
17981SOL    HW155384   5.434   2.000   1.973  0.2927  0.9441  0.7445
17981SOL    HW255385   5.505   2.006   1.839  0.2821 -1.0144  0.6290
17982SOL     OW55386   7.233   1.479  12.120  0.6973 -0.1794  0.2059
17982SOL    HW155387   7.286   1.551  12.153 -0.6485  0.6116  0.7012
17982SOL    HW255388   7.205   1.432  12.199  1.8432 -1.5007 -0.1179
17983SOL     OW55389   7.666   0.171  11.901  0.1440  0.0060 -0.5142
17983SOL    HW155390   7.601   0.130  11.959  0.5363  0.8391  0.5439
17983SOL    HW255391   7.721   0.223  11.960  1.1054  0.1740 -1.5364
17984SOL     OW55392   0.119   1.492   1.424  0.4810  0.0008  0.0117
17984SOL    HW155393   0.038   1.497   1.373 -0.5913  1.4554  1.7294
17984SOL    HW255394   0.170   1.568   1.395  0.1725  0.4357  0.5920
17985SOL     OW55395   5.479   0.703   1.638  0.4600  0.2478  0.0952
17985SOL    HW155396   5.422   0.717   1.563 -0.5558 -0.0736  0.7852
17985SOL    HW255397   5.421   0.669   1.707  1.6133 -0.8716  0.5661
17986SOL     OW55398   5.587   0.989   2.138  0.3554 -0.7989  0.1407
17986SOL    HW155399   5.551   0.972   2.051  0.0204  0.9434 -0.1128
17986SOL    HW255400   5.529   0.941   2.197 -1.9343  1.1212 -0.3421
17987SOL     OW55401   6.116   1.489   1.136  0.2205 -0.3929 -0.4529
17987SOL    HW155402   6.039   1.543   1.156  0.5090 -0.4712  1.0300
17987SOL    HW255403   6.188   1.552   1.129 -0.0783 -0.2136 -2.8111
17988SOL     OW55404   3.595   7.670   2.295  0.2808  0.0914  0.4407
17988SOL    HW155405   3.517   7.685   2.348 -0.5495 -0.7433 -0.5017
17988SOL    HW255406   3.563   7.667   2.205  1.5432  0.6331 -0.0531
17989SOL     OW55407   5.386   2.127   3.711  0.1068  0.9754 -0.0652
17989SOL    HW155408   5.465   2.152   3.760  1.5456 -0.2834 -1.6124
17989SOL    HW255409   5.410   2.045   3.668 -1.3341  1.5958 -2.2226
17990SOL     OW55410   5.479   7.400   4.150  0.1330 -0.2179 -0.1508
17990SOL    HW155411   5.466   7.309   4.123 -0.5393 -0.4585  0.9233
17990SOL    HW255412   5.411   7.415   4.216 -0.3779  1.3683 -0.9884
17991SOL     OW55413   7.144   3.464   3.630  0.8881 -0.5768  0.6190
17991SOL    HW155414   7.052   3.456   3.605  0.5924  1.0525  1.1040
17991SOL    HW255415   7.180   3.530   3.571  1.2440  0.2182  1.7007
17992SOL     OW55416   0.831   0.644   3.496 -0.1573 -0.5831 -0.0303
17992SOL    HW155417   0.792   0.732   3.489  0.4545 -0.4023 -1.7752
17992SOL    HW255418   0.926   0.661   3.499 -0.0162 -1.1882 -0.8397
17993SOL     OW55419   5.836   0.201   1.617  0.0178  0.6283 -0.1990
17993SOL    HW155420   5.891   0.279   1.620 -0.4389  0.9459  2.5338
17993SOL    HW255421   5.750   0.234   1.590  0.2469  0.7392 -0.8206
17994SOL     OW55422   5.880   2.098   2.947 -0.1996 -0.2969  1.0794
17994SOL    HW155423   5.859   2.109   2.854  2.2791 -1.1364  0.3216
17994SOL    HW255424   5.846   2.176   2.989 -0.1351  0.8050 -0.8028
17995SOL     OW55425   5.086   6.849   3.388  0.5052 -0.3489 -0.2105
17995SOL    HW155426   5.068   6.796   3.310  1.0593  0.6708 -1.0665
17995SOL    HW255427   5.040   6.931   3.372 -0.1137 -0.4459  0.9654
17996SOL     OW55428   4.778   2.250   2.726 -0.3084 -0.2254 -0.1208
17996SOL    HW155429   4.820   2.183   2.781 -0.0009 -0.9200 -1.1783
17996SOL    HW255430   4.686   2.247   2.751 -0.2832 -0.9919 -0.1049
17997SOL     OW55431   5.528   2.618   2.646 -0.3280  0.3276  0.6382
17997SOL    HW155432   5.607   2.595   2.597 -0.6332  1.1660 -0.2789
17997SOL    HW255433   5.502   2.536   2.690 -1.2620 -1.1079 -2.3091
17998SOL     OW55434   5.750   0.719   2.262  0.4204  0.1832 -0.0098
17998SOL    HW155435   5.666   0.682   2.292  0.9577 -2.0851 -1.0558
17998SOL    HW255436   5.763   0.795   2.317 -1.4903 -0.4127  1.3968
17999SOL     OW55437   7.454   3.353   2.605 -0.3604 -0.3209  0.3681
17999SOL    HW155438   7.481   3.277   2.553  1.0825  1.2633 -1.3319
17999SOL    HW255439   7.516   3.356   2.677  1.2895  0.6958 -1.0278
18000SOL     OW55440   5.846   0.413   3.734 -0.1793 -0.0367 -0.1635
18000SOL    HW155441   5.904   0.454   3.797 -0.2709 -1.4341  0.8756
18000SOL    HW255442   5.883   0.436   3.648  1.3194 -0.0770  0.4458
18001SOL     OW55443   6.432   2.063   1.040 -0.4215  0.1903  0.0909
18001SOL    HW155444   6.484   2.073   0.961  0.9232 -0.6192  0.8370
18001SOL    HW255445   6.493   2.081   1.112 -1.6142  0.9531  0.9602
18002SOL     OW55446   4.577   2.110   3.914 -0.0339  0.0311 -0.4190
18002SOL    HW155447   4.509   2.071   3.860 -2.3932  3.6628 -0.4606
18002SOL    HW255448   4.636   2.152   3.852  1.5612 -1.9185 -0.3172
18003SOL     OW55449   5.610   2.932   2.756 -0.1883  0.2333 -0.0539
18003SOL    HW155450   5.595   2.883   2.675 -1.2692 -0.1112  0.3490
18003SOL    HW255451   5.546   2.897   2.818  1.6380 -0.6477  1.4621
18004SOL     OW55452   3.755   1.087   2.991  0.3965 -0.1202  0.0990
18004SOL    HW155453   3.701   1.068   3.068  1.3562  1.0845  1.1184
18004SOL    HW255454   3.695   1.130   2.930 -0.2305 -0.5232  0.4153
18005SOL     OW55455   5.118   1.135   2.738  0.1809 -0.2663  0.4231
18005SOL    HW155456   5.098   1.150   2.646  1.2112  2.3800  0.5475
18005SOL    HW255457   5.033   1.129   2.781 -0.3043 -0.7322 -0.5907
18006SOL     OW55458   5.396   2.095   2.247 -1.2757 -0.4751 -0.2255
18006SOL    HW155459   5.417   2.165   2.184  0.3470 -0.7125 -0.0124
18006SOL    HW255460   5.335   2.136   2.308  0.6555  1.2581  0.6867
18007SOL     OW55461   6.573   2.212   2.769 -0.0089 -0.1758 -0.0199
18007SOL    HW155462   6.553   2.297   2.808  1.2404 -0.0079  0.3259
18007SOL    HW255463   6.566   2.151   2.842 -1.9524 -0.5633 -0.4905
18008SOL     OW55464   7.095   6.739   3.849 -0.3595  0.7719 -0.1247
18008SOL    HW155465   7.157   6.716   3.779 -2.2354  0.2752 -1.7094
18008SOL    HW255466   7.108   6.671   3.915  1.8558  1.5783  0.3637
18009SOL     OW55467   7.377   3.673   1.547 -0.2699 -0.0485 -0.3680
18009SOL    HW155468   7.473   3.680   1.552 -0.0407  0.4919 -3.4672
18009SOL    HW255469   7.345   3.752   1.589  0.6964  0.2797 -0.2271
18010SOL     OW55470   6.926   2.170   2.360 -0.4077  0.5582 -0.0089
18010SOL    HW155471   6.985   2.164   2.435  0.1117  1.5714 -0.3218
18010SOL    HW255472   6.978   2.214   2.293 -1.6565  1.8271 -0.1677
18011SOL     OW55473   4.406   2.979   3.343  0.1681  0.4320  0.1356
18011SOL    HW155474   4.432   3.070   3.349 -0.5100  0.5520  1.4948
18011SOL    HW255475   4.384   2.953   3.432  0.4250 -1.0918 -0.2053
18012SOL     OW55476   7.350   7.375   1.451  0.5134 -0.2082 -0.4602
18012SOL    HW155477   7.408   7.319   1.398  0.6281 -0.9447  0.4131
18012SOL    HW255478   7.384   7.464   1.437  2.3775 -0.7001  0.6386
18013SOL     OW55479   6.450   0.158   1.946  0.3149  0.5010  0.2300
18013SOL    HW155480   6.416   0.133   2.032 -0.4667 -0.3388 -0.2969
18013SOL    HW255481   6.545   0.149   1.954  0.2664  0.6816  1.0821
18014SOL     OW55482   5.561   2.101   3.324 -0.0434  0.0853 -0.2294
18014SOL    HW155483   5.579   2.174   3.383  0.3512  0.5766 -0.9470
18014SOL    HW255484   5.606   2.027   3.363 -2.1521 -0.3335  1.6570
18015SOL     OW55485   5.630   0.604   2.625 -0.9399  0.0687 -0.6282
18015SOL    HW155486   5.594   0.631   2.710  0.4908 -0.0158  0.0317
18015SOL    HW255487   5.710   0.555   2.647  0.5883  1.7769 -2.0608
18016SOL     OW55488   5.598   0.314   3.808  0.6254 -0.3925  0.3311
18016SOL    HW155489   5.587   0.231   3.760 -0.7286  1.2170 -2.3487
18016SOL    HW255490   5.677   0.353   3.771 -0.2003  0.6836 -0.3457
18017SOL     OW55491   4.788   7.479   4.229  0.2994 -0.3604 -0.0462
18017SOL    HW155492   4.843   7.460   4.153  0.1191 -0.2239 -0.2128
18017SOL    HW255493   4.699   7.455   4.201 -0.3197  2.6678 -1.0445
18018SOL     OW55494   5.464   1.080   2.451  0.0809 -0.2283  0.5419
18018SOL    HW155495   5.514   1.161   2.441 -0.0435 -0.2888 -0.7360
18018SOL    HW255496   5.445   1.075   2.545  2.5580 -0.2831  1.1100
18019SOL     OW55497   4.769   2.307   3.801 -0.0199 -0.2467  0.4170
18019SOL    HW155498   4.798   2.377   3.743  2.4650 -1.8852 -0.4794
18019SOL    HW255499   4.769   2.347   3.888  1.6572  0.8237 -0.0288
18020SOL     OW55500   4.943   1.586   4.109  0.0955  0.2837  0.9452
18020SOL    HW155501   4.947   1.496   4.142  0.8818  0.4646  1.3657
18020SOL    HW255502   4.946   1.640   4.187  3.6804  0.7721  0.6353
18021SOL     OW55503   6.291   7.682   4.188 -0.3526 -0.0848  0.3959
18021SOL    HW155504   6.332   7.759   4.148  0.3665 -0.6073  0.1254
18021SOL    HW255505   6.348   7.661   4.262 -0.8520 -0.0374  0.8021
18022SOL     OW55506   7.916   1.744   0.383  0.2423 -0.2570 -0.5193
18022SOL    HW155507   7.986   1.680   0.388 -1.5234 -2.2559  0.1092
18022SOL    HW255508   7.879   1.747   0.471 -2.2928 -1.5186 -1.4226
18023SOL     OW55509   6.201   3.301   3.974  0.1639  0.1921  0.2762
18023SOL    HW155510   6.212   3.229   4.036 -0.6149 -1.2350 -1.1751
18023SOL    HW255511   6.120   3.344   4.001 -0.4176 -0.7068  0.0092
18024SOL     OW55512   4.956   7.897   2.475 -0.0066 -0.2342  0.4351
18024SOL    HW155513   4.926   7.839   2.404  0.7833 -1.1407  0.8231
18024SOL    HW255514   5.051   7.885   2.478 -0.1229 -1.0976  2.3778
18025SOL     OW55515   6.955   2.016   3.216  0.5223 -0.2345 -0.2311
18025SOL    HW155516   6.966   2.045   3.125 -0.7507 -1.5121 -0.8468
18025SOL    HW255517   6.908   2.087   3.259  0.8328  0.2367 -0.6658
18026SOL     OW55518   6.772   1.697   1.952 -0.2441  0.2663  0.1065
18026SOL    HW155519   6.819   1.627   1.906 -0.6672 -0.9793  1.4895
18026SOL    HW255520   6.691   1.707   1.904 -0.6886 -1.0289  0.5290
18027SOL     OW55521   5.991   0.134   2.159 -0.1209  0.0401  0.2881
18027SOL    HW155522   6.035   0.126   2.074 -2.3758 -1.4452 -0.8588
18027SOL    HW255523   6.000   0.227   2.182  2.0207  0.1375 -0.6905
18028SOL     OW55524   7.993   1.348   3.823  0.3801  0.5691  0.5722
18028SOL    HW155525   8.071   1.316   3.779  0.8721 -0.5814  2.2105
18028SOL    HW255526   8.021   1.367   3.913 -1.0952  0.5799  1.0648
18029SOL     OW55527   5.895   7.914   3.176 -0.3769 -0.1316 -0.3673
18029SOL    HW155528   5.958   7.933   3.107  1.0193  0.5937  1.0372
18029SOL    HW255529   5.861   7.827   3.154  1.2660 -0.6374 -1.0776
18030SOL     OW55530   5.756   1.338   3.119 -0.3429  0.1576  0.2279
18030SOL    HW155531   5.673   1.292   3.122  0.4817 -1.3710  0.8809
18030SOL    HW255532   5.767   1.374   3.207  0.2872 -0.8238  0.5716
18031SOL     OW55533   6.318   1.779   2.511 -0.2463 -0.0942 -0.3919
18031SOL    HW155534   6.228   1.776   2.542 -0.4378  1.6476 -0.6570
18031SOL    HW255535   6.346   1.869   2.529  1.6579 -0.7766  0.2726
18032SOL     OW55536   5.679   1.698   1.915  0.0425 -0.7144 -0.1345
18032SOL    HW155537   5.584   1.711   1.912 -0.0759 -0.5523  2.1126
18032SOL    HW255538   5.708   1.708   1.825 -2.0040 -0.1711 -0.7869
18033SOL     OW55539   6.369   1.031   3.863  0.0348  0.2160 -0.2318
18033SOL    HW155540   6.455   1.000   3.838  0.3342  2.1996 -1.8673
18033SOL    HW255541   6.385   1.100   3.928 -0.5267 -1.4190  1.7715
18034SOL     OW55542   7.617   1.656   3.119  0.4889 -0.0945 -0.0738
18034SOL    HW155543   7.653   1.616   3.199 -1.1257 -0.1685  0.6618
18034SOL    HW255544   7.667   1.616   3.048  0.5605 -1.6328  0.7821
18035SOL     OW55545   7.889   2.082   0.570  0.4859 -0.2573  0.5817
18035SOL    HW155546   7.953   2.037   0.626  0.1709 -1.8088 -0.2496
18035SOL    HW255547   7.901   2.042   0.484  0.9190  2.0348 -0.4908
18036SOL     OW55548   5.607   0.722   2.899 -0.3036  0.0633 -0.3291
18036SOL    HW155549   5.593   0.802   2.950  0.7946 -0.1552  0.3705
18036SOL    HW255550   5.568   0.652   2.952  0.8762 -0.1705  0.2781
18037SOL     OW55551   6.704   2.995   3.316 -0.2355 -0.0073 -0.2780
18037SOL    HW155552   6.699   2.906   3.281  0.2338  0.3166 -1.1997
18037SOL    HW255553   6.783   2.995   3.371 -0.3897 -0.2257 -0.0524
18038SOL     OW55554   6.139   2.891   3.813 -0.3938 -0.1114 -0.2859
18038SOL    HW155555   6.117   2.981   3.789 -0.0047  0.2582  0.6838
18038SOL    HW255556   6.059   2.856   3.852 -0.5904 -0.2395 -0.7967
18039SOL     OW55557   6.953   0.659   3.242  0.4254 -0.0188  0.1678
18039SOL    HW155558   6.933   0.659   3.336  0.3114 -2.6031  0.2295
18039SOL    HW255559   6.903   0.584   3.207  2.8683 -1.0722 -1.3533
18040SOL     OW55560   3.802   2.639   3.980 -0.4665  0.0466  0.4307
18040SOL    HW155561   3.831   2.625   4.070  0.0793 -0.7273  0.1407
18040SOL    HW255562   3.875   2.683   3.938 -0.7117  0.3858  0.3515
18041SOL     OW55563   6.512   0.051   2.214 -0.5591 -0.5429 -0.4330
18041SOL    HW155564   6.468   0.120   2.264 -0.3080 -0.9634  0.3894
18041SOL    HW255565   6.544  -0.010   2.280  3.0661  0.7697 -0.7470
18042SOL     OW55566   5.295   7.110   1.982  0.4638  0.0922 -0.4111
18042SOL    HW155567   5.244   7.042   2.026  0.5596 -0.6135 -1.3708
18042SOL    HW255568   5.283   7.188   2.037  1.8025 -1.1062  1.6829
18043SOL     OW55569   4.857   2.201   4.713 -0.2200  0.1054  0.8297
18043SOL    HW155570   4.848   2.186   4.619  2.2845  0.6235  0.4093
18043SOL    HW255571   4.951   2.215   4.725 -0.3233 -0.9956  3.5882
18044SOL     OW55572   5.187   2.508   2.467 -0.2669 -0.1737  0.4100
18044SOL    HW155573   5.123   2.575   2.442 -1.4622 -1.8762 -1.3371
18044SOL    HW255574   5.269   2.537   2.426 -1.4713 -1.2567 -3.1670
18045SOL     OW55575   4.773   0.456   3.801 -0.0176 -0.4968  0.2010
18045SOL    HW155576   4.762   0.385   3.737 -2.1661  0.4686 -0.6018
18045SOL    HW255577   4.778   0.535   3.747 -1.3713  0.2908  1.1818
18046SOL     OW55578   7.081   0.415   2.344  0.2142 -0.0483  0.0194
18046SOL    HW155579   7.099   0.342   2.404 -1.3036 -0.3973  0.0809
18046SOL    HW255580   7.063   0.372   2.260  4.3958  0.4807 -1.4015
18047SOL     OW55581   5.606   0.324   4.234 -0.3437 -0.3066  0.2599
18047SOL    HW155582   5.532   0.265   4.247 -0.7551  0.4417  1.4817
18047SOL    HW255583   5.683   0.268   4.245 -0.7238 -0.5678  1.9370
18048SOL     OW55584   1.408   1.564   2.067  0.7092 -0.6385 -0.1944
18048SOL    HW155585   1.450   1.607   1.993  1.0545  1.3220  1.0704
18048SOL    HW255586   1.421   1.470   2.051  0.1809 -0.3462 -2.9225
18049SOL     OW55587   7.689   2.468   4.064 -0.5732 -0.3253 -0.0584
18049SOL    HW155588   7.716   2.391   4.015 -1.9831 -0.0237 -1.3583
18049SOL    HW255589   7.601   2.446   4.097 -1.5593  1.1783 -1.5657
18050SOL     OW55590   0.597   0.598   1.685 -0.0266 -0.2607 -0.2461
18050SOL    HW155591   0.644   0.603   1.768 -1.5244  0.8024  0.6008
18050SOL    HW255592   0.567   0.507   1.679 -1.7011  0.1023  1.4944
18051SOL     OW55593   0.485   3.204   2.304 -0.0689  0.1957  0.1358
18051SOL    HW155594   0.530   3.280   2.268 -1.0445  1.7129  1.9062
18051SOL    HW255595   0.395   3.212   2.273 -0.5676  0.7282  1.6062
18052SOL     OW55596   6.044   0.285   3.326 -0.5055 -0.2495 -0.1107
18052SOL    HW155597   6.095   0.346   3.272 -1.3578 -0.3083 -1.0187
18052SOL    HW255598   6.107   0.220   3.355 -0.1143 -0.5630 -1.5647
18053SOL     OW55599   6.833   1.458   1.406 -0.2741  0.2379 -0.2024
18053SOL    HW155600   6.850   1.535   1.353  0.6884  1.7890  2.2098
18053SOL    HW255601   6.741   1.467   1.432 -0.0995  0.7084  0.2623
18054SOL     OW55602   4.662   7.675   3.649  0.6794  0.0871 -0.2543
18054SOL    HW155603   4.668   7.703   3.740 -0.0597 -1.6627  0.3787
18054SOL    HW255604   4.715   7.739   3.600 -0.0624  1.9042  1.1799
18055SOL     OW55605   7.479   2.168   2.471  0.2915 -0.6464 -0.4334
18055SOL    HW155606   7.523   2.106   2.529  0.9312 -0.2045 -0.4491
18055SOL    HW255607   7.403   2.119   2.438  0.0889 -1.0006  0.5266
18056SOL     OW55608   7.010   1.905   3.472  0.1343 -0.6403 -0.0765
18056SOL    HW155609   7.099   1.879   3.496 -0.4138 -1.5467  1.1059
18056SOL    HW255610   7.012   1.910   3.377  0.7465 -3.5698 -0.3381
18057SOL     OW55611   4.540   0.582   2.998 -0.0308 -0.1577  0.0485
18057SOL    HW155612   4.517   0.525   3.071 -0.1850 -0.6924 -0.4045
18057SOL    HW255613   4.590   0.653   3.037 -2.4538  1.0628  1.0674
18058SOL     OW55614   5.814   0.693   3.179  0.1672 -0.1726  0.0499
18058SOL    HW155615   5.909   0.684   3.189  0.0228 -1.0301  0.8176
18058SOL    HW255616   5.801   0.704   3.085  0.8853 -2.3664 -0.3682
18059SOL     OW55617   4.990   7.760   2.757 -0.1642 -0.2727  0.1757
18059SOL    HW155618   5.014   7.668   2.747 -1.6282 -0.6847  0.1835
18059SOL    HW255619   4.972   7.789   2.668  0.5693  0.0995  0.1425
18060SOL     OW55620   7.038   1.150   2.465  0.1849  0.2655 -0.5235
18060SOL    HW155621   7.091   1.202   2.405  0.2057 -0.3773 -1.0817
18060SOL    HW255622   7.059   1.059   2.441 -0.7372  0.0086 -0.3713
18061SOL     OW55623   4.951   7.716   3.076  0.0383 -0.5007 -0.1438
18061SOL    HW155624   5.045   7.701   3.070  0.4331  2.1395 -2.2735
18061SOL    HW255625   4.943   7.807   3.106 -1.7557 -0.1492 -1.5073
18062SOL     OW55626   5.959   0.956   1.954 -0.4402 -0.5456  0.0989
18062SOL    HW155627   6.041   0.939   1.908 -0.6594 -0.1450 -0.4525
18062SOL    HW255628   5.979   1.028   2.013 -1.1227  1.7119 -2.2368
18063SOL     OW55629   6.461   0.081   3.551  0.0021 -0.1049 -0.4352
18063SOL    HW155630   6.466   0.152   3.615  1.3602 -1.4465  1.0588
18063SOL    HW255631   6.553   0.065   3.528 -0.3592 -0.7705 -1.4398
18064SOL     OW55632   6.162   1.935   3.047  0.3901  0.1759  0.1488
18064SOL    HW155633   6.198   1.892   3.125 -0.7518  0.6245  0.9417
18064SOL    HW255634   6.147   1.864   2.985  0.3232 -0.3208  0.7254
18065SOL     OW55635   5.325   0.564   3.253  0.7390 -0.9626  0.1607
18065SOL    HW155636   5.393   0.545   3.188 -0.5737  0.4452 -1.7027
18065SOL    HW255637   5.262   0.492   3.243  1.2054 -1.4948  0.8974
18066SOL     OW55638   7.012   7.344   2.096 -0.1877  0.5745 -0.4978
18066SOL    HW155639   6.958   7.414   2.059 -0.6791 -0.1403 -1.1561
18066SOL    HW255640   7.095   7.387   2.116  0.3464  0.8924 -3.0783
18067SOL     OW55641   5.862   7.080   2.302  0.5013  0.5907 -0.4395
18067SOL    HW155642   5.915   7.005   2.276  0.5560  0.9311 -1.3449
18067SOL    HW255643   5.797   7.090   2.233  0.2865  1.1760 -0.1659
18068SOL     OW55644   3.936   0.726   3.737  0.1224  0.4679 -0.6652
18068SOL    HW155645   3.844   0.752   3.742  0.4225  1.3302  1.3262
18068SOL    HW255646   3.952   0.679   3.819  1.8257  1.7363 -0.2160
18069SOL     OW55647   6.590   1.847   2.917 -0.5683  0.0186 -0.0240
18069SOL    HW155648   6.538   1.775   2.954 -0.0419 -0.5008 -0.2741
18069SOL    HW255649   6.525   1.915   2.897 -1.1924 -0.6964 -0.5113
18070SOL     OW55650   5.006   0.171   3.864 -0.1656 -0.0381 -0.3519
18070SOL    HW155651   5.088   0.122   3.868 -0.8158 -1.4014 -2.4235
18070SOL    HW255652   5.033   0.261   3.846  0.8791 -0.5636 -1.5652
18071SOL     OW55653   0.486   1.429   2.509 -0.0023  0.9145  0.6550
18071SOL    HW155654   0.488   1.441   2.604  0.2846  1.0075  0.6379
18071SOL    HW255655   0.578   1.423   2.484 -0.0593 -2.1640  0.7565
18072SOL     OW55656   7.984   0.789   0.276  0.5039  0.0809  1.0125
18072SOL    HW155657   8.052   0.739   0.321  1.0472  0.8724  1.0929
18072SOL    HW255658   8.003   0.880   0.298  0.7124  0.4856 -0.7237
18073SOL     OW55659   5.838   2.524   2.635  0.1938 -0.6031  0.2074
18073SOL    HW155660   5.873   2.525   2.724  1.5858 -0.8454 -0.3060
18073SOL    HW255661   5.901   2.471   2.585  0.1439  0.5804 -1.1866
18074SOL     OW55662   5.209   1.508   2.778 -0.3173 -0.1426 -0.1309
18074SOL    HW155663   5.129   1.463   2.750 -0.2260 -1.7290  1.8761
18074SOL    HW255664   5.189   1.601   2.768 -2.5935 -0.4768  0.6590
18075SOL     OW55665   7.305   2.855   3.954  0.6810 -0.1105 -0.2284
18075SOL    HW155666   7.229   2.906   3.981  0.6535  0.4344 -1.3117
18075SOL    HW255667   7.327   2.803   4.032 -0.3065  0.3051  0.3489
18076SOL     OW55668   4.923   0.879   1.904  0.6254  0.0551  0.3744
18076SOL    HW155669   4.860   0.925   1.958 -1.4591  0.0947 -1.8872
18076SOL    HW255670   4.982   0.837   1.966 -1.3657  0.3783  2.6474
18077SOL     OW55671   6.673   0.554   3.075  0.2687  0.4041  0.0245
18077SOL    HW155672   6.618   0.632   3.069  1.7437  1.4072 -1.6954
18077SOL    HW255673   6.615   0.481   3.055 -0.8331  1.2143  0.2167
18078SOL     OW55674   7.586   0.051   4.611  0.6099 -0.2201  0.7896
18078SOL    HW155675   7.560   0.096   4.531  0.3810  1.0526  1.5496
18078SOL    HW255676   7.653  -0.011   4.583  1.5823  1.2178 -0.1961
18079SOL     OW55677   6.524   2.466   2.103  0.7561  0.0227 -0.7429
18079SOL    HW155678   6.580   2.397   2.139 -0.1648  0.8355  2.5954
18079SOL    HW255679   6.536   2.540   2.163 -1.8918  1.1118 -1.4374
18080SOL     OW55680   7.413   1.296   1.614  1.0556  0.5976  0.4252
18080SOL    HW155681   7.405   1.202   1.624  0.3027  0.6662  0.4933
18080SOL    HW255682   7.362   1.333   1.687  1.3058  1.0576  0.3756
18081SOL     OW55683   6.578   1.566   3.419  0.5079  0.0454 -0.4886
18081SOL    HW155684   6.624   1.649   3.408  3.7482 -1.5545 -0.2380
18081SOL    HW255685   6.485   1.589   3.419  1.2838  3.7222  0.4200
18082SOL     OW55686   7.692   0.002   3.538 -0.0023 -0.5863  0.3902
18082SOL    HW155687   7.644   0.051   3.606  0.9194 -0.2843  0.8323
18082SOL    HW255688   7.655   0.034   3.456 -0.1987  0.0186  0.7076
18083SOL     OW55689   6.354   1.402   3.315  0.3944  0.2712 -0.0792
18083SOL    HW155690   6.363   1.307   3.300  1.0104  0.3271 -0.0895
18083SOL    HW255691   6.439   1.429   3.347 -0.0986  0.6435  0.9450
18084SOL     OW55692   5.181   1.788   1.756 -0.4154 -0.3493 -0.0373
18084SOL    HW155693   5.209   1.820   1.670 -0.5085 -0.3622 -0.0727
18084SOL    HW255694   5.123   1.714   1.736  1.2483 -1.7365  0.0709
18085SOL     OW55695   4.393   1.278   3.713  0.0085  0.3836 -0.4330
18085SOL    HW155696   4.451   1.292   3.638 -0.2291  1.4997 -0.4218
18085SOL    HW255697   4.439   1.214   3.767  0.8940  0.7144 -0.7763
18086SOL     OW55698   5.492   0.282   2.209 -0.3881  0.3241  0.1513
18086SOL    HW155699   5.516   0.308   2.298  0.2729 -0.2997  0.1720
18086SOL    HW255700   5.410   0.234   2.219 -0.8881  1.1978  0.2817
18087SOL     OW55701   5.567   0.816   4.477  0.1322 -0.2616 -0.3728
18087SOL    HW155702   5.502   0.882   4.503 -0.0708 -0.8648  0.7426
18087SOL    HW255703   5.524   0.732   4.497  0.2686 -0.7626 -2.0344
18088SOL     OW55704   6.032   0.404   2.240  0.3953  0.4162 -0.4749
18088SOL    HW155705   5.952   0.396   2.292 -1.2137  1.5945 -2.6490
18088SOL    HW255706   6.057   0.496   2.247  1.4514  0.1186 -0.0458
18089SOL     OW55707   7.024   0.616   4.073 -0.7467 -0.3972 -0.0845
18089SOL    HW155708   7.023   0.669   4.153  1.1176 -0.9473  0.3489
18089SOL    HW255709   7.109   0.635   4.033 -1.4385 -0.5273 -1.6878
18090SOL     OW55710   7.652   1.022   3.563  0.3756 -0.0487 -0.2769
18090SOL    HW155711   7.675   1.108   3.529  2.8555 -0.3278  0.5045
18090SOL    HW255712   7.685   1.021   3.652 -2.4667 -0.7463  0.8959
18091SOL     OW55713   6.825   2.409   2.497 -0.3194 -0.0706  0.2658
18091SOL    HW155714   6.835   2.325   2.453  1.1454  0.4051 -0.3446
18091SOL    HW255715   6.914   2.435   2.522 -0.6973  1.4438  0.1611
18092SOL     OW55716   0.969   1.320   1.553  0.2992 -0.1697 -0.4472
18092SOL    HW155717   1.027   1.393   1.532  1.8304 -1.1424  0.2699
18092SOL    HW255718   0.918   1.306   1.473 -0.9866  2.4704 -0.2280
18093SOL     OW55719   7.386   1.502   4.027  0.2998 -0.2331 -0.2394
18093SOL    HW155720   7.298   1.490   3.990 -0.2393 -0.7629  1.1619
18093SOL    HW255721   7.382   1.585   4.074  0.2113 -0.7929  0.7526
18094SOL     OW55722   4.844   1.232   3.365  0.6984 -0.2405  0.2358
18094SOL    HW155723   4.798   1.218   3.447  0.7573  2.3862  0.8142
18094SOL    HW255724   4.780   1.276   3.309  1.9816  2.2115  0.5771
18095SOL     OW55725   1.144   7.775   3.421  0.2529  0.4322 -0.0667
18095SOL    HW155726   1.167   7.856   3.465  1.3105 -0.4357  1.0620
18095SOL    HW255727   1.125   7.801   3.331 -1.7835  2.2283  0.8151
18096SOL     OW55728   6.436   7.750   5.016 -0.2548  0.2207  0.1248
18096SOL    HW155729   6.496   7.689   5.060 -0.2506  1.0016  1.2426
18096SOL    HW255730   6.485   7.832   5.011  0.1688 -0.1124 -2.3855
18097SOL     OW55731   6.591   7.663   3.746  0.2754  0.2091  0.2475
18097SOL    HW155732   6.531   7.720   3.697  0.2719 -0.8161 -0.9761
18097SOL    HW255733   6.668   7.718   3.762  0.3185  0.5437 -1.0086
18098SOL     OW55734   5.501   1.196   3.441  0.4004  0.3565 -0.2417
18098SOL    HW155735   5.519   1.112   3.398 -0.0508  0.5253 -0.7656
18098SOL    HW255736   5.586   1.240   3.443  0.5852  0.0038 -0.2110
18099SOL     OW55737   5.363   1.030   2.723 -0.0563  0.3343  0.1108
18099SOL    HW155738   5.339   0.949   2.767 -1.1604  0.9244  0.6440
18099SOL    HW255739   5.286   1.087   2.734 -0.2446  0.6294 -2.2875
18100SOL     OW55740   5.832   0.507   2.419 -0.1131 -0.3801  0.2999
18100SOL    HW155741   5.814   0.569   2.489  1.6808 -0.6079  1.0168
18100SOL    HW255742   5.847   0.563   2.342 -0.6746 -0.0458  0.4288
18101SOL     OW55743   4.897   7.043   3.378  0.4469  0.4090 -0.9593
18101SOL    HW155744   4.865   7.098   3.306 -1.9329 -0.1722 -0.4245
18101SOL    HW255745   4.818   7.022   3.429  1.5836 -1.8282 -0.0010
18102SOL     OW55746   5.456   3.017   3.770 -0.2621 -0.0081  0.3671
18102SOL    HW155747   5.516   3.088   3.747  1.9687 -1.8865 -0.0247
18102SOL    HW255748   5.431   3.034   3.860 -1.1640  2.1367 -0.2217
18103SOL     OW55749   5.131   0.690   2.833  0.0816 -0.0083  0.3561
18103SOL    HW155750   5.181   0.754   2.884  2.2567 -2.2223  1.2164
18103SOL    HW255751   5.098   0.740   2.758  1.9695  2.0585  0.7841
18104SOL     OW55752   0.228   0.034   3.328  0.0766 -0.2283  0.0199
18104SOL    HW155753   0.139   0.019   3.359  0.5181  0.1776  1.5634
18104SOL    HW255754   0.280  -0.037   3.366  0.5735  0.0662 -0.0930
18105SOL     OW55755   1.207   1.466   2.373  0.3523 -0.4805  1.1315
18105SOL    HW155756   1.270   1.501   2.436  0.4226 -0.9651  1.3338
18105SOL    HW255757   1.253   1.468   2.289 -0.5385  2.3953  0.6228
18106SOL     OW55758   0.855   1.984  12.030  0.0432  0.0046 -0.0010
18106SOL    HW155759   0.860   2.048  11.959  0.4661 -0.3514 -0.2962
18106SOL    HW255760   0.809   1.910  11.993  1.5308 -0.7773 -0.3796
18107SOL     OW55761   5.775   0.651   3.930  0.2058  0.2037 -0.0129
18107SOL    HW155762   5.852   0.596   3.922 -0.0618 -0.1587 -0.1280
18107SOL    HW255763   5.712   0.597   3.978 -0.8439 -0.4323 -2.0001
18108SOL     OW55764   7.124   7.900   5.595 -0.9769 -0.6235  0.2092
18108SOL    HW155765   7.077   7.824   5.560 -1.9727  0.3468 -0.6563
18108SOL    HW255766   7.126   7.962   5.522  1.9301 -0.7000  0.1010
18109SOL     OW55767   7.952   1.381   4.112 -0.4163  0.4807  0.1233
18109SOL    HW155768   7.956   1.416   4.201  2.8932  0.9990 -0.0992
18109SOL    HW255769   7.915   1.452   4.060  1.6463  1.8983  0.4780
18110SOL     OW55770   5.497   1.793   7.070 -0.8694  0.6157 -0.5957
18110SOL    HW155771   5.411   1.828   7.046  0.1517  2.2836 -2.0611
18110SOL    HW255772   5.560   1.858   7.036  0.9112  0.7101  2.5387
18111SOL     OW55773   6.312   6.837   2.099 -0.2096  0.0993  0.1365
18111SOL    HW155774   6.355   6.783   2.164 -0.1181 -2.0308 -1.5790
18111SOL    HW255775   6.380   6.895   2.066  0.1733 -0.0551  0.6538
18112SOL     OW55776   7.078   1.290   2.894  0.0558 -0.1119  0.0409
18112SOL    HW155777   7.116   1.254   2.974 -1.2785  0.4259  0.9484
18112SOL    HW255778   7.069   1.214   2.836  1.3813 -0.4458  0.2317
18113SOL     OW55779   5.646   2.797   3.747 -0.1599  0.5190  0.0301
18113SOL    HW155780   5.576   2.856   3.721  0.9390  2.5762  1.4875
18113SOL    HW255781   5.646   2.800   3.842 -0.1862 -2.0736  0.1951
18114SOL     OW55782   3.909   0.267   2.545 -0.0595 -0.5952 -0.2534
18114SOL    HW155783   3.929   0.243   2.635 -1.7799 -0.8939  0.0810
18114SOL    HW255784   3.902   0.362   2.545 -1.1598 -0.6595  0.2042
18115SOL     OW55785   4.299   0.450   2.580  0.0641  0.1642  0.0576
18115SOL    HW155786   4.380   0.474   2.535 -1.1317  2.0370 -1.2173
18115SOL    HW255787   4.297   0.505   2.658 -1.3691  2.4359 -1.4758
18116SOL     OW55788   5.514   0.489   3.035 -0.4635 -1.1003  0.1321
18116SOL    HW155789   5.600   0.446   3.036 -0.1657 -0.5743  2.6126
18116SOL    HW255790   5.479   0.470   2.948  1.7114 -2.2241 -0.5641
18117SOL     OW55791   6.813   0.123   3.120 -0.3050  0.6696 -0.2985
18117SOL    HW155792   6.731   0.151   3.162 -1.1754 -2.6816  0.5812
18117SOL    HW255793   6.795   0.126   3.026 -0.6333  1.9993 -0.2155
18118SOL     OW55794   3.482   0.961   2.216 -0.0598 -0.0408  0.0970
18118SOL    HW155795   3.529   0.990   2.137  0.9539 -0.9652  0.3285
18118SOL    HW255796   3.552   0.935   2.276 -0.8172  0.7830  1.3660
18119SOL     OW55797   2.269   2.454   4.220  0.2164  0.4811  0.4284
18119SOL    HW155798   2.311   2.529   4.179  0.4055  0.1861  0.0773
18119SOL    HW255799   2.188   2.441   4.171  0.5602 -0.0212 -0.0124
18120SOL     OW55800   6.270   0.396   3.629 -0.0866 -0.2464  0.1682
18120SOL    HW155801   6.334   0.436   3.688 -0.5072  0.4606  0.1613
18120SOL    HW255802   6.317   0.382   3.547  0.6605 -1.7448  0.8209
18121SOL     OW55803   4.681   0.099   3.716  0.3130  0.2741  0.2188
18121SOL    HW155804   4.745   0.067   3.653  1.1680  2.0049  0.1416
18121SOL    HW255805   4.696   0.047   3.795 -0.0973 -1.2321 -0.6538
18122SOL     OW55806   3.654   0.435   2.762  0.2058  0.3870  0.0685
18122SOL    HW155807   3.673   0.520   2.721 -0.4217  0.5710  0.1441
18122SOL    HW255808   3.740   0.398   2.781  0.5065  0.5425 -0.9160
18123SOL     OW55809   6.278   7.175   3.791 -1.0417  0.0160 -0.6770
18123SOL    HW155810   6.242   7.181   3.880  0.5547  1.3814 -0.0556
18123SOL    HW255811   6.365   7.138   3.804 -0.0358  1.9767 -1.3905
18124SOL     OW55812   5.283   7.901   4.376 -0.1443 -0.2294 -0.0877
18124SOL    HW155813   5.216   7.969   4.374 -0.0025 -0.0800  0.2419
18124SOL    HW255814   5.331   7.913   4.294  0.3713  0.5700  0.3178
18125SOL     OW55815   7.081   1.749   2.501 -0.0235  0.0246 -0.4087
18125SOL    HW155816   7.038   1.668   2.474  1.3421 -0.8784  0.0247
18125SOL    HW255817   7.039   1.771   2.584  0.5768 -1.0768  0.2215
18126SOL     OW55818   7.216   1.736   3.342 -0.0531 -0.7971 -0.0862
18126SOL    HW155819   7.277   1.674   3.381 -1.7755 -2.4154  0.1714
18126SOL    HW255820   7.260   1.767   3.263  1.3005 -1.4925  0.3671
18127SOL     OW55821   5.597   0.935   3.356  0.4204  0.1094  0.0652
18127SOL    HW155822   5.647   0.858   3.329  0.2148  0.0441 -0.1283
18127SOL    HW255823   5.506   0.914   3.336  0.1813 -0.1929  1.3821
18128SOL     OW55824   4.609   1.202   3.009 -0.0786  0.1426  0.2320
18128SOL    HW155825   4.624   1.171   3.098 -1.2449 -1.2848 -0.0275
18128SOL    HW255826   4.572   1.290   3.021  0.1703  0.1355  1.1399
18129SOL     OW55827   6.643   1.281   1.784  0.4023  0.3569 -0.0198
18129SOL    HW155828   6.698   1.206   1.764 -0.1296 -0.0478 -0.0032
18129SOL    HW255829   6.583   1.249   1.852  0.2708  0.8406  0.0980
18130SOL     OW55830   5.804   7.437   1.657  0.0322 -0.0352 -0.0598
18130SOL    HW155831   5.717   7.401   1.638 -0.1003 -0.4162  1.2025
18130SOL    HW255832   5.798   7.471   1.746  1.3833 -0.7847  0.3594
18131SOL     OW55833   3.841   0.418   4.083  0.0262 -0.2912  0.3227
18131SOL    HW155834   3.911   0.474   4.115  1.6770 -1.8467 -0.3953
18131SOL    HW255835   3.854   0.413   3.988 -1.6082  0.0722  0.0394
18132SOL     OW55836   5.809   7.302   2.897 -0.5423  0.1811  0.0995
18132SOL    HW155837   5.816   7.296   2.801 -0.4393 -0.2755  0.1316
18132SOL    HW255838   5.900   7.303   2.927 -0.5706  0.9002  0.1631
18133SOL     OW55839   5.607   2.574   2.054 -0.3533  0.2023  0.2771
18133SOL    HW155840   5.668   2.620   2.111 -1.1788 -1.3097  2.5394
18133SOL    HW255841   5.571   2.641   1.997 -0.2348  2.0491  2.2479
18134SOL     OW55842   7.469   1.141   1.993 -0.1388 -0.1174  1.2030
18134SOL    HW155843   7.501   1.137   2.083 -0.4336  1.6983  1.4241
18134SOL    HW255844   7.548   1.144   1.940  0.0831  1.0907  1.5633
18135SOL     OW55845   6.283   0.721   3.618 -0.2422 -0.0775 -0.3186
18135SOL    HW155846   6.233   0.678   3.548  0.1015 -1.3621  0.1924
18135SOL    HW255847   6.241   0.807   3.628 -0.0374  0.3036 -2.3599
18136SOL     OW55848   7.073   2.145   2.601 -0.1001 -0.0176 -0.5696
18136SOL    HW155849   7.128   2.218   2.627 -1.2549  0.9056 -0.5963
18136SOL    HW255850   7.124   2.067   2.621  1.0446  0.7863 -0.2666
18137SOL     OW55851   7.464   0.717   6.074 -0.1714 -0.6676 -0.0583
18137SOL    HW155852   7.413   0.713   5.993 -1.8734 -0.4693  0.9755
18137SOL    HW255853   7.555   0.717   6.044 -0.6975  2.2159 -2.1669
18138SOL     OW55854   6.145   0.020   1.947 -0.1573 -0.1016  1.0555
18138SOL    HW155855   6.178  -0.062   1.912  1.8393  0.0294  2.4277
18138SOL    HW255856   6.073   0.045   1.889 -0.5176 -2.5610  0.3595
18139SOL     OW55857   7.733   2.618   1.776  0.2891  0.0369  0.5116
18139SOL    HW155858   7.754   2.546   1.716  0.5407  0.3383  0.2404
18139SOL    HW255859   7.693   2.574   1.851  0.4362 -0.3890  0.3470
18140SOL     OW55860   4.624   0.561   2.728  0.2297  0.1125  0.0356
18140SOL    HW155861   4.585   0.560   2.815  0.1220  0.1381 -0.0115
18140SOL    HW255862   4.645   0.469   2.710 -0.1862  0.0401 -0.1042
18141SOL     OW55863   6.884   1.488   2.425  0.1191  0.1640  0.1848
18141SOL    HW155864   6.805   1.456   2.469 -0.0482  0.9896  0.5102
18141SOL    HW255865   6.852   1.521   2.341  0.4160 -1.2647 -0.5219
18142SOL     OW55866   7.295   0.424   3.582  0.4369 -0.1017  0.2527
18142SOL    HW155867   7.364   0.488   3.599  0.2325  0.8456 -2.0379
18142SOL    HW255868   7.218   0.459   3.627  0.3450  1.3189 -0.9117
18143SOL     OW55869   6.708   2.696   2.566  0.1345  0.1560  0.3751
18143SOL    HW155870   6.628   2.736   2.598 -0.0713 -1.5778  2.2394
18143SOL    HW255871   6.680   2.614   2.526  0.8056  0.4541 -0.7477
18144SOL     OW55872   3.727   2.215   4.078 -0.1485  0.4709 -0.6094
18144SOL    HW155873   3.652   2.229   4.137  0.0152  0.8314 -0.4855
18144SOL    HW255874   3.693   2.156   4.011 -0.2939 -0.0666 -0.0750
18145SOL     OW55875   0.987   0.084   2.009  0.0639  0.3489 -0.4569
18145SOL    HW155876   1.057   0.043   1.958 -0.0088 -1.6612  0.9483
18145SOL    HW255877   1.033   0.137   2.074  0.1890  0.9936 -1.0487
18146SOL     OW55878   5.206   1.550   2.287  0.3185  0.1101 -0.2598
18146SOL    HW155879   5.230   1.584   2.201 -0.2824 -0.7561 -0.7843
18146SOL    HW255880   5.157   1.470   2.269  1.4003 -0.8708  0.9271
18147SOL     OW55881   7.562   2.626   0.135 -0.6153 -0.1182 -0.3357
18147SOL    HW155882   7.575   2.635   0.041 -1.1114 -0.4727 -0.4396
18147SOL    HW255883   7.622   2.690   0.174 -2.3992  2.0617 -0.9510
18148SOL     OW55884   6.092   1.227   3.262 -0.5359  0.7279  0.0699
18148SOL    HW155885   6.091   1.201   3.170  1.1012  0.9091 -0.0215
18148SOL    HW255886   6.176   1.196   3.295 -0.6300  1.6350  1.2299
18149SOL     OW55887   4.296   7.969   2.332 -0.0446 -0.1051  0.3199
18149SOL    HW155888   4.269   8.041   2.388  0.6235  1.5039 -1.3487
18149SOL    HW255889   4.354   7.916   2.387 -1.1102  0.1894  1.7911
18150SOL     OW55890   0.121   0.793   2.129 -0.3887  0.1082 -0.0687
18150SOL    HW155891   0.061   0.822   2.198 -0.0080 -0.3382  0.4559
18150SOL    HW255892   0.125   0.698   2.138 -0.2514  0.0512 -0.6452
18151SOL     OW55893   6.163   2.158   3.400  0.0822 -0.8546  0.7791
18151SOL    HW155894   6.138   2.112   3.481 -0.3589  0.2179  1.2694
18151SOL    HW255895   6.083   2.160   3.348  0.7275 -2.9080 -0.4103
18152SOL     OW55896   4.930   3.236   4.409 -0.1403 -0.4458 -0.0991
18152SOL    HW155897   5.016   3.279   4.411 -0.1278 -0.4079 -0.8522
18152SOL    HW255898   4.873   3.293   4.461 -0.2136  0.7051 -1.3714
18153SOL     OW55899   5.580   2.387   5.471 -0.3756  0.5152  0.6939
18153SOL    HW155900   5.581   2.321   5.540 -1.7652 -0.5108 -0.2051
18153SOL    HW255901   5.545   2.466   5.513 -3.3543 -0.6961  0.7714
18154SOL     OW55902   5.850   1.817   2.945  0.0500 -0.3406 -0.5880
18154SOL    HW155903   5.847   1.913   2.938  0.3375 -0.1449  1.3860
18154SOL    HW255904   5.942   1.797   2.957  0.0227 -0.9067 -1.2920
18155SOL     OW55905   4.742   1.333   1.544 -0.2603 -0.1677 -0.2220
18155SOL    HW155906   4.666   1.292   1.505  0.3126 -0.8805 -0.6038
18155SOL    HW255907   4.791   1.369   1.470  1.3628 -2.4205 -0.3291
18156SOL     OW55908   6.642   7.899   2.431  0.3353  0.4995  0.4430
18156SOL    HW155909   6.559   7.896   2.479  0.4938 -0.6514  0.6563
18156SOL    HW255910   6.651   7.812   2.392  0.6147  1.1502 -1.0146
18157SOL     OW55911   5.054   1.902   2.047 -0.3698  0.0856  0.1784
18157SOL    HW155912   5.057   1.862   1.960 -1.7915  0.9849 -0.3248
18157SOL    HW255913   5.138   1.881   2.087  0.8875  0.8445 -1.9357
18158SOL     OW55914   3.798   0.100   3.491 -0.1172 -0.3079  0.1943
18158SOL    HW155915   3.737   0.057   3.432  0.4991 -1.9828  0.6922
18158SOL    HW255916   3.770   0.074   3.579 -0.6840  1.6772  0.6499
18159SOL     OW55917   7.636   0.220   0.656  0.5839  0.4817  0.5037
18159SOL    HW155918   7.603   0.309   0.665  0.8829  0.7666 -0.9825
18159SOL    HW255919   7.674   0.217   0.568 -0.6929 -1.5235 -0.0427
18160SOL     OW55920   4.143   7.828   2.175 -0.3447  0.0101  0.1064
18160SOL    HW155921   4.196   7.870   2.243 -0.9848  2.2514 -0.6888
18160SOL    HW255922   4.182   7.741   2.164  0.9509  0.2988  1.9676
18161SOL     OW55923   6.556   2.440   2.445  0.3395 -0.4521  0.4059
18161SOL    HW155924   6.494   2.370   2.466  0.0440 -0.7246 -1.2035
18161SOL    HW255925   6.642   2.404   2.466  0.1629 -1.2090 -0.1339
18162SOL     OW55926   5.860   0.146   2.403  0.0598 -0.1920  0.0718
18162SOL    HW155927   5.868   0.156   2.308 -1.7447 -0.0017 -0.0869
18162SOL    HW255928   5.888   0.056   2.420 -0.0651 -0.3856 -0.7012
18163SOL     OW55929   7.885   1.114   2.690 -0.2351  0.4854 -0.0393
18163SOL    HW155930   7.901   1.209   2.685  0.5483  0.3388 -0.5137
18163SOL    HW255931   7.950   1.082   2.753  0.2821  0.1080 -0.7474
18164SOL     OW55932   6.425   0.330   4.666  0.7562 -0.0198  0.7139
18164SOL    HW155933   6.477   0.408   4.682 -1.4721  2.1474 -1.5944
18164SOL    HW255934   6.482   0.273   4.614  1.6717  1.1080  0.4388
18165SOL     OW55935   6.792   1.858   2.386 -0.1915 -0.3559  0.5448
18165SOL    HW155936   6.775   1.952   2.380  0.5248 -0.1977  0.8793
18165SOL    HW255937   6.840   1.848   2.468 -0.2958 -1.0225  0.5303
18166SOL     OW55938   6.936   7.289   4.655 -0.3972  0.0393 -0.0971
18166SOL    HW155939   6.942   7.326   4.567 -0.5127  0.7645  0.1867
18166SOL    HW255940   6.989   7.209   4.651 -2.7241 -1.5487 -1.6094
18167SOL     OW55941   5.145   1.036   4.985  0.1695 -0.0717 -0.6594
18167SOL    HW155942   5.148   1.054   5.079  0.0029 -0.2637 -0.6178
18167SOL    HW255943   5.070   1.086   4.953  0.8694  0.8712 -0.8797
18168SOL     OW55944   5.890   3.389   3.689 -0.0628 -0.1749 -0.3350
18168SOL    HW155945   5.851   3.414   3.605 -2.5044 -0.5022  0.6416
18168SOL    HW255946   5.935   3.469   3.719 -0.5379  0.4348 -1.1968
18169SOL     OW55947   6.452   1.126   3.311  0.4817  0.4986  0.4194
18169SOL    HW155948   6.408   1.043   3.326  0.3220  0.5702  0.3402
18169SOL    HW255949   6.519   1.106   3.245 -0.6677  0.7976 -0.8720
18170SOL     OW55950   6.741   0.744   2.155  0.3871  0.2934 -0.0126
18170SOL    HW155951   6.720   0.820   2.209  0.6602  0.5844 -0.3075
18170SOL    HW255952   6.711   0.669   2.206  1.1772  0.5193  0.8199
18171SOL     OW55953   5.087   7.258   3.656  0.1943  0.5834  0.8899
18171SOL    HW155954   5.031   7.200   3.707  1.1967 -0.7030  0.5781
18171SOL    HW255955   5.120   7.203   3.585 -0.7505  2.1858 -0.8719
18172SOL     OW55956   5.331   6.779   4.554  0.3124  0.3598  0.1389
18172SOL    HW155957   5.245   6.821   4.562 -0.6039 -1.2061 -0.8310
18172SOL    HW255958   5.355   6.792   4.462  0.4185 -0.4541  0.0455
18173SOL     OW55959   4.926   3.186   2.024 -0.6017 -0.8679 -0.1430
18173SOL    HW155960   4.986   3.167   1.952 -0.3345  0.0844 -0.1900
18173SOL    HW255961   4.928   3.282   2.032  1.0621 -1.0171  2.5219
18174SOL     OW55962   5.987   2.502   1.868 -0.0295 -0.5733 -0.5984
18174SOL    HW155963   6.026   2.519   1.782 -1.8321  0.6573 -1.2267
18174SOL    HW255964   6.037   2.557   1.928  0.8268 -0.9554 -0.9456
18175SOL     OW55965   6.607   0.910   3.118  0.5441 -0.1605  0.4220
18175SOL    HW155966   6.670   0.890   3.187  0.7241 -2.0033 -0.2378
18175SOL    HW255967   6.532   0.854   3.137 -1.0536  2.1093  1.2872
18176SOL     OW55968   4.747   1.678   3.508  0.3480  0.0388 -0.7610
18176SOL    HW155969   4.800   1.615   3.460  1.7081  1.6574 -1.4732
18176SOL    HW255970   4.778   1.764   3.479 -1.2412  1.0679  0.3769
18177SOL     OW55971   0.375   2.560   3.809 -0.0147 -0.2586  0.0242
18177SOL    HW155972   0.378   2.645   3.853  2.6187  0.2616 -0.9628
18177SOL    HW255973   0.346   2.580   3.720 -0.4406 -0.5734  0.0879
18178SOL     OW55974   3.546   0.431   3.853  0.2114  0.5343 -0.2397
18178SOL    HW155975   3.584   0.476   3.778  1.5000 -0.4671 -0.2339
18178SOL    HW255976   3.620   0.415   3.911 -0.3116 -0.9532  0.0632
18179SOL     OW55977   4.734   0.954   4.091 -0.7831  0.1666  0.1918
18179SOL    HW155978   4.649   0.995   4.073  0.0625  1.6068 -0.7834
18179SOL    HW255979   4.772   0.939   4.004 -1.1755 -3.1618  0.4592
18180SOL     OW55980   5.336   1.069   3.203  0.0647 -0.1065 -0.1011
18180SOL    HW155981   5.251   1.110   3.188 -0.2464 -0.1799  1.2966
18180SOL    HW255982   5.317   0.994   3.258  0.8793 -0.9807 -0.9627
18181SOL     OW55983   0.043   5.758   3.237 -0.1765  0.1592  0.0105
18181SOL    HW155984   0.040   5.703   3.159  1.5464  0.0904 -0.0429
18181SOL    HW255985   0.046   5.696   3.310  2.0464  0.0830 -0.0590
18182SOL     OW55986   4.707   0.496   3.448  0.4564 -0.5139  0.1399
18182SOL    HW155987   4.647   0.444   3.503 -0.4402 -0.4803 -0.7701
18182SOL    HW255988   4.722   0.442   3.371 -2.0412  1.2542 -1.7482
18183SOL     OW55989   0.008   1.861   2.566 -0.1501 -0.5072  0.0878
18183SOL    HW155990  -0.001   1.954   2.589  1.3329 -0.0117 -1.1605
18183SOL    HW255991   0.043   1.862   2.477 -0.2744 -2.2840 -0.0143
18184SOL     OW55992   5.232   0.750   3.976  0.2844  0.8466 -0.1270
18184SOL    HW155993   5.295   0.717   3.912  1.9626  2.6008  0.5172
18184SOL    HW255994   5.260   0.713   4.059 -0.0566  0.9432  0.0334
18185SOL     OW55995   5.694   0.951   2.694  0.3930  0.2607 -0.2635
18185SOL    HW155996   5.760   0.949   2.764  0.4007 -2.1269 -0.2694
18185SOL    HW255997   5.612   0.931   2.738 -0.0946  1.6173 -0.5185
18186SOL     OW55998   5.691   0.345   3.403 -0.0477 -0.6997  0.1591
18186SOL    HW155999   5.722   0.312   3.319 -0.3957 -0.2836 -0.1375
18186SOL    HW256000   5.719   0.279   3.466  3.4835  0.6965  0.2552
18187SOL     OW56001   6.561   7.581   3.169 -0.6527  0.2488  0.2261
18187SOL    HW156002   6.552   7.675   3.188 -0.9073 -0.0810  1.9099
18187SOL    HW256003   6.650   7.572   3.136 -0.9175  1.1989 -0.8144
18188SOL     OW56004   5.057   2.218   3.010 -0.5625  0.5030  0.0528
18188SOL    HW156005   5.052   2.313   3.001  0.8640  0.5683 -0.3029
18188SOL    HW256006   5.091   2.204   3.098 -1.8898  0.2632  0.5510
18189SOL     OW56007   7.201   4.234   2.373  0.1662 -0.2465 -0.2642
18189SOL    HW156008   7.214   4.326   2.349  0.4059 -0.2027  0.0244
18189SOL    HW256009   7.222   4.230   2.467  0.1940 -0.6014 -0.2822
18190SOL     OW56010   6.614   7.620   2.375 -0.3943 -0.2373 -0.0333
18190SOL    HW156011   6.526   7.645   2.349 -0.6343 -0.3477  0.6403
18190SOL    HW256012   6.601   7.560   2.449  0.2323 -0.5494 -0.1711
18191SOL     OW56013   7.704   7.856   2.613  0.4198 -0.0437 -0.5015
18191SOL    HW156014   7.795   7.849   2.643  0.4675 -0.3717 -0.7239
18191SOL    HW256015   7.711   7.897   2.527  0.5045 -1.7164 -1.3333
18192SOL     OW56016   5.385   7.855   2.989  0.0585 -0.3191  0.6066
18192SOL    HW156017   5.444   7.923   2.955  0.0935 -0.2974  0.7115
18192SOL    HW256018   5.443   7.788   3.025  0.0214 -0.3513  0.6066
18193SOL     OW56019   3.928   2.330   1.394  0.2615 -0.2582 -0.3514
18193SOL    HW156020   3.839   2.343   1.424 -0.0312 -0.6739 -1.0048
18193SOL    HW256021   3.982   2.339   1.472 -0.4135 -0.7081  0.1729
18194SOL     OW56022   6.481   4.005   2.737 -0.0478 -0.0855 -0.4948
18194SOL    HW156023   6.433   3.929   2.768  1.4811 -0.6098  0.7639
18194SOL    HW256024   6.474   4.002   2.642 -2.2143 -0.2727 -0.3737
18195SOL     OW56025   5.830   1.323   5.228  0.3156  0.0342 -0.0567
18195SOL    HW156026   5.739   1.356   5.229 -0.3045 -1.5995  0.2316
18195SOL    HW256027   5.842   1.291   5.139  0.5572  0.0859 -0.0416
18196SOL     OW56028   4.875   0.377   3.251 -0.4708  0.4750  0.2509
18196SOL    HW156029   4.953   0.330   3.222 -1.2465 -0.9777  0.3876
18196SOL    HW256030   4.878   0.460   3.204  0.2739 -0.2658 -1.0797
18197SOL     OW56031   4.794   7.197   2.306  0.1578  0.1220 -0.0115
18197SOL    HW156032   4.765   7.140   2.377 -0.0726  0.4512  0.1622
18197SOL    HW256033   4.826   7.276   2.350  0.4648  0.1306 -0.2498
18198SOL     OW56034   6.360   7.738   4.622  0.0679  0.0141  0.3560
18198SOL    HW156035   6.408   7.783   4.690 -0.1739 -2.1227  2.0583
18198SOL    HW256036   6.300   7.804   4.587  1.6558  1.7197  0.7178
18199SOL     OW56037   6.884   1.394   3.575 -0.0321 -0.6458 -0.0670
18199SOL    HW156038   6.926   1.472   3.538 -0.8074  0.3188  0.9839
18199SOL    HW256039   6.833   1.357   3.503 -1.1869  0.9553 -0.1380
18200SOL     OW56040   6.151   0.382   4.090 -0.0765 -0.6981  0.2313
18200SOL    HW156041   6.165   0.334   4.172 -0.4031  0.2686  0.8766
18200SOL    HW256042   6.202   0.334   4.025  0.4518 -1.2974  1.0635
18201SOL     OW56043   0.005   2.582   3.709 -0.2498  0.3945 -0.0809
18201SOL    HW156044  -0.088   2.585   3.732 -0.4886 -0.4804 -0.8565
18201SOL    HW256045   0.006   2.593   3.614  0.5177  1.3414  0.0234
18202SOL     OW56046   6.784   1.732   4.876 -0.2476  0.0995 -0.0695
18202SOL    HW156047   6.700   1.767   4.905 -0.5621 -0.3526 -0.4215
18202SOL    HW256048   6.789   1.756   4.784  0.6666  1.3777  0.2831
18203SOL     OW56049   6.783   0.882   3.345 -0.0522 -0.5660  0.5058
18203SOL    HW156050   6.796   0.934   3.424  1.2000 -2.2743  1.4898
18203SOL    HW256051   6.861   0.827   3.339 -0.0934 -0.4651 -1.9716
18204SOL     OW56052   6.168   0.937   6.491 -0.4760  1.0365 -0.6033
18204SOL    HW156053   6.171   1.026   6.525  0.3908  1.1592 -0.9588
18204SOL    HW256054   6.245   0.930   6.435 -0.3995 -0.0109 -0.4008
18205SOL     OW56055   4.775   1.113   4.818  0.4395  0.9098 -0.0897
18205SOL    HW156056   4.808   1.098   4.907  0.2465 -0.8033 -0.2782
18205SOL    HW256057   4.706   1.048   4.806  1.1471  0.4109 -1.8374
18206SOL     OW56058   6.432   3.346   5.690 -0.2473  0.1684 -0.0721
18206SOL    HW156059   6.378   3.272   5.662  0.0100 -0.0684  0.0516
18206SOL    HW256060   6.489   3.364   5.616  0.5525 -0.5697  0.3404
18207SOL     OW56061   6.685   1.316   3.341  0.3143  0.6036  0.7326
18207SOL    HW156062   6.640   1.397   3.362 -1.0554 -0.0004  0.2574
18207SOL    HW256063   6.618   1.248   3.349  0.9275 -0.2331 -0.7706
18208SOL     OW56064   6.200   0.546   5.987  0.7267  0.0634  0.1881
18208SOL    HW156065   6.120   0.517   5.943  0.5655  0.4895  0.1874
18208SOL    HW256066   6.169   0.612   6.049  1.0404 -0.0156  0.4291
18209SOL     OW56067   0.060   7.834   3.713 -0.0250 -0.2147 -0.2560
18209SOL    HW156068  -0.033   7.827   3.733  0.1721 -1.1557  0.4118
18209SOL    HW256069   0.085   7.921   3.744 -0.5578 -0.1884  0.1135
18210SOL     OW56070   7.194   1.982   4.735  0.0913  0.0788  0.1237
18210SOL    HW156071   7.158   2.020   4.815 -0.8646 -0.4172 -0.0652
18210SOL    HW256072   7.280   2.024   4.726  0.1385  0.2680  1.3083
18211SOL     OW56073   6.199   2.680   5.307 -0.5322 -0.2277  0.3763
18211SOL    HW156074   6.190   2.652   5.216  3.2640  0.6221 -0.4374
18211SOL    HW256075   6.244   2.607   5.350 -1.0610 -0.0545  1.2559
18212SOL     OW56076   5.737   1.605   2.753  0.9234 -0.1374 -0.5072
18212SOL    HW156077   5.645   1.604   2.779  0.0635  1.4288 -3.1557
18212SOL    HW256078   5.773   1.683   2.795  1.0363 -0.6650  0.4022
18213SOL     OW56079   5.175   0.614   3.510 -0.3818  0.0803  0.4120
18213SOL    HW156080   5.210   0.575   3.430 -1.0054 -0.1570  0.2457
18213SOL    HW256081   5.237   0.589   3.578 -1.1157 -1.8092  0.4320
18214SOL     OW56082   5.265   2.830   4.851  0.2124 -0.0080  0.5113
18214SOL    HW156083   5.298   2.917   4.874 -0.1672  0.6044 -1.1073
18214SOL    HW256084   5.170   2.837   4.862 -0.0238  0.4159 -1.4127
18215SOL     OW56085   7.134   1.626   5.655 -0.1648  0.0664  0.0113
18215SOL    HW156086   7.102   1.645   5.743  0.2642 -0.3610  0.2659
18215SOL    HW256087   7.158   1.711   5.618 -1.8854  0.4543 -0.3194
18216SOL     OW56088   0.253   1.493   5.227  0.7300  0.3918  0.1550
18216SOL    HW156089   0.278   1.521   5.315 -1.5287  2.0048  0.3597
18216SOL    HW256090   0.251   1.574   5.176 -1.6811  0.0502 -0.3822
18217SOL     OW56091   5.141   0.175   3.474  0.5879 -0.2979 -0.0293
18217SOL    HW156092   5.217   0.219   3.436  0.1858  0.0302 -0.4613
18217SOL    HW256093   5.082   0.247   3.498  0.0365 -0.5907 -0.5038
18218SOL     OW56094   0.698   1.608   4.204  0.5567 -0.4289  0.2056
18218SOL    HW156095   0.626   1.666   4.178  0.7177 -0.5579 -0.5510
18218SOL    HW256096   0.758   1.665   4.253 -0.9734 -0.7312  2.6152
18219SOL     OW56097   5.180   0.813   4.837  0.4123 -0.0220  0.1758
18219SOL    HW156098   5.218   0.840   4.754  0.5051 -1.3662 -0.2453
18219SOL    HW256099   5.168   0.895   4.886  0.7429  0.7444 -0.9830
18220SOL     OW56100   0.489   2.570   4.349 -0.3503 -0.1170 -0.3047
18220SOL    HW156101   0.576   2.541   4.323 -0.5242 -0.5540 -0.4181
18220SOL    HW256102   0.502   2.656   4.389  0.3330 -0.8121  1.0425
18221SOL     OW56103   7.265   7.868   3.108 -0.4287 -0.3607  0.1717
18221SOL    HW156104   7.178   7.908   3.115  0.0589  1.0025 -1.0225
18221SOL    HW256105   7.310   7.896   3.187 -0.5125  0.4338 -0.0511
18222SOL     OW56106   4.647   1.484   3.695 -0.0922 -0.0302 -0.3118
18222SOL    HW156107   4.677   1.557   3.640 -1.4470  0.8838  0.1188
18222SOL    HW256108   4.620   1.525   3.777  0.4753 -1.2057  0.4889
18223SOL     OW56109   7.149   0.134   5.424 -0.4111 -0.0965  0.7768
18223SOL    HW156110   7.175   0.103   5.337 -0.5349 -0.0295  0.7150
18223SOL    HW256111   7.228   0.129   5.476 -0.2109  0.3441  0.5244
18224SOL     OW56112   6.210   1.691   5.590  0.2054 -0.0900  0.3927
18224SOL    HW156113   6.243   1.672   5.502 -1.2793 -1.3692  0.0744
18224SOL    HW256114   6.177   1.607   5.622  0.4726  0.4210  2.0767
18225SOL     OW56115   0.072   1.579   3.006 -0.0331 -0.8546  0.1319
18225SOL    HW156116   0.164   1.561   3.025  0.2109 -0.1918 -0.3835
18225SOL    HW256117   0.074   1.639   2.931 -0.8491  0.4901  1.1405
18226SOL     OW56118   7.695   7.805   4.259 -0.3027 -0.5910  0.0108
18226SOL    HW156119   7.774   7.774   4.215 -0.3146 -1.6575  0.7162
18226SOL    HW256120   7.727   7.868   4.323 -0.0739 -0.6735 -0.0201
18227SOL     OW56121   7.430   0.360   4.670 -0.6220 -0.2350 -0.2001
18227SOL    HW156122   7.470   0.418   4.605 -1.7918 -0.0923 -0.8032
18227SOL    HW256123   7.437   0.408   4.753 -1.3075  0.6411 -0.6416
18228SOL     OW56124   7.587   4.505   5.427 -0.1457  0.1902 -0.4562
18228SOL    HW156125   7.505   4.502   5.377 -0.4126 -0.6188  0.0129
18228SOL    HW256126   7.633   4.425   5.402 -0.3642 -0.3179  0.7220
18229SOL     OW56127   5.548   7.816   5.691 -0.3818 -0.2154 -0.1032
18229SOL    HW156128   5.494   7.762   5.749  0.0994  0.3181  0.8766
18229SOL    HW256129   5.485   7.872   5.645 -0.9461 -1.9689 -1.5962
18230SOL     OW56130   7.995   1.636   5.428  1.1981 -0.1752  0.0540
18230SOL    HW156131   7.966   1.725   5.446  0.8005 -0.8323  3.4124
18230SOL    HW256132   8.091   1.643   5.424  1.2427  0.3070  1.3862
18231SOL     OW56133   7.070   2.779   4.131  0.3711  0.0493  0.2985
18231SOL    HW156134   7.137   2.764   4.198 -1.3357 -0.3761  2.0030
18231SOL    HW256135   7.065   2.874   4.122 -1.2785  0.2918  2.9034
18232SOL     OW56136   4.946   0.664   3.998  0.1846  0.3063 -0.2266
18232SOL    HW156137   4.923   0.606   4.071  0.2735 -1.3052 -1.4245
18232SOL    HW256138   5.025   0.709   4.027 -1.3877  1.9786  1.8370
18233SOL     OW56139   5.181   1.964   3.925  0.1403 -0.2321 -0.0964
18233SOL    HW156140   5.238   2.003   3.859 -0.6919  2.0272  0.4244
18233SOL    HW256141   5.093   1.972   3.888 -0.2699  0.4530  0.9881
18234SOL     OW56142   7.260   0.633   1.981  0.0691  0.9207  0.1456
18234SOL    HW156143   7.307   0.714   2.000 -1.1567  1.9165 -0.9382
18234SOL    HW256144   7.168   0.654   1.995 -0.3213 -0.1077 -0.7211
18235SOL     OW56145   4.914   6.668   3.888 -0.0589 -0.2225  0.3663
18235SOL    HW156146   4.848   6.599   3.878 -1.6270  1.3621 -0.8642
18235SOL    HW256147   4.936   6.694   3.799  0.9601  0.4534  0.7917
18236SOL     OW56148   7.511   2.154   3.528 -0.5018  0.1877 -0.5311
18236SOL    HW156149   7.468   2.209   3.463 -1.8701  0.1259  0.2778
18236SOL    HW256150   7.487   2.064   3.505 -0.7917  0.1483 -0.0932
18237SOL     OW56151   5.272   0.865   4.559  0.1599 -0.0023  0.1325
18237SOL    HW156152   5.212   0.800   4.523 -0.0293  0.3947 -0.2868
18237SOL    HW256153   5.221   0.946   4.562  0.9059  0.5393 -1.0116
18238SOL     OW56154   5.441   1.443   5.809 -0.3301 -0.9488 -0.4655
18238SOL    HW156155   5.453   1.414   5.900 -1.0392  0.6346  0.1617
18238SOL    HW256156   5.524   1.484   5.786 -1.0836  1.2818  0.5252
18239SOL     OW56157   5.136   1.522   4.652 -0.3768 -0.2473 -0.3631
18239SOL    HW156158   5.052   1.491   4.686 -0.6764  1.0530  0.1484
18239SOL    HW256159   5.129   1.617   4.653  0.5977 -0.1283 -1.6449
18240SOL     OW56160   3.276   1.870   5.131  0.1769  0.0539 -0.6002
18240SOL    HW156161   3.206   1.807   5.148  1.0306 -0.4560  1.3769
18240SOL    HW256162   3.323   1.835   5.055 -0.7555 -0.4254 -0.9706
18241SOL     OW56163   6.326   1.982   5.059 -0.2652  0.4969 -0.3041
18241SOL    HW156164   6.250   1.995   5.003 -1.2189 -0.3962  0.7215
18241SOL    HW256165   6.298   2.016   5.144  0.1241 -0.6989  0.3181
18242SOL     OW56166   5.918   0.987   3.708 -0.0547 -0.3335 -0.2832
18242SOL    HW156167   6.004   0.983   3.667  0.0952 -0.9442  0.0846
18242SOL    HW256168   5.874   0.907   3.680  0.5117 -1.4258  1.7428
18243SOL     OW56169   6.458   7.786   6.896 -0.5353 -0.3398  0.0216
18243SOL    HW156170   6.480   7.736   6.817 -0.6611  0.3251 -0.4540
18243SOL    HW256171   6.367   7.814   6.882 -0.1440  0.8976 -0.2322
18244SOL     OW56172   5.992   1.132   4.709  0.2823 -0.3552 -0.0637
18244SOL    HW156173   5.954   1.046   4.690  1.0374 -0.3474 -1.7638
18244SOL    HW256174   6.081   1.127   4.675  0.5885  0.8748  0.4874
18245SOL     OW56175   6.012   7.599   5.112 -0.3369  0.2742 -0.7854
18245SOL    HW156176   6.054   7.517   5.139  1.1869  1.3550  0.3557
18245SOL    HW256177   6.073   7.637   5.048 -0.8532  0.6931 -1.0372
18246SOL     OW56178   5.432   2.867   3.531  0.3953  0.7886 -0.0554
18246SOL    HW156179   5.393   2.911   3.606 -1.7883  0.4546 -0.8924
18246SOL    HW256180   5.504   2.923   3.504 -0.4579  2.3047  0.7018
18247SOL     OW56181   7.161   0.414   4.622 -0.2777  0.0363 -1.2296
18247SOL    HW156182   7.135   0.389   4.533  1.6417 -0.0410 -1.8043
18247SOL    HW256183   7.255   0.396   4.626  0.0094  1.5929  0.2690
18248SOL     OW56184   7.639   2.279   4.829  0.0326 -0.0000 -0.2494
18248SOL    HW156185   7.638   2.187   4.856 -0.7839 -0.1341 -0.7083
18248SOL    HW256186   7.548   2.308   4.838  0.4997  1.1511  1.1651
18249SOL     OW56187   4.967   7.852   4.171 -0.7613 -0.0352 -0.3017
18249SOL    HW156188   4.884   7.852   4.219 -1.3372 -0.3260 -1.2422
18249SOL    HW256189   5.025   7.907   4.222 -0.9996 -1.1772  1.2876
18250SOL     OW56190   7.560   0.661   3.254 -0.3695  0.1263 -0.1041
18250SOL    HW156191   7.509   0.588   3.290 -1.4484  1.3951  1.0666
18250SOL    HW256192   7.542   0.660   3.160 -1.3360 -0.3802  0.0791
18251SOL     OW56193   5.754   1.444   6.384  0.1907 -0.3089 -0.1085
18251SOL    HW156194   5.661   1.463   6.385 -0.0779 -1.4730  1.5033
18251SOL    HW256195   5.765   1.378   6.315 -0.0152  0.4323 -0.8662
18252SOL     OW56196   5.470   2.503   4.590  0.2433 -0.0117 -0.5285
18252SOL    HW156197   5.516   2.495   4.673  0.0963  0.7503 -0.3597
18252SOL    HW256198   5.385   2.461   4.605  0.4507 -0.4220 -0.4917
18253SOL     OW56199   5.724   0.797   3.656  0.6746 -0.3841  0.8830
18253SOL    HW156200   5.647   0.772   3.604  0.5491  0.4685  0.6442
18253SOL    HW256201   5.746   0.718   3.706 -0.5488 -0.5352  1.1984
18254SOL     OW56202   6.055   2.004   3.637  0.2493 -0.2229  0.6346
18254SOL    HW156203   6.095   1.971   3.717  0.7135 -0.1185  0.4518
18254SOL    HW256204   5.968   2.034   3.664  0.9318  1.1532  1.3955
18255SOL     OW56205   5.227   3.105   3.341  0.1626 -0.5598 -0.3415
18255SOL    HW156206   5.212   3.118   3.247 -1.8416 -1.1222 -0.1413
18255SOL    HW256207   5.242   3.010   3.349  0.5194 -0.4853 -0.0966
18256SOL     OW56208   6.584   6.999   4.454  0.1394 -0.0648  0.8113
18256SOL    HW156209   6.537   7.009   4.537 -0.0446 -0.7447  0.7952
18256SOL    HW256210   6.635   7.079   4.446 -1.2586  0.8401  0.6733
18257SOL     OW56211   5.736   2.761   5.957 -0.2136  0.0933  0.0589
18257SOL    HW156212   5.647   2.761   5.992  0.4260  0.0434  1.7563
18257SOL    HW256213   5.762   2.853   5.958 -0.0039  0.0321  0.1740
18258SOL     OW56214   6.203   1.604   4.529  0.1162 -0.1100 -0.2899
18258SOL    HW156215   6.276   1.603   4.468  0.8384 -1.2314  0.5611
18258SOL    HW256216   6.183   1.511   4.545 -2.0378  0.1472 -1.1261
18259SOL     OW56217   5.144   6.409   4.050  0.0448  0.0472  0.3579
18259SOL    HW156218   5.147   6.500   4.081  1.8413  0.1229  0.1112
18259SOL    HW256219   5.229   6.396   4.006 -0.6336 -1.4081 -0.6101
18260SOL     OW56220   5.476   1.874   3.638 -0.1812 -0.2503 -0.2339
18260SOL    HW156221   5.404   1.822   3.602  0.1082 -0.8784  0.0777
18260SOL    HW256222   5.516   1.817   3.703 -0.7924  0.9138  1.2272
18261SOL     OW56223   4.385   7.210   3.223 -0.1988 -0.4598  0.3444
18261SOL    HW156224   4.376   7.267   3.147  1.9038  0.2972  0.5978
18261SOL    HW256225   4.336   7.255   3.292 -2.6858 -1.4759 -0.6323
18262SOL     OW56226   5.075   7.522   3.500 -0.5057  0.1004 -0.0524
18262SOL    HW156227   5.057   7.554   3.589  2.1637  1.4469  0.1252
18262SOL    HW256228   5.030   7.438   3.495 -0.0625 -0.4326  2.9294
18263SOL     OW56229   5.156   1.099   4.538  0.3649  0.1464 -0.2440
18263SOL    HW156230   5.210   1.173   4.566 -0.3608  1.1879 -1.4627
18263SOL    HW256231   5.108   1.132   4.462 -1.9027 -0.7276  0.6976
18264SOL     OW56232   6.473   1.238   4.031  0.0152 -0.0608 -0.1111
18264SOL    HW156233   6.562   1.271   4.035 -0.3322  0.8195  0.7907
18264SOL    HW256234   6.420   1.315   4.012 -0.6761 -0.3331  0.6434
18265SOL     OW56235   6.151   0.727   5.735  0.6923  0.4800 -0.0108
18265SOL    HW156236   6.141   0.656   5.672 -0.6923  2.1830 -1.8288
18265SOL    HW256237   6.128   0.688   5.819  1.0491 -1.4663 -0.7554
18266SOL     OW56238   6.178   7.766   4.950 -0.3764 -0.2814  0.5456
18266SOL    HW156239   6.273   7.758   4.954 -0.3438  0.0681  0.4493
18266SOL    HW256240   6.162   7.859   4.937 -0.7752 -0.0664  2.3523
18267SOL     OW56241   7.668   7.198   5.075 -0.2056  0.4495  0.4074
18267SOL    HW156242   7.592   7.140   5.083 -0.5279  1.0119  1.5849
18267SOL    HW256243   7.717   7.186   5.156  0.6563  0.5363 -0.0894
18268SOL     OW56244   5.576   1.022   3.698 -0.1821 -0.3035  0.6603
18268SOL    HW156245   5.648   0.973   3.660 -0.9192 -0.9747  0.1096
18268SOL    HW256246   5.586   1.010   3.792 -0.0364 -1.0662  0.5543
18269SOL     OW56247   4.512   7.335   3.474 -0.7662 -0.0496 -0.8516
18269SOL    HW156248   4.573   7.402   3.442 -0.8372 -0.3937 -1.7280
18269SOL    HW256249   4.426   7.375   3.463 -0.6848  0.9648  1.6182
18270SOL     OW56250   6.435   0.391   3.422 -0.5672  0.0451  0.8412
18270SOL    HW156251   6.368   0.428   3.364 -0.6564 -0.9668  0.2717
18270SOL    HW256252   6.516   0.434   3.394 -0.5100 -0.8432 -0.4602
18271SOL     OW56253   7.200   0.209   4.848 -0.1412  0.1783  0.4553
18271SOL    HW156254   7.158   0.267   4.783  1.3128  0.2810 -0.4431
18271SOL    HW256255   7.249   0.146   4.795 -1.5626 -1.8470  1.4140
18272SOL     OW56256   6.741   3.116   6.357 -0.2717  0.2422  0.1554
18272SOL    HW156257   6.773   3.124   6.267  0.7491  0.8798  0.5552
18272SOL    HW256258   6.746   3.022   6.376 -0.6569  0.0865 -0.5109
18273SOL     OW56259   4.994   0.818   3.491 -0.2271 -0.9838 -0.1525
18273SOL    HW156260   5.053   0.881   3.533 -0.2898 -0.6766 -0.5226
18273SOL    HW256261   5.051   0.745   3.466 -0.3584 -1.6787  1.4398
18274SOL     OW56262   7.033   2.494   4.387  0.2855 -0.2100 -0.0918
18274SOL    HW156263   6.954   2.496   4.440 -0.3627 -0.8508 -1.0078
18274SOL    HW256264   7.011   2.546   4.309  0.9796  0.1206 -0.0810
18275SOL     OW56265   4.134   1.292   3.050 -0.1220 -0.0125  0.8652
18275SOL    HW156266   4.115   1.208   3.093  0.0966 -0.5778 -0.1149
18275SOL    HW256267   4.088   1.286   2.966  1.5168  0.0156 -0.0729
18276SOL     OW56268   4.926   6.747   4.624  0.2376 -0.3736  0.3039
18276SOL    HW156269   4.929   6.843   4.632 -0.2674 -0.3987  0.8800
18276SOL    HW256270   4.993   6.717   4.686  2.7657 -0.3344 -2.1780
18277SOL     OW56271   5.749   1.231   6.140 -0.2429  0.2613 -0.0236
18277SOL    HW156272   5.718   1.142   6.119  1.1239 -0.3511  0.4218
18277SOL    HW256273   5.680   1.288   6.108 -0.8454 -0.9296 -0.9672
18278SOL     OW56274   5.406   0.279   3.429 -0.4303 -0.1728 -0.4326
18278SOL    HW156275   5.404   0.212   3.360 -0.6743  0.1632 -0.7573
18278SOL    HW256276   5.492   0.319   3.421 -0.2946 -0.4241 -0.2573
18279SOL     OW56277   5.991   1.351   3.594 -0.2850  0.1836  0.1146
18279SOL    HW156278   6.062   1.411   3.572  0.4475 -0.5864  0.3168
18279SOL    HW256279   6.019   1.312   3.677  0.7111 -2.6021 -1.4200
18280SOL     OW56280   0.142   1.730   5.785 -0.0064 -0.0040 -0.2520
18280SOL    HW156281   0.186   1.645   5.784  0.6272  0.3069  0.4362
18280SOL    HW256282   0.154   1.764   5.696  0.2263 -0.3842 -0.3688
18281SOL     OW56283   7.319   7.036   4.672  0.4770 -0.4668  0.1255
18281SOL    HW156284   7.366   7.105   4.624 -1.2895  1.0754  0.5011
18281SOL    HW256285   7.303   7.073   4.759 -1.4666 -0.8577 -0.0105
18282SOL     OW56286   7.666   7.831   5.376 -0.3086 -0.0038 -0.3748
18282SOL    HW156287   7.669   7.860   5.467 -2.4166  0.6650 -0.4578
18282SOL    HW256288   7.719   7.751   5.375  1.1782  0.8963  1.0318
18283SOL     OW56289   5.373   0.530   4.507 -0.7867  0.5941  0.2589
18283SOL    HW156290   5.387   0.459   4.569 -0.6282  0.9403  0.6256
18283SOL    HW256291   5.282   0.519   4.478 -0.2144 -0.8395 -1.0925
18284SOL     OW56292   6.876   2.774   3.605 -0.5777  1.3418 -0.9047
18284SOL    HW156293   6.844   2.786   3.695  1.9364  0.9724  0.1339
18284SOL    HW256294   6.881   2.679   3.595  0.1495  1.3933 -1.0418
18285SOL     OW56295   0.706   0.623   2.062 -0.1619 -0.1502  0.1535
18285SOL    HW156296   0.620   0.601   2.099  0.1957 -1.5433  0.2141
18285SOL    HW256297   0.728   0.708   2.101 -1.8837  0.6720 -0.5277
18286SOL     OW56298   6.411   1.948   4.554  0.0757 -0.4937 -0.1747
18286SOL    HW156299   6.477   2.016   4.541  1.5203 -1.2592  2.5570
18286SOL    HW256300   6.455   1.879   4.603 -2.5139 -1.4234  1.0629
18287SOL     OW56301   4.857   2.073   4.123 -0.3263  0.3037 -0.1551
18287SOL    HW156302   4.764   2.085   4.105 -0.5648 -1.1381  0.0040
18287SOL    HW256303   4.890   2.024   4.047 -0.0086 -0.4084  0.4311
18288SOL     OW56304   6.982   1.594   5.220 -0.3960 -0.0074 -0.0475
18288SOL    HW156305   6.975   1.690   5.221  0.2441  0.0897 -1.4679
18288SOL    HW256306   6.916   1.566   5.158 -0.4402 -0.4778  0.2107
18289SOL     OW56307   5.958   2.671   4.331  0.1810 -0.0183 -0.4940
18289SOL    HW156308   6.029   2.635   4.383  0.8369  0.1668 -1.2475
18289SOL    HW256309   5.935   2.600   4.270 -0.3969 -0.1382 -0.1443
18290SOL     OW56310   6.233   1.527   3.083 -0.0366  0.4148 -0.2902
18290SOL    HW156311   6.147   1.556   3.112  0.1909  1.0837 -0.2824
18290SOL    HW256312   6.271   1.486   3.161  0.1339  1.2148  0.0533
18291SOL     OW56313   7.361   0.440   3.121  0.2824  0.3744 -0.1860
18291SOL    HW156314   7.320   0.480   3.198 -0.2118  0.9058 -0.7125
18291SOL    HW256315   7.375   0.513   3.060  0.2753 -0.1023 -0.7722
18292SOL     OW56316   7.825   0.758   3.569  0.1284  0.3035  0.6276
18292SOL    HW156317   7.856   0.804   3.647  1.7635 -0.2594  0.3618
18292SOL    HW256318   7.753   0.811   3.536 -0.0465  0.9885  2.0486
18293SOL     OW56319   6.018   1.765   4.148  0.0575  0.6752 -0.4088
18293SOL    HW156320   5.965   1.686   4.146  0.4531  0.4001 -0.2388
18293SOL    HW256321   5.967   1.828   4.200 -0.6767  0.8478 -1.3232
18294SOL     OW56322   3.096   7.441   5.797 -0.0441  0.1883  0.3435
18294SOL    HW156323   3.018   7.409   5.842  0.5531 -1.5595  0.2202
18294SOL    HW256324   3.114   7.374   5.731  1.9320  0.2423  0.7894
18295SOL     OW56325   6.357   0.625   4.089 -0.1955  0.0134 -0.1338
18295SOL    HW156326   6.352   0.715   4.122 -1.3613 -0.7402  2.0011
18295SOL    HW256327   6.277   0.584   4.122  0.9071 -2.1376  0.0315
18296SOL     OW56328   6.118   2.287   4.911 -0.3942 -0.0718  0.2279
18296SOL    HW156329   6.149   2.265   4.823  0.4637  0.3567  0.4082
18296SOL    HW256330   6.057   2.217   4.933 -0.8005 -0.0693 -0.7931
18297SOL     OW56331   7.119   1.531   4.010  0.0725  0.1490 -0.3995
18297SOL    HW156332   7.036   1.527   4.058 -0.5748 -1.4938 -1.5608
18297SOL    HW256333   7.098   1.498   3.923  1.4477  2.0351 -1.5242
18298SOL     OW56334   6.348   7.997   4.816 -0.0135 -0.2226 -0.1827
18298SOL    HW156335   6.348   8.038   4.902 -0.2104  0.5638 -0.5521
18298SOL    HW256336   6.285   8.048   4.765 -1.7763 -2.1713 -0.0965
18299SOL     OW56337   5.706   0.115   4.825  0.1270  0.3780  0.5541
18299SOL    HW156338   5.613   0.126   4.804  0.0109  0.0211  0.8836
18299SOL    HW256339   5.738   0.052   4.760  0.2505  0.8416  0.1536
18300SOL     OW56340   0.309   1.714   5.043  0.0072  0.2681 -0.6807
18300SOL    HW156341   0.403   1.705   5.059 -0.4593 -0.2169  2.4331
18300SOL    HW256342   0.297   1.806   5.020  1.1763  0.4417 -0.6858
18301SOL     OW56343   7.755   1.788   3.522  0.3799  0.5483  0.4195
18301SOL    HW156344   7.810   1.729   3.574  0.3030  1.6244  1.7756
18301SOL    HW256345   7.713   1.731   3.458  2.2516 -0.4716  0.0124
18302SOL     OW56346   6.712   1.665   4.245 -0.0377 -0.1764  0.0836
18302SOL    HW156347   6.794   1.682   4.293 -0.9607  1.2279  1.2328
18302SOL    HW256348   6.741   1.642   4.157  1.5878  0.9832  0.2676
18303SOL     OW56349   6.831   7.828   3.839 -0.0453  0.0004  0.6370
18303SOL    HW156350   6.892   7.878   3.786 -0.7390  1.7529  1.4228
18303SOL    HW256351   6.846   7.858   3.929 -0.5672 -1.1203  1.1216
18304SOL     OW56352   7.800   0.758   6.179  0.2337 -0.2106 -0.0027
18304SOL    HW156353   7.755   0.731   6.260  0.2978 -0.3047  0.0013
18304SOL    HW256354   7.846   0.838   6.204 -1.9215  1.3027 -0.6479
18305SOL     OW56355   6.153   0.694   5.395 -0.2426 -0.1212  0.3041
18305SOL    HW156356   6.151   0.754   5.321 -0.4173  0.6032  0.8752
18305SOL    HW256357   6.210   0.737   5.459 -1.4798  0.1453  1.2827
18306SOL     OW56358   4.386   7.963   5.395  0.4118  0.3402  0.1898
18306SOL    HW156359   4.374   8.052   5.361 -1.0909 -0.4663 -1.5636
18306SOL    HW256360   4.466   7.968   5.447 -0.2395  2.9723  1.1040
18307SOL     OW56361   5.078   2.398   3.710 -0.3091  0.6086  0.1124
18307SOL    HW156362   5.121   2.339   3.772  0.7901  0.4113 -0.8044
18307SOL    HW256363   5.038   2.466   3.764 -2.5829 -1.5207  1.3044
18308SOL     OW56364   5.861   0.216   5.427 -0.2633  0.2241  0.0004
18308SOL    HW156365   5.915   0.267   5.366  2.1731 -1.4452  0.6146
18308SOL    HW256366   5.864   0.126   5.394 -0.3356 -0.4071  1.6084
18309SOL     OW56367   7.205   0.838   3.444 -0.4484 -0.2383  0.4074
18309SOL    HW156368   7.165   0.855   3.359 -0.5190 -3.0163 -0.2284
18309SOL    HW256369   7.298   0.858   3.433 -0.4583 -0.5991 -0.3407
18310SOL     OW56370   7.064   1.025   2.097 -0.3712 -0.1252  0.1953
18310SOL    HW156371   7.118   1.062   2.027 -0.5126 -0.4464 -0.0866
18310SOL    HW256372   7.011   1.098   2.129 -0.1159  0.0808  0.1465
18311SOL     OW56373   5.634   2.494   5.901 -0.0159  0.5002  0.0171
18311SOL    HW156374   5.548   2.475   5.938 -2.1821 -0.0059 -4.6217
18311SOL    HW256375   5.636   2.589   5.892  0.0119  0.5234  0.2485
18312SOL     OW56376   6.502   1.674   3.102  0.1911  0.3218  0.0285
18312SOL    HW156377   6.420   1.629   3.081 -0.0125  0.0014  1.4607
18312SOL    HW256378   6.570   1.618   3.066 -0.1422 -0.2412  0.2626
18313SOL     OW56379   6.844   0.216   6.225 -0.4916  0.0190 -0.2569
18313SOL    HW156380   6.860   0.147   6.289  0.2170  0.4877  0.0888
18313SOL    HW256381   6.762   0.257   6.251  0.6497  1.3632  1.4319
18314SOL     OW56382   5.680   0.449   5.204 -0.5645 -0.5315 -0.1572
18314SOL    HW156383   5.705   0.528   5.252 -1.3702  0.0358 -0.6502
18314SOL    HW256384   5.741   0.445   5.130 -1.1738  0.2199 -0.7187
18315SOL     OW56385   7.634   3.470   4.328  0.1076  0.1625 -0.0549
18315SOL    HW156386   7.545   3.477   4.292 -0.4952 -1.3297  1.0302
18315SOL    HW256387   7.624   3.414   4.405  2.0063 -0.0640  0.0669
18316SOL     OW56388   4.801   7.861   3.510 -0.1694 -0.2594 -0.0446
18316SOL    HW156389   4.867   7.908   3.459  0.4113  0.9389  1.7130
18316SOL    HW256390   4.720   7.909   3.494  0.2118  0.7568  0.8853
18317SOL     OW56391   5.779   0.550   5.745  0.1457 -0.1581 -0.1009
18317SOL    HW156392   5.808   0.576   5.658 -1.1918 -0.3777 -0.6406
18317SOL    HW256393   5.715   0.616   5.770  0.0472 -0.4479  0.4433
18318SOL     OW56394   7.570   2.706   4.351  0.4807  0.1008 -0.0595
18318SOL    HW156395   7.585   2.626   4.402  0.5451  0.0639 -0.1357
18318SOL    HW256396   7.652   2.719   4.303 -0.3333 -1.0912 -1.8602
18319SOL     OW56397   5.732   2.551   4.474 -0.1766 -0.2742  0.0062
18319SOL    HW156398   5.751   2.595   4.391 -1.4435  0.6076  0.1544
18319SOL    HW256399   5.638   2.537   4.473 -0.7596  2.4383  2.4978
18320SOL     OW56400   7.763   0.379   2.260  0.1578  0.1369  0.0228
18320SOL    HW156401   7.772   0.341   2.347  2.2478  0.2952 -0.0811
18320SOL    HW256402   7.837   0.438   2.251 -0.3899  0.6452 -1.6207
18321SOL     OW56403   5.299   0.629   4.207 -0.1244 -0.1089  0.1161
18321SOL    HW156404   5.299   0.667   4.295  1.1934  1.9863 -0.6962
18321SOL    HW256405   5.373   0.568   4.207  1.1020  1.3242 -0.0456
18322SOL     OW56406   5.965   2.285   4.349 -0.4555 -0.0093 -1.0902
18322SOL    HW156407   6.020   2.343   4.297 -2.2895  1.9314 -0.9857
18322SOL    HW256408   5.894   2.260   4.290 -1.1096  0.0354 -0.3325
18323SOL     OW56409   3.892   7.341   3.970 -0.1015 -0.6530  0.2752
18323SOL    HW156410   3.805   7.349   3.931 -1.5455 -2.7942  2.7795
18323SOL    HW256411   3.900   7.249   3.995  2.2190 -0.1840  1.5996
18324SOL     OW56412   7.551   0.158   4.362  0.1009 -0.1923  0.0173
18324SOL    HW156413   7.601   0.153   4.280  0.9945 -0.7386  0.5880
18324SOL    HW256414   7.493   0.233   4.349 -0.2313 -0.6458 -1.3681
18325SOL     OW56415   6.937   5.554   6.012  0.2980 -0.0056 -0.2252
18325SOL    HW156416   6.930   5.533   5.919 -0.3930 -0.3056 -0.1097
18325SOL    HW256417   6.915   5.473   6.058 -1.4712  0.6556  0.2112
18326SOL     OW56418   7.836   2.284   3.617  0.0174  0.0540 -0.0573
18326SOL    HW156419   7.768   2.325   3.670  1.2016  0.4036  1.2214
18326SOL    HW256420   7.917   2.324   3.646  0.8138 -0.4500 -1.4755
18327SOL     OW56421   3.244   7.084   2.452 -0.4895 -0.7857  0.3911
18327SOL    HW156422   3.330   7.093   2.412 -0.4081 -1.2803  0.4568
18327SOL    HW256423   3.204   7.170   2.441  0.6446 -0.0325  1.8142
18328SOL     OW56424   5.410   1.135   4.333  0.1393  0.0078  0.2427
18328SOL    HW156425   5.420   1.124   4.428  2.2957  0.5443  0.1172
18328SOL    HW256426   5.351   1.063   4.307  0.4414 -0.8510  1.8143
18329SOL     OW56427   5.404   3.308   4.505 -0.0203 -0.3422 -0.1396
18329SOL    HW156428   5.475   3.307   4.569  0.4583 -0.6726 -0.6673
18329SOL    HW256429   5.361   3.223   4.516  0.6062 -0.7559 -0.8522
18330SOL     OW56430   5.650   7.934   4.216 -0.3241 -0.1638  0.4782
18330SOL    HW156431   5.734   7.893   4.196  0.4498  1.0882  1.0441
18330SOL    HW256432   5.603   7.933   4.133  0.8579  0.4983 -0.2334
18331SOL     OW56433   4.862   0.192   4.269 -0.1386  0.0526 -0.0352
18331SOL    HW156434   4.811   0.217   4.192  1.0429  0.5878 -0.6609
18331SOL    HW256435   4.803   0.206   4.343 -1.0540  0.1947 -0.7835
18332SOL     OW56436   4.547   0.087   5.992 -0.2186  0.2926 -0.1345
18332SOL    HW156437   4.578   0.002   6.021 -1.1143 -0.6418 -1.7773
18332SOL    HW256438   4.625   0.142   5.991  0.5138 -0.7121  0.2243
18333SOL     OW56439   6.793   1.441   5.852  0.5438 -0.6973 -0.4341
18333SOL    HW156440   6.784   1.478   5.764  1.5003  1.0653  0.1531
18333SOL    HW256441   6.704   1.436   5.885  0.1437 -1.6153 -1.5568
18334SOL     OW56442   6.831   0.446   5.755 -0.8129  0.2070  0.1876
18334SOL    HW156443   6.901   0.502   5.788 -1.0160  0.9063 -0.5449
18334SOL    HW256444   6.873   0.389   5.691 -0.3376 -1.4268  1.8646
18335SOL     OW56445   7.463   1.227   4.015 -0.3433  0.0197 -0.6212
18335SOL    HW156446   7.455   1.323   4.014 -0.5747  0.0329  0.5736
18335SOL    HW256447   7.381   1.197   4.054  0.6501 -0.5041  1.2241
18336SOL     OW56448   2.433   1.787   6.682 -0.2913 -0.0466  0.4149
18336SOL    HW156449   2.412   1.876   6.654 -0.1135  0.5117  1.9631
18336SOL    HW256450   2.348   1.744   6.693 -0.4223  0.2667  0.6551
18337SOL     OW56451   7.029   0.789   2.906  0.6767  0.4496  0.4742
18337SOL    HW156452   7.071   0.725   2.963  2.2876  1.8246  0.9022
18337SOL    HW256453   7.024   0.869   2.958  3.2364  2.1031 -1.5238
18338SOL     OW56454   6.954   3.042   5.158 -0.4793 -0.3008 -0.2606
18338SOL    HW156455   6.891   2.991   5.209 -2.9067  1.8371 -0.9021
18338SOL    HW256456   6.935   3.021   5.067 -0.0477  0.1554 -0.4633
18339SOL     OW56457   3.624   1.584   5.696 -0.2479 -0.9495 -0.4725
18339SOL    HW156458   3.612   1.496   5.659  1.4418 -1.5040  0.2069
18339SOL    HW256459   3.696   1.621   5.645 -1.1880  0.2126 -0.9975
18340SOL     OW56460   4.097   0.022   2.584  0.3259  0.5914 -0.1550
18340SOL    HW156461   4.122  -0.001   2.673  0.2746 -0.1108 -0.3145
18340SOL    HW256462   4.161   0.088   2.557  1.1794 -0.1884 -0.0781
18341SOL     OW56463   6.246   7.938   5.806 -0.1366 -0.6714  0.8140
18341SOL    HW156464   6.158   7.903   5.794  0.5456 -1.8688 -1.1770
18341SOL    HW256465   6.304   7.862   5.799  1.1088  0.2056  1.1849
18342SOL     OW56466   7.096   1.726   2.857 -0.2399 -0.5024 -0.2701
18342SOL    HW156467   7.014   1.773   2.873  0.9451  2.1112 -1.2871
18342SOL    HW256468   7.119   1.688   2.942 -1.4151  0.5221  0.5465
18343SOL     OW56469   7.083   0.120   4.166  0.0211 -0.2381  0.0106
18343SOL    HW156470   7.066   0.199   4.115 -1.0057 -0.2172  0.3690
18343SOL    HW256471   7.178   0.107   4.159  0.4955  1.9955  1.3437
18344SOL     OW56472   5.684   2.045   4.521 -0.4102 -0.0043 -0.1378
18344SOL    HW156473   5.693   2.136   4.548 -0.7531 -0.0588  0.1621
18344SOL    HW256474   5.590   2.030   4.515 -0.3886  0.3164 -2.4236
18345SOL     OW56475   4.679   0.242   4.475 -0.4428 -0.5034 -0.3045
18345SOL    HW156476   4.678   0.296   4.554 -0.5068 -1.3123  0.2603
18345SOL    HW256477   4.685   0.152   4.508 -0.8468 -0.8679 -1.2090
18346SOL     OW56478   5.563   0.498   4.019 -0.1578  0.0815  0.1470
18346SOL    HW156479   5.575   0.427   3.956  0.3606  0.4776 -0.2124
18346SOL    HW256480   5.563   0.455   4.104  0.4560 -0.3256 -0.0497
18347SOL     OW56481   6.053   7.648   4.291  0.1803 -0.1357  0.3969
18347SOL    HW156482   6.145   7.658   4.266 -0.0984 -0.5994 -0.9021
18347SOL    HW256483   6.030   7.560   4.261 -0.9815  0.3792 -0.2795
18348SOL     OW56484   6.150   2.183   4.612  0.1967  0.3906  0.0532
18348SOL    HW156485   6.229   2.211   4.565  1.1199 -1.0660  0.6405
18348SOL    HW256486   6.084   2.171   4.543  1.2715 -0.8545 -0.8210
18349SOL     OW56487   4.592   0.493   6.003  0.0569 -0.3168  0.3044
18349SOL    HW156488   4.670   0.541   6.029 -0.7810  0.3259  1.7368
18349SOL    HW256489   4.589   0.502   5.907  2.0142 -0.8402  0.1497
18350SOL     OW56490   0.428   0.776   2.429  0.3779  0.0640 -0.4179
18350SOL    HW156491   0.504   0.828   2.404 -0.5210  2.0067  0.6481
18350SOL    HW256492   0.457   0.724   2.503  0.9960 -0.1709 -0.8163
18351SOL     OW56493   7.698   1.266   6.040 -0.7038 -0.4859  0.1852
18351SOL    HW156494   7.696   1.362   6.044 -0.3209 -0.4450 -0.5352
18351SOL    HW256495   7.620   1.239   6.088 -0.3146  0.1600  1.2444
18352SOL     OW56496   5.342   0.847   3.634 -0.0108 -0.5338  0.6082
18352SOL    HW156497   5.413   0.911   3.636 -0.4501  0.0277 -0.8105
18352SOL    HW256498   5.368   0.781   3.698  0.7241  0.7579  1.7207
18353SOL     OW56499   0.011   2.078   4.491 -0.2472  0.2039  0.3735
18353SOL    HW156500  -0.034   2.157   4.521 -0.3086 -0.2761  1.6248
18353SOL    HW256501   0.055   2.045   4.569 -2.0481 -2.2304  0.4846
18354SOL     OW56502   6.748   0.161   3.967  0.4972 -0.2566  0.1587
18354SOL    HW156503   6.697   0.197   4.039  0.7772  0.7829 -0.1503
18354SOL    HW256504   6.749   0.066   3.983 -0.6802 -0.1900  0.7020
18355SOL     OW56505   5.170   7.730   6.078 -0.0413  0.1648 -0.1526
18355SOL    HW156506   5.191   7.745   6.170 -0.6389  1.3072 -0.1812
18355SOL    HW256507   5.179   7.636   6.066  1.8523  0.2047  0.6099
18356SOL     OW56508   7.427   2.447   4.121  0.0757 -0.1139  0.0364
18356SOL    HW156509   7.378   2.399   4.188  0.8587 -1.1019 -0.0776
18356SOL    HW256510   7.396   2.410   4.038 -0.3646  0.6047 -0.1335
18357SOL     OW56511   5.785   0.076   3.469 -0.4471  0.2133  0.1723
18357SOL    HW156512   5.791  -0.016   3.497  1.3347  0.5148  0.8837
18357SOL    HW256513   5.758   0.070   3.377 -0.3461 -1.0336  0.1981
18358SOL     OW56514   4.502   2.547   3.599 -0.2337 -0.0066  0.4959
18358SOL    HW156515   4.440   2.543   3.526  0.0138  1.2162  0.1943
18358SOL    HW256516   4.456   2.507   3.672  0.0666 -2.7286 -0.6768
18359SOL     OW56517   7.373   1.934   3.870  0.1765 -0.3834  0.4483
18359SOL    HW156518   7.305   1.917   3.935 -0.1757  1.2644  0.5529
18359SOL    HW256519   7.334   2.000   3.812  1.1039 -0.5961 -0.4312
18360SOL     OW56520   4.428   0.287   3.847  0.3861  0.1403  0.6155
18360SOL    HW156521   4.507   0.259   3.893  1.7457  0.6169 -1.3336
18360SOL    HW256522   4.382   0.205   3.826  0.3865 -0.1432  1.6563
18361SOL     OW56523   6.320   1.451   3.856  0.1711  0.4557 -0.0164
18361SOL    HW156524   6.284   1.514   3.918  0.4402  1.0579 -0.4583
18361SOL    HW256525   6.391   1.499   3.813 -1.1486  0.6890 -2.0777
18362SOL     OW56526   5.445   0.917   5.547  0.4472 -0.1779  0.5433
18362SOL    HW156527   5.375   0.857   5.521 -0.3955  2.0418 -2.9498
18362SOL    HW256528   5.402   1.002   5.553  2.6191  1.1157 -0.9805
18363SOL     OW56529   7.292   7.687   5.430 -0.1788 -0.0617  0.4024
18363SOL    HW156530   7.275   7.634   5.508 -1.0652  0.5793  0.6499
18363SOL    HW256531   7.342   7.628   5.372  0.2696 -0.6219  1.3321
18364SOL     OW56532   4.815   0.671   3.641  0.4053  0.9549  0.3499
18364SOL    HW156533   4.888   0.709   3.593 -0.1421  2.2119  0.4555
18364SOL    HW256534   4.762   0.628   3.574  1.0209  0.3874  0.2186
18365SOL     OW56535   6.960   0.852   3.571  0.1823  0.7724 -0.0504
18365SOL    HW156536   7.048   0.889   3.559  0.3957  0.0541 -0.8064
18365SOL    HW256537   6.920   0.906   3.640  2.6384 -1.3481  3.3268
18366SOL     OW56538   4.096   1.650   5.230 -1.0024  0.4266 -0.1025
18366SOL    HW156539   4.156   1.668   5.158 -0.9062 -0.0651 -0.1493
18366SOL    HW256540   4.134   1.696   5.305  0.4688 -1.3636  0.3269
18367SOL     OW56541   6.461   1.622   4.342 -1.2271  0.2894 -0.1515
18367SOL    HW156542   6.498   1.627   4.430 -1.5083 -1.0044  0.0613
18367SOL    HW256543   6.534   1.642   4.284 -1.0579  1.2377  0.3585
18368SOL     OW56544   6.183   7.915   4.508 -0.0897 -0.3371 -0.7686
18368SOL    HW156545   6.215   7.999   4.541 -1.0067  0.2927 -1.4252
18368SOL    HW256546   6.093   7.933   4.479 -0.5265 -1.6970 -0.3482
18369SOL     OW56547   4.447   0.393   3.199 -0.1125 -0.2793 -0.6408
18369SOL    HW156548   4.417   0.362   3.285 -0.7673 -0.3414 -0.8844
18369SOL    HW256549   4.421   0.323   3.138  0.0062 -0.0614 -0.9430
18370SOL     OW56550   0.813   1.318   3.965 -0.0095 -0.2127 -0.6444
18370SOL    HW156551   0.809   1.237   4.015 -0.3770  0.7269  0.9013
18370SOL    HW256552   0.906   1.335   3.954  0.0811 -1.2279 -1.6764
18371SOL     OW56553   4.665   1.584   3.000  0.1165 -0.1044  0.6723
18371SOL    HW156554   4.644   1.665   3.046 -0.2365  0.2128 -0.0389
18371SOL    HW256555   4.637   1.599   2.910 -1.8714 -1.7232  0.9339
18372SOL     OW56556   7.908   3.132   3.932 -0.3881 -0.2412 -0.4846
18372SOL    HW156557   7.941   3.066   3.871  0.8717 -0.5510  0.4892
18372SOL    HW256558   7.822   3.157   3.897 -2.8669 -5.2410  1.1188
18373SOL     OW56559   4.370   0.220   3.416 -0.1395 -0.2037  0.6988
18373SOL    HW156560   4.288   0.215   3.465  0.3452 -0.3268  1.5109
18373SOL    HW256561   4.437   0.186   3.476  0.6852  0.9084  0.4473
18374SOL     OW56562   5.852   1.551   4.703  0.6513  0.6545 -0.4154
18374SOL    HW156563   5.773   1.496   4.704  0.7669 -0.1178 -5.4238
18374SOL    HW256564   5.819   1.640   4.716 -0.6581  0.1119  0.1803
18375SOL     OW56565   6.455   7.753   5.463 -0.2200  0.0600 -0.1871
18375SOL    HW156566   6.513   7.722   5.393  0.2141  0.6336 -0.0917
18375SOL    HW256567   6.458   7.848   5.457 -0.5018  0.1101  0.3528
18376SOL     OW56568   6.203   0.185   4.648 -0.5952 -0.1266 -0.0625
18376SOL    HW156569   6.276   0.248   4.649 -0.9710  0.3289 -0.4679
18376SOL    HW256570   6.127   0.238   4.624 -0.6008 -1.0559 -2.3512
18377SOL     OW56571   6.297   1.572   5.331  0.0748  0.1075 -0.2307
18377SOL    HW156572   6.384   1.532   5.332 -0.4966 -1.3064 -1.8369
18377SOL    HW256573   6.288   1.608   5.243 -0.7862  0.6707  0.0712
18378SOL     OW56574   1.260   1.755   3.155  0.1578 -0.4101  0.0801
18378SOL    HW156575   1.299   1.697   3.221 -1.3887  0.4840  1.8670
18378SOL    HW256576   1.281   1.843   3.185 -2.5468  0.0941  0.7974
18379SOL     OW56577   6.662   0.768   4.247  0.1427 -0.5743 -0.2448
18379SOL    HW156578   6.726   0.776   4.317 -1.7002 -0.8101  1.5772
18379SOL    HW256579   6.625   0.855   4.238  0.6769 -0.4378 -1.2873
18380SOL     OW56580   6.977   7.214   5.103  0.0344 -0.0189 -0.0903
18380SOL    HW156581   7.005   7.123   5.098  2.8879  0.6707  1.1745
18380SOL    HW256582   6.910   7.223   5.034 -0.3864 -3.0238 -0.1901
18381SOL     OW56583   7.360   6.839   5.423 -1.0493  0.3576  0.1063
18381SOL    HW156584   7.271   6.850   5.388 -1.7414 -1.2760  1.2061
18381SOL    HW256585   7.359   6.752   5.464  0.7752  0.7068  1.0053
18382SOL     OW56586   7.414   7.913   5.328  0.3934  0.0256  0.1661
18382SOL    HW156587   7.366   7.837   5.360  1.4703 -0.3241  1.0097
18382SOL    HW256588   7.506   7.890   5.339  0.7971  0.4732 -1.9098
18383SOL     OW56589   7.724   0.918   4.824 -0.4455  0.1680 -0.2944
18383SOL    HW156590   7.653   0.955   4.876  0.5696  3.4338 -1.0191
18383SOL    HW256591   7.682   0.855   4.766 -2.0436 -1.2689  2.2345
18384SOL     OW56592   6.487   1.047   4.631 -0.0489 -0.2085 -0.0088
18384SOL    HW156593   6.561   1.103   4.656  0.4210 -0.3447 -1.0673
18384SOL    HW256594   6.460   1.079   4.545 -1.8045  0.4053  0.7290
18385SOL     OW56595   5.260   0.948   4.203 -0.2227 -0.2369  0.5137
18385SOL    HW156596   5.240   0.854   4.204 -0.7636 -0.1481 -0.4787
18385SOL    HW256597   5.176   0.989   4.184  0.0055  0.4529  0.9943
18386SOL     OW56598   5.963   1.788   3.362  0.3653 -0.0467 -0.0098
18386SOL    HW156599   6.029   1.781   3.432  0.4001 -1.0327 -0.1362
18386SOL    HW256600   5.885   1.821   3.406  1.0413  1.5776  0.0670
18387SOL     OW56601   7.348   1.271   2.454  0.2082  0.4763 -0.3089
18387SOL    HW156602   7.270   1.326   2.453 -0.5304 -0.3498  2.7931
18387SOL    HW256603   7.421   1.333   2.447 -0.6379  1.7319  1.3956
18388SOL     OW56604   4.911   1.493   3.389  0.4125 -0.0689 -0.0431
18388SOL    HW156605   4.966   1.553   3.339  0.5468 -1.3947 -1.5687
18388SOL    HW256606   4.910   1.413   3.337 -1.0078 -0.8849  1.1675
18389SOL     OW56607   7.184   1.230   6.312  0.2759  0.1462  0.0002
18389SOL    HW156608   7.111   1.174   6.339  1.4622 -1.3219  0.3427
18389SOL    HW256609   7.176   1.236   6.216 -1.1281  1.2718  0.1601
18390SOL     OW56610   7.205   0.663   4.804  0.2758 -0.1681  0.3519
18390SOL    HW156611   7.171   0.737   4.755 -0.3337 -0.1600  0.7780
18390SOL    HW256612   7.234   0.601   4.737 -0.4750 -0.1259 -0.0263
18391SOL     OW56613   5.987   7.540   4.514  0.4133  0.4507 -0.2686
18391SOL    HW156614   6.005   7.602   4.443  2.3286  0.7087  0.3739
18391SOL    HW256615   5.968   7.595   4.590  1.8477  0.2937  0.2359
18392SOL     OW56616   5.656   0.477   4.502  0.1566 -0.4025 -0.1462
18392SOL    HW156617   5.639   0.565   4.534  1.0753  0.1327 -1.0841
18392SOL    HW256618   5.612   0.473   4.417 -0.8885 -1.2738  0.3962
18393SOL     OW56619   5.199   1.371   3.954 -0.1335  0.4271  0.1606
18393SOL    HW156620   5.223   1.451   4.001 -0.2644 -0.1983  1.3008
18393SOL    HW256621   5.262   1.306   3.984 -0.7535 -0.1988  0.1077
18394SOL     OW56622   7.150   7.508   3.441  0.2617  0.9845  0.0553
18394SOL    HW156623   7.080   7.562   3.477 -0.7117 -0.3772  0.2816
18394SOL    HW256624   7.105   7.444   3.385  1.3663  0.3798 -0.1714
18395SOL     OW56625   7.467   0.966   5.717  0.4659  0.2741 -0.2187
18395SOL    HW156626   7.392   0.924   5.674  0.8202 -0.8680  0.2286
18395SOL    HW256627   7.431   1.045   5.756 -0.9558 -1.1193  1.5069
18396SOL     OW56628   7.160   0.178   3.347 -0.5512 -0.3544  0.0633
18396SOL    HW156629   7.171   0.214   3.259 -0.2935  1.0560  0.6447
18396SOL    HW256630   7.247   0.182   3.386 -0.7029 -0.7654  0.4525
18397SOL     OW56631   5.285   6.315   4.440 -0.3103  0.3001 -0.2328
18397SOL    HW156632   5.356   6.371   4.471  0.8452 -1.5066  0.5244
18397SOL    HW256633   5.325   6.261   4.371 -0.3792 -1.9747  1.3932
18398SOL     OW56634   6.822   2.330   2.920  0.1577  0.2246 -0.2417
18398SOL    HW156635   6.737   2.309   2.958  0.6020 -1.5226 -0.1361
18398SOL    HW256636   6.805   2.403   2.861 -1.3360  0.1459  0.0598
18399SOL     OW56637   5.723   0.754   4.970  0.6763 -0.1397 -0.4323
18399SOL    HW156638   5.664   0.830   4.967  0.2529 -0.4013  0.7180
18399SOL    HW256639   5.664   0.679   4.979  1.1765 -0.4174  0.5835
18400SOL     OW56640   5.790   7.046   5.031 -0.1139  1.0127 -0.1306
18400SOL    HW156641   5.821   6.967   5.076 -0.0048  2.1999  1.9965
18400SOL    HW256642   5.697   7.029   5.013 -0.0412  0.3377  0.1277
18401SOL     OW56643   6.054   0.823   3.954 -0.0804  0.3757 -0.1839
18401SOL    HW156644   6.021   0.912   3.954  1.0882  0.8289 -0.4853
18401SOL    HW256645   5.983   0.771   3.916 -0.3652  1.3381 -1.0129
18402SOL     OW56646   6.589   7.172   5.491  0.2767  0.7057 -0.2739
18402SOL    HW156647   6.521   7.130   5.543  0.8494  0.2594  0.1325
18402SOL    HW256648   6.545   7.244   5.447 -0.4191  0.5246  0.1145
18403SOL     OW56649   2.882   7.847   3.956  0.1301  0.4683  0.0745
18403SOL    HW156650   2.814   7.843   3.889  0.2247 -1.5402  0.0144
18403SOL    HW256651   2.945   7.779   3.930  2.8485  3.0177 -0.5420
18404SOL     OW56652   5.520   2.728   1.856 -0.0455 -0.4468 -0.3067
18404SOL    HW156653   5.615   2.714   1.847  0.1468 -1.0077  1.8842
18404SOL    HW256654   5.485   2.711   1.769  1.6482 -2.2788 -0.7120
18405SOL     OW56655   5.839   7.937   4.653 -0.4432  0.7251 -0.3436
18405SOL    HW156656   5.761   7.914   4.602 -0.4646 -0.8490  0.3335
18405SOL    HW256657   5.892   7.857   4.651  0.7459  1.4936 -0.0472
18406SOL     OW56658   4.950   3.040   5.330 -0.3633  0.4622 -0.0117
18406SOL    HW156659   4.868   3.000   5.360 -0.6902  1.8256  1.0305
18406SOL    HW256660   4.952   3.125   5.373  1.9964  0.1592  0.6477
18407SOL     OW56661   5.594   6.171   5.070  0.0567 -0.1980 -0.3668
18407SOL    HW156662   5.656   6.174   4.997  1.4108  0.4393  0.7705
18407SOL    HW256663   5.640   6.122   5.138 -0.0507  1.5690  1.0342
18408SOL     OW56664   4.810   3.058   6.332  0.3185  0.0221  0.1099
18408SOL    HW156665   4.905   3.067   6.340  0.4677 -0.8579 -0.5090
18408SOL    HW256666   4.798   2.979   6.279 -0.7384  0.8421 -0.9193
18409SOL     OW56667   6.083   0.865   5.175 -0.5896  0.0920 -0.2000
18409SOL    HW156668   6.147   0.933   5.193  0.5477 -0.6003 -1.4543
18409SOL    HW256669   6.038   0.894   5.096 -0.0440 -0.6143 -0.7890
18410SOL     OW56670   6.190   1.828   5.825 -0.7511  0.1284  0.2119
18410SOL    HW156671   6.195   1.784   5.740 -3.3791 -0.4058  0.2512
18410SOL    HW256672   6.203   1.920   5.806 -1.1835 -0.0077 -0.7842
18411SOL     OW56673   5.158   7.442   4.082  0.3546 -0.0571 -0.5218
18411SOL    HW156674   5.187   7.443   3.990  0.3597  0.1133 -0.5174
18411SOL    HW256675   5.087   7.378   4.083 -0.0199  0.3527 -0.7574
18412SOL     OW56676   6.798   2.129   5.247  0.1359 -0.9577 -0.6622
18412SOL    HW156677   6.707   2.106   5.224  0.3570 -0.9823 -1.5662
18412SOL    HW256678   6.819   2.071   5.320 -1.0566  0.0568  0.5311
18413SOL     OW56679   6.036   1.493   6.435  0.0590 -0.0367 -0.1891
18413SOL    HW156680   5.946   1.477   6.408 -0.2390  4.0827 -2.5823
18413SOL    HW256681   6.082   1.516   6.354  2.1472  2.0045  1.4294
18414SOL     OW56682   6.738   1.434   2.698 -0.1295 -0.4691  0.0736
18414SOL    HW156683   6.693   1.477   2.771 -2.0653  0.1842 -1.4442
18414SOL    HW256684   6.830   1.458   2.710 -0.3269 -0.5726  2.3996
18415SOL     OW56685   5.338   0.290   6.945  0.1291  0.1433 -0.0277
18415SOL    HW156686   5.295   0.211   6.979  2.5768 -1.6170 -0.7253
18415SOL    HW256687   5.336   0.351   7.018 -1.7946 -0.5283  0.5563
18416SOL     OW56688   6.924   7.133   6.279 -0.2811  0.0062 -0.1811
18416SOL    HW156689   6.866   7.082   6.223 -0.0518  0.2074 -0.6016
18416SOL    HW256690   6.999   7.153   6.225  0.5872 -0.9754  0.6163
18417SOL     OW56691   4.888   0.402   6.406 -0.7142  0.0949  0.0352
18417SOL    HW156692   4.897   0.334   6.339 -1.8148 -0.9261  0.8966
18417SOL    HW256693   4.798   0.433   6.396 -0.3878  1.0903  0.0009
18418SOL     OW56694   5.888   0.328   7.823  0.2899 -0.3967  0.7834
18418SOL    HW156695   5.802   0.302   7.789  0.4908  1.3235 -1.2117
18418SOL    HW256696   5.870   0.403   7.880  0.5934  1.6596 -1.6562
18419SOL     OW56697   5.909   1.125   5.578  0.1385  0.4130 -0.8037
18419SOL    HW156698   5.830   1.163   5.617 -0.4264  0.2973 -1.8043
18419SOL    HW256699   5.937   1.058   5.640 -1.3622 -0.5155 -1.0861
18420SOL     OW56700   5.338   3.653   4.246 -0.5481  0.0025 -0.0450
18420SOL    HW156701   5.275   3.582   4.236 -1.4305  0.0725  3.7037
18420SOL    HW256702   5.307   3.721   4.187 -1.6223 -1.4312 -1.2209
18421SOL     OW56703   6.568   0.941   7.487 -0.3489 -0.4429 -0.3514
18421SOL    HW156704   6.478   0.952   7.457  0.2369  2.1067 -1.4339
18421SOL    HW256705   6.608   1.027   7.474  2.0353 -1.2880  0.8547
18422SOL     OW56706   6.074   1.503   4.852 -0.2972 -0.0305 -0.4526
18422SOL    HW156707   6.145   1.451   4.816 -0.0843  0.5601 -0.9140
18422SOL    HW256708   6.002   1.492   4.789  0.2817  1.5076 -1.4460
18423SOL     OW56709   5.490   1.275   5.005  0.0567  0.3994  0.2036
18423SOL    HW156710   5.500   1.180   4.999 -2.1064  0.1628 -0.4794
18423SOL    HW256711   5.508   1.295   5.096  3.6715 -0.1545 -0.2174
18424SOL     OW56712   5.319   0.840   6.528  0.1351 -0.2143  0.0779
18424SOL    HW156713   5.409   0.808   6.529  1.1762  2.4642  0.5380
18424SOL    HW256714   5.267   0.763   6.505  2.4493 -1.9978  0.3462
18425SOL     OW56715   6.744   1.101   4.995 -0.2398 -0.9298 -0.0046
18425SOL    HW156716   6.654   1.108   5.028 -0.3973 -0.2041 -0.5696
18425SOL    HW256717   6.741   1.027   4.935 -0.6423 -0.4444 -0.5899
18426SOL     OW56718   0.546   6.591   5.264  0.5218 -0.5199 -0.1274
18426SOL    HW156719   0.474   6.530   5.278 -0.2662 -0.1973 -2.4570
18426SOL    HW256720   0.550   6.641   5.346 -3.1586  0.6891 -0.4994
18427SOL     OW56721   7.543   2.196   4.482 -0.0334  0.4002 -0.4562
18427SOL    HW156722   7.574   2.117   4.526  2.2461  1.3371 -0.2689
18427SOL    HW256723   7.505   2.165   4.400  0.2598 -0.9346 -0.1082
18428SOL     OW56724   0.264   0.111   5.915  0.3731 -0.1477 -0.3508
18428SOL    HW156725   0.306   0.026   5.924  0.1718 -0.0627  2.2336
18428SOL    HW256726   0.332   0.174   5.942 -0.4753  0.2118  1.0345
18429SOL     OW56727   7.607   1.457   5.807  0.2445  0.1393  0.6501
18429SOL    HW156728   7.666   1.492   5.740 -1.0322 -0.1041 -0.6450
18429SOL    HW256729   7.618   1.362   5.801 -1.8972 -0.0748 -1.2403
18430SOL     OW56730   4.778   0.808   7.664 -0.2056  0.0646  0.2402
18430SOL    HW156731   4.849   0.834   7.606  0.4607  0.6178  1.2743
18430SOL    HW256732   4.709   0.777   7.605  1.4186 -1.9236 -0.7423
18431SOL     OW56733   6.640   0.405   6.547  0.8364  0.4686 -0.4685
18431SOL    HW156734   6.697   0.361   6.611  0.4139 -0.1033 -0.4781
18431SOL    HW256735   6.600   0.476   6.597 -0.7308 -0.9449  0.3784
18432SOL     OW56736   5.340   0.495   7.140 -0.2611 -0.1956  0.4159
18432SOL    HW156737   5.345   0.500   7.236 -1.4733 -0.1182  0.4864
18432SOL    HW256738   5.331   0.586   7.112  0.6680 -0.1628  0.1681
18433SOL     OW56739   4.302   1.342   6.540  0.4120  0.2381  0.0903
18433SOL    HW156740   4.315   1.362   6.632  1.5203 -0.6589  0.1383
18433SOL    HW256741   4.272   1.251   6.539  2.3555 -0.4453 -0.5148
18434SOL     OW56742   5.327   1.968   6.166  0.3423 -0.2226 -0.4667
18434SOL    HW156743   5.246   1.958   6.115 -0.0346 -0.5495  0.1830
18434SOL    HW256744   5.299   1.955   6.256  1.1025 -0.1891 -0.2270
18435SOL     OW56745   0.006   1.396   5.148 -0.2315 -0.2709 -0.3814
18435SOL    HW156746   0.094   1.429   5.167 -0.3194 -1.1057  1.7670
18435SOL    HW256747  -0.043   1.411   5.229 -1.4142 -1.9088 -0.7407
18436SOL     OW56748   6.604   1.049   8.148  0.8388  0.0150  0.4858
18436SOL    HW156749   6.573   0.973   8.197 -0.6141  0.7123  0.6867
18436SOL    HW256750   6.528   1.107   8.142  1.9709  1.5764  0.5701
18437SOL     OW56751   0.622   7.227   8.632 -0.2939  0.4888  0.4563
18437SOL    HW156752   0.678   7.260   8.561 -0.4423  1.0160  0.5782
18437SOL    HW256753   0.668   7.150   8.665 -0.0199  0.4757  0.0563
18438SOL     OW56754   7.366   1.078   6.756 -0.2014 -0.0798 -0.7587
18438SOL    HW156755   7.442   1.066   6.812 -0.7407 -0.4654 -0.0914
18438SOL    HW256756   7.393   1.045   6.670  0.0969 -1.0254 -0.3097
18439SOL     OW56757   7.563   1.038   7.213 -0.5009  0.0011 -0.2115
18439SOL    HW156758   7.567   1.103   7.143 -2.8506  0.3334 -0.1330
18439SOL    HW256759   7.553   0.954   7.167 -0.1590  0.0096 -0.2981
18440SOL     OW56760   6.318   7.959   6.655  0.4067 -0.2795  0.7111
18440SOL    HW156761   6.381   7.890   6.635 -1.1731 -1.4466 -0.4867
18440SOL    HW256762   6.266   7.925   6.727  0.6389  0.3635  1.1957
18441SOL     OW56763   4.977   7.509   5.059 -0.1203  0.4431  0.2875
18441SOL    HW156764   4.980   7.539   5.150 -1.2094 -0.8940  0.8150
18441SOL    HW256765   4.950   7.586   5.009  0.3188  1.1543  1.1268
18442SOL     OW56766   6.867   3.136   6.130  0.2274 -0.4338 -0.5949
18442SOL    HW156767   6.798   3.118   6.066 -0.4496 -0.8431  0.2410
18442SOL    HW256768   6.914   3.053   6.139  0.3565 -0.3613 -0.5917
18443SOL     OW56769   5.441   1.438   7.418  0.1333  0.2342 -0.0616
18443SOL    HW156770   5.430   1.343   7.420 -1.0396  0.3574  0.7730
18443SOL    HW256771   5.496   1.455   7.341  2.1389 -1.2620  0.9459
18444SOL     OW56772   6.760   0.281   6.768 -0.6707 -0.1355  0.3809
18444SOL    HW156773   6.815   0.205   6.748 -1.1917 -0.0569 -1.5924
18444SOL    HW256774   6.724   0.263   6.855  0.2163 -1.5367  0.4849
18445SOL     OW56775   5.273   7.878   8.115  0.2946 -0.0800 -0.0762
18445SOL    HW156776   5.268   7.921   8.030  2.2422 -0.5683 -0.4799
18445SOL    HW256777   5.225   7.796   8.104 -0.7898  0.5444 -0.2026
18446SOL     OW56778   7.806   7.591   5.345  0.3631 -0.3403  0.6909
18446SOL    HW156779   7.859   7.562   5.419  1.2187  0.6141  0.4716
18446SOL    HW256780   7.858   7.567   5.268  0.5334  0.6624  0.4763
18447SOL     OW56781   5.703   1.293   5.693  0.0067 -0.1512  0.1941
18447SOL    HW156782   5.736   1.216   5.739 -0.3687 -0.6431 -0.3520
18447SOL    HW256783   5.744   1.367   5.738  1.5566 -0.7204 -0.2258
18448SOL     OW56784   5.757   1.433   6.770 -0.3145  0.5729 -0.2884
18448SOL    HW156785   5.754   1.424   6.865  1.3301 -0.6475 -0.3018
18448SOL    HW256786   5.679   1.386   6.739 -1.3011  1.6567  0.4510
18449SOL     OW56787   4.053   1.161   6.730  0.6714 -0.4239  0.4353
18449SOL    HW156788   3.973   1.135   6.683  0.6447  0.6716 -0.1546
18449SOL    HW256789   4.124   1.118   6.682  0.3903 -2.4577  1.7171
18450SOL     OW56790   5.010   0.475   5.967  0.0159  0.3992 -0.3808
18450SOL    HW156791   5.007   0.458   5.873 -1.5533 -0.6105 -0.1826
18450SOL    HW256792   5.102   0.467   5.990  0.3245 -0.0923 -1.7005
18451SOL     OW56793   0.411   0.062   6.568  0.0926  0.1732 -0.6828
18451SOL    HW156794   0.398  -0.033   6.566 -0.5356  0.1004  2.3449
18451SOL    HW256795   0.327   0.098   6.539  0.6063 -0.1165 -2.6915
18452SOL     OW56796   6.565   0.366   6.045 -0.2278  0.3813 -0.1447
18452SOL    HW156797   6.593   0.330   5.961 -1.3559 -0.8741 -0.0176
18452SOL    HW256798   6.627   0.331   6.108 -1.0887 -1.0724 -0.0777
18453SOL     OW56799   7.151   7.676   6.864  0.6282 -0.3558 -0.0188
18453SOL    HW156800   7.117   7.631   6.786  1.0694  1.4939 -1.3638
18453SOL    HW256801   7.073   7.710   6.907  0.4886  1.8889 -1.8281
18454SOL     OW56802   7.167   1.552   7.420 -0.3511 -0.0245  0.6522
18454SOL    HW156803   7.172   1.463   7.453  1.5987 -0.1795  0.1058
18454SOL    HW256804   7.259   1.579   7.410 -0.8884  1.8666  0.3456
18455SOL     OW56805   4.769   2.556   5.617 -0.0945  0.0415 -0.4946
18455SOL    HW156806   4.681   2.540   5.583 -0.6538 -0.3414  1.0407
18455SOL    HW256807   4.778   2.651   5.619 -1.2581  0.1638  1.1205
18456SOL     OW56808   7.418   7.485   7.975 -0.0910 -0.2486 -0.0237
18456SOL    HW156809   7.459   7.520   7.896 -0.8066 -1.1794 -0.8378
18456SOL    HW256810   7.325   7.504   7.965  0.0263  1.5192  1.6354
18457SOL     OW56811   7.364   0.131   5.579 -0.4446 -0.0814  0.1039
18457SOL    HW156812   7.384   0.054   5.633  0.4294  0.8905  1.2362
18457SOL    HW256813   7.430   0.195   5.604 -2.1286  1.6301  0.4216
18458SOL     OW56814   5.624   0.677   5.369 -0.4054 -0.4652  0.1931
18458SOL    HW156815   5.602   0.736   5.441  1.4576  2.8302 -1.7197
18458SOL    HW256816   5.712   0.703   5.342 -0.5035 -2.4653 -2.4427
18459SOL     OW56817   0.130   0.863   7.065 -0.4650  0.9069 -0.1266
18459SOL    HW156818   0.051   0.909   7.093 -0.3819  1.0459 -0.1243
18459SOL    HW256819   0.158   0.907   6.985 -0.2009  1.0699  0.0531
18460SOL     OW56820   5.490   1.723   6.367  0.3833  0.1449 -0.4246
18460SOL    HW156821   5.442   1.644   6.392  1.8507 -0.6468 -0.0542
18460SOL    HW256822   5.429   1.794   6.387  0.0964 -0.6863  1.9846
18461SOL     OW56823   7.386   1.429   5.125 -0.7997 -0.5953  0.3927
18461SOL    HW156824   7.365   1.522   5.123 -0.3346 -0.4866  0.4086
18461SOL    HW256825   7.304   1.387   5.150 -0.9288 -0.1625  0.7202
18462SOL     OW56826   6.500   7.604   7.137 -0.1237 -0.2339 -0.0414
18462SOL    HW156827   6.592   7.581   7.120 -0.3372  0.2630 -2.2170
18462SOL    HW256828   6.467   7.631   7.051 -1.7398  1.6508  1.1132
18463SOL     OW56829   7.324   3.025   3.716 -0.1364 -0.5878  0.3648
18463SOL    HW156830   7.312   3.014   3.811  1.6041  0.6021  0.7815
18463SOL    HW256831   7.389   2.959   3.693  0.1202 -0.2692  0.1803
18464SOL     OW56832   7.105   2.489   5.936 -0.6337  0.1964 -0.0321
18464SOL    HW156833   7.019   2.447   5.925  0.5956 -2.1689 -1.3048
18464SOL    HW256834   7.151   2.433   5.998  0.0698  1.3971  0.5718
18465SOL     OW56835   4.966   7.530   5.323 -0.0693  0.2254  0.0090
18465SOL    HW156836   4.927   7.540   5.409 -1.0780 -1.3451 -0.2202
18465SOL    HW256837   4.999   7.439   5.321 -0.3531  0.1200 -1.3453
18466SOL     OW56838   5.335   1.085   7.338  0.4189 -0.1319  0.2522
18466SOL    HW156839   5.275   1.043   7.275  0.4667  0.4468 -0.1964
18466SOL    HW256840   5.413   1.104   7.287  0.1926  0.9881  0.2885
18467SOL     OW56841   6.861   1.979   5.457  0.1879  0.1853  0.2823
18467SOL    HW156842   6.787   1.921   5.475  2.5114 -3.0830  0.0794
18467SOL    HW256843   6.877   2.023   5.541 -0.4706 -0.8720  0.9834
18468SOL     OW56844   5.581   2.037   4.847 -0.0496  0.4978 -0.3677
18468SOL    HW156845   5.521   2.033   4.922 -0.2624 -0.8185 -0.5863
18468SOL    HW256846   5.525   2.058   4.772 -0.0849  0.2985 -0.3991
18469SOL     OW56847   0.003   7.774   6.739 -0.3458  0.0786  0.1907
18469SOL    HW156848  -0.030   7.690   6.771 -0.5148  0.2842  0.5573
18469SOL    HW256849   0.043   7.816   6.815  0.9823 -0.2621 -0.2967
18470SOL     OW56850   5.259   7.764   6.329 -0.3425 -0.7909 -0.4541
18470SOL    HW156851   5.350   7.733   6.333 -0.3450 -0.9364 -1.2580
18470SOL    HW256852   5.255   7.837   6.391  0.4855 -0.3897 -0.8554
18471SOL     OW56853   7.482   6.691   6.336 -0.0448 -0.2219 -1.2547
18471SOL    HW156854   7.574   6.715   6.350 -0.4486  1.7610 -1.6070
18471SOL    HW256855   7.468   6.704   6.242 -0.3269 -2.0224 -1.4998
18472SOL     OW56856   7.467   1.674   4.530  0.6023  0.2088 -0.2916
18472SOL    HW156857   7.519   1.615   4.477 -0.1557 -1.4029  0.6634
18472SOL    HW256858   7.486   1.648   4.621  0.4297  1.6065  0.1671
18473SOL     OW56859   0.534   7.969   7.221 -0.0071 -0.7004 -0.1814
18473SOL    HW156860   0.482   8.039   7.262  1.6425  0.4778  0.0113
18473SOL    HW256861   0.485   7.946   7.142  0.4145  2.2413 -1.4308
18474SOL     OW56862   5.505   0.132   6.082 -0.3422  0.1172  0.1853
18474SOL    HW156863   5.439   0.123   6.014 -0.2344  0.1833  0.0731
18474SOL    HW256864   5.460   0.179   6.153 -1.0231 -1.5318  0.9131
18475SOL     OW56865   7.723   7.829   6.953 -0.1720 -0.3473  0.2009
18475SOL    HW156866   7.640   7.863   6.986 -0.9977 -1.1516 -0.9631
18475SOL    HW256867   7.788   7.858   7.017 -1.4958 -0.6780  1.7608
18476SOL     OW56868   4.492   1.951   6.163 -0.2146 -0.6190  0.1534
18476SOL    HW156869   4.570   1.964   6.109  1.1296 -1.6534  1.7173
18476SOL    HW256870   4.477   1.856   6.159 -1.6284 -0.3888 -0.3908
18477SOL     OW56871   7.833   0.383   5.661 -0.2724  0.1974 -0.2471
18477SOL    HW156872   7.879   0.415   5.584  0.3892  0.0015  0.0546
18477SOL    HW256873   7.852   0.447   5.729 -0.1398 -0.0739 -0.0242
18478SOL     OW56874   5.359   0.870   5.239 -0.0714 -0.2928  0.5976
18478SOL    HW156875   5.320   0.790   5.204 -2.2301  1.2076 -0.7292
18478SOL    HW256876   5.373   0.852   5.332  0.7974 -2.6271  0.0770
18479SOL     OW56877   6.277   7.104   6.168  0.1529  0.0357 -0.1646
18479SOL    HW156878   6.361   7.124   6.210  1.0647 -0.7245 -1.5738
18479SOL    HW256879   6.251   7.185   6.125  1.6371 -0.4840 -2.1468
18480SOL     OW56880   5.885   0.024   7.087  0.3281 -0.4917 -0.1960
18480SOL    HW156881   5.889   0.118   7.105  0.4812 -0.4996 -0.1886
18480SOL    HW256882   5.843   0.018   7.001 -0.2555 -0.4459  0.0744
18481SOL     OW56883   7.608   0.993   5.985  0.0459  0.2331 -0.1293
18481SOL    HW156884   7.614   1.088   5.990  0.2012  0.1982  0.3823
18481SOL    HW256885   7.532   0.971   6.038  0.0651  0.0625 -0.1718
18482SOL     OW56886   5.549   1.323   5.255 -0.5557  0.1091 -0.3405
18482SOL    HW156887   5.474   1.369   5.292  0.5214  0.3777  1.6059
18482SOL    HW256888   5.585   1.271   5.327 -0.5806 -2.3603 -1.9677
18483SOL     OW56889   7.189   1.153   6.038  0.1871 -0.3810 -0.0717
18483SOL    HW156890   7.167   1.062   6.021 -2.0478 -0.0759  0.7861
18483SOL    HW256891   7.122   1.203   5.990  1.0447  0.7976 -0.0921
18484SOL     OW56892   4.050   1.550   3.429  0.1662 -0.0122 -0.0715
18484SOL    HW156893   4.020   1.611   3.362  0.9094  0.6642  0.1914
18484SOL    HW256894   4.011   1.582   3.510 -1.8540 -1.6141 -0.3282
18485SOL     OW56895   4.552   7.234   6.115 -0.0087 -0.0360  0.3863
18485SOL    HW156896   4.566   7.252   6.022 -1.5141 -2.1269 -0.3239
18485SOL    HW256897   4.638   7.250   6.155  0.6631  0.9821 -1.3118
18486SOL     OW56898   6.240   7.306   6.609  0.1312 -0.4405 -0.1079
18486SOL    HW156899   6.241   7.247   6.684  0.4132  1.0612  1.1272
18486SOL    HW256900   6.288   7.383   6.639 -0.1660  0.3912 -1.6801
18487SOL     OW56901   3.994   0.009   5.183 -0.5357  0.1774 -0.5720
18487SOL    HW156902   3.931   0.079   5.165 -0.4944  0.0462 -1.2668
18487SOL    HW256903   4.029  -0.014   5.097 -0.7157 -0.8507 -0.3896
18488SOL     OW56904   4.962   7.648   6.350 -0.2366 -0.0262  0.6500
18488SOL    HW156905   4.927   7.713   6.412  0.9355 -0.1155  1.4253
18488SOL    HW256906   5.052   7.676   6.334 -0.3855 -0.2513 -0.7159
18489SOL     OW56907   7.669   0.775   6.795 -0.1253 -0.3609 -0.3827
18489SOL    HW156908   7.735   0.707   6.808 -1.1844 -1.1615  1.0190
18489SOL    HW256909   7.605   0.735   6.736  0.0980  0.0541 -0.9209
18490SOL     OW56910   7.086   0.567   5.402 -0.2197 -0.3275 -0.4500
18490SOL    HW156911   7.075   0.588   5.495 -0.1694  1.1333 -0.7410
18490SOL    HW256912   7.158   0.624   5.374 -1.4496  0.6107 -1.7946
18491SOL     OW56913   1.219   0.715   4.359  0.1228  0.2196 -0.0415
18491SOL    HW156914   1.216   0.768   4.438  0.7748 -0.7387  0.6571
18491SOL    HW256915   1.298   0.662   4.369 -0.4576 -0.8165 -0.7336
18492SOL     OW56916   5.291   2.772   3.909  0.3287 -0.0200  0.1015
18492SOL    HW156917   5.316   2.862   3.927 -0.0758  0.0224  0.4602
18492SOL    HW256918   5.260   2.773   3.818  3.5898 -0.4802 -1.1679
18493SOL     OW56919   5.855   1.553   4.187 -0.5133 -0.0968  0.3724
18493SOL    HW156920   5.763   1.527   4.177 -0.2392 -0.8366 -0.3375
18493SOL    HW256921   5.876   1.529   4.277 -0.4930 -1.7000 -0.0340
18494SOL     OW56922   6.039   0.738   4.202  0.1263  0.4584 -0.6331
18494SOL    HW156923   5.964   0.777   4.247 -0.9805 -1.7525 -0.4129
18494SOL    HW256924   6.030   0.767   4.111 -1.1939 -0.0171 -0.6728
18495SOL     OW56925   6.607   0.954   5.620 -0.6322 -0.0756  0.0434
18495SOL    HW156926   6.610   0.928   5.712  1.0710 -0.4089 -0.0760
18495SOL    HW256927   6.586   1.048   5.622 -1.1830 -0.2117  0.7374
18496SOL     OW56928   6.660   1.607   7.848 -0.1221  0.2194  0.3407
18496SOL    HW156929   6.719   1.613   7.922 -0.4707  0.7977  0.5839
18496SOL    HW256930   6.716   1.615   7.771  0.1603  0.3468  0.5614
18497SOL     OW56931   6.712   0.923   6.799 -0.6995  0.3315  0.4558
18497SOL    HW156932   6.787   0.888   6.751 -0.4315 -0.2481  1.2665
18497SOL    HW256933   6.750   0.964   6.876 -0.8792  3.6688 -1.0655
18498SOL     OW56934   6.233   0.941   4.691  0.6585 -0.1233 -0.6308
18498SOL    HW156935   6.223   0.898   4.776 -0.9446 -0.7106 -1.0785
18498SOL    HW256936   6.324   0.971   4.690  0.5593  0.4427  1.5345
18499SOL     OW56937   7.273   7.724   4.960 -0.4302  0.2931 -0.5263
18499SOL    HW156938   7.215   7.688   4.893  1.2630  1.7209 -2.9001
18499SOL    HW256939   7.308   7.647   5.005 -2.4975 -0.6581 -0.4426
18500SOL     OW56940   7.289   0.428   6.440 -0.3928  0.2566 -0.4167
18500SOL    HW156941   7.213   0.406   6.386 -1.6119  1.2013  0.8187
18500SOL    HW256942   7.255   0.425   6.530  0.4845  2.6606  0.0631
18501SOL     OW56943   5.611   1.190   7.551 -0.3425 -0.3824  0.3664
18501SOL    HW156944   5.565   1.122   7.600 -1.1839  0.8404  1.3300
18501SOL    HW256945   5.630   1.258   7.615 -1.6646  1.3788 -0.9844
18502SOL     OW56946   7.299   0.718   5.360  0.2345  0.2145  0.1270
18502SOL    HW156947   7.307   0.811   5.336  2.3077 -0.3524 -1.7378
18502SOL    HW256948   7.390   0.687   5.364 -0.4180 -1.7716  0.6233
18503SOL     OW56949   2.671   1.099   6.127 -0.7549 -0.6801  0.1175
18503SOL    HW156950   2.618   1.105   6.207 -2.4031 -0.2844 -0.9691
18503SOL    HW256951   2.612   1.062   6.061  0.9914 -2.3778 -0.5910
18504SOL     OW56952   7.221   0.816   6.762  0.5531  0.5973 -0.1898
18504SOL    HW156953   7.171   0.803   6.681 -0.7508  1.6306  0.4100
18504SOL    HW256954   7.250   0.907   6.758  1.4094  0.3472  0.0265
18505SOL     OW56955   5.312   2.188   7.120 -0.2642  0.0969  0.2137
18505SOL    HW156956   5.340   2.277   7.141  0.2120 -0.0777  0.3543
18505SOL    HW256957   5.294   2.148   7.205  1.9385 -0.6994  0.3869
18506SOL     OW56958   6.740   7.951   5.588 -0.4491  0.4424 -0.1137
18506SOL    HW156959   6.728   7.890   5.661  1.3601 -1.1446 -1.0648
18506SOL    HW256960   6.824   7.926   5.549 -0.4579  2.4886 -1.5772
18507SOL     OW56961   5.975   0.268   6.498 -0.3608  0.2960 -0.4379
18507SOL    HW156962   6.047   0.234   6.550 -0.8072 -0.5452 -0.3554
18507SOL    HW256963   6.017   0.321   6.430  0.4997 -1.8839 -1.7032
18508SOL     OW56964   6.758   2.215   4.992 -0.1333 -0.0304 -0.2663
18508SOL    HW156965   6.785   2.195   5.081 -1.7698 -0.3078  0.2004
18508SOL    HW256966   6.695   2.286   5.001 -0.7323 -0.4249 -1.1265
18509SOL     OW56967   6.506   1.419   5.831 -0.2097 -0.0772  0.7219
18509SOL    HW156968   6.423   1.408   5.879  0.5443 -1.0876  1.8481
18509SOL    HW256969   6.511   1.513   5.814 -0.8537  0.2265  2.0346
18510SOL     OW56970   7.019   0.559   6.390  0.3328  0.0324 -0.4939
18510SOL    HW156971   6.927   0.567   6.366 -0.4745 -0.6758  2.0591
18510SOL    HW256972   7.043   0.470   6.365 -0.7344 -0.9874  1.8561
18511SOL     OW56973   4.440   7.050   3.455 -0.7034 -0.6137 -0.1995
18511SOL    HW156974   4.364   7.070   3.509 -1.3629  1.3538 -1.7485
18511SOL    HW256975   4.455   7.129   3.403  2.1026 -1.1280 -0.3362
18512SOL     OW56976   3.972   0.434   8.481  0.4029  0.3325  0.3483
18512SOL    HW156977   3.917   0.374   8.430 -0.4222  1.7866 -0.5427
18512SOL    HW256978   3.958   0.408   8.572  0.5633 -1.2139 -0.0337
18513SOL     OW56979   5.419   0.867   6.169  0.1420 -0.0194 -0.4451
18513SOL    HW156980   5.352   0.925   6.204 -1.0079 -1.3252 -0.4058
18513SOL    HW256981   5.478   0.852   6.243 -0.8347 -0.7062  0.2149
18514SOL     OW56982   7.279   7.580   7.408  1.0549 -0.1610 -0.0547
18514SOL    HW156983   7.258   7.506   7.465 -0.9352  0.1707 -0.2761
18514SOL    HW256984   7.218   7.649   7.434 -0.2076 -0.1057 -2.7611
18515SOL     OW56985   7.189   7.936   7.806  0.7736  0.0112  0.3550
18515SOL    HW156986   7.229   7.851   7.787 -1.1388 -0.5050 -1.8596
18515SOL    HW256987   7.119   7.916   7.869 -1.4997 -0.6875 -2.1975
18516SOL     OW56988   4.979   7.278   5.517 -0.2539  0.4323  0.1403
18516SOL    HW156989   4.918   7.228   5.463  0.0421 -0.4088  0.5791
18516SOL    HW256990   4.939   7.280   5.604  0.3935 -0.2234  0.4588
18517SOL     OW56991   6.206   7.962   6.170  0.0969 -0.4662 -0.2590
18517SOL    HW156992   6.165   8.002   6.093  0.4071 -0.4844 -0.4370
18517SOL    HW256993   6.133   7.944   6.230  0.0329  1.2806  0.2600
18518SOL     OW56994   5.124   1.138   6.806  0.2631  0.1712 -0.4311
18518SOL    HW156995   5.132   1.214   6.748 -0.9740  0.7262  0.0861
18518SOL    HW256996   5.121   1.063   6.747 -2.0063  0.7913 -1.1976
18519SOL     OW56997   5.960   0.917   4.956  0.1823 -0.3176 -0.5371
18519SOL    HW156998   5.952   1.001   4.911  0.4879 -0.0254 -0.0485
18519SOL    HW256999   5.881   0.869   4.930 -0.8829  0.7852  0.5462
18520SOL     OW57000   5.677   1.620   5.031 -0.1969  0.5896  0.3143
18520SOL    HW157001   5.710   1.546   4.981 -0.9271 -0.7369  1.7190
18520SOL    HW257002   5.597   1.647   4.985  0.6291  1.1958 -0.7873
18521SOL     OW57003   6.695   2.828   6.457  0.1743  0.2430  0.5675
18521SOL    HW157004   6.731   2.742   6.435  1.3362  0.3863  1.7421
18521SOL    HW257005   6.601   2.812   6.467 -0.0310 -0.3396 -1.6830
18522SOL     OW57006   4.980   7.058   6.095  0.4942  0.2220  0.3749
18522SOL    HW157007   5.059   7.036   6.144  0.1192 -1.1094  0.4012
18522SOL    HW257008   5.012   7.106   6.018  1.1081  2.0839  1.7340
18523SOL     OW57009   6.592   7.426   6.891 -0.0077 -0.3186 -0.3456
18523SOL    HW157010   6.636   7.438   6.975 -0.7437  0.1918 -0.0263
18523SOL    HW257011   6.640   7.354   6.849  0.8786 -0.0288  0.1521
18524SOL     OW57012   7.433   0.036   7.729  0.2301 -0.1353  0.0573
18524SOL    HW157013   7.345   0.018   7.761  0.6184 -0.1160  1.1792
18524SOL    HW257014   7.489   0.030   7.806  1.3408 -0.9528 -0.7594
18525SOL     OW57015   6.290   1.199   8.348 -0.0140  0.1727 -0.2390
18525SOL    HW157016   6.368   1.246   8.377 -0.4415  0.9494 -0.3083
18525SOL    HW257017   6.315   1.156   8.267  1.0671 -1.6452  0.9844
18526SOL     OW57018   7.118   1.025   7.173 -0.2779 -0.4290  0.1427
18526SOL    HW157019   7.053   1.088   7.142  0.6672  0.5987  0.2042
18526SOL    HW257020   7.200   1.074   7.177  0.1215 -1.1505  1.9586
18527SOL     OW57021   6.506   0.640   6.625 -0.3752 -0.1708  0.0577
18527SOL    HW157022   6.413   0.633   6.608 -1.0459  2.2532  2.0197
18527SOL    HW257023   6.535   0.715   6.572  0.2828 -0.4073  0.0664
18528SOL     OW57024   4.856   0.777   5.269  0.3606  0.5495 -0.0495
18528SOL    HW157025   4.804   0.706   5.232  0.3410  0.2553  0.5348
18528SOL    HW257026   4.936   0.735   5.299  0.0550  0.6484  0.9320
18529SOL     OW57027   5.085   7.914   5.081  0.3681 -0.1968  0.0992
18529SOL    HW157028   5.106   7.842   5.140 -0.9442 -0.3310  0.4195
18529SOL    HW257029   5.137   7.897   5.003  0.1705 -1.4171  0.2241
18530SOL     OW57030   5.788   1.370   7.047 -0.2368  0.1925  0.5380
18530SOL    HW157031   5.814   1.289   7.091 -2.3734 -0.1847  1.2203
18530SOL    HW257032   5.869   1.422   7.043  0.6716 -1.0012  2.2058
18531SOL     OW57033   4.715   6.552   5.770  0.0513 -0.2121  0.0924
18531SOL    HW157034   4.746   6.578   5.683  0.3856  0.6708  0.4540
18531SOL    HW257035   4.726   6.457   5.773 -2.3659 -0.6484 -1.7607
18532SOL     OW57036   5.817   7.158   5.803 -0.5189 -0.1531 -0.1306
18532SOL    HW157037   5.853   7.117   5.882  0.9935 -0.3153 -0.8589
18532SOL    HW257038   5.734   7.196   5.831  1.4548  2.7335  2.4039
18533SOL     OW57039   6.126   0.653   7.089  0.2022  0.6125 -0.0349
18533SOL    HW157040   6.132   0.566   7.129  0.8980  0.5850 -0.1900
18533SOL    HW257041   6.098   0.636   6.999  0.8269  0.5064 -0.2134
18534SOL     OW57042   6.282   1.558   5.913 -0.2530 -0.7923  0.2814
18534SOL    HW157043   6.231   1.638   5.905 -2.3669 -1.9425  1.1046
18534SOL    HW257044   6.372   1.587   5.925 -1.0120  1.4618  1.0166
18535SOL     OW57045   6.869   0.157   4.451 -0.5771 -0.3749  0.2201
18535SOL    HW157046   6.918   0.227   4.407 -0.4576  1.0396  2.4667
18535SOL    HW257047   6.779   0.190   4.454 -0.6236 -0.5467  0.7961
18536SOL     OW57048   6.007   1.558   5.276 -0.2143  0.1194  0.7262
18536SOL    HW157049   6.098   1.536   5.295 -0.0253 -0.1584 -0.4204
18536SOL    HW257050   5.967   1.474   5.251 -0.0286  0.6654 -1.6070
18537SOL     OW57051   4.592   2.055   5.518  0.3212  0.1749 -0.0915
18537SOL    HW157052   4.679   2.030   5.486 -1.0667 -2.0952 -2.4790
18537SOL    HW257053   4.547   2.089   5.441 -2.1235 -2.3838  0.0467
18538SOL     OW57054   5.935   1.831   6.808  0.2695  0.1903  0.3236
18538SOL    HW157055   5.950   1.737   6.803 -0.7782  0.0604 -2.6077
18538SOL    HW257056   6.012   1.870   6.765 -0.1042  0.5487 -0.0294
18539SOL     OW57057   4.546   2.165   5.763  0.1496  0.2055  0.3607
18539SOL    HW157058   4.564   2.160   5.669  1.3585  3.1741  0.3163
18539SOL    HW257059   4.626   2.135   5.805  0.4049  0.9343  0.3989
18540SOL     OW57060   4.679   1.533   6.131  0.0480  0.2622  0.0753
18540SOL    HW157061   4.696   1.560   6.040  3.6629 -1.3478  0.1038
18540SOL    HW257062   4.727   1.597   6.183  0.6716 -0.6825  0.6643
18541SOL     OW57063   7.054   0.913   5.376 -0.2281 -0.3541  0.4197
18541SOL    HW157064   7.048   0.884   5.285 -0.3172  0.3338  0.1975
18541SOL    HW257065   6.987   0.863   5.422  0.2422 -1.1640  0.2333
18542SOL     OW57066   5.360   6.649   7.122  0.1041 -0.6855 -0.2130
18542SOL    HW157067   5.430   6.643   7.057  0.8741 -0.1895  0.5464
18542SOL    HW257068   5.313   6.729   7.100  0.7953 -0.1396  0.2350
18543SOL     OW57069   6.774   6.719   6.461  0.0014  0.5519  0.4743
18543SOL    HW157070   6.716   6.645   6.441 -0.0716  0.2271  1.8259
18543SOL    HW257071   6.862   6.681   6.461  0.0390  0.6372  0.3909
18544SOL     OW57072   6.666   7.505   5.991  0.0583  0.2813  0.1139
18544SOL    HW157073   6.747   7.506   6.042 -0.6760  0.8219  1.3072
18544SOL    HW257074   6.642   7.597   5.981 -0.6240  0.1110  0.1114
18545SOL     OW57075   6.809   1.019   6.242 -0.6814 -0.9588 -0.0615
18545SOL    HW157076   6.839   1.088   6.301  0.1954 -1.1249 -0.3101
18545SOL    HW257077   6.797   1.062   6.158  2.2536 -1.5297 -0.8831
18546SOL     OW57078   6.438   1.708   7.105 -0.0826 -0.0896  0.1808
18546SOL    HW157079   6.426   1.794   7.067 -2.2250  0.2781  1.5087
18546SOL    HW257080   6.533   1.698   7.113  0.2262  1.8680 -0.5616
18547SOL     OW57081   7.286   2.239   5.525 -0.3598  0.6029 -0.0631
18547SOL    HW157082   7.220   2.240   5.456 -2.4953  2.1647  1.8768
18547SOL    HW257083   7.238   2.258   5.605  2.0570 -0.8318  1.8805
18548SOL     OW57084   4.315   6.909   7.112  0.3110  0.2338  0.4513
18548SOL    HW157085   4.221   6.916   7.129  0.7217  2.0265  2.3196
18548SOL    HW257086   4.338   6.994   7.074  0.9101 -0.8288 -1.7038
18549SOL     OW57087   6.058   1.870   5.270  0.1971  0.0899  0.8028
18549SOL    HW157088   6.030   1.808   5.203 -0.3931 -0.1905  1.3076
18549SOL    HW257089   6.012   1.844   5.349 -1.1607  1.9906  0.7128
18550SOL     OW57090   4.540   0.771   4.263  0.0162 -0.1704 -0.1878
18550SOL    HW157091   4.491   0.792   4.343  1.2282 -0.8284  0.7653
18550SOL    HW257092   4.612   0.833   4.261 -0.8899  0.9034 -1.6772
18551SOL     OW57093   6.156   0.505   4.722  0.0118 -0.7963 -0.1565
18551SOL    HW157094   6.192   0.586   4.757 -0.5951 -1.6026  2.6632
18551SOL    HW257095   6.232   0.457   4.688  0.3772  0.8513 -1.8147
18552SOL     OW57096   6.564   1.684   5.884  0.2893  0.0872  0.3729
18552SOL    HW157097   6.587   1.727   5.967 -0.8787  1.1864  0.1643
18552SOL    HW257098   6.625   1.720   5.820  0.0404  0.6067  0.4217
18553SOL     OW57099   5.556   1.402   6.067  0.3351  0.1227 -0.2332
18553SOL    HW157100   5.478   1.384   6.119  1.9635 -0.9621  1.9823
18553SOL    HW257101   5.576   1.494   6.084  0.5304 -0.0724  0.6279
18554SOL     OW57102   4.366   0.647   6.236 -0.0881  0.1580 -0.8771
18554SOL    HW157103   4.285   0.696   6.225  0.2698  1.2948  1.1366
18554SOL    HW257104   4.403   0.642   6.148 -0.8496  2.2563 -1.3565
18555SOL     OW57105   7.658   0.184   6.064 -0.3125 -0.0621 -0.2281
18555SOL    HW157106   7.671   0.257   6.124 -0.3853 -0.2462  0.0135
18555SOL    HW257107   7.685   0.107   6.114  0.1631 -0.1559 -0.6205
18556SOL     OW57108   0.440   1.061   5.369 -0.0115  0.0853 -0.2189
18556SOL    HW157109   0.520   1.075   5.319  0.0294  0.0743 -0.1568
18556SOL    HW257110   0.392   0.994   5.321  0.3440 -0.4201  0.1272
18557SOL     OW57111   5.631   1.614   7.530  0.0415 -0.1167 -0.2558
18557SOL    HW157112   5.582   1.696   7.529  1.6175  0.8630 -1.6314
18557SOL    HW257113   5.567   1.547   7.505 -2.1335  0.0521  4.0061
18558SOL     OW57114   7.779   0.470   6.510 -0.3870  0.0624 -0.0274
18558SOL    HW157115   7.767   0.547   6.453  0.5067 -0.5072 -1.0193
18558SOL    HW257116   7.790   0.506   6.598 -1.4599  0.9829 -0.2444
18559SOL     OW57117   4.600   1.156   5.185  0.2166  0.3826 -0.4680
18559SOL    HW157118   4.587   1.102   5.263 -1.6462  0.6776 -0.5232
18559SOL    HW257119   4.694   1.172   5.182  0.5097 -0.8751  0.8763
18560SOL     OW57120   4.799   7.004   5.859 -0.0237  0.0455 -0.0754
18560SOL    HW157121   4.864   6.982   5.792  0.7276  2.2269 -0.1165
18560SOL    HW257122   4.850   7.037   5.933 -1.0088  0.4825  0.4267
18561SOL     OW57123   7.365   7.042   6.459 -0.2199 -0.2439 -1.0695
18561SOL    HW157124   7.346   7.094   6.537 -0.2135 -0.8769 -0.6355
18561SOL    HW257125   7.301   6.970   6.462  0.0638 -0.5136 -1.4102
18562SOL     OW57126   0.878   1.193   6.090  0.1367 -0.0852  0.4814
18562SOL    HW157127   0.959   1.230   6.056  0.7234 -3.2110 -1.9277
18562SOL    HW257128   0.904   1.145   6.168  0.4832 -0.4805  0.1258
18563SOL     OW57129   6.849   1.493   7.616 -0.3797 -0.3352 -0.2896
18563SOL    HW157130   6.833   1.416   7.671 -0.0956 -0.5182 -0.4597
18563SOL    HW257131   6.911   1.546   7.667 -0.4740 -0.2826 -0.2299
18564SOL     OW57132   7.997   0.766   4.787  0.4020  0.0762  0.3959
18564SOL    HW157133   7.986   0.782   4.693  1.1748 -0.7012  0.1628
18564SOL    HW257134   7.908   0.760   4.821  0.1129 -0.2966 -0.4061
18565SOL     OW57135   4.840   7.660   6.059  0.0700  0.0073  0.5141
18565SOL    HW157136   4.875   7.675   6.147  0.7646  0.2307  0.2062
18565SOL    HW257137   4.906   7.604   6.017 -0.3634 -0.2706  0.2039
18566SOL     OW57138   6.613   0.307   6.310  0.1382  0.0712 -0.0914
18566SOL    HW157139   6.607   0.329   6.403 -0.1714 -0.8884  0.1249
18566SOL    HW257140   6.525   0.323   6.276 -0.0815 -0.8008  0.0617
18567SOL     OW57141   7.737   2.921   3.371  0.2516  0.5572  0.4650
18567SOL    HW157142   7.674   2.856   3.402  0.2108  0.0292 -0.6687
18567SOL    HW257143   7.795   2.872   3.312 -0.4714  1.7374 -1.3138
18568SOL     OW57144   5.707   1.962   5.614  0.1737 -0.2793 -0.6083
18568SOL    HW157145   5.793   1.920   5.623 -0.3280 -1.1429  0.3285
18568SOL    HW257146   5.692   2.004   5.699  1.2191  2.9828 -1.8885
18569SOL     OW57147   6.524   0.403   8.162 -0.2844  0.3171  0.5415
18569SOL    HW157148   6.610   0.392   8.122 -0.6790  0.6813 -0.4150
18569SOL    HW257149   6.540   0.459   8.238  0.1348  1.4238 -0.3456
18570SOL     OW57150   7.216   0.301   7.487  0.4098  0.1448 -0.2028
18570SOL    HW157151   7.155   0.267   7.422  0.0004 -1.1989  0.8326
18570SOL    HW257152   7.162   0.352   7.547  0.8571  1.7742 -1.1474
18571SOL     OW57153   0.578   7.217   5.523  0.0685 -0.7178  0.0981
18571SOL    HW157154   0.495   7.248   5.486 -1.1472 -1.3678  2.0794
18571SOL    HW257155   0.637   7.292   5.515 -1.6806  0.9420  1.4362
18572SOL     OW57156   6.031   1.806   4.544 -0.0978 -0.1939 -0.3022
18572SOL    HW157157   6.094   1.734   4.553  0.5326  0.2910 -0.6922
18572SOL    HW257158   6.032   1.850   4.630  0.1233 -0.1684 -0.3171
18573SOL     OW57159   6.274   0.117   5.581 -0.4855 -0.2147 -0.2083
18573SOL    HW157160   6.248   0.077   5.664  1.3224 -1.5860 -0.2392
18573SOL    HW257161   6.349   0.066   5.552  0.3297  1.6352 -1.5876
18574SOL     OW57162   3.803   2.123   5.546 -0.6346 -0.1402 -0.4209
18574SOL    HW157163   3.876   2.183   5.531 -0.5036 -0.3253 -0.5307
18574SOL    HW257164   3.734   2.177   5.584  0.1169 -0.2694  1.1978
18575SOL     OW57165   4.980   0.846   7.420  0.8243  0.0815  0.4008
18575SOL    HW157166   5.069   0.822   7.444  0.7938 -0.9807 -0.4794
18575SOL    HW257167   4.955   0.783   7.352 -0.0563  1.2890 -0.4443
18576SOL     OW57168   7.213   7.268   7.095  0.2205  0.1768  0.5193
18576SOL    HW157169   7.124   7.281   7.064  0.5019  2.0744  0.3767
18576SOL    HW257170   7.248   7.198   7.040 -1.0974 -0.4801  0.4745
18577SOL     OW57171   4.467   1.230   4.430 -0.3578 -0.2532  0.2353
18577SOL    HW157172   4.475   1.216   4.525 -0.2846 -0.5902  0.1810
18577SOL    HW257173   4.537   1.293   4.409 -0.5960  0.0920  0.4592
18578SOL     OW57174   6.411   0.440   5.780  0.1217  0.0787  0.0123
18578SOL    HW157175   6.339   0.422   5.720  1.0783  0.2813 -1.2312
18578SOL    HW257176   6.464   0.507   5.736  0.6950  0.4661  1.2204
18579SOL     OW57177   5.118   7.952   5.924  0.2682 -0.0203  0.1070
18579SOL    HW157178   5.028   7.981   5.934  0.3373  0.3108 -0.1757
18579SOL    HW257179   5.121   7.864   5.962 -0.2109 -0.1016 -0.0476
18580SOL     OW57180   7.582   2.352   3.722  0.4071 -0.0473  0.1626
18580SOL    HW157181   7.565   2.292   3.650 -2.0926  0.9271 -0.1610
18580SOL    HW257182   7.509   2.336   3.783  1.3988  0.5264  1.5325
18581SOL     OW57183   6.430   0.597   7.743  0.7300 -0.2286  0.5566
18581SOL    HW157184   6.340   0.620   7.718  1.0299  0.7381  0.3198
18581SOL    HW257185   6.419   0.539   7.819 -0.1222 -1.3966 -0.4268
18582SOL     OW57186   7.027   0.717   7.138  0.2689 -0.0255 -0.2158
18582SOL    HW157187   6.931   0.724   7.139  0.2706  0.2320 -1.0610
18582SOL    HW257188   7.057   0.807   7.152  0.4012 -0.1650  0.4478
18583SOL     OW57189   5.856   7.402   6.476  0.4389  0.3089  0.1702
18583SOL    HW157190   5.880   7.404   6.384 -0.0578  3.5434 -0.0030
18583SOL    HW257191   5.937   7.425   6.522  0.5319 -0.6821  0.5210
18584SOL     OW57192   7.678   1.015   5.391 -0.2127 -0.3231  0.3328
18584SOL    HW157193   7.773   1.017   5.400 -0.1876  0.0559  0.0028
18584SOL    HW257194   7.655   1.100   5.354 -0.5424 -0.9105 -0.8805
18585SOL     OW57195   4.602   1.121   6.956 -0.0812  0.1347  0.2904
18585SOL    HW157196   4.684   1.171   6.949  0.0154 -0.1157 -0.5100
18585SOL    HW257197   4.592   1.081   6.869  0.3341 -2.0073  1.1690
18586SOL     OW57198   6.322   0.077   6.399  0.4226 -0.0996  0.1629
18586SOL    HW157199   6.268   0.038   6.330 -0.8157  1.0279  0.4382
18586SOL    HW257200   6.299   0.027   6.478 -1.7296  1.5217  0.6733
18587SOL     OW57201   6.275   7.555   5.987 -0.0628 -0.0203 -0.0353
18587SOL    HW157202   6.249   7.603   6.066  0.3665  0.1835 -0.0148
18587SOL    HW257203   6.218   7.479   5.986  0.6544 -0.6169  1.0870
18588SOL     OW57204   5.406   0.553   5.269 -0.1177 -0.2961 -0.1518
18588SOL    HW157205   5.496   0.584   5.259 -0.5254  0.9280 -0.2213
18588SOL    HW257206   5.403   0.518   5.358  0.4163 -0.3245 -0.1409
18589SOL     OW57207   5.361   0.623   7.415  0.0998 -0.2069  0.2678
18589SOL    HW157208   5.436   0.676   7.443  0.1350  0.6184 -1.3014
18589SOL    HW257209   5.365   0.545   7.471  1.0800  0.6265  1.4242
18590SOL     OW57210   5.923   0.702   6.689 -0.3586  0.2279  0.0346
18590SOL    HW157211   5.956   0.784   6.727  0.5758  1.0183 -2.2728
18590SOL    HW257212   5.846   0.680   6.742  0.7861  1.2414  2.2484
18591SOL     OW57213   6.324   1.636   4.910 -0.2404 -0.5595 -0.1778
18591SOL    HW157214   6.322   1.592   4.996  1.0154 -2.6829 -1.1566
18591SOL    HW257215   6.237   1.620   4.874 -0.5118 -0.3370  0.3550
18592SOL     OW57216   6.911   1.192   7.134 -0.0032 -0.0206  0.0293
18592SOL    HW157217   6.897   1.275   7.088 -0.0032  0.6050  1.1085
18592SOL    HW257218   6.883   1.210   7.224  0.0620 -1.1792  0.2979
18593SOL     OW57219   5.540   0.832   7.439  0.2501  0.0924  0.2864
18593SOL    HW157220   5.622   0.837   7.391  0.0817 -1.2202 -0.1613
18593SOL    HW257221   5.481   0.890   7.391  0.0740 -1.2158 -1.1416
18594SOL     OW57222   7.448   1.892   6.357  0.4428  0.0502 -0.3551
18594SOL    HW157223   7.434   1.968   6.415 -0.4466 -0.7489  0.5291
18594SOL    HW257224   7.404   1.820   6.402  0.0415 -0.6904 -1.8673
18595SOL     OW57225   1.312   0.784   3.539 -0.2847  0.4456  0.0161
18595SOL    HW157226   1.373   0.855   3.560  0.1536  0.1677 -0.3037
18595SOL    HW257227   1.298   0.792   3.445 -0.2837  0.1428 -0.0102
18596SOL     OW57228   5.659   7.479   7.528  0.0856 -0.7208  0.1994
18596SOL    HW157229   5.582   7.467   7.473 -0.0534 -3.1540  0.8129
18596SOL    HW257230   5.723   7.521   7.471 -0.8959 -0.8307 -1.0213
18597SOL     OW57231   6.003   0.387   5.242 -0.1414 -0.2374 -0.2855
18597SOL    HW157232   6.029   0.347   5.159 -2.4106  0.4121 -1.3891
18597SOL    HW257233   6.042   0.475   5.238  2.2046 -1.1648  0.7248
18598SOL     OW57234   4.841   7.411   6.397  0.2690  0.1371 -0.1607
18598SOL    HW157235   4.797   7.456   6.469 -1.5915 -0.6898 -0.7091
18598SOL    HW257236   4.855   7.480   6.332  1.0406  0.6841  0.5676
18599SOL     OW57237   0.323   7.568   8.111  0.5957 -0.2655 -0.7607
18599SOL    HW157238   0.387   7.577   8.182  0.3037  0.1210 -0.5463
18599SOL    HW257239   0.306   7.474   8.106  2.5288 -0.5999 -2.0081
18600SOL     OW57240   7.124   0.410   5.898  0.2020 -0.5227  0.2311
18600SOL    HW157241   7.131   0.335   5.839  1.5874  0.6333 -1.1679
18600SOL    HW257242   7.186   0.391   5.968  0.5602 -0.6752 -0.1259
18601SOL     OW57243   6.252   0.649   6.554  0.6002 -0.5964  0.6880
18601SOL    HW157244   6.170   0.647   6.505  0.9503 -1.7668  0.0873
18601SOL    HW257245   6.245   0.725   6.611 -0.1542  0.3790 -0.6374
18602SOL     OW57246   5.623   7.125   6.852 -0.4118 -0.0991  0.1905
18602SOL    HW157247   5.558   7.120   6.922  1.6938  3.9198  2.8448
18602SOL    HW257248   5.595   7.199   6.799  0.5786 -0.0161 -0.2372
18603SOL     OW57249   7.246   2.580   5.711  0.0248 -0.1412 -0.5710
18603SOL    HW157250   7.174   2.630   5.672  0.3739 -0.6282 -1.9158
18603SOL    HW257251   7.206   2.533   5.784 -0.1022  2.8605  1.4808
18604SOL     OW57252   5.950   0.030   6.026 -0.2457  0.3930  0.2841
18604SOL    HW157253   5.873   0.086   6.031 -1.1996 -0.7183 -0.9642
18604SOL    HW257254   5.930  -0.032   5.955  2.7165  1.4559 -1.6709
18605SOL     OW57255   3.857   7.360   5.127 -0.0424 -0.1088 -0.1201
18605SOL    HW157256   3.906   7.278   5.127  0.5608  0.2293  1.0230
18605SOL    HW257257   3.923   7.428   5.141 -0.6548  0.4855 -0.0739
18606SOL     OW57258   6.467   1.811   3.966 -0.0057  0.5822 -0.1322
18606SOL    HW157259   6.417   1.741   4.007 -2.1624  1.1053 -1.7034
18606SOL    HW257260   6.444   1.890   4.015 -0.9605  0.8623 -1.0021
18607SOL     OW57261   7.666   0.195   7.331  0.5595  0.6873  0.5437
18607SOL    HW157262   7.628   0.237   7.254 -2.2187 -1.7651  0.3563
18607SOL    HW257263   7.614   0.229   7.404 -0.4403 -0.8659  0.6054
18608SOL     OW57264   5.599   1.157   5.455  0.3843  0.1912 -0.1540
18608SOL    HW157265   5.622   1.196   5.540  0.8241 -1.0333  0.3126
18608SOL    HW257266   5.557   1.074   5.477 -2.6046  1.3349 -1.0644
18609SOL     OW57267   6.464   0.940   5.899  0.0258 -0.3655 -0.3164
18609SOL    HW157268   6.374   0.956   5.870  0.1665 -1.7246 -1.6262
18609SOL    HW257269   6.463   0.851   5.934  0.7579 -0.2252  0.0753
18610SOL     OW57270   5.964   0.450   5.906 -0.1838  0.0113  0.2663
18610SOL    HW157271   5.930   0.464   5.818 -0.9560 -1.1970  0.3428
18610SOL    HW257272   5.887   0.457   5.963  0.4073  1.4280  0.9394
18611SOL     OW57273   6.626   0.501   4.703  0.0729  0.0562 -0.5035
18611SOL    HW157274   6.718   0.493   4.678  1.0195  1.9845  1.9552
18611SOL    HW257275   6.601   0.588   4.674  0.3678  1.2128  2.4190
18612SOL     OW57276   5.329   3.654   5.005  0.0801 -0.1968 -0.4234
18612SOL    HW157277   5.278   3.675   4.926 -1.2260  1.1731  0.7343
18612SOL    HW257278   5.411   3.702   4.994 -0.5002  0.7999 -0.4997
18613SOL     OW57279   0.345   7.486   7.537  0.3534 -0.0543 -0.1554
18613SOL    HW157280   0.438   7.484   7.516  0.6142  0.1595  0.8935
18613SOL    HW257281   0.308   7.551   7.478  1.1459  0.9225  0.3772
18614SOL     OW57282   3.880   0.676   7.833 -0.2528 -0.1727 -0.3899
18614SOL    HW157283   3.945   0.614   7.800 -1.6739 -4.2389  3.4044
18614SOL    HW257284   3.929   0.730   7.895  0.1026 -1.3784  0.4251
18615SOL     OW57285   5.015   0.203   7.037  0.2369 -0.6111 -0.2748
18615SOL    HW157286   5.007   0.297   7.026 -0.5073 -0.6017  0.3031
18615SOL    HW257287   4.939   0.177   7.089  0.1494 -1.6070 -0.8578
18616SOL     OW57288   3.958   0.709   7.165  0.3605  0.8249  0.1164
18616SOL    HW157289   3.931   0.765   7.092  1.3685  0.8906 -0.2140
18616SOL    HW257290   3.908   0.742   7.239 -0.9936  0.4961 -0.6075
18617SOL     OW57291   6.466   3.285   6.914  0.4771  0.2122  0.6447
18617SOL    HW157292   6.523   3.349   6.872  0.7126  0.0401  0.7004
18617SOL    HW257293   6.525   3.224   6.958  0.2401  0.4139  1.2654
18618SOL     OW57294   6.706   0.437   8.421  0.4864  0.2924 -0.5108
18618SOL    HW157295   6.790   0.471   8.451 -0.2040 -0.5584  2.7265
18618SOL    HW257296   6.641   0.493   8.463 -0.6037 -0.6816 -0.8349
18619SOL     OW57297   5.993   0.925   6.837 -0.3564  0.3940 -0.0178
18619SOL    HW157298   5.974   1.018   6.825 -0.9654  0.2981  0.1425
18619SOL    HW257299   5.952   0.903   6.921  0.5560  0.1835  0.3879
18620SOL     OW57300   6.060   7.839   7.456  0.6118  0.4914  0.3921
18620SOL    HW157301   6.059   7.932   7.431  1.1162  1.0227  2.1849
18620SOL    HW257302   5.975   7.824   7.498  0.7197  0.2730  0.5343
18621SOL     OW57303   7.809   6.407  10.276  0.1323  0.5293  0.2802
18621SOL    HW157304   7.864   6.399  10.354  0.1127  0.2025  0.2622
18621SOL    HW257305   7.867   6.383  10.204 -0.2747 -0.7373  0.3463
18622SOL     OW57306   6.243   1.402   7.420 -0.2739 -0.4688 -0.2327
18622SOL    HW157307   6.271   1.322   7.465 -0.5085  0.3585  1.4602
18622SOL    HW257308   6.303   1.409   7.346  1.2446 -1.0160  0.8803
18623SOL     OW57309   6.304   0.041   8.676 -0.3225 -0.1779  0.1912
18623SOL    HW157310   6.323   0.112   8.737  0.1720 -0.3751  0.2705
18623SOL    HW257311   6.268   0.085   8.598 -0.5512  0.1067  0.4567
18624SOL     OW57312   5.456   1.860   7.948  0.3461 -0.2957  0.5727
18624SOL    HW157313   5.488   1.856   8.038  1.2079  2.1483  0.4647
18624SOL    HW257314   5.371   1.902   7.954 -0.7401 -2.3491  0.4053
18625SOL     OW57315   2.130   1.333   8.861  0.0611 -0.0686 -0.1977
18625SOL    HW157316   2.134   1.344   8.766  3.1579  3.7245  0.1143
18625SOL    HW257317   2.210   1.285   8.883 -0.3445 -0.4229  0.5612
18626SOL     OW57318   5.289   7.038   9.636 -0.3140  0.0601  0.1097
18626SOL    HW157319   5.256   7.030   9.726  1.8290 -0.3677  0.9121
18626SOL    HW257320   5.300   6.948   9.606 -0.9713  0.2042 -0.5779
18627SOL     OW57321   6.794   0.199   7.893 -0.3328 -0.3511  0.3297
18627SOL    HW157322   6.766   0.119   7.939  1.2537 -0.7290  0.6850
18627SOL    HW257323   6.804   0.264   7.962  0.3835 -0.4359  0.3111
18628SOL     OW57324   5.910   3.091   9.911  0.4954  0.4285  0.5362
18628SOL    HW157325   5.878   3.089   9.821 -0.5816  0.6431  0.9052
18628SOL    HW257326   5.873   3.013   9.952  0.3279  0.7538  1.0088
18629SOL     OW57327   6.574   0.227   7.598 -0.0561  0.3568 -0.7347
18629SOL    HW157328   6.514   0.259   7.531  1.0775  2.0215 -1.0321
18629SOL    HW257329   6.620   0.306   7.629  0.4127 -0.5487  1.0376
18630SOL     OW57330   6.746   0.478   7.133 -0.2964  0.2074 -0.1107
18630SOL    HW157331   6.821   0.473   7.074 -0.0264 -0.9154  0.2947
18630SOL    HW257332   6.699   0.395   7.119 -0.9804  0.5259  0.2569
18631SOL     OW57333   6.206   1.065   7.131 -0.2596 -0.0319 -0.5749
18631SOL    HW157334   6.265   1.000   7.093  1.9144  1.7251 -0.3786
18631SOL    HW257335   6.239   1.079   7.220 -1.6960  0.1819 -0.0429
18632SOL     OW57336   7.880   0.047   9.608 -0.0830 -0.3553  0.1569
18632SOL    HW157337   7.794   0.086   9.625 -0.0926 -0.1295 -0.4099
18632SOL    HW257338   7.892   0.053   9.513  0.0507 -1.4593  0.0911
18633SOL     OW57339   5.846   2.710   8.197  0.0206  0.7880 -0.1738
18633SOL    HW157340   5.766   2.742   8.155 -0.7694 -1.0850 -0.1709
18633SOL    HW257341   5.815   2.650   8.265  1.4432 -0.8638 -0.9270
18634SOL     OW57342   0.300   0.105   9.057  0.2631  0.4051  0.1774
18634SOL    HW157343   0.352   0.127   8.979  0.1519 -1.7269 -0.5820
18634SOL    HW257344   0.315   0.177   9.118  1.4251  1.4816 -1.3086
18635SOL     OW57345   7.540   2.760   8.940 -0.3234 -0.2963 -0.0610
18635SOL    HW157346   7.523   2.721   9.026 -2.1360  0.4095 -0.0456
18635SOL    HW257347   7.499   2.700   8.878 -0.9385  0.2981 -0.2370
18636SOL     OW57348   5.062   1.302   5.768  0.4021  0.0393 -0.2210
18636SOL    HW157349   5.116   1.351   5.706  0.6295  0.5224  0.3503
18636SOL    HW257350   5.124   1.271   5.835 -0.1223  1.3357  0.9179
18637SOL     OW57351   6.401   1.601   7.583 -0.4855  0.4513 -0.1291
18637SOL    HW157352   6.341   1.551   7.639 -0.9281  0.8644 -0.2221
18637SOL    HW257353   6.347   1.625   7.507 -0.4384  1.5264  0.1659
18638SOL     OW57354   7.694   2.563   8.710 -0.2116 -0.4612  0.2640
18638SOL    HW157355   7.677   2.576   8.617  0.0194  0.4918  0.3467
18638SOL    HW257356   7.771   2.507   8.712  0.5424  0.5251 -0.1406
18639SOL     OW57357   5.967   0.778  10.078 -0.1765  0.4014  0.2697
18639SOL    HW157358   5.935   0.851  10.131 -0.6957  0.6448 -0.3542
18639SOL    HW257359   6.034   0.818  10.021 -0.4259  0.3882 -0.0377
18640SOL     OW57360   6.418   0.904   8.284  0.6816 -0.0955  0.2455
18640SOL    HW157361   6.370   0.935   8.360  0.1933 -0.3378  0.0390
18640SOL    HW257362   6.351   0.872   8.224  0.8762  1.7778 -1.0920
18641SOL     OW57363   0.529   2.058   8.857 -0.2095 -0.5824 -0.8103
18641SOL    HW157364   0.474   2.134   8.877 -1.1441 -1.2227 -0.8537
18641SOL    HW257365   0.505   2.034   8.767 -1.3054 -2.0345 -0.1656
18642SOL     OW57366   6.037   0.343   8.292  0.1028  0.0330  0.0094
18642SOL    HW157367   6.122   0.347   8.336 -0.4796 -1.7764  1.4161
18642SOL    HW257368   5.986   0.415   8.329  0.0607 -0.6784  1.3763
18643SOL     OW57369   4.350   0.356   7.509 -0.1491 -0.1000 -0.2657
18643SOL    HW157370   4.417   0.351   7.441  0.1807  1.2601 -0.0726
18643SOL    HW257371   4.337   0.450   7.522 -1.5692 -0.3525  0.2231
18644SOL     OW57372   7.954   1.137   8.643  0.5705  0.8981 -0.1575
18644SOL    HW157373   7.899   1.184   8.580  0.5601  0.2838 -0.6219
18644SOL    HW257374   8.007   1.205   8.685 -0.0230  1.4097 -0.2321
18645SOL     OW57375   7.268   1.372   8.233 -0.1434  0.2796 -0.1187
18645SOL    HW157376   7.330   1.413   8.173 -0.3602  0.4088 -0.2584
18645SOL    HW257377   7.316   1.299   8.272  0.1661  0.5191 -0.0524
18646SOL     OW57378   6.797   7.776   9.477 -0.4086  0.0843  0.6345
18646SOL    HW157379   6.890   7.787   9.494  0.0971 -1.2085 -0.9721
18646SOL    HW257380   6.772   7.699   9.529 -0.1540 -0.5692 -0.1791
18647SOL     OW57381   5.784   0.822   8.116 -0.3810 -0.0577 -0.0294
18647SOL    HW157382   5.747   0.833   8.029  0.8673 -0.6698 -0.6576
18647SOL    HW257383   5.859   0.881   8.118  1.4330 -2.2158 -0.5089
18648SOL     OW57384   0.387   1.021   9.210 -0.3004  0.4582  0.2098
18648SOL    HW157385   0.462   0.966   9.187 -0.6472  0.3178 -0.6314
18648SOL    HW257386   0.420   1.111   9.202 -0.4634  0.4204 -1.0890
18649SOL     OW57387   4.262   1.058   6.578  0.0777  0.0701 -0.0199
18649SOL    HW157388   4.199   0.997   6.540  1.1331 -1.3909  0.4354
18649SOL    HW257389   4.347   1.018   6.559  0.6993 -0.1608  2.8001
18650SOL     OW57390   0.341   0.617   7.720  0.0348 -0.0279 -0.1216
18650SOL    HW157391   0.249   0.594   7.709  0.0781  0.1340 -0.8693
18650SOL    HW257392   0.355   0.617   7.815 -1.0198  1.0760  0.0548
18651SOL     OW57393   5.688   1.633   7.875 -0.3171  0.4304 -0.7974
18651SOL    HW157394   5.614   1.658   7.820  0.0363  1.6044 -0.7703
18651SOL    HW257395   5.662   1.660   7.964  0.2687  1.1952 -0.8419
18652SOL     OW57396   4.806   7.786   7.668  0.3631  0.2920  0.6261
18652SOL    HW157397   4.787   7.758   7.579  2.3800 -0.5348  0.3989
18652SOL    HW257398   4.812   7.882   7.663 -1.7350  0.4520  0.3850
18653SOL     OW57399   3.976   0.485   8.090 -0.2868  0.0725  0.3540
18653SOL    HW157400   4.057   0.457   8.047 -1.4286 -0.6963 -1.3669
18653SOL    HW257401   4.000   0.567   8.134  1.5741 -0.4657  0.4515
18654SOL     OW57402   5.985   1.042   8.611 -0.3244  0.3569 -0.2497
18654SOL    HW157403   5.919   1.089   8.661 -1.6586 -0.7089 -0.9391
18654SOL    HW257404   6.011   0.969   8.667 -0.6714  0.0671 -0.4529
18655SOL     OW57405   5.134   7.890   8.753  0.2975 -0.3743  0.1151
18655SOL    HW157406   5.144   7.798   8.730 -0.7101 -0.5833  0.4792
18655SOL    HW257407   5.101   7.889   8.843  0.0169  0.3405  0.0286
18656SOL     OW57408   0.682   0.046   7.433  0.0297  0.0343 -0.0429
18656SOL    HW157409   0.751   0.106   7.405 -0.0130 -0.2284 -0.7305
18656SOL    HW257410   0.642   0.015   7.351 -0.0298 -0.8394  0.3049
18657SOL     OW57411   5.779   6.886   8.634  0.0586  0.0053 -0.2981
18657SOL    HW157412   5.699   6.837   8.649 -0.1654  0.6192  0.6553
18657SOL    HW257413   5.771   6.921   8.545 -1.0945  0.6942  0.0543
18658SOL     OW57414   5.965   0.256   9.255 -0.5134  0.6086  0.1433
18658SOL    HW157415   5.964   0.193   9.183 -0.7661 -1.1623  1.6352
18658SOL    HW257416   5.874   0.285   9.262 -0.4045  1.1351 -0.5162
18659SOL     OW57417   6.123   1.208   6.921  0.0988  0.2477 -0.2642
18659SOL    HW157418   6.183   1.180   6.852 -1.3764 -1.6352 -0.8503
18659SOL    HW257419   6.172   1.193   7.002  0.6924 -0.5484 -0.7557
18660SOL     OW57420   7.611   0.255   9.503 -0.0871  0.4573 -0.8969
18660SOL    HW157421   7.678   0.317   9.531 -0.7408  0.4778  0.8071
18660SOL    HW257422   7.612   0.258   9.408  1.6998  1.1099 -0.8825
18661SOL     OW57423   7.211   1.645   6.680 -0.1832 -0.0353  0.5477
18661SOL    HW157424   7.193   1.591   6.603 -3.1226  1.4909  0.0170
18661SOL    HW257425   7.258   1.587   6.739  3.1804 -1.0051 -2.6726
18662SOL     OW57426   6.400   6.893   6.831 -0.2751 -0.3189  0.3427
18662SOL    HW157427   6.362   6.885   6.743 -0.2418 -1.4965  0.4194
18662SOL    HW257428   6.393   6.805   6.868 -2.9964  0.7162  2.6786
18663SOL     OW57429   6.876   0.824   8.198 -0.2362 -0.0942 -0.4896
18663SOL    HW157430   6.914   0.794   8.281 -0.9451  0.9061  0.2122
18663SOL    HW257431   6.908   0.914   8.188 -1.5937  0.4143 -0.3914
18664SOL     OW57432   6.550   1.371   8.062  0.3375  0.2629  0.2079
18664SOL    HW157433   6.493   1.437   8.023 -1.5496 -1.2601  0.2547
18664SOL    HW257434   6.569   1.406   8.150  1.6114  1.9577 -0.6709
18665SOL     OW57435   5.630   1.198   7.967 -0.2484 -0.0539 -0.3163
18665SOL    HW157436   5.704   1.194   8.028 -0.5541  0.8757  0.1347
18665SOL    HW257437   5.582   1.117   7.982 -0.3043  0.1547  0.6587
18666SOL     OW57438   5.984   1.565   7.839 -0.2561 -0.6436 -0.1008
18666SOL    HW157439   6.015   1.614   7.762 -1.5986 -0.3947 -0.5150
18666SOL    HW257440   5.896   1.536   7.814 -0.3547 -1.3350  1.0122
18667SOL     OW57441   6.824   1.421   7.043  0.3105 -0.0559  0.2223
18667SOL    HW157442   6.772   1.494   7.077  0.4731 -0.7329  2.0252
18667SOL    HW257443   6.854   1.451   6.958 -1.6692  1.0053 -0.1635
18668SOL     OW57444   7.020   0.656   5.644 -0.2268  0.9212 -0.4002
18668SOL    HW157445   7.011   0.662   5.739 -0.8221 -1.9295 -0.1854
18668SOL    HW257446   6.957   0.719   5.610  0.1380  2.1343  1.0716
18669SOL     OW57447   6.572   7.905   9.081 -0.5296  0.2325  0.1899
18669SOL    HW157448   6.638   7.924   9.014 -0.6098 -0.6570 -0.1577
18669SOL    HW257449   6.499   7.964   9.061 -0.2947  0.4188 -0.1187
18670SOL     OW57450   6.020   2.473   7.255  0.3601 -0.6897  0.0515
18670SOL    HW157451   6.071   2.494   7.334  0.0335 -0.1787  0.1287
18670SOL    HW257452   5.987   2.385   7.271  0.5817 -0.7223  0.3393
18671SOL     OW57453   5.384   5.912  10.703 -0.8028 -0.1619 -0.3323
18671SOL    HW157454   5.399   5.916  10.797 -1.9621  3.0578 -0.1470
18671SOL    HW257455   5.345   5.826  10.688 -3.0694  0.1935  2.5969
18672SOL     OW57456   5.763   2.171   7.551  0.1887 -0.6212  0.4417
18672SOL    HW157457   5.688   2.197   7.603  1.9296  2.1584  1.7601
18672SOL    HW257458   5.730   2.169   7.461 -1.6344 -0.2908  1.0647
18673SOL     OW57459   6.266   0.892   7.798 -0.1048  0.0107 -0.3202
18673SOL    HW157460   6.216   0.816   7.767  1.0744 -1.5478  1.3670
18673SOL    HW257461   6.210   0.932   7.865 -0.1969 -0.1649 -0.2901
18674SOL     OW57462   6.843   0.559   6.709 -0.2125  0.6427  0.2976
18674SOL    HW157463   6.816   0.467   6.711 -0.0469  0.5618 -0.6480
18674SOL    HW257464   6.808   0.596   6.790  0.3606 -0.4265  1.0534
18675SOL     OW57465   6.978   4.905   8.804  0.2421 -0.2345 -0.2221
18675SOL    HW157466   7.024   4.954   8.736  2.1388 -1.9013 -0.2399
18675SOL    HW257467   7.005   4.947   8.886  1.9619 -1.2497 -0.2269
18676SOL     OW57468   6.188   0.501   8.600 -0.1854  0.1598 -0.0336
18676SOL    HW157469   6.178   0.565   8.530 -0.0978  0.9573  0.6659
18676SOL    HW257470   6.102   0.457   8.605 -0.4328  0.6256 -0.1385
18677SOL     OW57471   6.033   6.756   8.637  0.3342 -0.5018 -0.2850
18677SOL    HW157472   6.037   6.701   8.558  2.3769 -0.0206 -0.5723
18677SOL    HW257473   5.949   6.801   8.631 -0.0314 -1.3056 -1.6082
18678SOL     OW57474   7.439   2.515   8.776  0.1986 -0.4048 -0.0233
18678SOL    HW157475   7.406   2.467   8.700 -1.2891  1.1636 -0.4158
18678SOL    HW257476   7.534   2.520   8.762  0.3869 -2.8783 -0.1130
18679SOL     OW57477   5.839   6.946   7.753 -0.0401  0.1535 -0.0244
18679SOL    HW157478   5.864   6.870   7.806  0.6016 -0.2975 -0.9497
18679SOL    HW257479   5.748   6.930   7.728  0.4176 -0.8662 -1.1196
18680SOL     OW57480   6.442   7.684   9.733 -0.4470  0.2846 -0.4972
18680SOL    HW157481   6.445   7.777   9.711 -0.1809  0.2904 -0.4350
18680SOL    HW257482   6.520   7.647   9.692  1.0394  0.6031  1.8768
18681SOL     OW57483   7.414   1.676   7.975  0.1546  0.0677 -0.0992
18681SOL    HW157484   7.387   1.767   7.990 -1.6213 -0.0013 -2.2966
18681SOL    HW257485   7.483   1.661   8.039  2.5937  3.9064 -1.4890
18682SOL     OW57486   0.251   0.890   8.434 -0.4435  0.7402 -0.0472
18682SOL    HW157487   0.217   0.973   8.402  1.4304  3.0465  3.2514
18682SOL    HW257488   0.184   0.858   8.495 -0.7963  0.2636 -0.6808
18683SOL     OW57489   4.704   7.500   9.141 -0.4618  0.0239  0.1883
18683SOL    HW157490   4.677   7.569   9.202 -1.2559 -0.3687  0.2940
18683SOL    HW257491   4.752   7.437   9.195  0.6211  0.6704  0.0200
18684SOL     OW57492   7.581   0.953  10.005  0.2681 -0.3804 -0.1444
18684SOL    HW157493   7.548   0.901   9.932 -0.0606 -1.7128  0.9065
18684SOL    HW257494   7.673   0.926  10.014  0.0580 -0.8942  0.4948
18685SOL     OW57495   7.286   0.698   8.161  0.2065 -0.0570 -0.4618
18685SOL    HW157496   7.292   0.676   8.068  0.3469 -1.2546 -0.1793
18685SOL    HW257497   7.268   0.615   8.205 -1.0679  0.6644  0.4706
18686SOL     OW57498   0.159   1.690   7.343  0.3921  0.3167 -0.3889
18686SOL    HW157499   0.107   1.610   7.352  0.4577  0.3761  0.6689
18686SOL    HW257500   0.190   1.708   7.432 -1.0403  2.4590 -0.2505
18687SOL     OW57501   5.276   6.675   8.029 -0.1419 -0.6104  0.1123
18687SOL    HW157502   5.349   6.644   7.977 -0.1004  0.3320 -0.4171
18687SOL    HW257503   5.293   6.769   8.042 -1.9101 -0.0507 -1.1834
18688SOL     OW57504   6.675   0.775   8.030 -0.2331  0.2493 -0.2986
18688SOL    HW157505   6.716   0.846   7.981  0.0134  1.7637  1.9482
18688SOL    HW257506   6.710   0.784   8.118 -3.4826  0.0651  1.1401
18689SOL     OW57507   5.541   2.115   8.852 -0.0561  0.7097  0.3685
18689SOL    HW157508   5.556   2.069   8.769  0.6867  0.4389  0.6387
18689SOL    HW257509   5.459   2.162   8.839 -0.3202  0.1007 -0.2676
18690SOL     OW57510   7.263   2.284   7.402 -0.8428 -0.7296 -0.4502
18690SOL    HW157511   7.309   2.236   7.334  1.0572  0.7244 -0.2792
18690SOL    HW257512   7.288   2.241   7.484 -0.7278 -0.6660 -0.4515
18691SOL     OW57513   7.493   7.931   8.076  0.4140 -0.2016  0.4748
18691SOL    HW157514   7.414   7.877   8.071  0.3453 -0.0162 -1.0470
18691SOL    HW257515   7.564   7.868   8.092  0.5112 -1.0023 -2.5329
18692SOL     OW57516   4.798   2.781   7.415  0.3853 -0.0190  0.0301
18692SOL    HW157517   4.708   2.800   7.390  0.5627  1.3580  0.3403
18692SOL    HW257518   4.821   2.852   7.475  1.1220 -1.2759  1.3134
18693SOL     OW57519   5.712   0.148   5.113 -0.1078  0.5919 -0.4120
18693SOL    HW157520   5.741   0.238   5.119 -2.0608  1.3004 -0.7292
18693SOL    HW257521   5.699   0.132   5.019  1.4811 -0.4842 -0.4868
18694SOL     OW57522   5.417   6.780   8.262 -0.0439  0.2916  0.3774
18694SOL    HW157523   5.423   6.845   8.192  0.5631 -0.3389 -0.1734
18694SOL    HW257524   5.498   6.729   8.253 -0.0707  0.0620  1.3990
18695SOL     OW57525   4.860   6.147   8.843 -0.7540  0.0653  0.1229
18695SOL    HW157526   4.943   6.173   8.803 -0.6961 -1.2161 -0.6617
18695SOL    HW257527   4.883   6.114   8.929 -0.4583 -0.2681 -0.0863
18696SOL     OW57528   0.025   0.699   8.330  0.9392 -0.7514 -0.0244
18696SOL    HW157529  -0.031   0.628   8.301  0.8235 -0.7422  0.1713
18696SOL    HW257530  -0.035   0.762   8.370  1.0371 -0.5320 -0.2214
18697SOL     OW57531   5.154   7.962   9.296  0.1122  0.3844  0.4478
18697SOL    HW157532   5.208   8.038   9.318 -0.2593  0.6331  0.5305
18697SOL    HW257533   5.067   7.999   9.279 -0.2196 -0.0751  1.0709
18698SOL     OW57534   6.302   1.159   8.064 -0.0323 -0.1507  0.3921
18698SOL    HW157535   6.342   1.170   7.977 -0.3322 -0.9575  0.1472
18698SOL    HW257536   6.210   1.181   8.050 -0.4942 -2.1229  0.0550
18699SOL     OW57537   0.419   0.275   9.241  0.1217 -1.1032 -0.3595
18699SOL    HW157538   0.438   0.362   9.206 -0.6318 -1.5992 -2.0945
18699SOL    HW257539   0.505   0.235   9.255  0.4652 -0.7731 -1.4313
18700SOL     OW57540   0.059   0.068   8.178 -0.0954 -0.2975 -0.2568
18700SOL    HW157541   0.135   0.115   8.143 -1.0585  1.2032 -0.4132
18700SOL    HW257542   0.070   0.073   8.273 -0.0908  0.0721 -0.2754
18701SOL     OW57543   5.263   1.106   5.608 -0.1280 -0.6484  0.3598
18701SOL    HW157544   5.185   1.072   5.564 -1.4833  0.8039  1.5055
18701SOL    HW257545   5.258   1.072   5.697  1.5874 -2.0338 -0.0185
18702SOL     OW57546   6.389   2.115   7.778  0.8349 -0.1857  0.1501
18702SOL    HW157547   6.389   2.038   7.721 -1.4958 -1.5551  1.8496
18702SOL    HW257548   6.337   2.180   7.731  0.7727 -0.5129 -0.2383
18703SOL     OW57549   0.201   2.274   8.001 -0.4732  0.0285  0.4659
18703SOL    HW157550   0.233   2.364   7.991  2.0027 -0.4906  2.5103
18703SOL    HW257551   0.208   2.236   7.913 -0.7677  1.5665 -0.2583
18704SOL     OW57552   6.363   7.539   6.267  0.2259 -0.0922  0.2554
18704SOL    HW157553   6.298   7.573   6.327 -1.4327 -0.2051 -1.3927
18704SOL    HW257554   6.383   7.612   6.208  1.2725 -0.1928  0.4619
18705SOL     OW57555   1.496   7.386   9.359  0.1642  0.1041 -0.0463
18705SOL    HW157556   1.438   7.316   9.386 -0.7808  0.4799 -1.0372
18705SOL    HW257557   1.454   7.424   9.282  2.5102 -0.6823 -1.8411
18706SOL     OW57558   1.007   1.712   9.094 -0.4471 -0.1912 -0.7838
18706SOL    HW157559   1.007   1.797   9.052 -0.0779  0.3177  0.2072
18706SOL    HW257560   0.915   1.689   9.104 -0.6494  1.0572  0.7766
18707SOL     OW57561   2.213   0.279   9.322 -0.1462 -0.3069  0.8759
18707SOL    HW157562   2.297   0.261   9.279 -0.6156 -1.0538  0.2592
18707SOL    HW257563   2.160   0.202   9.306 -0.6993 -0.1753  1.9314
18708SOL     OW57564   5.885   1.101   7.815 -0.0325  0.4827  0.2888
18708SOL    HW157565   5.959   1.137   7.766 -0.1239  0.2808  0.0024
18708SOL    HW257566   5.826   1.176   7.827 -0.0289  0.5218  0.0570
18709SOL     OW57567   5.195   0.964   6.287 -0.5139 -0.3428  0.2926
18709SOL    HW157568   5.208   0.973   6.381  0.8448  1.8679 -0.0297
18709SOL    HW257569   5.120   1.021   6.268 -1.6146 -1.7763  0.1620
18710SOL     OW57570   6.165   0.116   8.425 -0.5049 -0.6114  0.4426
18710SOL    HW157571   6.162   0.109   8.330 -0.3802 -2.7499  0.5441
18710SOL    HW257572   6.175   0.210   8.442 -2.6429  0.0630 -1.5551
18711SOL     OW57573   7.016   0.543  10.074 -0.3843  0.3476 -0.3173
18711SOL    HW157574   7.054   0.472  10.125  0.1425  0.0479 -1.1163
18711SOL    HW257575   6.928   0.512  10.050 -0.7063  0.5615  0.5284
18712SOL     OW57576   5.115   0.892   6.679 -0.1339 -0.3723  0.2495
18712SOL    HW157577   5.138   0.814   6.730  0.1845 -0.9839 -0.7821
18712SOL    HW257578   5.194   0.911   6.627 -0.0551  0.9129  0.8057
18713SOL     OW57579   5.983   7.542   8.042  0.1087  0.4855  0.0554
18713SOL    HW157580   5.915   7.534   8.109  0.1764 -1.8106 -0.0753
18713SOL    HW257581   6.036   7.617   8.071 -0.6141  0.3489  1.8739
18714SOL     OW57582   7.579   0.295   9.231 -0.9430  0.0857 -0.1590
18714SOL    HW157583   7.537   0.348   9.163  0.5930  1.0785 -0.3757
18714SOL    HW257584   7.598   0.212   9.188 -0.4145  0.5359 -0.8106
18715SOL     OW57585   6.400   1.563   7.940  0.2941 -0.4502 -0.0670
18715SOL    HW157586   6.484   1.603   7.918  0.5140 -0.4479  0.7600
18715SOL    HW257587   6.339   1.637   7.945  0.3488 -0.3978 -0.1716
18716SOL     OW57588   4.840   4.951   7.044 -0.1772 -0.5073  0.3874
18716SOL    HW157589   4.870   4.997   7.123 -1.9073 -1.7147  1.8176
18716SOL    HW257590   4.834   5.019   6.977 -0.0469  0.8246  1.6893
18717SOL     OW57591   5.681   0.107   8.031 -0.0319  0.1635 -0.1953
18717SOL    HW157592   5.678   0.024   7.985 -2.0432 -0.6473  1.2479
18717SOL    HW257593   5.756   0.099   8.091  0.4184 -0.1733 -0.7995
18718SOL     OW57594   7.378   1.223   7.924  0.2355  0.1314  0.2757
18718SOL    HW157595   7.358   1.148   7.981  2.7948 -0.4828  0.4878
18718SOL    HW257596   7.473   1.232   7.930  0.2431  1.8880 -1.6819
18719SOL     OW57597   6.394   1.792   9.504 -0.1087 -0.3055  0.8058
18719SOL    HW157598   6.412   1.698   9.512 -0.2440 -0.5116 -0.9526
18719SOL    HW257599   6.452   1.822   9.435 -1.5334  0.4557 -0.1108
18720SOL     OW57600   6.019   0.969   5.776 -0.3071 -0.1181  0.2531
18720SOL    HW157601   6.067   0.888   5.762  0.4175 -0.0796  2.2606
18720SOL    HW257602   6.082   1.028   5.818 -1.3295  0.8560  0.4769
18721SOL     OW57603   4.997   0.597   7.967 -0.5799 -0.1940  0.1037
18721SOL    HW157604   5.077   0.545   7.962 -0.1044  0.4557  0.7059
18721SOL    HW257605   5.013   0.671   7.908 -0.4235  0.3275  0.7840
18722SOL     OW57606   0.014   7.984   8.969  0.3494 -0.0513 -0.6098
18722SOL    HW157607   0.071   8.045   9.015  0.5873  0.0949 -1.0880
18722SOL    HW257608   0.008   8.020   8.880  0.6596 -0.8319 -0.9578
18723SOL     OW57609   7.589   2.255   9.688 -0.6355  0.2350  0.0354
18723SOL    HW157610   7.669   2.212   9.657 -0.1124  1.1764  0.0218
18723SOL    HW257611   7.615   2.346   9.702 -1.8892  0.7358 -0.6828
18724SOL     OW57612   0.766   7.832   9.580 -0.0972  0.3149  0.5931
18724SOL    HW157613   0.719   7.751   9.602  1.1602 -0.7113 -0.3572
18724SOL    HW257614   0.849   7.826   9.625  1.5246 -0.7016 -2.2779
18725SOL     OW57615   6.296   1.005   7.475 -0.3851  0.4521 -0.2930
18725SOL    HW157616   6.320   1.096   7.490  1.3335 -0.1446  0.8372
18725SOL    HW257617   6.255   0.977   7.557 -0.3070  0.0257 -0.3993
18726SOL     OW57618   4.801   0.373   8.344 -0.1129 -0.8185  0.3921
18726SOL    HW157619   4.715   0.406   8.367  0.3892  0.6681  0.2466
18726SOL    HW257620   4.844   0.447   8.301  1.6061 -1.1835  1.3863
18727SOL     OW57621   6.316   1.025   9.278  0.3426  0.2159  1.0242
18727SOL    HW157622   6.273   0.987   9.354 -0.6077 -0.3425  0.2243
18727SOL    HW257623   6.328   0.952   9.218  0.9640  0.6775  0.5721
18728SOL     OW57624   6.369   0.409   7.952 -0.0498  0.5317  0.2677
18728SOL    HW157625   6.294   0.459   7.985  0.1429  0.5402  0.6888
18728SOL    HW257626   6.418   0.383   8.030  0.9570  1.4027 -0.0561
18729SOL     OW57627   4.445   1.757   5.199 -0.4090  0.1129  0.3596
18729SOL    HW157628   4.524   1.800   5.232 -0.1444 -0.5314  0.5795
18729SOL    HW257629   4.413   1.706   5.273 -0.4731 -0.4096 -0.0205
18730SOL     OW57630   5.617   0.255   8.653 -0.2845  0.3323 -0.0225
18730SOL    HW157631   5.545   0.308   8.688 -0.3120  0.7548 -0.7003
18730SOL    HW257632   5.681   0.319   8.623 -0.0211 -0.0325 -0.2355
18731SOL     OW57633   6.143   7.658   6.377  0.9152 -0.4119  0.3754
18731SOL    HW157634   6.083   7.731   6.392  1.1826 -0.0467 -0.2619
18731SOL    HW257635   6.153   7.617   6.462 -1.6932 -1.6259  0.2162
18732SOL     OW57636   0.528   0.251   9.850  0.1593 -0.0287 -0.0425
18732SOL    HW157637   0.453   0.291   9.805  2.0320  1.6685 -1.9375
18732SOL    HW257638   0.571   0.200   9.782  1.3970  0.0683  0.6400
18733SOL     OW57639   5.743   1.101   8.725  0.1580 -0.5214  0.3131
18733SOL    HW157640   5.737   1.189   8.689 -1.3246 -1.0083 -0.7378
18733SOL    HW257641   5.704   1.044   8.658  0.5347 -1.9032  1.2077
18734SOL     OW57642   6.922   1.160   6.471 -0.2750  0.3619  0.0218
18734SOL    HW157643   6.895   1.098   6.539  0.2733  1.7042  1.5081
18734SOL    HW257644   6.919   1.245   6.514 -0.9280  1.3905 -1.9619
18735SOL     OW57645   7.150   1.627   8.111 -0.8346 -0.5257  0.5582
18735SOL    HW157646   7.189   1.703   8.068 -1.8318 -0.7177 -0.7559
18735SOL    HW257647   7.198   1.552   8.075 -1.1636 -0.6365  0.3440
18736SOL     OW57648   6.822   0.867   8.800 -0.0127  0.7129  0.8292
18736SOL    HW157649   6.766   0.804   8.846 -0.1829  1.4784  1.7104
18736SOL    HW257650   6.874   0.908   8.870  2.3549 -0.6238 -0.0432
18737SOL     OW57651   0.177   1.405   7.556 -0.0975  0.1658  0.3031
18737SOL    HW157652   0.261   1.435   7.521  0.0690 -1.0006 -0.3323
18737SOL    HW257653   0.114   1.424   7.487 -0.1052 -0.3071  0.1784
18738SOL     OW57654   6.198   6.803   9.244 -0.0119 -0.3179  0.1930
18738SOL    HW157655   6.187   6.752   9.324  0.3626  0.5179  0.7890
18738SOL    HW257656   6.292   6.820   9.240 -0.1364  0.3594  0.0302
18739SOL     OW57657   7.038   6.617   6.541  0.7929 -0.8032  0.2608
18739SOL    HW157658   7.087   6.558   6.598  0.3637 -1.4181  0.0002
18739SOL    HW257659   7.099   6.635   6.469  0.5645 -1.7624 -0.1875
18740SOL     OW57660   7.187   7.556   6.463 -0.0415  0.1829 -0.2827
18740SOL    HW157661   7.281   7.549   6.482 -0.2153  0.7891  0.9038
18740SOL    HW257662   7.181   7.550   6.368  1.1560 -0.3591 -0.3362
18741SOL     OW57663   6.393   0.725   8.021 -0.4380 -0.1671 -0.3222
18741SOL    HW157664   6.434   0.789   7.962 -0.1782  1.1312  1.2024
18741SOL    HW257665   6.465   0.667   8.047 -0.0216  0.7056  0.5393
18742SOL     OW57666   4.286   2.110   7.340  0.2412  0.1796  0.1514
18742SOL    HW157667   4.291   2.140   7.249 -0.3782  1.5225  0.5316
18742SOL    HW257668   4.377   2.104   7.369  0.3975  1.6067  0.0076
18743SOL     OW57669   6.758   7.178   8.380 -0.0631 -0.6532  0.1317
18743SOL    HW157670   6.767   7.201   8.472 -0.3029 -0.4969  0.1169
18743SOL    HW257671   6.711   7.095   8.381 -0.0089 -0.6839  0.1517
18744SOL     OW57672   7.259   7.819   8.143  0.1494  0.0028  0.3311
18744SOL    HW157673   7.227   7.787   8.228 -0.9585  1.6363  0.5720
18744SOL    HW257674   7.225   7.755   8.080 -2.8101  1.0678  0.6933
18745SOL     OW57675   6.013   0.708   6.441  0.6385  0.0254 -0.2746
18745SOL    HW157676   6.052   0.792   6.462  2.5524 -0.3264 -2.1023
18745SOL    HW257677   5.970   0.680   6.522  2.5524  1.3524  1.2813
18746SOL     OW57678   7.195   1.445   6.478 -0.5183 -0.2174 -0.1320
18746SOL    HW157679   7.198   1.381   6.406 -2.0001 -0.1581 -0.2914
18746SOL    HW257680   7.105   1.438   6.510 -0.7153  1.8054 -0.1658
18747SOL     OW57681   5.023   1.183   8.170 -0.2551 -0.1531  1.0054
18747SOL    HW157682   5.052   1.093   8.154  1.4716  0.2069  1.8390
18747SOL    HW257683   5.045   1.199   8.261 -0.1033  1.2650  0.7392
18748SOL     OW57684   5.470   2.203   9.175 -0.4067 -0.1032 -0.2623
18748SOL    HW157685   5.556   2.218   9.135 -0.1774 -0.3199  0.1468
18748SOL    HW257686   5.452   2.111   9.159  0.0059 -0.3722  0.7357
18749SOL     OW57687   6.306   0.377   8.385  0.3002  0.2912 -0.0020
18749SOL    HW157688   6.338   0.464   8.408  0.1360  0.2401  0.4191
18749SOL    HW257689   6.381   0.319   8.399 -0.1026  0.0977  1.4612
18750SOL     OW57690   3.929   6.548   7.419 -0.1037  0.1893 -0.1269
18750SOL    HW157691   4.016   6.523   7.389 -0.2714 -0.1480 -0.3383
18750SOL    HW257692   3.879   6.565   7.339 -0.4116 -0.2387 -0.0299
18751SOL     OW57693   5.744   0.566   7.849 -0.0341 -0.1107  0.1612
18751SOL    HW157694   5.766   0.658   7.833  1.8252 -0.4342  0.5513
18751SOL    HW257695   5.653   0.558   7.822 -0.3517  1.9246  0.4443
18752SOL     OW57696   6.902   1.889   9.031  0.1460  0.1732  0.0462
18752SOL    HW157697   6.897   1.892   8.935 -0.5498  2.0001  0.0939
18752SOL    HW257698   6.828   1.943   9.060  0.0002 -0.8162  1.6364
18753SOL     OW57699   5.541   0.445   6.422 -0.1559 -0.2666 -0.2634
18753SOL    HW157700   5.466   0.410   6.374 -0.4945 -0.3721  0.3295
18753SOL    HW257701   5.580   0.368   6.465 -1.5414  0.1877  1.9212
18754SOL     OW57702   6.538   3.693  10.091 -0.1785  0.2128  0.2908
18754SOL    HW157703   6.527   3.765  10.154 -0.9899  0.0655  0.3309
18754SOL    HW257704   6.454   3.689  10.046 -0.0861 -0.6148  0.1854
18755SOL     OW57705   7.272   1.086   7.700  0.0440  0.0492  0.2128
18755SOL    HW157706   7.203   1.031   7.737 -1.6508  1.6517 -0.4276
18755SOL    HW257707   7.301   1.140   7.774 -0.9973  0.9167  0.0202
18756SOL     OW57708   6.986   1.641   9.116 -0.5834 -0.7540  0.1902
18756SOL    HW157709   6.969   1.730   9.085  3.1936 -0.3542 -1.2653
18756SOL    HW257710   6.955   1.585   9.046 -1.4935 -0.5004  0.3796
18757SOL     OW57711   6.992   0.301   7.295 -0.3489 -0.3147 -0.0849
18757SOL    HW157712   6.938   0.341   7.363  0.3507  0.4870  0.0250
18757SOL    HW257713   6.944   0.316   7.214 -0.7394 -0.4472  0.1194
18758SOL     OW57714   6.306   7.793   8.789  0.7126  0.3666 -0.0040
18758SOL    HW157715   6.372   7.732   8.755  4.9727  2.0560  4.1415
18758SOL    HW257716   6.312   7.869   8.732  0.0542 -0.5957 -1.4183
18759SOL     OW57717   7.324   1.182   7.122 -0.3021 -0.1282 -0.3605
18759SOL    HW157718   7.405   1.156   7.079 -0.1418  1.2885 -0.9900
18759SOL    HW257719   7.275   1.229   7.054 -0.8942  0.5011  0.4738
18760SOL     OW57720   7.794   0.873   8.905  0.3147 -0.0122  0.1078
18760SOL    HW157721   7.838   0.888   8.988 -0.7915 -0.4147  0.7851
18760SOL    HW257722   7.853   0.814   8.857  0.0526 -1.4364  1.4333
18761SOL     OW57723   6.617   1.944   9.015 -0.6089  0.6857 -0.3836
18761SOL    HW157724   6.605   2.036   9.037 -0.9415  0.3435  0.9702
18761SOL    HW257725   6.576   1.934   8.930 -3.0995  1.2200  0.6694
18762SOL     OW57726   5.860   2.203   9.690 -0.3599  0.2674  0.6347
18762SOL    HW157727   5.841   2.115   9.658  0.7085 -0.5388  2.0575
18762SOL    HW257728   5.940   2.192   9.743 -0.4101  2.0232  1.1395
18763SOL     OW57729   6.233   7.729   7.627  0.2945 -0.1429  0.6031
18763SOL    HW157730   6.177   7.657   7.657  1.1692 -0.6772  1.0002
18763SOL    HW257731   6.188   7.764   7.550 -0.7594 -0.3218  1.1167
18764SOL     OW57732   7.582   6.259   7.251  0.4959 -0.2181  0.1637
18764SOL    HW157733   7.570   6.166   7.270  2.1853 -1.0602 -2.3112
18764SOL    HW257734   7.657   6.285   7.305 -0.1338 -0.1867  1.0471
18765SOL     OW57735   5.596   1.097   8.278 -0.1123  0.0832 -0.3083
18765SOL    HW157736   5.542   1.055   8.211  0.1614 -0.0933 -0.4165
18765SOL    HW257737   5.534   1.150   8.328 -0.2626  0.4711 -0.8997
18766SOL     OW57738   3.226   2.338  10.148  0.2136  0.2488  0.4734
18766SOL    HW157739   3.318   2.361  10.133 -0.0388  0.7055 -0.5395
18766SOL    HW257740   3.199   2.392  10.222  0.4267  1.0881 -0.0435
18767SOL     OW57741   3.964   1.595   7.693 -0.1737  0.1449  0.2519
18767SOL    HW157742   3.985   1.668   7.752 -2.0749  0.6963  0.3248
18767SOL    HW257743   4.014   1.613   7.614 -0.1948  1.2592  0.4735
18768SOL     OW57744   6.938   0.338   7.568  1.4123  0.0761  0.3010
18768SOL    HW157745   6.953   0.249   7.601 -0.3851 -0.0303  0.9192
18768SOL    HW257746   6.866   0.371   7.621  2.8649  2.4032  0.9563
18769SOL     OW57747   6.377   2.192   6.945 -0.0472  0.5152 -0.2744
18769SOL    HW157748   6.459   2.236   6.969 -0.4435  1.1184 -0.0186
18769SOL    HW257749   6.387   2.171   6.852  0.4287  0.5122 -0.2251
18770SOL     OW57750   0.696   2.842  10.081 -0.2122 -0.2321 -0.2022
18770SOL    HW157751   0.774   2.811  10.128  1.9091  1.3245 -2.4227
18770SOL    HW257752   0.708   2.937  10.076 -2.9047  0.2195  0.3435
18771SOL     OW57753   2.097   0.558   8.651 -0.1609  0.1522  0.0796
18771SOL    HW157754   2.021   0.595   8.606  0.2256 -0.4855 -1.1533
18771SOL    HW257755   2.172   0.601   8.611  0.3250 -2.0490 -1.6055
18772SOL     OW57756   5.009   1.436   6.223  0.0571  0.1971 -0.1516
18772SOL    HW157757   5.033   1.499   6.155 -2.9440 -1.0951 -2.6673
18772SOL    HW257758   4.917   1.416   6.206 -0.2940 -1.7828  3.1054
18773SOL     OW57759   7.026   1.034   8.096 -0.1815 -0.6422 -0.3201
18773SOL    HW157760   7.040   1.050   8.002 -0.8062  1.1645 -0.1403
18773SOL    HW257761   7.076   0.954   8.114  0.7275 -0.5019 -1.9906
18774SOL     OW57762   6.144   0.926   8.398  0.1541  0.4839  0.0841
18774SOL    HW157763   6.085   0.977   8.454 -0.3551 -0.2476  0.2277
18774SOL    HW257764   6.124   0.956   8.309  0.2598  0.9355  0.2093
18775SOL     OW57765   5.702   0.443   8.472 -0.5148  0.5619 -0.0714
18775SOL    HW157766   5.781   0.497   8.467 -0.3903  0.7185  2.3122
18775SOL    HW257767   5.640   0.486   8.414 -0.0096  2.6361  0.8219
18776SOL     OW57768   6.560   1.596   8.503  0.3456 -0.1434 -0.2299
18776SOL    HW157769   6.596   1.594   8.592  0.5970 -1.1066 -0.3409
18776SOL    HW257770   6.476   1.640   8.512  0.0835 -0.7916  0.6085
18777SOL     OW57771   0.171   7.420  10.025 -0.5386  0.0786  0.3190
18777SOL    HW157772   0.101   7.398  10.088  0.8031 -2.7690  0.9946
18777SOL    HW257773   0.146   7.373   9.946 -0.4168  0.7711 -0.1365
18778SOL     OW57774   6.792   2.326   8.436 -0.1877 -0.2371 -0.2810
18778SOL    HW157775   6.803   2.410   8.481  0.5323 -0.6800  0.3819
18778SOL    HW257776   6.879   2.287   8.436 -0.5334 -1.0233 -0.5245
18779SOL     OW57777   7.228   7.075   7.767  0.7078  0.2705  0.7680
18779SOL    HW157778   7.172   7.002   7.793 -0.2809  0.4025 -0.8124
18779SOL    HW257779   7.239   7.126   7.846 -1.6025  0.3384  1.1355
18780SOL     OW57780   5.531   7.904   6.523  0.0047  0.2157  0.0936
18780SOL    HW157781   5.624   7.923   6.530 -0.0362  0.0731  1.1153
18780SOL    HW257782   5.527   7.815   6.488  0.2151  0.8082 -1.5723
18781SOL     OW57783   7.516   0.347   7.978 -0.4667  0.3298  0.2175
18781SOL    HW157784   7.487   0.404   7.907 -0.3937  0.9885  0.6961
18781SOL    HW257785   7.595   0.305   7.944  0.2527  1.5470  0.3126
18782SOL     OW57786   7.831   1.069   9.785 -0.3908 -0.1029 -0.0255
18782SOL    HW157787   7.909   1.118   9.811 -1.2478  0.6024  1.3615
18782SOL    HW257788   7.843   0.983   9.827  0.4057 -0.6005 -1.2181
18783SOL     OW57789   7.377   2.447   7.968 -0.0937 -0.3561  0.9934
18783SOL    HW157790   7.304   2.474   7.911  0.9319 -1.0106 -0.7075
18783SOL    HW257791   7.396   2.524   8.021 -0.9129  0.3757  0.2596
18784SOL     OW57792   6.270   7.906   7.869 -0.0066  0.1313  0.8436
18784SOL    HW157793   6.331   7.977   7.850 -1.0187  0.7807 -0.0586
18784SOL    HW257794   6.241   7.875   7.783  0.2004 -1.1970  1.2232
18785SOL     OW57795   0.161   0.073   9.918 -0.2321 -0.1400  0.2795
18785SOL    HW157796   0.152   0.104   9.828  0.5274  1.3985  0.6983
18785SOL    HW257797   0.223  -0.000   9.913 -0.6494 -0.4479 -0.5055
18786SOL     OW57798   4.112   0.496   7.276 -0.1103  0.4589 -0.0747
18786SOL    HW157799   4.067   0.579   7.261  0.8982  1.0033 -0.1954
18786SOL    HW257800   4.081   0.467   7.362 -1.9006 -0.0155 -0.8297
18787SOL     OW57801   7.252   1.099   9.293 -0.2982  0.3234  0.1734
18787SOL    HW157802   7.204   1.137   9.219  1.0563  2.0653  0.1149
18787SOL    HW257803   7.209   1.135   9.370  0.8793  2.0134  0.1196
18788SOL     OW57804   6.225   7.327   6.995 -0.1474  0.2360  0.0575
18788SOL    HW157805   6.245   7.258   6.932  0.7822 -0.5970  1.2155
18788SOL    HW257806   6.149   7.295   7.044  1.0893 -0.6467  1.4966
18789SOL     OW57807   6.986   1.716   8.383  0.4962  0.0977 -0.0586
18789SOL    HW157808   6.925   1.759   8.443 -0.5705 -0.7967 -0.4653
18789SOL    HW257809   7.022   1.788   8.330 -0.2007  0.6523  0.2025
18790SOL     OW57810   5.841   7.573   7.367 -0.2345  0.3651  0.5738
18790SOL    HW157811   5.847   7.653   7.315 -1.4730 -0.3497 -0.7606
18790SOL    HW257812   5.926   7.531   7.355  0.1742  1.1340  0.7047
18791SOL     OW57813   7.039   1.632  10.046  0.3571  0.1492 -0.1024
18791SOL    HW157814   7.038   1.694  10.119 -1.8013 -0.6126  0.5768
18791SOL    HW257815   7.129   1.602  10.041  0.6321  0.5215  1.9805
18792SOL     OW57816   7.158   1.231   7.461 -0.1587  0.1939 -0.0104
18792SOL    HW157817   7.180   1.180   7.539 -1.0735  1.4648  1.1424
18792SOL    HW257818   7.063   1.244   7.467  0.0900  2.4898  0.1076
18793SOL     OW57819   0.894   0.872  10.342 -0.1363 -0.1413 -0.3083
18793SOL    HW157820   0.854   0.936  10.284 -0.0958 -0.3213 -0.5368
18793SOL    HW257821   0.944   0.924  10.405 -1.7904  0.1593  0.8110
18794SOL     OW57822   6.454   2.600   8.202  0.0598  0.0418 -0.4122
18794SOL    HW157823   6.425   2.680   8.158  2.2013  1.4584  0.6105
18794SOL    HW257824   6.549   2.612   8.214  0.3585 -2.4366  0.2232
18795SOL     OW57825   0.216   2.443   9.574  0.6188 -0.3306  0.3680
18795SOL    HW157826   0.228   2.451   9.668  1.0913  0.7506  0.2282
18795SOL    HW257827   0.292   2.487   9.536  0.2757 -0.4759 -0.5173
18796SOL     OW57828   2.018   7.839   7.276 -0.1095  0.3991  0.0062
18796SOL    HW157829   1.983   7.750   7.272  0.9783 -0.0729  0.5574
18796SOL    HW257830   1.943   7.895   7.257 -0.7722 -0.6386 -0.5264
18797SOL     OW57831   5.785   7.991   7.661  0.7176 -0.6842  0.4912
18797SOL    HW157832   5.871   8.021   7.694  0.8007  0.4677 -0.6732
18797SOL    HW257833   5.783   7.898   7.681  2.2777 -0.7465  0.5010
18798SOL     OW57834   0.016   7.264   9.600 -0.2623  0.2086  0.2145
18798SOL    HW157835   0.078   7.319   9.552  0.0466  0.5563  0.9898
18798SOL    HW257836   0.069   7.223   9.668 -0.8452  0.3766  0.7778
18799SOL     OW57837   0.120   0.627   9.248  0.6809  0.0976  0.5528
18799SOL    HW157838   0.141   0.541   9.212  2.5041  0.1794  1.3024
18799SOL    HW257839   0.057   0.610   9.318  3.3674 -1.1124  2.8792
18800SOL     OW57840   7.712   0.576   6.016 -0.1450  0.3338 -0.2541
18800SOL    HW157841   7.739   0.499   6.066  1.4473  0.2475 -1.1668
18800SOL    HW257842   7.740   0.650   6.070 -1.3852  0.3007  0.4727
18801SOL     OW57843   5.147   1.734   7.766 -0.1184  0.2820 -0.0592
18801SOL    HW157844   5.095   1.739   7.685 -0.1069 -0.1065 -0.0899
18801SOL    HW257845   5.165   1.825   7.788  1.1792  0.3625 -1.3272
18802SOL     OW57846   5.667   1.893   6.804 -0.1402  0.3647 -0.0234
18802SOL    HW157847   5.762   1.900   6.813 -0.1611  1.2011 -0.2714
18802SOL    HW257848   5.649   1.799   6.803  0.8160  0.1636 -1.1607
18803SOL     OW57849   6.158   0.966   6.075  0.8179 -0.0076 -0.9734
18803SOL    HW157850   6.130   1.043   6.027  1.4932 -0.1852 -1.6744
18803SOL    HW257851   6.243   0.991   6.113 -0.1706  0.5090  1.0652
18804SOL     OW57852   7.242   0.942   7.447 -0.7026  0.2887 -0.0194
18804SOL    HW157853   7.197   0.987   7.376 -3.2716  2.0160  2.4477
18804SOL    HW257854   7.320   0.996   7.463 -1.8374  1.8655  0.5100
18805SOL     OW57855   6.881   0.665   7.538  0.6874  0.3135  0.1512
18805SOL    HW157856   6.785   0.669   7.528  0.7603  1.2521 -0.2933
18805SOL    HW257857   6.901   0.572   7.532 -0.3828 -0.1008  2.1908
18806SOL     OW57858   6.893   7.905   8.425  0.0700  0.1496 -0.2181
18806SOL    HW157859   6.926   7.852   8.353  0.8071  0.8220 -0.3804
18806SOL    HW257860   6.970   7.923   8.479 -0.3561  0.2117  0.3852
18807SOL     OW57861   5.760   1.164   7.296  0.2274  0.2514  0.1080
18807SOL    HW157862   5.740   1.191   7.386  0.6669  0.2583  0.2092
18807SOL    HW257863   5.677   1.135   7.260  0.1932 -0.4967  0.7755
18808SOL     OW57864   0.088   7.534   8.974  0.1914  0.1611 -0.2128
18808SOL    HW157865  -0.001   7.504   8.992  1.0376 -2.5443 -0.0915
18808SOL    HW257866   0.078   7.607   8.913 -2.1801  1.7022  1.8146
18809SOL     OW57867   7.874   1.032   6.996 -0.2218  0.2906  0.0123
18809SOL    HW157868   7.843   1.005   6.910 -0.6323 -0.3867  0.3549
18809SOL    HW257869   7.920   1.114   6.981 -0.0591  0.0472 -0.8874
18810SOL     OW57870   6.965   2.223   8.908 -0.1644 -0.5706  0.0021
18810SOL    HW157871   7.033   2.210   8.974  0.5104 -1.2558 -0.7987
18810SOL    HW257872   6.996   2.297   8.856  0.7463 -1.7447 -1.2420
18811SOL     OW57873   6.428   7.964   9.738  0.0819 -0.3524  0.5308
18811SOL    HW157874   6.369   8.039   9.734  1.0566  0.3827 -1.6846
18811SOL    HW257875   6.462   7.965   9.827 -1.4617  0.5968  1.1482
18812SOL     OW57876   4.684   1.124   8.390  0.2410  0.3784  0.7201
18812SOL    HW157877   4.778   1.144   8.399  0.2951  0.3944  0.1369
18812SOL    HW257878   4.658   1.094   8.477  1.0925 -0.9028  0.5665
18813SOL     OW57879   7.635   2.070   8.022 -0.6288 -0.2425 -0.0828
18813SOL    HW157880   7.691   2.056   8.098  0.9255  0.2813 -1.0808
18813SOL    HW257881   7.666   2.007   7.957  0.0740  1.2662 -1.2809
18814SOL     OW57882   4.294   0.646   8.964  0.1607  0.0682 -0.4626
18814SOL    HW157883   4.290   0.554   8.993 -0.2107  0.0763 -0.4854
18814SOL    HW257884   4.202   0.673   8.959  0.2630  0.3647 -0.7049
18815SOL     OW57885   6.947   1.670   7.310  0.3603  0.0249 -0.2455
18815SOL    HW157886   7.008   1.739   7.335  1.1174 -0.8615  0.4031
18815SOL    HW257887   6.985   1.589   7.344 -0.1400 -0.8301 -1.6025
18816SOL     OW57888   5.977   2.488   8.635  0.0734 -0.0758 -0.0044
18816SOL    HW157889   6.026   2.470   8.716  0.1781 -1.2176 -0.2920
18816SOL    HW257890   6.043   2.522   8.574 -0.3095  2.3768  0.8521
18817SOL     OW57891   5.998   0.164   8.683 -0.2819 -0.2598 -0.0188
18817SOL    HW157892   5.979   0.254   8.708  1.0175 -0.7019  2.9147
18817SOL    HW257893   6.027   0.171   8.591  1.6193  2.6286  0.6407
18818SOL     OW57894   5.992   7.818   5.720 -0.1903  0.0759  0.2941
18818SOL    HW157895   6.002   7.726   5.696 -2.2422  0.1983 -1.3299
18818SOL    HW257896   5.901   7.825   5.750 -0.4630  1.7814 -0.8002
18819SOL     OW57897   7.658   7.660   7.166  0.1566  0.3776 -0.3910
18819SOL    HW157898   7.707   7.693   7.090  0.4787 -1.9530 -1.2720
18819SOL    HW257899   7.725   7.625   7.225 -0.1685  1.2503  0.5211
18820SOL     OW57900   5.996   7.182   7.128  0.3204 -0.0273  0.0578
18820SOL    HW157901   6.025   7.257   7.180 -1.2363 -0.2643  1.3510
18820SOL    HW257902   5.925   7.216   7.073  0.6007 -0.2385 -0.4443
18821SOL     OW57903   5.125   0.920   8.200 -0.1429  0.1107  0.0630
18821SOL    HW157904   5.204   0.929   8.253 -0.1336 -1.8081  0.4686
18821SOL    HW257905   5.054   0.912   8.264 -0.9130  2.9578 -0.2898
18822SOL     OW57906   5.346   0.472   8.679 -0.0578 -0.3279  0.3851
18822SOL    HW157907   5.269   0.438   8.725 -0.3126 -0.4821 -0.1430
18822SOL    HW257908   5.403   0.504   8.749  0.2355 -1.9330  0.9339
18823SOL     OW57909   5.458   0.149  10.861  0.3417 -0.2310 -0.4904
18823SOL    HW157910   5.374   0.194  10.873  1.3559  1.6661 -0.0939
18823SOL    HW257911   5.457   0.079  10.926 -1.5737 -1.3297 -1.5768
18824SOL     OW57912   5.792   0.423  10.746  0.2176  0.0095  0.6380
18824SOL    HW157913   5.845   0.491  10.705  0.2561  0.2439  1.0616
18824SOL    HW257914   5.704   0.436  10.710 -0.0560  1.0673  1.5893
18825SOL     OW57915   6.899   0.216   9.040 -0.0344 -0.0192  0.2294
18825SOL    HW157916   6.978   0.264   9.018  0.0106 -0.1005  0.2126
18825SOL    HW257917   6.878   0.244   9.129 -0.0973  0.1491  0.1618
18826SOL     OW57918   7.658   1.932   9.870 -0.2619  0.3054  0.4450
18826SOL    HW157919   7.693   1.844   9.884  0.2774  0.4188 -0.1342
18826SOL    HW257920   7.730   1.990   9.893 -0.4376  0.5758  0.3111
18827SOL     OW57921   6.271   0.020   9.388  0.4086  0.0196  0.0363
18827SOL    HW157922   6.226  -0.065   9.379 -1.2357  0.7779  0.6753
18827SOL    HW257923   6.358  -0.002   9.421  0.0322 -1.4262  0.1347
18828SOL     OW57924   0.024   0.225   9.129 -0.0159 -0.0188  0.6673
18828SOL    HW157925   0.064   0.221   9.216 -1.1332 -1.0916  1.1584
18828SOL    HW257926   0.066   0.300   9.087 -0.1171  1.1096  2.4607
18829SOL     OW57927   7.531   2.738  11.533  0.7010 -0.0658 -0.0473
18829SOL    HW157928   7.472   2.775  11.599  0.0842  0.3760 -0.8266
18829SOL    HW257929   7.575   2.814  11.495 -0.8784 -0.0412 -1.9524
18830SOL     OW57930   7.273   0.999   0.468 -0.1449 -0.2175 -0.2353
18830SOL    HW157931   7.294   0.941   0.541 -0.4746 -0.6437 -0.4715
18830SOL    HW257932   7.219   1.068   0.506  0.6221  0.1864  0.1317
18831SOL     OW57933   7.760   0.458   9.584  0.3228  0.2718  0.0065
18831SOL    HW157934   7.834   0.490   9.634 -0.8928 -0.2611  2.2939
18831SOL    HW257935   7.724   0.535   9.541  0.2131  1.1576  1.6262
18832SOL     OW57936   5.356   1.532  10.235  0.2810  0.1488  0.2446
18832SOL    HW157937   5.282   1.550  10.177  0.2141 -0.0221  0.2745
18832SOL    HW257938   5.327   1.457  10.287  0.5073  0.0258  0.1956
18833SOL     OW57939   6.525   0.998  10.246 -0.2658  0.4647 -0.0935
18833SOL    HW157940   6.549   0.935  10.178  2.1010 -1.3540  2.2110
18833SOL    HW257941   6.472   0.948  10.308 -2.0989  1.9928 -0.3287
18834SOL     OW57942   7.167   0.762  10.030  0.3332 -0.4263 -0.3269
18834SOL    HW157943   7.125   0.676  10.042 -0.1438 -0.3557 -1.3787
18834SOL    HW257944   7.153   0.783   9.938 -0.5547  1.3130  0.1609
18835SOL     OW57945   6.850   1.001  10.286  0.0903 -0.2672  0.5765
18835SOL    HW157946   6.909   0.927  10.285  0.9787  0.3881 -1.4977
18835SOL    HW257947   6.853   1.036  10.196 -2.3726  0.6341  0.7565
18836SOL     OW57948   7.030   0.814   9.797 -0.0274  0.3216 -0.1682
18836SOL    HW157949   6.939   0.839   9.815  0.5753  1.4392  1.6702
18836SOL    HW257950   7.068   0.892   9.755  0.1049 -0.0951 -0.8231
18837SOL     OW57951   5.122   1.761   8.447  0.5403 -0.5822  0.0994
18837SOL    HW157952   5.148   1.737   8.535  0.5850 -1.2303 -0.0843
18837SOL    HW257953   5.067   1.688   8.417  0.3046 -0.2472 -0.3088
18838SOL     OW57954   7.643   7.919  10.048 -0.1916 -0.3054 -0.1081
18838SOL    HW157955   7.691   7.939  10.128  0.4882  0.7839 -0.7650
18838SOL    HW257956   7.710   7.884   9.988 -0.6336 -0.8160 -0.3174
18839SOL     OW57957   6.536   0.660   8.501  0.1560  0.4794 -0.5678
18839SOL    HW157958   6.579   0.739   8.533  0.7155 -0.0854  0.0913
18839SOL    HW257959   6.456   0.692   8.458 -0.4905  1.2980  1.1451
18840SOL     OW57960   6.823   1.539   8.902  0.2190 -0.1663 -0.4221
18840SOL    HW157961   6.739   1.579   8.881 -0.2911 -1.5037 -1.0703
18840SOL    HW257962   6.871   1.539   8.819  1.3454  1.5901  0.1662
18841SOL     OW57963   5.705   2.409   8.576  0.3384  0.1211  0.2845
18841SOL    HW157964   5.787   2.417   8.624  0.5269  1.2340 -0.2004
18841SOL    HW257965   5.642   2.379   8.642  0.9303  0.1420  0.8738
18842SOL     OW57966   7.211   0.261   9.116 -0.5490 -0.1018 -0.1142
18842SOL    HW157967   7.235   0.189   9.174  0.4528 -0.1879 -0.6143
18842SOL    HW257968   7.230   0.228   9.028  0.7521  1.0687 -0.3032
18843SOL     OW57969   6.714   7.078   9.463  1.0449 -0.0638 -0.6841
18843SOL    HW157970   6.697   6.991   9.429 -1.5217 -0.9146  2.2802
18843SOL    HW257971   6.636   7.129   9.440 -0.0841 -0.2580  2.2042
18844SOL     OW57972   5.660   0.769   9.294 -0.2899 -0.1100  0.1143
18844SOL    HW157973   5.611   0.741   9.371 -0.9322  0.1984 -0.1726
18844SOL    HW257974   5.594   0.808   9.237  0.0383 -1.0976 -0.9612
18845SOL     OW57975   6.867   3.095   9.345  0.0615 -0.0915  0.2846
18845SOL    HW157976   6.824   3.010   9.337 -1.2697  0.5480  0.3597
18845SOL    HW257977   6.930   3.083   9.417 -1.0814 -0.6392  1.2282
18846SOL     OW57978   4.233   0.139   8.299 -0.0641  0.0669  0.1750
18846SOL    HW157979   4.191   0.098   8.223 -0.2822 -0.7720  0.7362
18846SOL    HW257980   4.309   0.184   8.262 -1.2175  1.2895 -0.7950
18847SOL     OW57981   7.580   1.462  10.720 -0.3578  0.3114 -0.0120
18847SOL    HW157982   7.583   1.449  10.815 -0.3841  1.4386  0.1547
18847SOL    HW257983   7.487   1.460  10.699 -0.5244  2.3213  0.3476
18848SOL     OW57984   0.179   1.231  10.066  0.1784 -0.5156  0.2916
18848SOL    HW157985   0.191   1.137  10.048 -0.2605 -0.7143  1.0176
18848SOL    HW257986   0.088   1.238  10.095  0.8134 -0.1924  2.3254
18849SOL     OW57987   6.712   1.018   9.107 -0.2586 -0.4609 -0.4121
18849SOL    HW157988   6.785   1.001   9.166  0.3811 -0.1300 -1.0912
18849SOL    HW257989   6.683   0.931   9.079 -0.8395 -0.6377  0.6954
18850SOL     OW57990   0.300   1.602   9.276  0.6153 -0.1638  0.3216
18850SOL    HW157991   0.376   1.651   9.245 -0.3234  1.1230 -0.0633
18850SOL    HW257992   0.254   1.577   9.195  0.0044  0.1331  0.5693
18851SOL     OW57993   6.837   0.181  10.312  0.2324  0.1347 -1.0467
18851SOL    HW157994   6.900   0.135  10.367 -1.1319 -0.5743 -0.0349
18851SOL    HW257995   6.820   0.120  10.240 -1.6691 -1.1168  0.3572
18852SOL     OW57996   5.805   7.149   9.959 -0.1863 -0.0587 -0.9956
18852SOL    HW157997   5.739   7.111   9.901  0.5554 -1.5892 -0.8875
18852SOL    HW257998   5.799   7.098  10.039  1.2812 -0.3891 -1.0725
18853SOL     OW57999   4.599   6.673  10.937  0.3562  1.0850  0.1610
18853SOL    HW158000   4.669   6.625  10.892 -0.2585  1.3775 -1.1595
18853SOL    HW258001   4.630   6.681  11.027  1.4973  0.2055 -0.1228
18854SOL     OW58002   0.051   7.798   8.087 -0.2217  0.2023  0.7108
18854SOL    HW158003   0.084   7.764   8.170  3.1353 -1.1054 -0.9624
18854SOL    HW258004   0.054   7.893   8.097 -0.4312  0.0690  2.2499
18855SOL     OW58005   0.400   3.231   9.617 -0.1193  0.7512  0.1689
18855SOL    HW158006   0.430   3.145   9.648 -1.0100 -0.0571 -1.0957
18855SOL    HW258007   0.418   3.291   9.689  1.0903 -0.3859  0.8452
18856SOL     OW58008   6.424   1.025  10.559  0.0253  0.2351 -0.0957
18856SOL    HW158009   6.353   0.965  10.581 -1.0607  1.7098  0.6398
18856SOL    HW258010   6.409   1.101  10.615  1.9601  0.7750 -0.2362
18857SOL     OW58011   6.741   2.773  10.762  0.5355  0.0698 -0.1016
18857SOL    HW158012   6.719   2.680  10.764  0.9857 -0.0355  0.4153
18857SOL    HW258013   6.661   2.818  10.791 -0.3586  0.0117 -2.2441
18858SOL     OW58014   6.590   2.726  10.410  0.5547  0.2547 -0.2433
18858SOL    HW158015   6.548   2.703  10.327  0.3524  2.1286 -0.6959
18858SOL    HW258016   6.682   2.702  10.397 -0.0014 -2.4306  0.1957
18859SOL     OW58017   6.622   1.580   8.239  0.0782  0.3673  0.6712
18859SOL    HW158018   6.623   1.578   8.334  0.4331 -2.0125  0.6816
18859SOL    HW258019   6.549   1.637   8.216 -0.8418 -0.0629  2.3898
18860SOL     OW58020   5.942   0.169   8.099  0.7129 -0.5444 -0.0237
18860SOL    HW158021   5.947   0.238   8.165 -1.3936  0.7879 -1.1515
18860SOL    HW258022   5.961   0.214   8.016 -0.5531 -1.3104 -0.7702
18861SOL     OW58023   7.308   1.826   8.927 -0.0211 -0.0557  0.0367
18861SOL    HW158024   7.253   1.829   8.848 -2.8912 -0.2994  1.8676
18861SOL    HW258025   7.316   1.918   8.953 -0.3386 -0.0812  0.2355
18862SOL     OW58026   6.835   0.023  10.069  0.6896  0.0297  0.2343
18862SOL    HW158027   6.915   0.071  10.045  1.5761 -1.7145 -0.4420
18862SOL    HW258028   6.827  -0.044  10.002 -2.6129  1.4766 -1.0044
18863SOL     OW58029   7.873   1.142   0.188 -0.1860  0.2166 -0.0096
18863SOL    HW158030   7.905   1.208   0.126 -0.7284  0.7918  0.3149
18863SOL    HW258031   7.866   1.062   0.135 -0.9839  0.7839 -0.7879
18864SOL     OW58032   5.889   6.598  10.947 -0.6519  0.0983 -0.4981
18864SOL    HW158033   5.841   6.614  11.028  1.0321  1.1613  0.3623
18864SOL    HW258034   5.921   6.508  10.955 -0.2808  0.2798  0.1565
18865SOL     OW58035   6.778   0.506   9.309 -0.1082  0.3003 -0.1645
18865SOL    HW158036   6.854   0.539   9.260  0.3295 -2.0339 -1.1953
18865SOL    HW258037   6.801   0.416   9.330 -3.2117 -1.0717 -1.9794
18866SOL     OW58038   5.997   7.905  10.239 -0.3151 -0.4069 -0.5835
18866SOL    HW158039   5.949   7.911  10.322  1.1151 -2.6952  0.5084
18866SOL    HW258040   5.930   7.883  10.174 -1.2792  0.2270  0.1662
18867SOL     OW58041   5.382   1.052  10.219 -0.1433  0.5185  0.2303
18867SOL    HW158042   5.345   0.977  10.172 -1.2099  0.7264  0.7169
18867SOL    HW258043   5.446   1.089  10.158 -1.1615  0.5019 -0.8930
18868SOL     OW58044   5.343   0.880   8.391  0.1762 -0.2151  0.3114
18868SOL    HW158045   5.307   0.842   8.471 -0.6222 -0.0522  0.0362
18868SOL    HW258046   5.361   0.971   8.413  0.3543 -0.2772  0.4269
18869SOL     OW58047   7.144   2.571  11.052  0.2316 -0.0533  0.5928
18869SOL    HW158048   7.222   2.519  11.067  0.8668  0.6337 -0.2440
18869SOL    HW258049   7.145   2.638  11.120 -0.1739 -0.6404  1.1920
18870SOL     OW58050   7.833   1.630   9.075  0.1130 -0.3486 -0.1152
18870SOL    HW158051   7.816   1.592   9.161  2.1631 -1.8486 -0.3028
18870SOL    HW258052   7.746   1.645   9.037 -0.8002 -2.2446  1.1237
18871SOL     OW58053   6.139   7.721   9.637  0.0557 -0.2595 -0.3386
18871SOL    HW158054   6.171   7.634   9.660 -0.5599 -0.1756  0.9503
18871SOL    HW258055   6.160   7.775   9.713  1.7812  1.1106 -1.7003
18872SOL     OW58056   6.214   0.979   8.961  0.9846  0.0036  0.4988
18872SOL    HW158057   6.243   1.052   8.906 -0.7615 -0.3991 -1.0588
18872SOL    HW258058   6.290   0.922   8.966  1.3832  0.3298 -1.0780
18873SOL     OW58059   5.228   0.772   0.240  0.5113 -0.3120  0.3187
18873SOL    HW158060   5.311   0.725   0.233  0.1730 -1.1942  1.7097
18873SOL    HW258061   5.169   0.710   0.282 -0.5402  0.6804  0.3534
18874SOL     OW58062   5.502   1.356   9.450  0.2840 -0.0355  0.3989
18874SOL    HW158063   5.442   1.418   9.409 -0.4244 -0.4405  0.7937
18874SOL    HW258064   5.445   1.300   9.504  0.8187 -1.3346 -0.3249
18875SOL     OW58065   6.049   0.474   9.482  0.1004 -0.0969 -0.3318
18875SOL    HW158066   6.039   0.379   9.487 -0.2683 -0.1666 -1.8472
18875SOL    HW258067   5.979   0.502   9.423  1.0184  0.9440 -0.9788
18876SOL     OW58068   7.323   0.453   8.655 -0.0135  0.2704 -0.5473
18876SOL    HW158069   7.346   0.443   8.563  0.7219 -0.4290 -0.3095
18876SOL    HW258070   7.278   0.537   8.660  2.9137  2.0143 -1.0312
18877SOL     OW58071   7.815   0.906  10.260 -0.1188 -1.0797 -0.4440
18877SOL    HW158072   7.907   0.911  10.233 -0.5968 -1.1034 -2.2504
18877SOL    HW258073   7.798   0.990  10.303  0.4710 -0.6144 -1.0925
18878SOL     OW58074   6.102   1.106   0.024 -0.4966  0.3926 -0.3927
18878SOL    HW158075   6.115   1.014   0.001  1.2272  0.8270 -1.2349
18878SOL    HW258076   6.101   1.106   0.120  1.8585 -0.2403 -0.3170
18879SOL     OW58077   5.259   1.654   8.080 -0.1505 -0.1056  0.4040
18879SOL    HW158078   5.243   1.577   8.134 -0.2925 -1.2337 -1.1757
18879SOL    HW258079   5.341   1.690   8.114  0.7752 -1.8896  0.1959
18880SOL     OW58080   5.333   7.458   9.171 -0.3534 -0.1571  0.1943
18880SOL    HW158081   5.239   7.445   9.168 -0.3932  0.2049 -0.6951
18880SOL    HW258082   5.345   7.553   9.159  0.0681  0.1012  2.2700
18881SOL     OW58083   7.155   1.449  10.487  0.6263  0.5832  0.3931
18881SOL    HW158084   7.244   1.455  10.451  1.2949 -0.6005  1.7444
18881SOL    HW258085   7.102   1.414  10.415  1.2303  1.3229 -0.4338
18882SOL     OW58086   6.971   4.359   9.343 -0.1569  0.0910  0.0674
18882SOL    HW158087   6.914   4.362   9.266 -0.7942  0.8232  0.5492
18882SOL    HW258088   7.051   4.404   9.316  0.4056 -1.3740 -0.7682
18883SOL     OW58089   7.202   7.034   8.428  0.1813  0.3433 -0.0994
18883SOL    HW158090   7.215   7.087   8.507 -1.3698 -0.0106  0.4235
18883SOL    HW258091   7.245   6.951   8.448 -1.3155 -0.2338  0.9552
18884SOL     OW58092   4.235   1.522   8.402  0.4041 -0.2226 -0.2827
18884SOL    HW158093   4.186   1.534   8.320  1.2672  2.3571 -0.5051
18884SOL    HW258094   4.317   1.481   8.375  0.0866 -0.7461 -0.4786
18885SOL     OW58095   5.549   4.181  10.379 -0.7063  0.0076 -0.3942
18885SOL    HW158096   5.561   4.139  10.465  0.6612 -1.2271 -1.1398
18885SOL    HW258097   5.517   4.110  10.323  0.9068  0.1301 -1.5106
18886SOL     OW58098   4.847   2.322   8.316 -0.4430 -0.1300  0.0766
18886SOL    HW158099   4.770   2.304   8.262 -0.6214 -1.9928  0.8542
18886SOL    HW258100   4.918   2.335   8.254 -1.3619  1.7236 -0.6572
18887SOL     OW58101   7.700   0.760   9.493  0.0310  0.1437  0.4378
18887SOL    HW158102   7.623   0.817   9.497 -0.3329 -0.3019 -0.1391
18887SOL    HW258103   7.682   0.701   9.420  1.0791  0.2697  0.0663
18888SOL     OW58104   4.590   5.712   9.555  0.1923 -0.0839  0.0483
18888SOL    HW158105   4.673   5.703   9.601  0.1989  1.1134  0.3114
18888SOL    HW258106   4.530   5.751   9.619 -0.5310 -0.7754 -0.1869
18889SOL     OW58107   7.776   0.158  10.666  0.2977  0.4547  0.7398
18889SOL    HW158108   7.803   0.069  10.642  0.0801  0.5619  0.0750
18889SOL    HW258109   7.822   0.215  10.604  0.8552  0.8514  1.5019
18890SOL     OW58110   4.848   2.078   8.463 -0.2194 -0.0255  0.1184
18890SOL    HW158111   4.841   2.144   8.394 -0.1331 -0.5924 -0.4527
18890SOL    HW258112   4.909   2.115   8.526  0.9563 -0.1407 -0.9047
18891SOL     OW58113   5.964   7.061  11.766 -0.4411 -0.0235  0.3312
18891SOL    HW158114   6.006   7.146  11.783 -1.5386  0.5868  0.0582
18891SOL    HW258115   5.909   7.046  11.843  0.9934 -1.3120  1.1696
18892SOL     OW58116   6.015   1.270   9.144  0.1674 -0.4959 -0.0030
18892SOL    HW158117   5.942   1.313   9.099  0.1084 -1.7909 -1.2090
18892SOL    HW258118   6.048   1.336   9.204 -2.8296 -0.2509  1.6078
18893SOL     OW58119   7.306   7.668   9.428  0.0595 -0.2214  0.0733
18893SOL    HW158120   7.391   7.662   9.384  0.1519 -1.4975  0.3906
18893SOL    HW258121   7.315   7.612   9.505 -0.8750  0.1168  0.4392
18894SOL     OW58122   6.699   7.425   9.322  1.0833  0.0587  0.0917
18894SOL    HW158123   6.653   7.394   9.400 -0.5705 -2.1480 -1.6220
18894SOL    HW258124   6.792   7.412   9.343  0.6861 -0.5923  1.6315
18895SOL     OW58125   7.172   7.686   9.165 -0.1578  0.1658 -0.0376
18895SOL    HW158126   7.146   7.594   9.166  1.5692 -0.4238  3.0669
18895SOL    HW258127   7.128   7.725   9.240 -0.2599  1.7133 -0.8632
18896SOL     OW58128   5.875   7.822   9.569 -0.0348  0.2313  0.2212
18896SOL    HW158129   5.941   7.773   9.618 -1.6737 -1.7302  0.5904
18896SOL    HW258130   5.873   7.909   9.610  1.0112 -0.2758  1.3879
18897SOL     OW58131   7.124   6.830   9.401  0.2596  1.0437 -0.9306
18897SOL    HW158132   7.091   6.798   9.485  2.4421 -0.9581 -0.7472
18897SOL    HW258133   7.179   6.905   9.424 -0.5176  1.5890 -0.7940
18898SOL     OW58134   6.211   0.792  11.771  0.0730 -0.3069 -0.7983
18898SOL    HW158135   6.181   0.777  11.860 -1.0903  0.1783 -1.0895
18898SOL    HW258136   6.178   0.878  11.748  3.1410  1.0605 -0.5827
18899SOL     OW58137   6.298   1.605  10.476 -0.0058 -0.0474 -0.2477
18899SOL    HW158138   6.240   1.621  10.550 -0.4100 -0.2380 -0.5174
18899SOL    HW258139   6.239   1.579  10.405  0.4870 -1.0334 -0.3008
18900SOL     OW58140   7.088   1.980   9.632  0.1142  0.6161  0.4526
18900SOL    HW158141   7.101   2.067   9.669 -2.2212  1.0188  0.4942
18900SOL    HW258142   7.160   1.928   9.666  0.7134  2.1576  1.6519
18901SOL     OW58143   7.050   0.152   9.974  0.1817  0.4463 -0.1069
18901SOL    HW158144   7.121   0.119  10.029  0.2979  1.2334  0.2243
18901SOL    HW258145   7.082   0.140   9.884  0.2798 -0.1929  0.0068
18902SOL     OW58146   0.998   1.421   8.334 -0.2133 -0.3108 -0.4684
18902SOL    HW158147   0.938   1.495   8.325  0.3574 -0.0658 -2.7340
18902SOL    HW258148   0.965   1.356   8.271 -1.0822 -2.3129  1.8991
18903SOL     OW58149   5.906   0.628  10.620  0.2092  0.7893  0.3901
18903SOL    HW158150   5.905   0.688  10.546  0.4489  0.8345  0.4227
18903SOL    HW258151   5.911   0.686  10.697 -1.4374  0.8159  0.5229
18904SOL     OW58152   6.422   7.762  10.305 -0.0944 -0.3012  0.7106
18904SOL    HW158153   6.381   7.780  10.221 -0.3592  0.2747  0.9625
18904SOL    HW258154   6.508   7.804  10.299  0.3857 -1.2822  0.2851
18905SOL     OW58155   6.776   0.051   9.344 -0.3025 -0.1390  0.3331
18905SOL    HW158156   6.758   0.142   9.318  0.4990 -0.4274 -1.3672
18905SOL    HW258157   6.863   0.054   9.383  0.0147 -0.2578 -0.3426
18906SOL     OW58158   5.426   7.278   8.848  0.5428  0.0759  0.1999
18906SOL    HW158159   5.461   7.269   8.937 -1.3698  1.9185  1.2449
18906SOL    HW258160   5.355   7.213   8.843 -0.7933  1.4205  0.8797
18907SOL     OW58161   6.718   0.430   7.717 -0.6595  0.2316  0.2184
18907SOL    HW158162   6.700   0.392   7.803  1.3826 -1.8702 -0.1723
18907SOL    HW258163   6.668   0.511   7.715 -1.1357  0.1024  3.1872
18908SOL     OW58164   6.247   7.950  10.110  0.4173  0.4192 -0.5941
18908SOL    HW158165   6.183   7.963  10.179 -0.2737  1.0794 -1.3449
18908SOL    HW258166   6.302   8.029  10.113  2.7604 -1.1385  1.6027
18909SOL     OW58167   0.147   1.921   0.098  0.2531 -0.4453 -0.6034
18909SOL    HW158168   0.089   1.923   0.022  0.6256  0.0852 -0.8793
18909SOL    HW258169   0.217   1.861   0.073  1.1598  0.8505 -1.2731
18910SOL     OW58170   5.381   1.955   9.127  0.2418  0.8239 -0.0302
18910SOL    HW158171   5.325   1.913   9.192 -0.0787  0.2471 -0.6687
18910SOL    HW258172   5.330   1.953   9.046  0.1825  2.5182 -0.0785
18911SOL     OW58173   7.445   3.049  10.010 -0.3464 -0.4533 -0.3064
18911SOL    HW158174   7.357   3.011  10.020 -0.5216 -0.2257 -0.9326
18911SOL    HW258175   7.449   3.075   9.918  0.5908 -0.9843 -0.4300
18912SOL     OW58176   7.778   0.315  10.017 -0.0894 -0.4730 -0.4449
18912SOL    HW158177   7.858   0.350  10.056 -1.3827  0.6200  1.4032
18912SOL    HW258178   7.722   0.293  10.092 -2.2635  0.6336 -1.6328
18913SOL     OW58179   6.460   7.034   8.902  0.0420  1.1100  0.4646
18913SOL    HW158180   6.373   6.995   8.913  0.2135 -0.0521 -1.8457
18913SOL    HW258181   6.452   7.121   8.942 -1.4618  0.1825  2.3688
18914SOL     OW58182   7.275   1.473  10.064 -0.3290  0.2230  0.0567
18914SOL    HW158183   7.357   1.426  10.080 -0.9203 -0.6650  0.5938
18914SOL    HW258184   7.208   1.404  10.067 -1.0141  0.8110 -1.1860
18915SOL     OW58185   6.874   0.226  10.898 -0.5184 -0.1768  0.2448
18915SOL    HW158186   6.912   0.139  10.887 -1.4481 -0.3865 -1.6977
18915SOL    HW258187   6.782   0.215  10.875 -0.5576  1.3963 -0.4876
18916SOL     OW58188   7.139   2.743  12.259  0.0390 -0.6050  0.3544
18916SOL    HW158189   7.136   2.654  12.294 -0.4852 -0.6294  0.2653
18916SOL    HW258190   7.057   2.751  12.210 -0.2477  0.1626  0.9459
18917SOL     OW58191   0.112   1.025  10.714 -0.1991 -0.0252  0.1274
18917SOL    HW158192   0.204   1.043  10.694 -0.5562  0.6473 -0.9471
18917SOL    HW258193   0.064   1.046  10.634 -1.2912 -0.4532  0.6387
18918SOL     OW58194   7.802   1.528   8.586  0.1487  0.4032  0.7687
18918SOL    HW158195   7.762   1.454   8.540 -0.4274  1.1666  0.0088
18918SOL    HW258196   7.896   1.515   8.575  0.0450 -0.1005  0.4470
18919SOL     OW58197   5.571   0.714   9.881 -0.0101 -0.0566 -0.3307
18919SOL    HW158198   5.584   0.801   9.845  1.6190  0.0034  0.2993
18919SOL    HW258199   5.490   0.683   9.842 -0.1583  1.3917 -1.2324
18920SOL     OW58200   6.621   2.619  11.679  0.1888 -0.5272 -0.1326
18920SOL    HW158201   6.544   2.587  11.727 -0.5342 -1.9061 -2.0770
18920SOL    HW258202   6.659   2.541  11.639  1.2722  0.4412 -1.0654
18921SOL     OW58203   7.188   7.720   8.398  0.2216  0.0519  0.1027
18921SOL    HW158204   7.114   7.678   8.353  1.0969 -2.2911  0.6825
18921SOL    HW258205   7.226   7.650   8.452  3.3506  0.9138 -0.7760
18922SOL     OW58206   6.134   0.085  10.736  0.2566 -0.3200  0.0141
18922SOL    HW158207   6.208   0.135  10.768  0.1099  1.5934 -2.3644
18922SOL    HW258208   6.058   0.121  10.782  0.4086  0.1410 -0.0960
18923SOL     OW58209   7.571   7.565   9.099 -0.1948 -0.3912  0.4093
18923SOL    HW158210   7.595   7.602   9.184 -1.3090  0.5962  0.3214
18923SOL    HW258211   7.505   7.498   9.120 -1.3479  0.6613  0.2703
18924SOL     OW58212   6.261   0.551  12.150 -0.0799  0.4893  0.4099
18924SOL    HW158213   6.332   0.528  12.091 -1.1985  0.1445 -0.8619
18924SOL    HW258214   6.209   0.615  12.102 -1.0069  0.2209  1.0077
18925SOL     OW58215   5.890   7.892   8.105 -0.1061  0.3981  0.3027
18925SOL    HW158216   5.908   7.984   8.122  2.3268 -0.0975  0.8099
18925SOL    HW258217   5.976   7.850   8.105 -1.2137 -2.1516  1.7278
18926SOL     OW58218   7.274   0.645   9.079 -0.2570 -0.2829  0.3016
18926SOL    HW158219   7.264   0.656   8.984 -0.8927 -1.8524  0.1569
18926SOL    HW258220   7.243   0.728   9.116 -1.3900 -0.1778 -0.7997
18927SOL     OW58221   7.173   2.257   9.116  0.0593 -0.0346  0.5691
18927SOL    HW158222   7.215   2.343   9.119 -0.9416  0.5110 -0.3102
18927SOL    HW258223   7.150   2.238   9.207  1.8461 -0.1969  1.0251
18928SOL     OW58224   5.732   1.443  11.590  0.1588  0.1539 -0.1275
18928SOL    HW158225   5.657   1.409  11.640  1.0190 -0.6080  0.6689
18928SOL    HW258226   5.790   1.480  11.656 -0.0903  1.9779 -0.8522
18929SOL     OW58227   5.345   0.857   8.783 -0.1255 -0.3635  0.2802
18929SOL    HW158228   5.423   0.849   8.837 -0.1609  0.7609  0.5190
18929SOL    HW258229   5.372   0.822   8.697  0.5974 -0.0944  0.3913
18930SOL     OW58230   6.663   2.649   9.960  0.8820  0.0210 -0.4419
18930SOL    HW158231   6.737   2.629  10.017  1.0590 -2.1134 -1.3116
18930SOL    HW258232   6.700   2.646   9.871 -0.0972 -0.3367 -0.8443
18931SOL     OW58233   7.228   0.356  10.281 -0.0480  0.0098 -0.4348
18931SOL    HW158234   7.241   0.301  10.203 -0.8889 -0.1555 -0.4710
18931SOL    HW258235   7.290   0.428  10.270 -0.2589  0.0690 -1.3363
18932SOL     OW58236   6.302   0.626   0.182 -0.5215  0.2475  0.0859
18932SOL    HW158237   6.216   0.597   0.214  0.1450 -1.9826  0.0464
18932SOL    HW258238   6.302   0.603   0.089  0.6167 -1.1437  0.4010
18933SOL     OW58239   4.697   0.656   9.085  0.2238 -0.3418 -0.3367
18933SOL    HW158240   4.770   0.707   9.049  0.0820  0.0297 -0.1059
18933SOL    HW258241   4.715   0.566   9.059  1.3382 -0.4229  0.6325
18934SOL     OW58242   5.394   0.250   8.253 -0.0508  0.3813 -0.4495
18934SOL    HW158243   5.396   0.243   8.158 -1.0379  2.2133 -0.6521
18934SOL    HW258244   5.381   0.343   8.270 -0.7821 -0.0158  1.4646
18935SOL     OW58245   7.672   7.590   9.353  0.1107  0.2248 -0.2635
18935SOL    HW158246   7.716   7.507   9.373  1.0526  0.6526 -0.5142
18935SOL    HW258247   7.743   7.651   9.334 -0.5664  1.1454  0.0994
18936SOL     OW58248   5.155   7.557   8.559 -0.2090 -0.1126 -0.6679
18936SOL    HW158249   5.079   7.614   8.552 -0.5136 -0.3119  0.6822
18936SOL    HW258250   5.217   7.591   8.495 -0.4295  1.6617  0.0094
18937SOL     OW58251   6.216   0.872   9.930  0.0423  0.0741 -0.9260
18937SOL    HW158252   6.311   0.867   9.939 -0.0125 -0.1011 -0.4203
18937SOL    HW258253   6.193   0.796   9.877  0.0964 -0.3835 -0.3089
18938SOL     OW58254   5.948   0.800  10.850  0.4941 -0.1958  0.7743
18938SOL    HW158255   5.883   0.861  10.884  0.3331 -0.3676  0.7810
18938SOL    HW258256   5.956   0.733  10.919  1.3231  0.2855  1.1616
18939SOL     OW58257   4.654   0.705  10.815 -0.5111  0.4277  0.7359
18939SOL    HW158258   4.646   0.727  10.907 -1.0726 -0.5880  0.9418
18939SOL    HW258259   4.632   0.612  10.810 -0.4182  0.4492 -0.4069
18940SOL     OW58260   0.171   3.537  11.841 -0.3406 -0.2081  0.1217
18940SOL    HW158261   0.165   3.471  11.909  0.7455 -2.3733 -1.7542
18940SOL    HW258262   0.194   3.488  11.762 -1.4337  2.1823 -1.7987
18941SOL     OW58263   5.887   6.390   9.833  0.3733 -0.1414 -0.6463
18941SOL    HW158264   5.953   6.321   9.845  0.3857  0.1916  1.5464
18941SOL    HW258265   5.809   6.355   9.876  0.1538  0.8911 -0.1892
18942SOL     OW58266   6.650   7.805   8.301 -0.7290 -0.4241  0.5057
18942SOL    HW158267   6.702   7.829   8.225 -1.9498  1.7762  0.2782
18942SOL    HW258268   6.683   7.861   8.372 -0.6836 -1.2825  1.1800
18943SOL     OW58269   6.697   2.002  10.596 -0.0717  0.2249  0.0560
18943SOL    HW158270   6.642   1.927  10.572  0.3161 -0.1995  0.4633
18943SOL    HW258271   6.786   1.973  10.575  0.0090  0.8956 -0.5749
18944SOL     OW58272   6.943   1.167   9.503 -0.1948 -0.1654 -0.0931
18944SOL    HW158273   6.852   1.193   9.491 -0.1694 -0.0425 -0.0237
18944SOL    HW258274   6.991   1.221   9.440 -0.5926 -3.3103 -3.4434
18945SOL     OW58275   1.957   1.984  10.815 -0.1922  0.7594 -0.5262
18945SOL    HW158276   1.959   2.007  10.908 -3.2750 -0.3282 -0.0897
18945SOL    HW258277   2.014   1.908  10.808 -0.2595  0.5900  0.5603
18946SOL     OW58278   5.855   7.742  11.527 -0.9584 -0.0202 -0.5333
18946SOL    HW158279   5.771   7.698  11.513 -0.8181 -0.4739  0.0210
18946SOL    HW258280   5.838   7.803  11.599 -0.4685 -1.1107  0.5310
18947SOL     OW58281   7.914   0.188  10.902  0.2915  0.2559 -0.5342
18947SOL    HW158282   7.832   0.211  10.858 -1.2681 -2.6704  0.5721
18947SOL    HW258283   7.945   0.109  10.857  1.7356  0.4854 -0.0121
18948SOL     OW58284   7.520   7.909   8.388 -0.0152  0.2146 -0.0960
18948SOL    HW158285   7.467   7.905   8.308 -0.8101  0.8765  0.3824
18948SOL    HW258286   7.471   7.855   8.451  0.2215  0.2931  0.1544
18949SOL     OW58287   7.272   3.543  10.470 -0.5727 -0.3433  0.2111
18949SOL    HW158288   7.210   3.477  10.442  0.7018 -1.2534 -0.5697
18949SOL    HW258289   7.219   3.620  10.489 -2.1640 -1.7483  1.7779
18950SOL     OW58290   6.447   7.738   9.303  0.3984  0.1050  1.0674
18950SOL    HW158291   6.355   7.766   9.300  0.9723  2.0304 -0.7776
18950SOL    HW258292   6.449   7.657   9.253  0.0488  1.2859 -0.9398
18951SOL     OW58293   7.791   0.667  10.390 -0.7682  0.2920  0.3486
18951SOL    HW158294   7.770   0.747  10.342  0.3668  0.7496  0.5866
18951SOL    HW258295   7.718   0.608  10.371 -0.8610  0.8295 -1.0887
18952SOL     OW58296   7.150   1.909   9.374  0.3422 -0.6967  0.4809
18952SOL    HW158297   7.116   1.924   9.462 -0.4874 -0.6819  0.1694
18952SOL    HW258298   7.127   1.989   9.326  3.1281  0.4990  0.8890
18953SOL     OW58299   6.852   0.628   8.612 -0.5879 -0.1909 -0.2827
18953SOL    HW158300   6.864   0.721   8.630 -0.3696 -0.5326  1.5988
18953SOL    HW258301   6.927   0.603   8.559  0.4775  0.3063  0.9331
18954SOL     OW58302   6.515   0.766   9.657  0.1814 -0.0848 -0.2756
18954SOL    HW158303   6.538   0.721   9.576  3.6091  0.4001  0.2815
18954SOL    HW258304   6.539   0.857   9.642 -3.2233  0.9851 -0.1107
18955SOL     OW58305   6.647   0.141  10.769 -0.2788  0.4172  0.1343
18955SOL    HW158306   6.668   0.068  10.710 -0.6636  1.0440 -0.8028
18955SOL    HW258307   6.552   0.148  10.766 -0.4621 -0.4926  2.0334
18956SOL     OW58308   7.421   0.422   9.045  0.3396 -0.5795 -1.1392
18956SOL    HW158309   7.403   0.512   9.071  2.4671 -0.1773 -0.8466
18956SOL    HW258310   7.347   0.371   9.078  1.1945  0.4008  2.7177
18957SOL     OW58311   5.651   0.933   8.542  0.5731  0.2316 -0.2324
18957SOL    HW158312   5.655   0.958   8.450  0.8010 -1.0313 -0.5788
18957SOL    HW258313   5.600   0.852   8.542  0.1840  0.4690  0.8064
18958SOL     OW58314   5.082   0.219  11.372 -0.0681  0.3837 -1.0148
18958SOL    HW158315   5.038   0.290  11.327 -0.6761  0.7025  0.0494
18958SOL    HW258316   5.172   0.250  11.384 -0.5415  1.3808  0.2262
18959SOL     OW58317   5.311   1.263  10.400  0.1715  0.1837  0.3962
18959SOL    HW158318   5.272   1.207  10.467 -0.5272  1.1278  0.7960
18959SOL    HW258319   5.331   1.203  10.328 -2.6959 -0.3041 -0.1426
18960SOL     OW58320   6.488   1.452  10.868 -0.4147 -0.1399 -0.2223
18960SOL    HW158321   6.570   1.426  10.910 -1.2933 -1.1020  0.9635
18960SOL    HW258322   6.507   1.538  10.829  1.5122 -0.9077 -1.0996
18961SOL     OW58323   6.070   0.790   8.771  0.5045 -0.0374 -0.2056
18961SOL    HW158324   6.038   0.838   8.847  1.3319  1.3178 -0.6670
18961SOL    HW258325   6.165   0.788   8.781  0.5241 -1.1580 -0.4666
18962SOL     OW58326   1.404   7.404  10.769  0.2269 -0.4797  0.1053
18962SOL    HW158327   1.445   7.490  10.773  0.6301 -0.6287 -0.6687
18962SOL    HW258328   1.474   7.345  10.743 -0.1472 -0.9744  0.2053
18963SOL     OW58329   5.778   1.667  12.277  0.0607 -0.2701  0.1425
18963SOL    HW158330   5.816   1.723  12.209 -1.4930 -0.4077 -0.8836
18963SOL    HW258331   5.764   1.725  12.351  1.8523 -0.1328  0.4217
18964SOL     OW58332   6.985   7.643   8.244 -0.1355 -0.2152 -0.0498
18964SOL    HW158333   6.952   7.680   8.162 -0.5219 -2.6777 -1.0963
18964SOL    HW258334   6.941   7.558   8.252  1.4699 -0.9740  1.6224
18965SOL     OW58335   7.320   1.403   9.226  0.0091 -0.3377 -0.2912
18965SOL    HW158336   7.401   1.353   9.224  0.7387  0.5909  2.1718
18965SOL    HW258337   7.348   1.494   9.225 -1.1093  0.0108 -1.2171
18966SOL     OW58338   4.516   0.859  11.055 -0.1711  0.0644 -0.0862
18966SOL    HW158339   4.568   0.881  11.133 -0.6541 -1.0856  0.5850
18966SOL    HW258340   4.472   0.940  11.032  0.6736  0.6503  0.2954
18967SOL     OW58341   4.867   1.732   9.934 -0.0640  0.1313  0.4048
18967SOL    HW158342   4.946   1.698   9.975  0.6721  1.9993  0.6494
18967SOL    HW258343   4.899   1.780   9.857 -1.2250 -1.3742 -1.0975
18968SOL     OW58344   7.367   0.376  11.204 -0.3570 -0.3273 -0.3318
18968SOL    HW158345   7.448   0.425  11.194  0.0061 -0.8909 -0.1924
18968SOL    HW258346   7.327   0.377  11.117 -0.1470 -0.1391 -0.4256
18969SOL     OW58347   7.818   7.016   9.605  0.2788 -0.0326  0.4672
18969SOL    HW158348   7.900   7.062   9.588  0.9843 -1.2189  0.5192
18969SOL    HW258349   7.828   6.981   9.693 -0.4868  0.2082  0.6550
18970SOL     OW58350   7.689   2.136  10.983 -0.5484  0.2913  0.1105
18970SOL    HW158351   7.602   2.176  10.983 -0.7275 -0.0837 -0.9011
18970SOL    HW258352   7.709   2.121  10.891 -0.4100 -1.7824  0.4394
18971SOL     OW58353   5.552   7.930   8.738  0.1971  0.2177  0.1692
18971SOL    HW158354   5.644   7.944   8.718  0.5534  0.6922  1.9219
18971SOL    HW258355   5.508   7.932   8.654  1.7034  0.6626 -0.6400
18972SOL     OW58356   4.841   1.599  10.674 -0.1823  0.2829  0.5776
18972SOL    HW158357   4.768   1.538  10.683 -0.9371  1.2372  0.9924
18972SOL    HW258358   4.811   1.664  10.611  0.5551  0.3350  0.2646
18973SOL     OW58359   6.018   7.588   9.267  0.4197 -0.5580 -0.2082
18973SOL    HW158360   5.926   7.574   9.290  0.6419  0.3882  1.4096
18973SOL    HW258361   6.052   7.500   9.248 -0.5740 -1.0385  0.1943
18974SOL     OW58362   7.993   0.072   8.718 -0.0670 -0.6171  0.2282
18974SOL    HW158363   7.990   0.167   8.730 -1.2308 -0.6572  0.4314
18974SOL    HW258364   7.960   0.057   8.629  2.0995 -0.7319 -0.6086
18975SOL     OW58365   5.458   2.659   9.836  0.6978 -0.4437 -0.4084
18975SOL    HW158366   5.378   2.607   9.842  0.0416  0.6222  0.7090
18975SOL    HW258367   5.491   2.663   9.926  0.8678  0.8240 -0.5059
18976SOL     OW58368   5.041   1.715  11.133  0.5016  0.0328 -0.3616
18976SOL    HW158369   5.028   1.659  11.056  0.7426 -1.7284  0.8342
18976SOL    HW258370   5.082   1.794  11.097 -0.2900 -0.3114 -2.1733
18977SOL     OW58371   6.140   7.486   8.758 -0.0863 -0.3191 -0.1963
18977SOL    HW158372   6.205   7.547   8.792 -1.4852  0.6835  0.7735
18977SOL    HW258373   6.164   7.475   8.666  2.0103 -0.7574  0.3450
18978SOL     OW58374   4.901   1.187  10.458  0.6928 -0.2745 -0.8642
18978SOL    HW158375   4.918   1.204  10.365 -0.5495 -1.4918 -1.3372
18978SOL    HW258376   4.822   1.134  10.459 -0.5243  1.4078  1.0169
18979SOL     OW58377   4.070   2.935   9.380  0.4214  0.3122  0.1859
18979SOL    HW158378   4.036   2.847   9.399  0.3598  0.4964  0.9334
18979SOL    HW258379   4.162   2.932   9.406 -0.1602  1.1779  2.5683
18980SOL     OW58380   6.127   0.267  10.276 -0.0086  0.0858  0.2327
18980SOL    HW158381   6.084   0.290  10.358  0.6870  2.9638 -0.1032
18980SOL    HW258382   6.077   0.313  10.209  1.8588  1.2388 -0.4554
18981SOL     OW58383   0.009   0.580   9.530 -0.4512  0.2713 -0.2541
18981SOL    HW158384   0.072   0.563   9.600 -1.6973  0.0407  0.8691
18981SOL    HW258385  -0.006   0.675   9.535 -0.6544  0.2315 -0.1047
18982SOL     OW58386   5.016   6.814   9.774 -0.6018 -0.3032  0.2003
18982SOL    HW158387   4.932   6.827   9.731 -0.6719 -0.8504  0.1740
18982SOL    HW258388   5.019   6.883   9.841 -0.4237  0.6453 -0.7513
18983SOL     OW58389   7.518   7.958   7.060  0.0975  0.5962 -0.0677
18983SOL    HW158390   7.473   7.944   7.143  4.1004  0.4360  2.2803
18983SOL    HW258391   7.511   8.053   7.045  0.7398  0.8756  1.3346
18984SOL     OW58392   5.276   0.307   9.794  0.3829 -0.1987  0.8148
18984SOL    HW158393   5.265   0.212   9.794 -0.1243 -0.1577 -0.6593
18984SOL    HW258394   5.330   0.325   9.871 -0.1269 -1.6013  1.5320
18985SOL     OW58395   6.156   7.103   8.636 -0.1499 -0.3512  0.2044
18985SOL    HW158396   6.136   7.041   8.565  2.6780 -0.6151 -0.4578
18985SOL    HW258397   6.073   7.112   8.682 -1.7699 -1.2436 -2.2824
18986SOL     OW58398   0.429   1.008   9.783 -0.1308  0.2054  0.4224
18986SOL    HW158399   0.468   0.920   9.785  1.5762  0.9164  2.4775
18986SOL    HW258400   0.344   0.998   9.825 -0.0970 -0.5364  0.3230
18987SOL     OW58401   6.682   1.088  10.892 -0.2281  0.6372 -0.2962
18987SOL    HW158402   6.714   1.028  10.825  2.1232  0.4919  0.8376
18987SOL    HW258403   6.597   1.053  10.918  1.0434 -2.2923  0.3402
18988SOL     OW58404   7.500   2.239  11.343  0.2736 -0.4190 -0.1022
18988SOL    HW158405   7.460   2.191  11.270  0.9349 -2.3949  0.7731
18988SOL    HW258406   7.474   2.330  11.329 -0.0778 -0.8295 -2.4773
18989SOL     OW58407   6.791   0.128   9.653 -0.0835 -0.2732  0.0481
18989SOL    HW158408   6.785   0.049   9.706  1.5639  0.2340  1.0675
18989SOL    HW258409   6.864   0.113   9.594 -0.6658 -0.0560 -0.7462
18990SOL     OW58410   0.057   6.093  10.461  0.3448  0.3174  0.6757
18990SOL    HW158411   0.103   6.038  10.398 -1.1110 -0.0084 -0.1549
18990SOL    HW258412   0.099   6.074  10.545  0.6450 -1.2042  0.2190
18991SOL     OW58413   6.838   1.587  10.937  0.1731 -0.0431  0.6574
18991SOL    HW158414   6.786   1.519  10.979 -0.3991  0.5242  0.8942
18991SOL    HW258415   6.817   1.579  10.844 -0.0458 -0.0705  0.7069
18992SOL     OW58416   7.754   2.632  10.606  0.1578 -0.0114  0.0336
18992SOL    HW158417   7.808   2.561  10.571  1.0428  0.1321  1.0402
18992SOL    HW258418   7.808   2.710  10.598  0.0175  0.1783  0.8457
18993SOL     OW58419   0.540   7.884   9.156  0.1729 -0.0713 -0.7556
18993SOL    HW158420   0.470   7.881   9.090  1.0069  1.0771 -1.7385
18993SOL    HW258421   0.616   7.846   9.111  0.4333 -0.4557 -0.0015
18994SOL     OW58422   4.447   2.190   0.089  0.4901 -0.1820  0.6053
18994SOL    HW158423   4.467   2.237   0.170  0.2356  1.0753 -0.0326
18994SOL    HW258424   4.524   2.137   0.072  0.6244 -0.3153  1.5605
18995SOL     OW58425   5.347   2.063  11.315  0.1588  0.5669  0.2117
18995SOL    HW158426   5.431   2.094  11.281  0.4583 -1.2552 -0.8316
18995SOL    HW258427   5.363   1.972  11.340 -1.9644 -0.5332 -2.0041
18996SOL     OW58428   7.113   6.825   9.670 -0.3861 -0.4805 -0.1101
18996SOL    HW158429   7.107   6.775   9.751 -1.4703 -1.1653 -0.5876
18996SOL    HW258430   7.180   6.891   9.687 -0.4065 -0.7843  1.2436
18997SOL     OW58431   6.154   6.890  11.122  0.0589  0.1070 -0.1082
18997SOL    HW158432   6.160   6.837  11.201  0.7622 -0.7902 -0.7399
18997SOL    HW258433   6.182   6.831  11.051 -0.1843  1.0002 -0.9752
18998SOL     OW58434   6.807   6.979  10.649 -0.5044 -0.0323 -0.7033
18998SOL    HW158435   6.814   7.063  10.694  1.1590  1.1470 -2.9641
18998SOL    HW258436   6.892   6.937  10.664 -1.3329 -1.4136  0.4450
18999SOL     OW58437   7.369   1.676   9.918 -0.4890 -0.2597 -0.4244
18999SOL    HW158438   7.406   1.737   9.982 -0.2399 -0.0086 -0.8049
18999SOL    HW258439   7.345   1.599   9.969  0.5265 -0.4172 -0.1564
19000SOL     OW58440   7.588   0.607   9.280  0.1231 -0.5835 -0.6138
19000SOL    HW158441   7.591   0.661   9.201 -0.8991  0.7241  0.1836
19000SOL    HW258442   7.569   0.519   9.249 -1.5973  0.1408 -1.7682
19001SOL     OW58443   6.661   1.533   9.821  0.1115  0.1283 -0.3056
19001SOL    HW158444   6.724   1.528   9.748  1.0122 -1.4123  0.5291
19001SOL    HW258445   6.672   1.451   9.868 -2.2644 -0.0147  0.1307
19002SOL     OW58446   5.850   1.727   0.069  0.7009 -0.0975 -0.3265
19002SOL    HW158447   5.918   1.765   0.124 -0.9220  0.1069  1.6626
19002SOL    HW258448   5.774   1.785   0.081 -0.2263 -1.0396 -1.4170
19003SOL     OW58449   6.501   7.825  10.599 -0.1812  0.2725  0.8630
19003SOL    HW158450   6.429   7.857  10.544  0.4485 -2.0285 -1.5078
19003SOL    HW258451   6.579   7.865  10.562  0.1163 -0.2094  0.9639
19004SOL     OW58452   6.724   0.590  11.059 -0.0516 -0.5461 -0.1323
19004SOL    HW158453   6.727   0.505  11.103 -0.9573  0.8780  3.0095
19004SOL    HW258454   6.636   0.623  11.077 -0.1344  0.6173 -2.3004
19005SOL     OW58455   6.947   0.613   8.028  0.0163  0.4293 -0.4503
19005SOL    HW158456   6.893   0.676   8.076  0.3934  1.0103 -0.7877
19005SOL    HW258457   6.963   0.654   7.943 -1.0075 -0.7656 -1.2632
19006SOL     OW58458   7.139   7.757   9.874  0.0824 -0.2320  0.2695
19006SOL    HW158459   7.210   7.814   9.843 -0.6153  1.0005  0.8389
19006SOL    HW258460   7.166   7.732   9.962  0.8205 -1.5676 -0.3126
19007SOL     OW58461   6.624   0.873   8.613 -0.1098 -0.3772 -0.1604
19007SOL    HW158462   6.686   0.855   8.684  2.4021 -0.2468 -2.2064
19007SOL    HW258463   6.651   0.957   8.578  0.3009 -1.4955 -2.7576
19008SOL     OW58464   7.434   7.681  11.223  0.0564 -0.0550 -0.1489
19008SOL    HW158465   7.500   7.715  11.284 -0.7777 -2.4641  2.3327
19008SOL    HW258466   7.480   7.611  11.175  0.0603  0.1882 -0.5007
19009SOL     OW58467   6.662   7.540   9.666 -0.4619 -0.2632  0.0834
19009SOL    HW158468   6.639   7.450   9.688 -0.1423 -0.6680 -1.1410
19009SOL    HW258469   6.728   7.565   9.730 -0.8725 -0.7384  0.7056
19010SOL     OW58470   6.345   0.764   8.755 -0.1630  0.2577 -0.2239
19010SOL    HW158471   6.347   0.673   8.787  1.3102  0.3767  0.0896
19010SOL    HW258472   6.418   0.770   8.693  0.1638  1.3930  0.2420
19011SOL     OW58473   5.879   3.337  10.599 -0.4408 -0.5776 -0.4335
19011SOL    HW158474   5.943   3.267  10.611 -0.6677 -0.6288  0.6109
19011SOL    HW258475   5.905   3.403  10.664 -1.1298 -0.3745 -0.3610
19012SOL     OW58476   6.214   1.444   7.764  0.2158 -0.1840 -0.2070
19012SOL    HW158477   6.136   1.477   7.810  0.2407  1.2393 -1.1288
19012SOL    HW258478   6.285   1.457   7.827 -0.1274 -0.6145  0.2853
19013SOL     OW58479   6.228   1.603   6.856 -0.3164  0.0051 -0.3939
19013SOL    HW158480   6.195   1.601   6.766 -3.6114 -0.2030  0.6720
19013SOL    HW258481   6.214   1.693   6.884 -1.6507 -0.4722  0.6012
19014SOL     OW58482   0.085   7.960  10.146 -0.2056  0.0744  0.5086
19014SOL    HW158483   0.104   8.007  10.065 -0.3072 -1.3873 -0.4110
19014SOL    HW258484   0.168   7.960  10.194  0.4709 -0.8495 -0.5893
19015SOL     OW58485   4.355   1.887  11.718 -0.1821 -0.0503 -0.4865
19015SOL    HW158486   4.386   1.970  11.682  0.4956  0.9002  2.1021
19015SOL    HW258487   4.410   1.821  11.675  3.1171  1.3138  1.2384
19016SOL     OW58488   6.175   1.541   8.679 -0.2548  0.0095  0.8026
19016SOL    HW158489   6.133   1.498   8.604 -1.3379  0.8320  0.9192
19016SOL    HW258490   6.234   1.474   8.715 -0.1004 -0.5682 -0.4618
19017SOL     OW58491   6.767   1.999   9.338 -0.3054  0.2030  0.0392
19017SOL    HW158492   6.788   2.064   9.405 -1.6249  2.0682 -1.2157
19017SOL    HW258493   6.848   1.988   9.289 -0.3278  1.8960 -0.4547
19018SOL     OW58494   0.365   1.729   0.057 -0.4078 -0.5608 -0.4568
19018SOL    HW158495   0.301   1.658   0.062  0.9519 -1.7575  1.1346
19018SOL    HW258496   0.436   1.694   0.004  0.7450 -0.8479  1.1991
19019SOL     OW58497   6.637   7.026   8.685 -0.5074 -0.4550 -0.4216
19019SOL    HW158498   6.644   6.932   8.672 -0.3259 -0.8035  1.7897
19019SOL    HW258499   6.578   7.035   8.760 -1.2264  1.2372 -1.1464
19020SOL     OW58500   6.193   7.758   9.365 -0.3066 -0.2949  0.3358
19020SOL    HW158501   6.167   7.758   9.457  0.9669 -0.1603  0.7201
19020SOL    HW258502   6.124   7.709   9.320 -1.2751  0.1999  1.2552
19021SOL     OW58503   7.136   7.718   8.866 -0.4274  0.0127 -0.1469
19021SOL    HW158504   7.209   7.775   8.838 -0.8115  1.5894  1.8333
19021SOL    HW258505   7.126   7.736   8.959 -2.4941 -1.1898 -0.0813
19022SOL     OW58506   0.179   0.404   9.006  0.2601  0.1450 -0.5415
19022SOL    HW158507   0.190   0.498   8.992  0.7044 -0.0590 -1.6629
19022SOL    HW258508   0.267   0.367   8.992  0.5148 -0.2421  1.7345
19023SOL     OW58509   5.824   1.221   9.967 -0.0679  0.4170 -0.2370
19023SOL    HW158510   5.839   1.315   9.976 -0.2566  0.4394 -0.1535
19023SOL    HW258511   5.909   1.181   9.985 -0.0819  0.5467  0.1179
19024SOL     OW58512   5.999   0.997   9.107 -0.3507 -0.1409  0.6364
19024SOL    HW158513   6.072   0.984   9.046  0.2135 -0.4377  1.3582
19024SOL    HW258514   6.017   1.082   9.148  0.4813 -0.9558  1.9995
19025SOL     OW58515   5.851   2.815  10.030 -0.2254 -0.1815  0.1095
19025SOL    HW158516   5.789   2.741  10.023  1.9088 -1.9580 -1.2682
19025SOL    HW258517   5.842   2.843  10.121 -2.1206 -1.1921  0.3086
19026SOL     OW58518   0.837   0.438   9.308 -0.3616  0.5746  0.3671
19026SOL    HW158519   0.926   0.474   9.315 -0.0085  0.2218 -1.7090
19026SOL    HW258520   0.848   0.344   9.323 -0.4647  0.6083  0.6493
19027SOL     OW58521   5.643   0.749  10.168  0.3905 -0.7390  0.0246
19027SOL    HW158522   5.657   0.839  10.138 -0.7700 -0.8760 -1.0090
19027SOL    HW258523   5.619   0.701  10.089 -2.3361 -1.2370  1.0382
19028SOL     OW58524   5.953   7.097   9.613  0.1124  0.2318  0.0698
19028SOL    HW158525   5.957   7.009   9.576  0.8374 -0.0021  0.6762
19028SOL    HW258526   5.896   7.146   9.553  0.0851 -0.5184 -0.5298
19029SOL     OW58527   3.932   1.338   9.432 -0.2480 -0.1361  0.6329
19029SOL    HW158528   4.010   1.305   9.476 -0.7090 -0.3747  1.2888
19029SOL    HW258529   3.906   1.267   9.373 -0.9474 -0.7833  1.6752
19030SOL     OW58530   5.943   2.434   8.940 -0.1462  0.3225 -0.4119
19030SOL    HW158531   5.889   2.471   8.870 -2.7062 -2.4746 -0.1481
19030SOL    HW258532   5.942   2.500   9.009 -0.0111  1.9280 -1.9008
19031SOL     OW58533   6.877   0.614  10.805  0.2882 -0.5235  0.2555
19031SOL    HW158534   6.942   0.682  10.821 -0.8976  0.5337  0.7321
19031SOL    HW258535   6.819   0.617  10.881  0.0318 -1.8676  0.1409
19032SOL     OW58536   7.121   1.229   0.551 -0.8298 -0.0084 -0.3183
19032SOL    HW158537   7.047   1.264   0.502 -0.3675  0.3392 -0.7797
19032SOL    HW258538   7.179   1.304   0.564 -0.1417 -0.4521 -0.7398
19033SOL     OW58539   5.372   7.715  11.976 -0.0629  0.4739  0.2852
19033SOL    HW158540   5.459   7.753  11.967  0.5478 -0.9435 -0.1282
19033SOL    HW258541   5.330   7.731  11.891 -0.2464  1.2262  0.5116
19034SOL     OW58542   6.731   0.453   0.267 -0.6543 -0.5484 -0.3334
19034SOL    HW158543   6.764   0.524   0.322 -1.4511  0.7722 -1.4822
19034SOL    HW258544   6.679   0.497   0.199 -0.3699 -2.1496 -1.6754
19035SOL     OW58545   7.041   0.564  12.283  0.0522 -0.6076  0.8329
19035SOL    HW158546   7.019   0.472  12.299  0.9569 -0.6994  1.6343
19035SOL    HW258547   7.083   0.564  12.196  0.4899 -1.0318  1.0378
19036SOL     OW58548   7.122   7.512   9.697  1.0351 -0.1597  0.2226
19036SOL    HW158549   7.107   7.417   9.694 -0.1694  0.0438 -1.4921
19036SOL    HW258550   7.217   7.521   9.703  1.2721 -1.4720 -0.9763
19037SOL     OW58551   7.053   0.781   9.436 -0.3795 -0.1895  0.4892
19037SOL    HW158552   7.000   0.724   9.493  1.0417  0.4344  2.5310
19037SOL    HW258553   7.081   0.853   9.493  0.4948  0.8893 -1.2209
19038SOL     OW58554   5.744   2.256   0.781 -0.1007  0.1024  0.1749
19038SOL    HW158555   5.651   2.257   0.757  0.0075 -1.1447 -0.3897
19038SOL    HW258556   5.790   2.283   0.701  0.0102  1.1966  0.5976
19039SOL     OW58557   7.682   1.966  11.757  0.7109 -0.3058  0.2012
19039SOL    HW158558   7.676   1.872  11.742  0.3439 -0.0708 -1.3563
19039SOL    HW258559   7.633   2.005  11.684  0.4589  1.0844  1.0679
19040SOL     OW58560   5.629   2.448  12.424  0.6338  0.5996 -0.2663
19040SOL    HW158561   5.541   2.413  12.418  1.3800 -1.6256  0.7177
19040SOL    HW258562   5.681   2.395  12.364  1.8409 -0.2415  1.4016
19041SOL     OW58563   6.848   2.164   0.159  0.2581 -0.1022  0.1761
19041SOL    HW158564   6.878   2.099   0.096 -2.2958 -2.4328  1.1311
19041SOL    HW258565   6.771   2.204   0.119 -0.8725 -0.9897  1.3461
19042SOL     OW58566   6.385   0.866  10.796  0.1539  0.1423 -0.0771
19042SOL    HW158567   6.476   0.851  10.769  0.1225 -0.2962  0.0519
19042SOL    HW258568   6.345   0.779  10.797  0.0376  0.1890  0.9684
19043SOL     OW58569   5.892   2.507  11.701  0.0589 -0.3246 -0.1303
19043SOL    HW158570   5.810   2.471  11.666  0.6292 -1.4520 -0.3344
19043SOL    HW258571   5.961   2.461  11.654  0.9016  2.6663 -2.1129
19044SOL     OW58572   5.615   1.988  11.984  0.4629  0.2964 -0.4128
19044SOL    HW158573   5.691   1.954  11.935  0.1847 -0.6058 -0.2418
19044SOL    HW258574   5.644   1.990  12.075 -0.1063 -1.2599 -0.1695
19045SOL     OW58575   5.001   1.438  12.480  0.8072 -0.0392  0.1667
19045SOL    HW158576   4.920   1.487  12.484  1.2683  0.7519 -0.0352
19045SOL    HW258577   5.005   1.392  12.564 -1.4000 -2.6545 -1.0053
19046SOL     OW58578   5.942   6.917   9.891  0.2689 -0.6600 -0.6557
19046SOL    HW158579   5.973   6.827   9.898  1.0027 -0.3319  0.5036
19046SOL    HW258580   5.874   6.913   9.823  1.5129 -1.7502 -1.9141
19047SOL     OW58581   7.209   2.560  10.196  0.0531 -0.1427  0.1196
19047SOL    HW158582   7.283   2.598  10.149 -0.0584 -1.9941 -1.6409
19047SOL    HW258583   7.142   2.546  10.129 -1.6789  0.8402  1.5496
19048SOL     OW58584   5.885   1.718  10.931  0.1178  0.2768 -0.1104
19048SOL    HW158585   5.829   1.640  10.936  1.2266 -0.6361 -1.4206
19048SOL    HW258586   5.836   1.779  10.875  0.3451 -0.4716 -1.1499
19049SOL     OW58587   1.153   1.487  11.498 -0.2613 -0.2922 -0.1612
19049SOL    HW158588   1.168   1.429  11.423 -1.8739 -0.4378 -0.4081
19049SOL    HW258589   1.110   1.431  11.562 -0.0291  0.1560  0.3901
19050SOL     OW58590   6.930   0.769  11.887  0.1269 -0.2098 -0.1112
19050SOL    HW158591   6.881   0.843  11.851  0.1591 -0.2773 -0.2953
19050SOL    HW258592   7.008   0.763  11.832 -0.7477 -1.5151 -1.2705
19051SOL     OW58593   5.128   7.889   0.053 -0.4027 -0.3920  0.3744
19051SOL    HW158594   5.047   7.844   0.030 -0.8783  0.4301  0.4299
19051SOL    HW258595   5.128   7.967  -0.002 -0.8034  0.8193  2.0456
19052SOL     OW58596   7.242   1.899   0.701  0.1088 -0.1828  0.1139
19052SOL    HW158597   7.198   1.827   0.655 -0.6859  0.5629 -0.3016
19052SOL    HW258598   7.309   1.929   0.639 -0.3093  0.1721 -0.1722
19053SOL     OW58599   0.575   1.766   9.176  0.3365  0.0666 -0.1035
19053SOL    HW158600   0.645   1.704   9.156  1.5017  1.4280 -0.4653
19053SOL    HW258601   0.535   1.786   9.091  0.5997  0.5080 -0.1303
19054SOL     OW58602   0.979   2.489  11.776  0.2601 -0.3898 -0.1563
19054SOL    HW158603   1.040   2.562  11.764 -0.0695 -0.3955 -2.2499
19054SOL    HW258604   1.024   2.414  11.737 -0.2243 -0.8641  0.1925
19055SOL     OW58605   1.139   2.239  11.767  0.1842  0.0230 -0.2457
19055SOL    HW158606   1.200   2.311  11.782  0.1556  0.1171 -0.5742
19055SOL    HW258607   1.164   2.204  11.682 -1.6274  1.4836 -1.4407
19056SOL     OW58608   6.252   1.715  12.498  0.7876  0.1789 -0.0686
19056SOL    HW158609   6.198   1.648  12.454  0.5715  0.9020 -0.9245
19056SOL    HW258610   6.225   1.710  12.590 -0.7962  0.5391 -0.4730
19057SOL     OW58611   7.137   0.592  11.975 -0.4214 -0.0238 -0.7609
19057SOL    HW158612   7.086   0.543  11.910  0.8963 -1.1090 -1.0341
19057SOL    HW258613   7.154   0.676  11.933 -2.8211  0.7887 -0.2422
19058SOL     OW58614   6.258   1.575  11.986  0.4842 -0.1641 -0.4648
19058SOL    HW158615   6.272   1.561  11.892  2.5428 -1.2193 -0.0532
19058SOL    HW258616   6.312   1.508  12.028  0.4938  1.0188  1.5035
19059SOL     OW58617   6.556   1.786  11.580  0.1784 -0.4750 -0.1888
19059SOL    HW158618   6.632   1.830  11.541  0.2087  0.0863  0.4774
19059SOL    HW258619   6.509   1.749  11.506  0.1703  0.6683 -0.7756
19060SOL     OW58620   6.454   1.350  10.508 -0.3840  0.0937 -0.3338
19060SOL    HW158621   6.400   1.307  10.575 -0.1941  0.9423  0.3975
19060SOL    HW258622   6.397   1.418  10.472  0.5469  1.8538  1.3523
19061SOL     OW58623   6.523   0.413  12.010  1.0158  0.4566  0.5487
19061SOL    HW158624   6.565   0.335  12.044 -0.7557  0.0236  1.8504
19061SOL    HW258625   6.586   0.483  12.026  2.3400 -0.5726 -0.0240
19062SOL     OW58626   6.538   0.029   9.988 -0.0157  0.5150  0.0132
19062SOL    HW158627   6.477   0.102  10.002 -0.2569  0.4248 -0.5771
19062SOL    HW258628   6.618   0.056  10.034 -0.5811  0.5145  1.0322
19063SOL     OW58629   7.232   1.344  10.918 -0.1931  0.4270  0.3710
19063SOL    HW158630   7.241   1.388  10.833 -0.5192 -0.5494 -0.1997
19063SOL    HW258631   7.274   1.259  10.904 -0.4515  0.1729  1.1230
19064SOL     OW58632   0.505   6.519  11.504 -0.1123  0.2802  0.4485
19064SOL    HW158633   0.590   6.560  11.514  0.8783 -1.6816  0.5995
19064SOL    HW258634   0.514   6.434  11.547 -1.0539 -1.4238 -2.4643
19065SOL     OW58635   6.003   2.112  10.671 -0.7459  0.8858  0.4689
19065SOL    HW158636   5.952   2.034  10.649  0.4905  0.4062 -0.8830
19065SOL    HW258637   6.011   2.110  10.766 -1.5472 -0.0995  0.5319
19066SOL     OW58638   6.406   3.128  11.212  0.3413 -0.2308  0.3876
19066SOL    HW158639   6.473   3.191  11.184 -1.2261  1.9516  1.2420
19066SOL    HW258640   6.399   3.141  11.307 -0.8290 -0.8862  0.4108
19067SOL     OW58641   7.040   1.134  11.806 -0.5044  0.4196  0.4222
19067SOL    HW158642   7.016   1.217  11.846  2.1530  0.8465  1.3445
19067SOL    HW258643   7.125   1.113  11.845  0.4749 -1.0284 -2.2633
19068SOL     OW58644   4.987   1.324   0.233  0.9273 -0.2468 -0.4567
19068SOL    HW158645   4.984   1.229   0.224 -0.6072 -0.0906 -2.6739
19068SOL    HW258646   4.941   1.342   0.315  0.9522 -1.4065 -0.1722
19069SOL     OW58647   6.921   0.902  12.164 -0.2715 -0.0095 -0.2359
19069SOL    HW158648   6.997   0.956  12.145 -1.3821  1.1418 -1.6335
19069SOL    HW258649   6.901   0.858  12.081 -0.7854 -0.7422  0.2585
19070SOL     OW58650   7.920   2.874  11.526  0.3165 -0.4947 -0.6414
19070SOL    HW158651   7.928   2.969  11.534 -0.3160 -0.4246 -0.8440
19070SOL    HW258652   8.004   2.846  11.491  0.4487  0.0080 -0.7321
19071SOL     OW58653   0.487   3.008  12.232  0.1965 -0.0456  0.4354
19071SOL    HW158654   0.558   3.070  12.216 -0.2582  0.2896 -0.3912
19071SOL    HW258655   0.482   2.956  12.151 -0.9408  0.4092  0.1918
19072SOL     OW58656   6.724   2.830  11.078  1.0031 -0.1035 -0.7036
19072SOL    HW158657   6.658   2.857  11.141  2.1951  0.4263  0.3764
19072SOL    HW258658   6.715   2.892  11.006  0.2848 -0.0859 -0.6062
19073SOL     OW58659   1.103   6.951  10.535  0.5197  0.4867  0.6414
19073SOL    HW158660   1.147   6.869  10.514 -1.5661 -0.4291 -0.4492
19073SOL    HW258661   1.091   6.948  10.630 -0.7895 -1.2061  0.4766
19074SOL     OW58662   6.019   0.723   1.626 -0.0841 -0.1922  0.4076
19074SOL    HW158663   6.066   0.800   1.657  1.7709 -0.2828 -1.8586
19074SOL    HW258664   5.989   0.679   1.705  2.9540  0.3688  2.0055
19075SOL     OW58665   6.420   2.620  11.856  0.6861 -0.5800 -0.1709
19075SOL    HW158666   6.396   2.711  11.837 -0.4838 -1.2191 -2.0644
19075SOL    HW258667   6.380   2.602  11.941  0.9428  0.6547  0.2372
19076SOL     OW58668   6.610   2.132  10.073 -0.5123  0.0227 -0.3310
19076SOL    HW158669   6.549   2.205  10.072 -0.4055  0.1672  1.2118
19076SOL    HW258670   6.697   2.172  10.076 -0.4714 -0.1141  1.3104
19077SOL     OW58671   5.699   7.582  10.170 -1.0600  0.0563 -0.1249
19077SOL    HW158672   5.769   7.539  10.122  1.8857  1.4408  2.5064
19077SOL    HW258673   5.667   7.516  10.232  0.7787  0.4486  1.3212
19078SOL     OW58674   7.447   0.821  12.103 -0.5520  0.2513  0.2543
19078SOL    HW158675   7.486   0.892  12.053  0.4050 -0.1204  0.4395
19078SOL    HW258676   7.386   0.779  12.043  1.3985 -0.9021 -1.0316
19079SOL     OW58677   0.105   1.479  12.251 -0.3284  0.4817 -0.2894
19079SOL    HW158678   0.109   1.498  12.345  2.1456 -0.1813 -0.2043
19079SOL    HW258679   0.089   1.565  12.211  0.7683  1.1428  0.6222
19080SOL     OW58680   7.789   1.268  10.593 -0.0706  0.6964  0.5321
19080SOL    HW158681   7.747   1.348  10.625 -1.6607 -0.0313  0.3761
19080SOL    HW258682   7.814   1.220  10.673  2.3454  1.9965  0.6559
19081SOL     OW58683   6.587   0.801  10.063  0.0695  0.1812 -0.1920
19081SOL    HW158684   6.544   0.716  10.059 -1.1669  0.8212 -1.4073
19081SOL    HW258685   6.672   0.787  10.020  1.3924 -1.1923  2.5901
19082SOL     OW58686   6.272   7.484  10.825  0.0051 -0.0454 -0.3992
19082SOL    HW158687   6.241   7.442  10.745 -1.3148  0.9192 -0.4097
19082SOL    HW258688   6.287   7.575  10.801  3.1569 -0.4399 -0.4558
19083SOL     OW58689   6.091   1.500   9.303 -0.5402  0.0209 -0.1984
19083SOL    HW158690   6.063   1.579   9.258  1.2180  0.3650 -0.7689
19083SOL    HW258691   6.069   1.515   9.395 -0.3577  1.1198 -0.3207
19084SOL     OW58692   7.959   7.540   0.605 -0.4009 -0.2141  0.1549
19084SOL    HW158693   7.995   7.491   0.531  0.7353 -0.2393  0.7039
19084SOL    HW258694   8.019   7.521   0.677 -0.9582  0.5740  0.8362
19085SOL     OW58695   7.500   0.663  11.357 -0.2544  0.2098  0.5861
19085SOL    HW158696   7.546   0.597  11.305  0.1598  1.8617 -1.2670
19085SOL    HW258697   7.409   0.657  11.326 -0.4960 -0.3776  1.3886
19086SOL     OW58698   7.856   1.176  10.934 -0.0895 -0.4950 -0.3656
19086SOL    HW158699   7.763   1.156  10.926 -0.5326  0.4564  1.7031
19086SOL    HW258700   7.861   1.237  11.008  2.2008 -0.6727 -0.3082
19087SOL     OW58701   7.814   7.376  11.224 -0.3412  0.0472  0.1443
19087SOL    HW158702   7.752   7.356  11.295 -2.2236 -1.2930 -1.7411
19087SOL    HW258703   7.822   7.294  11.176  0.4779  1.0273 -1.4848
19088SOL     OW58704   4.920   7.698   2.248 -0.2116  0.9607  0.4411
19088SOL    HW158705   4.980   7.748   2.193  0.4838 -0.1873  0.1175
19088SOL    HW258706   4.857   7.660   2.187  0.6362 -0.4205  0.3858
19089SOL     OW58707   0.043   7.797  10.427  0.4780 -0.9423 -0.0666
19089SOL    HW158708   0.060   7.708  10.457  2.2787 -0.4723  0.4690
19089SOL    HW258709   0.111   7.813  10.362  0.3874  0.1308  0.0831
19090SOL     OW58710   6.173   1.399  10.737 -0.5870  0.6429  0.3077
19090SOL    HW158711   6.118   1.372  10.810  0.0628  2.1238  1.3947
19090SOL    HW258712   6.254   1.350  10.749 -0.0689  1.6857  1.2573
19091SOL     OW58713   0.474   7.696  11.013 -0.1172  0.2345  0.1269
19091SOL    HW158714   0.500   7.608  10.985 -2.9537 -1.0200  1.0716
19091SOL    HW258715   0.552   7.731  11.057  2.4530 -0.0812 -3.6436
19092SOL     OW58716   6.254   1.292   0.431 -0.2412 -0.0578  0.1272
19092SOL    HW158717   6.289   1.225   0.372  0.9664  0.6145  0.0650
19092SOL    HW258718   6.161   1.299   0.406  0.2320  0.1915 -1.6760
19093SOL     OW58719   7.753   7.760  10.913 -0.1726 -0.3393  0.2271
19093SOL    HW158720   7.741   7.704  10.990 -1.1203  0.2673  0.5420
19093SOL    HW258721   7.820   7.823  10.938 -0.6947  0.0476  0.6869
19094SOL     OW58722   6.382   1.401  11.111  0.2962  0.2093  0.0608
19094SOL    HW158723   6.424   1.423  11.028 -1.2037  0.7900 -0.5696
19094SOL    HW258724   6.449   1.353  11.159  0.6794 -1.6231 -2.1303
19095SOL     OW58725   1.104   0.894   9.450  0.6218  0.1212  0.3506
19095SOL    HW158726   1.123   0.860   9.363  0.0895  0.3229  0.1499
19095SOL    HW258727   1.008   0.891   9.456  0.6414  0.3815  0.8145
19096SOL     OW58728   0.550   7.459  11.704  0.4619  0.4314 -0.3351
19096SOL    HW158729   0.627   7.460  11.761  0.0696  1.6672  0.2138
19096SOL    HW258730   0.570   7.523  11.635  0.0851  0.4766 -0.4042
19097SOL     OW58731   6.152   0.103  11.719  0.4724 -0.6543  0.1799
19097SOL    HW158732   6.240   0.070  11.739  0.4838 -0.0251  1.2388
19097SOL    HW258733   6.095   0.056  11.780  0.1445 -0.6089 -0.0866
19098SOL     OW58734   6.776   1.577  12.217  0.5359 -0.2067 -0.4993
19098SOL    HW158735   6.733   1.566  12.302 -1.6366  1.0661 -1.3340
19098SOL    HW258736   6.731   1.515  12.159  1.9428 -1.0096 -0.7775
19099SOL     OW58737   6.912   1.146  10.619  0.2604  0.5355 -0.2603
19099SOL    HW158738   6.924   1.226  10.567  1.1211  0.5187 -0.0953
19099SOL    HW258739   6.833   1.105  10.582 -0.2739  1.5218 -0.2637
19100SOL     OW58740   6.364   0.567   0.571  0.4730  0.0327  0.1610
19100SOL    HW158741   6.370   0.646   0.626  1.2552 -0.7906  1.3056
19100SOL    HW258742   6.416   0.588   0.494 -0.9257  1.3413 -0.4988
19101SOL     OW58743   5.344   1.479   0.265  0.3014 -0.1021 -0.3353
19101SOL    HW158744   5.400   1.556   0.270 -0.5718  0.5307 -0.0824
19101SOL    HW258745   5.256   1.514   0.249 -0.0868 -1.0520 -0.3481
19102SOL     OW58746   7.539   0.062  10.463 -0.0203  0.0264  0.2704
19102SOL    HW158747   7.452   0.040  10.496 -0.2532 -0.4906 -0.6599
19102SOL    HW258748   7.592   0.075  10.542 -0.4821 -1.4684  0.8500
19103SOL     OW58749   7.091   1.103  11.537 -0.4302 -1.3070  0.6690
19103SOL    HW158750   7.093   1.197  11.517  1.9443 -1.4118  0.0592
19103SOL    HW258751   7.065   1.098  11.628  1.2648  0.1413  1.2945
19104SOL     OW58752   5.393   1.096  10.760 -0.5918  0.0237 -0.5167
19104SOL    HW158753   5.343   1.078  10.840 -1.1667  1.2165 -0.5853
19104SOL    HW258754   5.351   1.043  10.693 -0.8147 -0.1418 -0.2474
19105SOL     OW58755   0.101   3.795  11.748  0.1557  0.1219 -0.2283
19105SOL    HW158756   0.047   3.750  11.683  0.2920 -2.7096  1.4756
19105SOL    HW258757   0.131   3.726  11.807  1.6435  2.2844  1.7311
19106SOL     OW58758   6.872   1.280  12.392  0.4241 -0.4826  0.4982
19106SOL    HW158759   6.848   1.364  12.431  1.0688  0.7467 -1.5476
19106SOL    HW258760   6.793   1.228  12.397 -0.6045  0.9622  0.1210
19107SOL     OW58761   0.900   7.614  11.078 -0.3840 -0.2980 -0.0137
19107SOL    HW158762   0.857   7.539  11.038 -0.1085 -0.3121 -0.2888
19107SOL    HW258763   0.994   7.592  11.076 -0.1532  0.6778 -1.4585
19108SOL     OW58764   7.278   7.540  11.929 -0.2410  0.0522 -0.1338
19108SOL    HW158765   7.203   7.561  11.874 -0.6117  0.3971  0.4872
19108SOL    HW258766   7.340   7.611  11.914 -0.3994  0.2190 -0.0137
19109SOL     OW58767   6.509   0.840  12.124 -0.0266 -0.1216  0.5461
19109SOL    HW158768   6.486   0.839  12.217 -1.3282 -0.3039  0.2415
19109SOL    HW258769   6.490   0.752  12.093  0.8244 -0.1935  0.1805
19110SOL     OW58770   7.704   0.065   0.872  0.3511  0.0265  0.5972
19110SOL    HW158771   7.626   0.027   0.913  0.2392  0.0344  0.3897
19110SOL    HW258772   7.671   0.109   0.794  0.1693  2.2053  1.8095
19111SOL     OW58773   6.358   2.483   9.104 -0.2829  0.0001  0.3406
19111SOL    HW158774   6.401   2.507   9.022 -1.6409  0.9793 -0.1271
19111SOL    HW258775   6.401   2.536   9.170  0.5009 -0.4435  0.1987
19112SOL     OW58776   6.773   0.505  12.183  0.0375  0.1981 -0.1886
19112SOL    HW158777   6.777   0.557  12.103  2.2263 -1.1251 -1.0261
19112SOL    HW258778   6.853   0.528  12.231 -0.8448  0.3736  1.2593
19113SOL     OW58779   5.430   0.867   0.613 -0.0889 -0.0688 -0.4868
19113SOL    HW158780   5.524   0.881   0.599 -0.4272  0.9023 -2.0697
19113SOL    HW258781   5.419   0.772   0.607  0.8820 -0.2610  0.4829
19114SOL     OW58782   6.232   0.302  11.147  0.0457  0.1873 -0.0619
19114SOL    HW158783   6.173   0.285  11.074 -2.1653 -0.3320  1.7183
19114SOL    HW258784   6.276   0.383  11.124  0.5121 -0.6914 -2.5714
19115SOL     OW58785   7.844   0.130  11.602 -0.5940 -0.5470  0.1662
19115SOL    HW158786   7.768   0.127  11.660 -0.5898 -0.8392  0.1595
19115SOL    HW258787   7.890   0.047  11.619  0.4810  0.2162  1.1897
19116SOL     OW58788   7.960   0.487  10.912  0.7545  0.0370  0.2055
19116SOL    HW158789   8.033   0.509  10.970  0.4925 -1.4762  1.1645
19116SOL    HW258790   7.936   0.397  10.936  0.2840 -0.4521 -1.8965
19117SOL     OW58791   5.505   1.290   0.172 -0.9553 -0.3313  0.3603
19117SOL    HW158792   5.438   1.349   0.207 -0.7511 -0.1971  0.5261
19117SOL    HW258793   5.546   1.338   0.101 -0.5046 -0.1077  0.7658
19118SOL     OW58794   0.036   7.518  10.510  0.0004  0.4437 -0.4200
19118SOL    HW158795   0.013   7.549  10.598 -0.7308 -1.1064 -0.0257
19118SOL    HW258796  -0.036   7.459  10.486  2.4736 -2.9980 -0.0398
19119SOL     OW58797   5.866   0.975  11.498 -0.0317 -0.2700 -0.2701
19119SOL    HW158798   5.894   1.060  11.464 -1.5540  0.1401 -0.5516
19119SOL    HW258799   5.777   0.990  11.530 -1.2747 -2.2971 -2.4918
19120SOL     OW58800   6.100   0.245  11.361 -0.5981  0.0241 -0.0876
19120SOL    HW158801   6.137   0.272  11.277  0.2893  0.6348  0.4805
19120SOL    HW258802   6.094   0.150  11.356  0.4791 -0.0334 -0.4284
19121SOL     OW58803   6.087   1.819  11.645  0.6914 -0.3347 -0.2427
19121SOL    HW158804   6.102   1.730  11.677  1.0534 -0.8606 -1.7913
19121SOL    HW258805   6.129   1.876  11.710 -1.0194 -1.1559  1.6782
19122SOL     OW58806   7.484   0.111   0.341  0.1693 -0.0125  0.6034
19122SOL    HW158807   7.576   0.131   0.356 -0.1098  1.3802  0.5256
19122SOL    HW258808   7.436   0.186   0.376 -0.9325 -0.5890  0.3968
19123SOL     OW58809   7.539   6.637  10.878  0.4624  0.3368 -0.3675
19123SOL    HW158810   7.447   6.614  10.866 -0.1496  1.5557  1.5036
19123SOL    HW258811   7.574   6.569  10.934  0.1351  0.9274  0.5789
19124SOL     OW58812   5.922   1.739  12.038  0.0461  0.4400  0.8422
19124SOL    HW158813   5.927   1.831  12.063 -1.9520 -0.0860  3.6904
19124SOL    HW258814   6.010   1.704  12.054  0.6404  1.6824  0.3596
19125SOL     OW58815   6.769   0.340  10.588 -0.0492 -0.5925  0.3763
19125SOL    HW158816   6.753   0.267  10.647 -0.9650 -0.4042  0.3693
19125SOL    HW258817   6.690   0.346  10.534  1.1520 -1.4015 -1.5907
19126SOL     OW58818   7.119   0.664  10.597  0.2890  0.4132 -0.4463
19126SOL    HW158819   7.127   0.726  10.670 -1.2007  0.3941 -0.2285
19126SOL    HW258820   7.153   0.711  10.521  0.4723  0.9853 -0.0170
19127SOL     OW58821   7.084   1.515   1.171  0.6983  0.0670  0.0105
19127SOL    HW158822   7.068   1.556   1.086  3.4407  0.6099 -0.3458
19127SOL    HW258823   7.070   1.422   1.157  1.2037  0.1461 -1.0867
19128SOL     OW58824   5.466   1.858   0.478 -0.6887 -0.0404 -0.1271
19128SOL    HW158825   5.500   1.782   0.430 -0.2166  0.1461 -0.0933
19128SOL    HW258826   5.412   1.905   0.414  1.3456  1.1758 -1.0468
19129SOL     OW58827   6.273   0.539  12.426 -0.1721 -0.5326 -0.0756
19129SOL    HW158828   6.283   0.533  12.331  0.4733 -0.1062 -0.0384
19129SOL    HW258829   6.210   0.611  12.438  0.3079 -0.0927 -0.1596
19130SOL     OW58830   7.228   6.620  11.930  0.3140 -0.2367  0.2610
19130SOL    HW158831   7.136   6.595  11.944  0.1609  0.4141  0.4798
19130SOL    HW258832   7.278   6.542  11.954 -0.1624 -0.4532  0.5817
19131SOL     OW58833   7.134   0.326  11.535 -0.2100 -0.1138 -0.3480
19131SOL    HW158834   7.105   0.385  11.466  2.5018  0.6719 -0.9565
19131SOL    HW258835   7.196   0.267  11.492 -0.5821 -1.4563  0.8669
19132SOL     OW58836   6.099   2.687  11.334  0.0485 -0.1263 -0.0226
19132SOL    HW158837   6.062   2.610  11.292 -0.5688 -0.6353  1.3902
19132SOL    HW258838   6.131   2.741  11.262 -2.1096 -0.3561 -1.2411
19133SOL     OW58839   5.617   1.253  11.876  0.0785 -0.5676  0.0482
19133SOL    HW158840   5.549   1.203  11.921 -0.0239 -1.3576 -0.9337
19133SOL    HW258841   5.699   1.221  11.913 -0.0557  0.3777  1.2264
19134SOL     OW58842   7.642   1.021  11.108 -0.2580 -0.2410  0.1599
19134SOL    HW158843   7.732   0.992  11.090 -0.9076 -3.8085  1.8478
19134SOL    HW258844   7.588   0.970  11.047 -1.2400  1.5114 -0.5022
19135SOL     OW58845   6.836   2.456  10.510  0.1914  0.0040 -0.1122
19135SOL    HW158846   6.788   2.465  10.593 -1.8154  1.1551 -1.3022
19135SOL    HW258847   6.884   2.374  10.519 -2.9268 -1.9313  0.8108
19136SOL     OW58848   6.733   1.354  10.997  0.5944  0.1730 -0.0170
19136SOL    HW158849   6.710   1.326  11.086  0.1171 -0.5174 -0.3391
19136SOL    HW258850   6.736   1.272  10.947  1.1038  0.5319 -0.5796
19137SOL     OW58851   7.008   3.900   1.572  0.6874 -0.5191  0.2225
19137SOL    HW158852   7.102   3.888   1.586  0.9172  0.1970 -0.6265
19137SOL    HW258853   6.986   3.977   1.625  0.8288  0.0199 -0.4864
19138SOL     OW58854   7.777   2.360   1.072 -0.5516 -0.0864 -0.2657
19138SOL    HW158855   7.706   2.346   1.135 -1.1860  0.6082 -0.8013
19138SOL    HW258856   7.818   2.274   1.063 -0.4318 -0.1953  1.0958
19139SOL     OW58857   7.049   0.499  11.337  0.2385 -0.2202 -0.3337
19139SOL    HW158858   7.033   0.456  11.253 -2.7524  0.3326 -0.1467
19139SOL    HW258859   7.111   0.569  11.317  0.2100 -0.6113 -1.9046
19140SOL     OW58860   7.302   0.156  11.374 -0.1996  0.2184  0.2735
19140SOL    HW158861   7.392   0.127  11.389 -0.3282  0.2963  1.3036
19140SOL    HW258862   7.307   0.215  11.299  0.6516  0.4563  0.5130
19141SOL     OW58863   7.903   0.313  10.482  0.9827 -0.2056 -0.2772
19141SOL    HW158864   7.923   0.251  10.412  0.5597  0.5666 -1.0990
19141SOL    HW258865   7.964   0.386  10.468  0.7553  0.0458  0.0199
19142SOL     OW58866   6.402   0.603  10.037 -0.3326  0.0920  0.5862
19142SOL    HW158867   6.455   0.532  10.000  1.0926  2.0363 -1.3519
19142SOL    HW258868   6.343   0.629   9.965  0.1194  1.7075  0.7506
19143SOL     OW58869   5.864   1.155   2.314  0.4639  0.7182 -0.0043
19143SOL    HW158870   5.902   1.188   2.395  0.3467 -1.7504  1.1553
19143SOL    HW258871   5.822   1.073   2.339  0.1970 -0.0016 -2.5229
19144SOL     OW58872   0.179   6.690   2.368  0.4498  0.4796  0.1550
19144SOL    HW158873   0.103   6.638   2.393 -0.0808  0.9052 -0.5495
19144SOL    HW258874   0.154   6.780   2.385  1.5918  0.5097  1.9612
19145SOL     OW58875   6.595   7.622  12.333  0.5064  0.4587 -0.1662
19145SOL    HW158876   6.548   7.705  12.335  1.2421  0.8635  0.7084
19145SOL    HW258877   6.657   7.627  12.405  1.0974 -0.5382 -0.5795
19146SOL     OW58878   6.021   1.804   9.492 -0.2274  0.1505  0.4983
19146SOL    HW158879   5.978   1.722   9.515 -1.1657  0.5413  0.1709
19146SOL    HW258880   6.049   1.792   9.401  1.9274 -0.7391  1.2044
19147SOL     OW58881   6.070   0.364  11.821  0.2065  0.5265 -0.1913
19147SOL    HW158882   6.076   0.354  11.916 -0.4752  1.6057 -0.0163
19147SOL    HW258883   6.130   0.436  11.800  2.1570 -1.2052 -0.9223
19148SOL     OW58884   5.140   1.125  10.567 -0.4469  0.7067  0.2660
19148SOL    HW158885   5.102   1.068  10.634  0.3831 -0.6651 -0.3774
19148SOL    HW258886   5.066   1.150  10.512 -0.5011 -1.9154 -0.9664
19149SOL     OW58887   6.419   1.093  10.995  0.2221  0.4743  0.1131
19149SOL    HW158888   6.392   1.017  10.943  1.1342 -1.7466  2.6111
19149SOL    HW258889   6.350   1.103  11.060  0.5594  1.1648  0.3743
19150SOL     OW58890   6.093   0.772  11.492  0.7015  0.5864  0.5049
19150SOL    HW158891   6.005   0.810  11.495  0.8126  0.9699 -0.6255
19150SOL    HW258892   6.135   0.803  11.572 -0.6146 -0.7038  1.7521
19151SOL     OW58893   5.851   0.403   9.739 -0.4082 -0.3368  0.2391
19151SOL    HW158894   5.939   0.367   9.751 -0.4809 -0.4305  0.4848
19151SOL    HW258895   5.861   0.496   9.758 -0.4329 -0.4079  0.6086
19152SOL     OW58896   6.322   2.605  10.614 -0.1829 -0.1767 -0.0558
19152SOL    HW158897   6.327   2.566  10.701 -0.2960  0.9191  0.4564
19152SOL    HW258898   6.382   2.552  10.561  0.5068 -0.3708  0.8842
19153SOL     OW58899   6.655   0.852  10.753 -0.1444 -0.1275 -0.0655
19153SOL    HW158900   6.707   0.772  10.762  1.0106  0.6248  0.1212
19153SOL    HW258901   6.688   0.894  10.673 -0.6853  0.2090 -0.1213
19154SOL     OW58902   5.904   2.253   0.544 -0.2812 -0.3613  0.0265
19154SOL    HW158903   5.842   2.290   0.481 -0.7469  0.7671  1.0995
19154SOL    HW258904   5.885   2.160   0.545  0.9858 -0.7634 -2.8525
19155SOL     OW58905   5.770   1.499  11.086  0.3210 -0.2703 -0.4680
19155SOL    HW158906   5.781   1.405  11.105 -1.2061 -0.7901 -1.8536
19155SOL    HW258907   5.763   1.541  11.171 -0.9813 -1.7234  0.1908
19156SOL     OW58908   5.738   1.383  10.811 -0.1965  0.2623  0.1838
19156SOL    HW158909   5.732   1.399  10.905 -0.3419 -2.7698  0.7971
19156SOL    HW258910   5.650   1.354  10.785  0.0981  0.0519 -0.6394
19157SOL     OW58911   7.094   3.184   9.492 -0.4810  0.6042  0.4441
19157SOL    HW158912   7.076   3.207   9.583 -0.1717  2.0681  0.1511
19157SOL    HW258913   7.121   3.266   9.451  1.0013 -0.3404 -0.5750
19158SOL     OW58914   7.229   1.521   0.117  0.5088  0.8083  0.1797
19158SOL    HW158915   7.188   1.569   0.046  2.6903  1.7735 -0.4932
19158SOL    HW258916   7.315   1.561   0.128  2.6263 -2.9698 -0.5476
19159SOL     OW58917   6.993   0.287  12.091  0.4703 -0.3548  0.3824
19159SOL    HW158918   6.913   0.335  12.113  0.1175  0.7648 -2.8211
19159SOL    HW258919   6.977   0.252  12.003  3.2096 -0.7304 -0.0628
19160SOL     OW58920   7.293   1.143   9.723 -0.4862  0.0371 -0.0347
19160SOL    HW158921   7.266   1.228   9.756 -0.2081  0.2335 -0.3139
19160SOL    HW258922   7.385   1.154   9.700 -0.5885 -0.1900 -0.5673
19161SOL     OW58923   5.757   7.612  12.347 -0.9002  0.2624 -0.2047
19161SOL    HW158924   5.816   7.589  12.274 -1.5811 -1.4331 -0.2711
19161SOL    HW258925   5.813   7.609  12.425 -0.5249  0.4024 -0.4684
19162SOL     OW58926   7.887   2.263  11.172 -0.0237 -0.1206  0.3000
19162SOL    HW158927   7.830   2.226  11.104 -1.6340  0.6501  1.1729
19162SOL    HW258928   7.867   2.356  11.172  3.6548  0.8684 -1.5676
19163SOL     OW58929   7.092   1.280   9.110 -0.5118  0.5383  0.5454
19163SOL    HW158930   7.158   1.339   9.146 -0.8639  1.0809  0.3134
19163SOL    HW258931   7.008   1.319   9.136 -0.7494  0.1293  0.4072
19164SOL     OW58932   5.512   0.330  12.219 -0.3577 -0.7329  0.3948
19164SOL    HW158933   5.594   0.377  12.229 -1.6044  1.7028 -0.1957
19164SOL    HW258934   5.524   0.279  12.138  0.3226  0.1537 -0.0829
19165SOL     OW58935   6.965   7.738   1.348  0.4193  0.4791 -0.0377
19165SOL    HW158936   6.960   7.663   1.406  0.6877  1.3630  1.1705
19165SOL    HW258937   7.052   7.733   1.309 -0.1371 -0.6920 -1.2070
19166SOL     OW58938   7.346   1.702  10.321  0.2305  0.9318  0.5943
19166SOL    HW158939   7.361   1.610  10.342 -1.4917  0.0842 -1.5733
19166SOL    HW258940   7.422   1.727  10.268 -0.4063  0.0244 -0.8020
19167SOL     OW58941   0.201   1.193   1.789  0.5401 -0.5147 -0.2010
19167SOL    HW158942   0.153   1.121   1.830  0.5934 -0.0845  0.6598
19167SOL    HW258943   0.133   1.251   1.755  0.3436  0.5356  1.7790
19168SOL     OW58944   4.661   2.112   1.169  0.1910 -0.7351 -0.5293
19168SOL    HW158945   4.697   2.181   1.113 -0.9496  0.0768 -0.3028
19168SOL    HW258946   4.576   2.147   1.198  1.0529 -0.7606  2.3660
19169SOL     OW58947   7.313   7.058   1.771  0.0486  0.3176  0.1097
19169SOL    HW158948   7.341   7.109   1.847 -2.2449  0.1820  1.1427
19169SOL    HW258949   7.363   6.977   1.776  2.0834  1.5061 -0.2596
19170SOL     OW58950   6.527   0.733  11.780  0.3163  0.6099 -0.1812
19170SOL    HW158951   6.529   0.823  11.810  1.2914  0.8284 -0.8588
19170SOL    HW258952   6.434   0.711  11.773  0.0553  1.8768 -0.9280
19171SOL     OW58953   6.613   0.422   9.898 -0.4480  0.0850 -0.0346
19171SOL    HW158954   6.675   0.484   9.860 -1.1019  0.9867  0.3348
19171SOL    HW258955   6.587   0.366   9.825  2.0164 -1.4203  0.1066
19172SOL     OW58956   5.611   0.400  10.965  0.4409 -0.7352 -0.5517
19172SOL    HW158957   5.582   0.314  10.936  0.6996 -0.7516 -0.7624
19172SOL    HW258958   5.670   0.431  10.896 -0.4077  0.0241 -0.9571
19173SOL     OW58959   7.845   0.860  10.616 -0.1034 -0.0518  0.4112
19173SOL    HW158960   7.894   0.925  10.565  0.2767 -1.1414 -0.6537
19173SOL    HW258961   7.808   0.801  10.550  0.1534 -1.3383  1.3928
19174SOL     OW58962   5.913   6.701  11.745  0.3613  0.0193 -0.2807
19174SOL    HW158963   5.910   6.767  11.813 -1.1530 -0.4874  0.1870
19174SOL    HW258964   5.883   6.620  11.787 -0.1004 -0.4258 -1.3923
19175SOL     OW58965   7.586   0.269  10.861  0.3989  0.1644 -0.0581
19175SOL    HW158966   7.642   0.313  10.925 -0.6652 -0.4364  1.3600
19175SOL    HW258967   7.645   0.242  10.791  1.7860 -0.0199  1.1379
19176SOL     OW58968   6.538   6.588  10.592  0.1461 -0.0900 -0.1398
19176SOL    HW158969   6.465   6.637  10.556  0.5983  1.0148  0.3924
19176SOL    HW258970   6.516   6.577  10.685 -0.1632 -1.3124 -0.3442
19177SOL     OW58971   7.011   0.447  11.758 -0.5463 -0.2587  0.0368
19177SOL    HW158972   7.069   0.390  11.706  1.4945  0.1166  1.7964
19177SOL    HW258973   6.985   0.516  11.697 -0.6545 -1.4382 -1.3058
19178SOL     OW58974   0.525   0.919  11.492 -0.0101  0.3338  0.1242
19178SOL    HW158975   0.479   0.978  11.433 -0.5833 -2.2274 -2.1634
19178SOL    HW258976   0.581   0.866  11.435 -0.1113 -1.8572  1.9199
19179SOL     OW58977   6.461   0.487  11.387 -0.4832 -0.3170 -0.2139
19179SOL    HW158978   6.450   0.547  11.314  0.4837  1.3510  0.9533
19179SOL    HW258979   6.541   0.438  11.366  0.7385  1.3231  0.4586
19180SOL     OW58980   0.234   4.592  11.041  0.1075 -0.3376  0.2869
19180SOL    HW158981   0.208   4.683  11.029 -0.8853 -0.4015  1.6147
19180SOL    HW258982   0.241   4.557  10.953  0.2091  0.9438 -0.2343
19181SOL     OW58983   5.037   2.527   0.670 -0.1534 -0.1877 -0.5535
19181SOL    HW158984   4.948   2.548   0.641 -0.3699 -0.1810  0.1073
19181SOL    HW258985   5.092   2.548   0.595 -0.4640  1.9057 -0.2512
19182SOL     OW58986   6.820   1.886   1.447  0.0305 -0.1657  0.1044
19182SOL    HW158987   6.882   1.960   1.443  1.5016 -1.2379  1.4761
19182SOL    HW258988   6.855   1.822   1.385  0.2950 -0.7469  0.8310
19183SOL     OW58989   6.198   1.517   1.890 -0.0060 -0.1949  0.7107
19183SOL    HW158990   6.291   1.538   1.875 -0.2516 -0.4681 -1.4978
19183SOL    HW258991   6.152   1.597   1.862 -0.4478 -0.0423  1.8548
19184SOL     OW58992   5.222   3.586   1.392  0.0446 -0.2284  1.0370
19184SOL    HW158993   5.129   3.564   1.402 -1.1799  2.8501 -1.8615
19184SOL    HW258994   5.237   3.654   1.458 -0.4243  0.7878  0.1282
19185SOL     OW58995   6.644   1.242  11.223 -0.0661  0.4027 -0.4892
19185SOL    HW158996   6.689   1.269  11.303  2.3759 -0.4599 -1.4791
19185SOL    HW258997   6.574   1.185  11.253 -0.2850  1.4670  1.1154
19186SOL     OW58998   6.810   0.105   0.896  0.5425  0.0180 -0.2676
19186SOL    HW158999   6.854   0.188   0.875  2.8311 -0.6403  1.4091
19186SOL    HW259000   6.736   0.130   0.951 -0.0259  1.0550 -1.4611
19187SOL     OW59001   6.659   2.303  11.822  0.0365 -0.0137 -0.2162
19187SOL    HW159002   6.602   2.263  11.756  0.1378 -0.2004 -0.1898
19187SOL    HW259003   6.601   2.319  11.897 -0.2262  0.7857 -0.5791
19188SOL     OW59004   6.286   2.318   1.819  0.2680  0.0394 -0.3705
19188SOL    HW159005   6.281   2.287   1.909  0.6450 -0.8641 -0.6479
19188SOL    HW259006   6.298   2.413   1.827 -0.3676  0.0554  0.5071
19189SOL     OW59007   5.437   1.619   2.450  0.2777 -0.8629 -0.1537
19189SOL    HW159008   5.474   1.531   2.459 -0.3521 -1.2739 -1.4038
19189SOL    HW259009   5.347   1.605   2.421 -0.3111  0.1733  1.0794
19190SOL     OW59010   6.675   2.646  12.005 -0.3162 -0.2565 -0.3058
19190SOL    HW159011   6.611   2.598  11.953 -1.6927  1.6969 -0.5400
19190SOL    HW259012   6.705   2.717  11.948  2.5044 -1.3821 -0.3750
19191SOL     OW59013   5.132   2.367   2.032 -0.1623  0.4255 -0.1600
19191SOL    HW159014   5.156   2.327   2.115 -1.3839 -1.6291 -0.7098
19191SOL    HW259015   5.214   2.404   1.999  1.1177 -1.6875  0.4249
19192SOL     OW59016   6.143   2.837   0.287 -0.5792 -0.0717  0.4851
19192SOL    HW159017   6.216   2.897   0.277 -0.4398 -0.1188  1.1572
19192SOL    HW259018   6.090   2.874   0.358 -0.4024 -0.8168  1.0230
19193SOL     OW59019   6.929   2.693   2.055 -0.5266 -0.4944 -0.7061
19193SOL    HW159020   6.838   2.709   2.078 -0.7209 -0.6429 -1.3591
19193SOL    HW259021   6.974   2.684   2.139 -0.9783  0.3313 -0.3686
19194SOL     OW59022   4.768   2.736   1.244 -0.0962 -0.5905 -0.9563
19194SOL    HW159023   4.857   2.771   1.248  0.0482 -1.0692  0.9263
19194SOL    HW259024   4.712   2.809   1.270 -0.0454 -0.9234  0.1097
19195SOL     OW59025   1.638   3.350   1.971 -0.6052 -0.3833 -0.3634
19195SOL    HW159026   1.639   3.399   1.888 -0.7261  0.2294 -0.0119
19195SOL    HW259027   1.691   3.273   1.954 -1.0535 -0.5237 -1.1685
19196SOL     OW59028   6.933   5.593   0.980  0.0039  0.1521  0.1421
19196SOL    HW159029   6.984   5.654   1.033 -1.8220  0.9289  1.1186
19196SOL    HW259030   6.921   5.517   1.036  0.2389 -0.1162 -0.1647
19197SOL     OW59031   7.636   2.032   1.638 -1.1905 -0.2629  0.1477
19197SOL    HW159032   7.563   2.087   1.609 -1.4004 -0.3462  0.5189
19197SOL    HW259033   7.613   2.005   1.726 -0.9806 -0.7664  0.0501
19198SOL     OW59034   6.041   3.720   0.233 -0.1295 -0.0058 -0.3790
19198SOL    HW159035   6.069   3.775   0.307 -0.8693 -0.1015 -0.0227
19198SOL    HW259036   6.120   3.710   0.180  0.2261  0.6948  0.0015
19199SOL     OW59037   4.663   3.146   2.661  0.5316 -0.1464 -0.2162
19199SOL    HW159038   4.702   3.231   2.641  1.9878 -0.9695 -1.0501
19199SOL    HW259039   4.571   3.156   2.638  0.8633  0.9223 -1.1886
19200SOL     OW59040   6.000   3.728   0.901 -0.0139  0.5389 -0.4855
19200SOL    HW159041   6.066   3.664   0.875 -0.9870 -0.8793  0.4266
19200SOL    HW259042   5.928   3.714   0.840 -1.0758 -0.7259  0.9876
19201SOL     OW59043   6.375   2.362   1.205  0.2741 -0.2352 -0.0559
19201SOL    HW159044   6.378   2.326   1.294  0.3720  0.3134  0.1717
19201SOL    HW259045   6.310   2.309   1.159  1.2972 -1.4990 -0.1004
19202SOL     OW59046   2.276   2.359  12.449  0.2344 -0.5733  0.1202
19202SOL    HW159047   2.326   2.327  12.524  0.0467  0.7747  0.8679
19202SOL    HW259048   2.298   2.299  12.378  1.3334 -1.1978  0.9420
19203SOL     OW59049   5.535   2.932   1.289  0.3251  0.0392  0.4522
19203SOL    HW159050   5.561   2.840   1.285 -0.3846 -0.1093 -2.1453
19203SOL    HW259051   5.465   2.934   1.355 -0.0433 -1.3978  0.1430
19204SOL     OW59052   0.229   3.635   3.996 -0.4381  0.1239  0.2672
19204SOL    HW159053   0.276   3.580   3.934 -0.3228 -1.3666  1.6214
19204SOL    HW259054   0.146   3.656   3.953  0.6599  1.2753 -1.4007
19205SOL     OW59055   5.407   2.680   1.302 -0.4227  0.3573  0.8745
19205SOL    HW159056   5.462   2.604   1.320  1.0309  1.1839  0.1847
19205SOL    HW259057   5.350   2.653   1.230  1.6322  0.5574 -0.9272
19206SOL     OW59058   1.312   4.158   0.423 -0.1057 -0.0136 -0.1407
19206SOL    HW159059   1.391   4.188   0.468  0.4114 -4.0649  2.2038
19206SOL    HW259060   1.338   4.075   0.383 -3.0250 -1.3043  0.3591
19207SOL     OW59061   0.372   3.871   0.196 -0.0720 -0.2683 -0.7512
19207SOL    HW159062   0.403   3.796   0.145  0.5500 -0.7741  0.3157
19207SOL    HW259063   0.345   3.935   0.131 -0.1796 -1.2396 -1.6952
19208SOL     OW59064   4.723   3.685   0.408  0.0721  0.1487  0.3515
19208SOL    HW159065   4.774   3.634   0.471 -1.1322  0.1060  1.3386
19208SOL    HW259066   4.633   3.682   0.442 -0.6604 -0.0258 -1.4639
19209SOL     OW59067   7.931   3.124   0.130  1.2445 -0.4933 -0.1210
19209SOL    HW159068   7.887   3.039   0.139 -1.0273  0.5462 -0.7155
19209SOL    HW259069   7.999   3.109   0.065 -0.3377 -1.4504 -1.6267
19210SOL     OW59070   0.154   3.595   1.981 -0.1991  0.1940  0.4406
19210SOL    HW159071   0.148   3.598   2.076 -0.9321 -0.8460  0.4419
19210SOL    HW259072   0.065   3.608   1.951  0.1110  1.0760 -0.1378
19211SOL     OW59073   6.387   1.332   0.753  0.7079  0.2526 -0.2021
19211SOL    HW159074   6.294   1.334   0.731  0.4659 -0.1366  0.7237
19211SOL    HW259075   6.394   1.385   0.832  1.0608 -0.7639  0.4622
19212SOL     OW59076   7.795   3.363  11.304 -0.0963 -0.0744  0.8073
19212SOL    HW159077   7.870   3.401  11.258 -1.4336  4.1029  1.6218
19212SOL    HW259078   7.720   3.382  11.247 -1.0833  0.2196  2.1651
19213SOL     OW59079   7.107   3.989  11.974  0.2093  0.4192 -0.4536
19213SOL    HW159080   7.130   3.901  12.001 -0.3095  0.0975 -1.0203
19213SOL    HW259081   7.138   3.995  11.883  2.0635  1.5230  0.2094
19214SOL     OW59082   6.436   4.473   0.549 -0.1854  0.5113  0.5557
19214SOL    HW159083   6.382   4.432   0.482 -1.5697  0.6135  1.5666
19214SOL    HW259084   6.516   4.420   0.552 -0.4272  0.0602 -0.6198
19215SOL     OW59085   4.551   2.692   1.659  0.3285  0.0350 -0.5753
19215SOL    HW159086   4.640   2.682   1.625  0.4631 -2.3657  0.3304
19215SOL    HW259087   4.543   2.786   1.675  3.0094  0.2358  0.1007
19216SOL     OW59088   5.843   3.213   2.303 -0.0977  0.3680  0.3902
19216SOL    HW159089   5.889   3.147   2.251 -2.4571  0.0505 -1.4735
19216SOL    HW259090   5.818   3.167   2.384 -1.8897 -1.2145 -0.9630
19217SOL     OW59091   7.930   5.378  12.081 -0.3022 -0.1719  0.7404
19217SOL    HW159092   7.994   5.313  12.051  1.1303  1.2217  0.6431
19217SOL    HW259093   7.983   5.453  12.108 -1.9286  1.7396 -1.0021
19218SOL     OW59094   4.581   1.821  11.881  0.2217  0.1688  0.4874
19218SOL    HW159095   4.582   1.751  11.816  0.2685 -0.6365  1.3326
19218SOL    HW259096   4.531   1.891  11.840  1.3638  0.2078 -0.9436
19219SOL     OW59097   7.197   4.200  12.109 -0.0283  0.1417  0.8550
19219SOL    HW159098   7.254   4.154  12.171 -0.0103  0.2264  0.9000
19219SOL    HW259099   7.154   4.129  12.061 -0.0367  0.0758  0.9588
19220SOL     OW59100   7.584   4.843   0.038  0.2541 -0.0998 -0.1570
19220SOL    HW159101   7.650   4.881  -0.021  0.3726  0.5431  0.3826
19220SOL    HW259102   7.588   4.749   0.020 -0.7471  0.2080 -2.2203
19221SOL     OW59103   5.247   1.772   1.115  0.1663  0.9843 -0.0407
19221SOL    HW159104   5.304   1.701   1.147  0.9815  1.6408 -0.0144
19221SOL    HW259105   5.161   1.730   1.105  0.3735  0.2514  1.0269
19222SOL     OW59106   7.039   1.859   2.240 -0.5065 -0.1584 -0.1205
19222SOL    HW159107   6.946   1.859   2.261 -0.2834 -2.6441  1.2861
19222SOL    HW259108   7.082   1.834   2.322  1.3358  0.0304 -0.9702
19223SOL     OW59109   6.570   2.940   2.131  0.5983 -0.4817  0.4255
19223SOL    HW159110   6.576   3.006   2.062 -0.8348 -0.5294  0.2368
19223SOL    HW259111   6.515   2.979   2.198 -0.1056 -1.3972  0.4017
19224SOL     OW59112   7.955   2.633  12.399  0.6222  0.6519 -0.6500
19224SOL    HW159113   8.040   2.656  12.360  0.1029  1.0530 -1.5721
19224SOL    HW259114   7.891   2.656  12.332 -0.2573  0.7784  0.2145
19225SOL     OW59115   0.256   4.504   0.328  0.2209  0.1319  0.5124
19225SOL    HW159116   0.322   4.438   0.349 -0.0079 -0.2365  0.1043
19225SOL    HW259117   0.208   4.466   0.254  0.4513  1.0057 -0.1023
19226SOL     OW59118   6.156   2.527   1.117  0.4520  0.4793  0.0997
19226SOL    HW159119   6.188   2.476   1.191 -0.1379  0.3263  0.2580
19226SOL    HW259120   6.070   2.558   1.145 -0.8447 -1.5057 -1.3629
19227SOL     OW59121   6.758   3.032   1.347  0.0819  0.2755 -0.3220
19227SOL    HW159122   6.664   3.017   1.338  0.0487  0.7900 -0.8686
19227SOL    HW259123   6.775   3.110   1.294  0.6665  0.7132  0.5057
19228SOL     OW59124   6.900   3.599   0.114 -0.6606 -0.7008 -0.0983
19228SOL    HW159125   6.913   3.639   0.028  0.0231 -2.4853 -0.8569
19228SOL    HW259126   6.888   3.674   0.173  1.6266  0.6818 -1.2547
19229SOL     OW59127   6.537   4.273   1.236 -0.1216  0.4586  0.0935
19229SOL    HW159128   6.615   4.222   1.213  0.4668  0.7643  1.3277
19229SOL    HW259129   6.469   4.240   1.178  0.9018  0.1326 -0.9767
19230SOL     OW59130   6.703   0.989   2.273 -0.0580 -0.4023 -0.5071
19230SOL    HW159131   6.744   1.073   2.252  0.9725 -0.5399  0.8429
19230SOL    HW259132   6.704   0.985   2.368 -0.6222 -1.7046 -0.5341
19231SOL     OW59133   7.197   3.094  11.728 -0.4950 -0.4318  0.3040
19231SOL    HW159134   7.232   3.181  11.750  0.6222 -0.5479 -0.8556
19231SOL    HW259135   7.102   3.106  11.730 -0.3970  1.3577 -1.6166
19232SOL     OW59136   6.701   3.401   0.272  0.0490  0.0444  0.6834
19232SOL    HW159137   6.618   3.386   0.227  0.4945 -1.6340  0.3575
19232SOL    HW259138   6.765   3.415   0.201  0.0549  1.4324  0.9329
19233SOL     OW59139   7.331   3.963   0.247  0.2328 -0.3255 -0.1363
19233SOL    HW159140   7.299   3.898   0.309 -0.0284  1.0933  1.2914
19233SOL    HW259141   7.402   4.007   0.293 -1.6082  2.4839  0.2861
19234SOL     OW59142   7.117   2.273   3.507 -0.0301  0.1052  0.0795
19234SOL    HW159143   7.200   2.313   3.480 -0.6518  1.3672 -0.0671
19234SOL    HW259144   7.053   2.311   3.447 -0.2455 -3.9954 -2.6568
19235SOL     OW59145   6.676   2.769   0.279 -0.2766  0.4992  0.2665
19235SOL    HW159146   6.708   2.679   0.283 -1.2845  0.0854 -0.5178
19235SOL    HW259147   6.754   2.823   0.293  0.4690 -0.4779 -0.0077
19236SOL     OW59148   6.741   2.504   0.285 -0.2333 -0.0643 -0.3766
19236SOL    HW159149   6.826   2.459   0.287  0.6887  1.4289 -2.2500
19236SOL    HW259150   6.690   2.457   0.219 -0.3763 -0.1334 -0.2192
19237SOL     OW59151   6.230   2.876   1.371  0.2231 -0.1122  0.6159
19237SOL    HW159152   6.187   2.802   1.413  1.8970 -2.2351 -1.1135
19237SOL    HW259153   6.203   2.871   1.279  1.6174  0.4170  0.1386
19238SOL     OW59154   7.162   4.087   1.316 -0.5348  0.7858 -0.4008
19238SOL    HW159155   7.186   4.001   1.281  0.4655  1.2637 -0.9266
19238SOL    HW259156   7.216   4.097   1.394 -2.2017  0.0546  0.9110
19239SOL     OW59157   5.151   1.563   1.394  0.0181 -0.2055  0.1045
19239SOL    HW159158   5.155   1.655   1.421 -3.1334  0.5716 -1.5811
19239SOL    HW259159   5.225   1.552   1.333  0.4105  1.2060  0.2949
19240SOL     OW59160   6.214   2.909  11.127  0.2244  0.3065 -0.4378
19240SOL    HW159161   6.162   2.944  11.055  0.1705 -0.6075 -0.8595
19240SOL    HW259162   6.188   2.961  11.203  0.3478  1.3461 -1.0756
19241SOL     OW59163   5.637   2.803  12.332 -0.4434 -0.2883  0.2308
19241SOL    HW159164   5.636   2.731  12.396  0.1699  0.3076  0.9249
19241SOL    HW259165   5.564   2.783  12.274 -0.8223 -1.0217  0.9287
19242SOL     OW59166   7.103   0.204   0.271  0.3355 -0.5947 -0.1973
19242SOL    HW159167   7.141   0.261   0.204 -0.5015 -0.6855 -0.7657
19242SOL    HW259168   7.103   0.258   0.350  2.5272 -0.9172  0.0941
19243SOL     OW59169   6.253   1.812  12.123 -0.5569 -0.2749 -0.6299
19243SOL    HW159170   6.271   1.743  12.059 -0.5912 -0.1655 -0.7549
19243SOL    HW259171   6.293   1.779  12.204  0.5680  0.1336 -0.9940
19244SOL     OW59172   5.845   2.121   0.146 -0.1267  0.4990 -0.7686
19244SOL    HW159173   5.922   2.120   0.203  0.8896  1.2211 -2.0833
19244SOL    HW259174   5.879   2.147   0.060 -2.0535  2.2585 -1.0666
19245SOL     OW59175   6.059   1.746   1.852  0.4501  0.5198  0.1388
19245SOL    HW159176   5.990   1.749   1.785 -0.4193  1.5737  1.0361
19245SOL    HW259177   6.018   1.783   1.930  1.5186 -0.4523  1.1977
19246SOL     OW59178   5.894   0.613   1.897 -0.2934  0.1895  0.0178
19246SOL    HW159179   5.827   0.678   1.876 -0.5736  0.0717  0.5396
19246SOL    HW259180   5.848   0.529   1.894 -0.3985  0.1836  1.3011
19247SOL     OW59181   0.136   1.907  11.514 -0.1395 -0.2743  0.0468
19247SOL    HW159182   0.064   1.913  11.577  1.2732  0.9010  1.6356
19247SOL    HW259183   0.186   1.988  11.527  0.4435 -0.1879 -2.3314
19248SOL     OW59184   5.203   2.660   1.118  0.0534 -0.0887  0.4571
19248SOL    HW159185   5.170   2.572   1.137 -1.8008  0.8217  1.6669
19248SOL    HW259186   5.178   2.676   1.027 -0.1332 -0.5780  0.4171
19249SOL     OW59187   6.662   3.959   1.610 -0.2906  0.2408  0.7795
19249SOL    HW159188   6.638   4.050   1.595  2.6729  0.9070 -0.5786
19249SOL    HW259189   6.757   3.960   1.619 -0.1525 -2.7249  0.7417
19250SOL     OW59190   7.490   3.611  11.852 -0.0267  1.0000 -0.9391
19250SOL    HW159191   7.412   3.559  11.829  0.8003  0.3755 -2.4885
19250SOL    HW259192   7.541   3.553  11.909 -1.2753  1.9220  1.2697
19251SOL     OW59193   7.289   2.487   2.191  0.1543  0.6359 -0.6737
19251SOL    HW159194   7.320   2.501   2.280  1.4168  1.7711 -1.2600
19251SOL    HW259195   7.203   2.447   2.202  0.9883 -0.8722  1.0367
19252SOL     OW59196   6.462   2.913  12.448  0.4973 -0.1252  0.0740
19252SOL    HW159197   6.430   2.845  12.509  1.2184  0.1852  0.8249
19252SOL    HW259198   6.466   2.869  12.363 -0.4120 -0.6112  0.2740
19253SOL     OW59199   6.554   2.130   0.810 -0.0411  0.1969 -0.4425
19253SOL    HW159200   6.647   2.132   0.788 -0.1720 -2.4516 -1.5853
19253SOL    HW259201   6.520   2.213   0.778  1.7126  0.6997 -1.1025
19254SOL     OW59202   1.206   4.572   0.533 -0.0023 -0.1644 -0.0044
19254SOL    HW159203   1.147   4.596   0.461 -0.5746  1.0692  0.8457
19254SOL    HW259204   1.293   4.570   0.492 -0.4147 -0.2945 -0.9028
19255SOL     OW59205   5.873   2.869   1.284  0.2348 -0.3404 -0.8560
19255SOL    HW159206   5.949   2.830   1.327 -0.5395 -0.2601  0.6895
19255SOL    HW259207   5.908   2.913   1.207  1.7800 -0.1701 -0.0957
19256SOL     OW59208   6.629   1.862   1.654 -0.3892 -0.3522  0.0123
19256SOL    HW159209   6.701   1.851   1.592  0.3768 -0.5668  0.9052
19256SOL    HW259210   6.576   1.933   1.618 -0.1258 -0.6634 -1.0231
19257SOL     OW59211   5.838   1.035   0.798 -0.2224  0.0321 -0.0709
19257SOL    HW159212   5.925   1.064   0.770  1.0093 -2.9559  0.2475
19257SOL    HW259213   5.852   0.998   0.885 -1.8109 -0.4821 -0.0033
19258SOL     OW59214   6.507   3.206   0.718 -0.3250 -0.0031 -0.1371
19258SOL    HW159215   6.583   3.160   0.683 -0.4605  2.4231 -4.2104
19258SOL    HW259216   6.432   3.155   0.687 -0.4217  0.6291 -0.9437
19259SOL     OW59217   7.659   3.030   1.414  0.5071 -0.6097  0.0757
19259SOL    HW159218   7.617   2.949   1.442 -0.1385 -0.3842 -0.2376
19259SOL    HW259219   7.641   3.036   1.321  0.5726 -0.1154  0.0925
19260SOL     OW59220   5.673   4.812   1.322  0.1356  0.9063  0.5404
19260SOL    HW159221   5.628   4.869   1.384 -0.6206 -0.0590  0.9216
19260SOL    HW259222   5.705   4.739   1.376 -0.0333  0.3402 -0.1070
19261SOL     OW59223   5.986   1.943   2.346  0.2564  0.1733  0.0685
19261SOL    HW159224   5.907   1.993   2.330 -0.4786 -1.3783 -1.5732
19261SOL    HW259225   6.046   1.971   2.277 -0.1814 -1.1697 -0.8953
19262SOL     OW59226   6.169   2.434   2.312 -0.1856 -0.3518 -1.1428
19262SOL    HW159227   6.197   2.507   2.368  1.5608 -1.5460 -0.3511
19262SOL    HW259228   6.080   2.415   2.341 -0.0812  0.4320 -0.2465
19263SOL     OW59229   4.795   1.562   2.135  0.1033 -0.6726  0.3712
19263SOL    HW159230   4.789   1.594   2.045 -0.5358 -0.4188  0.4994
19263SOL    HW259231   4.874   1.509   2.136  1.8001  1.7109  0.3882
19264SOL     OW59232   3.665   2.530   1.560  0.3236  0.1877 -0.3802
19264SOL    HW159233   3.683   2.446   1.517 -1.1528  0.1308 -0.9407
19264SOL    HW259234   3.740   2.585   1.537  0.8486 -0.6773 -0.7974
19265SOL     OW59235   6.516   1.543  11.743 -0.2621 -0.3814  0.0631
19265SOL    HW159236   6.570   1.580  11.813 -0.7425 -0.2795  0.3778
19265SOL    HW259237   6.508   1.613  11.679 -3.0447  0.9009  1.6719
19266SOL     OW59238   7.065   2.116  11.456 -0.2100  0.2796 -0.6531
19266SOL    HW159239   7.140   2.066  11.490 -0.9989 -0.8011 -0.4646
19266SOL    HW259240   7.026   2.156  11.534  1.7339  3.2088 -0.9784
19267SOL     OW59241   0.672   4.137   0.789 -0.2822 -0.2452  0.0390
19267SOL    HW159242   0.671   4.073   0.860 -0.1419 -1.2931 -0.8671
19267SOL    HW259243   0.581   4.144   0.761 -0.4178  0.5768  0.6661
19268SOL     OW59244   6.445   1.688  11.064  0.0861  0.2476 -0.2721
19268SOL    HW159245   6.452   1.731  10.978 -0.8476  2.5124  0.6951
19268SOL    HW259246   6.367   1.633  11.056  0.2527  0.1063 -1.0135
19269SOL     OW59247   5.615   3.498   0.378  0.7295  0.1026 -0.2447
19269SOL    HW159248   5.668   3.574   0.356  1.2643 -0.6544 -1.7253
19269SOL    HW259249   5.609   3.499   0.474  0.3256  2.2420 -0.2638
19270SOL     OW59250   7.645   3.712   1.583  0.1969  0.5680  0.0229
19270SOL    HW159251   7.703   3.728   1.509  0.4145 -0.0024  0.0585
19270SOL    HW259252   7.696   3.654   1.641 -0.4400 -0.0325 -0.0029
19271SOL     OW59253   7.524   2.561  12.128  0.3398 -0.2966  0.0405
19271SOL    HW159254   7.525   2.555  12.033  1.4444 -0.1076  0.0249
19271SOL    HW259255   7.533   2.654  12.147 -3.0958  0.0875  0.3501
19272SOL     OW59256   6.559   0.667  12.384  0.3099 -0.1415 -0.0186
19272SOL    HW159257   6.647   0.685  12.350  0.8191 -2.2104  0.0303
19272SOL    HW259258   6.564   0.576  12.413 -1.2462  0.3507  1.9816
19273SOL     OW59259   7.680   1.311   1.561  0.2114  0.2772  0.4213
19273SOL    HW159260   7.587   1.314   1.582 -0.3126  1.7772 -1.7875
19273SOL    HW259261   7.708   1.403   1.559  1.3426 -0.0540 -0.5143
19274SOL     OW59262   6.009   1.644   0.630  0.0087  0.1670  0.8566
19274SOL    HW159263   6.045   1.723   0.590 -1.1768  0.0739 -0.4891
19274SOL    HW259264   6.077   1.577   0.619 -0.6336 -0.1295 -2.0266
19275SOL     OW59265   6.625   2.634   2.973  0.2965  0.2882 -0.1726
19275SOL    HW159266   6.608   2.540   2.977 -0.5068  0.3721 -1.1673
19275SOL    HW259267   6.539   2.675   2.979  0.6798  1.0071  0.8424
19276SOL     OW59268   7.782   3.840   0.472  0.5607  0.6390  0.7108
19276SOL    HW159269   7.756   3.789   0.396  0.6834 -1.1395  1.7848
19276SOL    HW259270   7.876   3.822   0.483  0.7785  1.6860  0.7121
19277SOL     OW59271   7.699   5.430   0.954 -0.3415 -0.4912 -0.1488
19277SOL    HW159272   7.614   5.394   0.931 -1.4742  2.2043 -0.6161
19277SOL    HW259273   7.717   5.495   0.886  1.3311  0.1133  0.8037
19278SOL     OW59274   7.125   1.967   1.849  0.1696  0.0780  0.2194
19278SOL    HW159275   7.217   1.968   1.875 -0.5122 -0.0473  2.8449
19278SOL    HW259276   7.121   1.901   1.779  2.1012  0.3162 -0.1709
19279SOL     OW59277   6.636   2.225   2.234  0.3263  0.7041  0.7098
19279SOL    HW159278   6.625   2.209   2.328 -0.0143  1.0141  0.7234
19279SOL    HW259279   6.730   2.222   2.220  0.3234 -2.9333  0.4361
19280SOL     OW59280   6.488   0.734   1.266  0.1163  0.0588  0.0431
19280SOL    HW159281   6.519   0.825   1.275  2.1871 -0.7648  2.2163
19280SOL    HW259282   6.428   0.722   1.340 -0.8001 -0.1600 -0.7110
19281SOL     OW59283   0.299   2.758   0.264  0.3458  0.1825 -0.4515
19281SOL    HW159284   0.211   2.736   0.296  0.1066 -0.2575 -1.3918
19281SOL    HW259285   0.351   2.769   0.344 -1.1028  2.9078  0.2677
19282SOL     OW59286   7.676   2.078   0.070  0.5009 -0.4800 -0.6767
19282SOL    HW159287   7.597   2.035   0.103  0.3635 -0.1214 -0.5240
19282SOL    HW259288   7.719   2.012   0.016  1.2841 -1.4447  1.0513
19283SOL     OW59289   5.692   3.586   1.035 -0.0753  0.0563  0.1384
19283SOL    HW159290   5.660   3.658   0.981  0.7156 -0.2090 -0.7182
19283SOL    HW259291   5.770   3.622   1.078 -0.7125  0.2718  1.1315
19284SOL     OW59292   6.882   2.790  12.174  0.0639 -0.6841 -0.3737
19284SOL    HW159293   6.835   2.873  12.163  1.1051 -0.2233 -1.4955
19284SOL    HW259294   6.820   2.734  12.221 -1.0323  0.3941 -0.4850
19285SOL     OW59295   5.796   3.038   1.489  0.3908  0.1815 -0.0728
19285SOL    HW159296   5.787   2.979   1.414 -2.2187  0.8294 -0.3759
19285SOL    HW259297   5.802   2.980   1.565  1.5755 -0.4670 -0.6365
19286SOL     OW59298   6.192   3.111   1.508  0.4077 -0.0907 -0.2652
19286SOL    HW159299   6.150   3.175   1.450 -0.5720 -0.0091  0.5072
19286SOL    HW259300   6.193   3.030   1.457 -1.7569 -0.3983  0.0567
19287SOL     OW59301   7.611   4.138   1.697 -0.2985 -0.0082  0.0588
19287SOL    HW159302   7.590   4.048   1.721  2.9095 -0.4566  1.7282
19287SOL    HW259303   7.663   4.130   1.617  2.2813 -0.0063  1.6352
19288SOL     OW59304   0.714   2.295   0.592 -0.4770  0.1419  0.4878
19288SOL    HW159305   0.629   2.258   0.615 -0.6775 -0.1431 -0.6369
19288SOL    HW259306   0.778   2.231   0.622 -0.8144 -1.1721 -1.3995
19289SOL     OW59307   6.168   3.534   0.698 -0.1994 -0.4943  0.5688
19289SOL    HW159308   6.175   3.619   0.655  1.8525 -1.5409 -1.3657
19289SOL    HW259309   6.256   3.497   0.692 -1.1855 -3.0389  0.7644
19290SOL     OW59310   6.043   3.587   1.760 -0.7573  0.2582 -0.2531
19290SOL    HW159311   6.021   3.495   1.776 -1.1846  0.1718 -1.2707
19290SOL    HW259312   6.116   3.605   1.820 -1.1178 -0.5420  0.4434
19291SOL     OW59313   0.021   2.978   1.082 -0.3472 -0.5703 -0.1108
19291SOL    HW159314   0.063   3.029   1.151  2.0281 -0.6503 -1.3913
19291SOL    HW259315  -0.029   2.911   1.129 -0.1659  0.3705  1.5198
19292SOL     OW59316   5.919   0.655   2.866 -0.1820 -0.3031  0.7447
19292SOL    HW159317   5.884   0.572   2.834 -0.0208 -0.8597  1.9386
19292SOL    HW259318   5.847   0.718   2.855 -1.0762 -1.1021  1.8260
19293SOL     OW59319   4.956   2.344   1.491  0.2284  0.0457  0.6392
19293SOL    HW159320   5.051   2.354   1.487  0.1745  0.3175 -0.2042
19293SOL    HW259321   4.926   2.360   1.401 -0.6757  0.6628  1.0278
19294SOL     OW59322   7.635   2.704   0.606  0.0011  0.3783  0.4534
19294SOL    HW159323   7.635   2.799   0.617 -0.1420  0.3383  0.8012
19294SOL    HW259324   7.672   2.670   0.687  3.2670  0.2568 -0.9169
19295SOL     OW59325   0.460   1.495  12.112  0.1957  0.0950 -0.0075
19295SOL    HW159326   0.492   1.410  12.142 -0.8412  0.6650  3.0637
19295SOL    HW259327   0.413   1.476  12.031  3.5553 -1.5283 -1.7853
19296SOL     OW59328   6.701   1.941  10.869 -0.3138 -0.0095  0.2245
19296SOL    HW159329   6.775   1.988  10.908 -0.5372 -0.1887  0.8718
19296SOL    HW259330   6.698   1.972  10.778  0.5504  0.0065  0.1960
19297SOL     OW59331   6.738   1.610   2.215  0.5575  0.2591  0.3920
19297SOL    HW159332   6.747   1.632   2.122  1.8986  0.3414  0.5158
19297SOL    HW259333   6.736   1.695   2.259 -1.2500  0.2638  0.3868
19298SOL     OW59334   7.626   3.831  11.865  0.1126  0.0906 -0.3642
19298SOL    HW159335   7.561   3.761  11.871 -0.7835  1.0384  2.1029
19298SOL    HW259336   7.707   3.786  11.840 -1.2552 -1.2119 -2.7627
19299SOL     OW59337   5.539   3.116   0.768 -0.0294  0.1647  0.1475
19299SOL    HW159338   5.618   3.143   0.722 -0.5796  0.3929 -0.6710
19299SOL    HW259339   5.536   3.172   0.846  1.6164 -1.1384  1.2008
19300SOL     OW59340   7.113   2.892   1.650 -0.0810 -0.3473 -0.2969
19300SOL    HW159341   7.048   2.915   1.716 -0.9821  0.2184 -1.3353
19300SOL    HW259342   7.103   2.798   1.636 -0.7992 -0.2339 -0.5637
19301SOL     OW59343   6.104   2.852   1.098 -0.1234 -0.3922  0.2068
19301SOL    HW159344   6.085   2.808   1.015 -1.0104  0.3496  0.0004
19301SOL    HW259345   6.141   2.936   1.072 -0.2096 -0.2429  0.5653
19302SOL     OW59346   7.592   0.899   0.931  0.2880 -0.5496 -0.2824
19302SOL    HW159347   7.659   0.946   0.881 -0.5466  0.9030 -0.0846
19302SOL    HW259348   7.613   0.919   1.023 -1.5323  1.6101 -0.2582
19303SOL     OW59349   5.872   1.397   2.901 -0.1379  0.0495  0.0736
19303SOL    HW159350   5.844   1.487   2.883  1.8378  0.8120  0.6031
19303SOL    HW259351   5.843   1.380   2.990  0.7666  0.7074  0.5002
19304SOL     OW59352   6.129   3.131   1.782  0.0438 -0.6424  0.4220
19304SOL    HW159353   6.189   3.068   1.821  1.3912  0.4256  0.1368
19304SOL    HW259354   6.117   3.101   1.692  0.2323 -0.7878  0.4459
19305SOL     OW59355   0.889   3.725   3.263 -0.0161  0.3677  0.1661
19305SOL    HW159356   0.888   3.700   3.356 -0.3565  1.1642  0.3857
19305SOL    HW259357   0.836   3.658   3.220 -1.0693  0.7896  0.7715
19306SOL     OW59358   5.919   1.500   3.913 -0.2722  0.0815  0.1409
19306SOL    HW159359   5.976   1.425   3.898  0.5097  0.7109 -0.1011
19306SOL    HW259360   5.902   1.498   4.008  0.6558  0.2328  0.3218
19307SOL     OW59361   7.357   3.541   0.629 -0.2456  0.3070 -0.5780
19307SOL    HW159362   7.428   3.476   0.634 -0.6711 -0.1171  0.1814
19307SOL    HW259363   7.337   3.547   0.536  0.8453  0.5021 -0.8177
19308SOL     OW59364   6.359   2.990  11.660 -0.8245  0.1435  0.3286
19308SOL    HW159365   6.316   2.997  11.745 -1.4824  0.7462 -0.0477
19308SOL    HW259366   6.330   3.067  11.612  1.0824  0.8506  0.2303
19309SOL     OW59367   6.745   4.117   1.222  0.2811  0.0393 -0.8907
19309SOL    HW159368   6.795   4.185   1.268  1.0889  0.9285 -2.9523
19309SOL    HW259369   6.779   4.034   1.257 -0.9378  0.5851  1.8992
19310SOL     OW59370   6.889   3.008   0.877 -1.0055  0.0865 -0.7246
19310SOL    HW159371   6.925   2.934   0.926 -0.0655  1.6848  1.1436
19310SOL    HW259372   6.965   3.050   0.837 -1.5201  0.1188 -1.7068
19311SOL     OW59373   5.590   1.662   0.266  0.0529 -0.2975 -0.2479
19311SOL    HW159374   5.685   1.675   0.273  0.3912 -2.5749 -0.0020
19311SOL    HW259375   5.572   1.668   0.172  0.5694 -0.5999 -0.3698
19312SOL     OW59376   6.736   2.884   0.015 -0.0295  0.4376  0.5332
19312SOL    HW159377   6.721   2.955   0.078 -0.8826  1.9382 -1.2432
19312SOL    HW259378   6.653   2.875  -0.031  0.1228 -1.6370  0.5749
19313SOL     OW59379   0.699   2.898   0.018  0.1685 -0.4802 -0.2174
19313SOL    HW159380   0.702   2.840   0.093  1.5293 -0.2833 -0.0920
19313SOL    HW259381   0.648   2.850  -0.048  1.8253 -2.1328 -0.3673
19314SOL     OW59382   5.558   3.369   1.294  0.1899 -0.4939 -0.3315
19314SOL    HW159383   5.514   3.449   1.266  0.0094 -0.3245  0.4289
19314SOL    HW259384   5.638   3.399   1.339  0.6039 -0.7710 -0.8642
19315SOL     OW59385   6.268   3.529   1.909  0.3165  0.7064  0.1901
19315SOL    HW159386   6.210   3.533   1.985  1.1831 -1.2917  1.0152
19315SOL    HW259387   6.346   3.579   1.935 -0.1546  1.6354 -0.1368
19316SOL     OW59388   7.483   4.432  11.130  1.2597  0.1898 -0.1794
19316SOL    HW159389   7.497   4.438  11.224  1.1854  0.9862 -0.2107
19316SOL    HW259390   7.562   4.469  11.091  1.1842  0.0933 -0.4301
19317SOL     OW59391   5.910   0.957   2.856  0.3484 -0.2983  0.5721
19317SOL    HW159392   6.001   0.961   2.827 -0.3737 -1.7090 -2.2974
19317SOL    HW259393   5.905   1.019   2.929  2.8186  2.4931 -1.3710
19318SOL     OW59394   7.591   2.069   1.101 -0.2091 -0.0440  0.3232
19318SOL    HW159395   7.610   2.084   1.193  0.6502 -0.6854  0.2636
19318SOL    HW259396   7.677   2.071   1.058 -0.1853 -2.9808  0.0226
19319SOL     OW59397   6.509   3.648   0.902  0.7944  0.3885 -0.1133
19319SOL    HW159398   6.422   3.656   0.940  0.9605 -0.7882  0.5745
19319SOL    HW259399   6.505   3.567   0.851  0.7080  1.7082 -2.3075
19320SOL     OW59400   5.675   0.877   1.549 -0.1262 -0.4400 -0.0734
19320SOL    HW159401   5.599   0.821   1.568  0.2423 -0.5476  1.1827
19320SOL    HW259402   5.722   0.881   1.632 -0.3033  1.9897 -0.0367
19321SOL     OW59403   4.313   2.765   2.334  0.1311 -0.3962  0.4842
19321SOL    HW159404   4.352   2.819   2.403 -0.2156  0.0424  0.3394
19321SOL    HW259405   4.382   2.703   2.311  0.0648 -0.8957  1.5979
19322SOL     OW59406   6.328   2.010   2.672 -0.0999 -0.1001 -0.0337
19322SOL    HW159407   6.343   2.041   2.761  0.0772  0.4470 -0.2557
19322SOL    HW259408   6.284   2.082   2.628  0.4047 -0.1182 -0.5777
19323SOL     OW59409   6.311   4.067   1.673 -0.2332  0.4631  0.6103
19323SOL    HW159410   6.240   4.104   1.723 -0.4590 -0.0175  0.6537
19323SOL    HW259411   6.282   4.072   1.582 -0.2080  0.5118  0.6051
19324SOL     OW59412   7.211   1.905  12.113 -0.2944 -0.4881 -0.3017
19324SOL    HW159413   7.175   1.893  12.201  0.2894 -0.9950 -0.1279
19324SOL    HW259414   7.134   1.904  12.056 -0.6783 -0.1619  0.1967
19325SOL     OW59415   6.867   3.100   1.744 -0.4077 -0.4807  0.1077
19325SOL    HW159416   6.823   3.168   1.693 -1.1704 -0.6048  0.5792
19325SOL    HW259417   6.839   3.018   1.703  1.0305 -0.5284 -0.8784
19326SOL     OW59418   6.098   3.343  12.152 -0.5237  0.0712  0.0567
19326SOL    HW159419   6.110   3.266  12.097  1.2511  0.4950 -0.2156
19326SOL    HW259420   6.062   3.309  12.234  0.0273 -1.0192 -0.1410
19327SOL     OW59421   0.365   3.676  12.159 -0.1036  0.1205  0.7310
19327SOL    HW159422   0.375   3.768  12.134 -0.8651  0.5417  1.9034
19327SOL    HW259423   0.359   3.629  12.076  2.8068  0.7908  0.0444
19328SOL     OW59424   6.976   3.121   3.017  0.0278  0.5887 -0.1615
19328SOL    HW159425   7.008   3.194   2.964 -0.9954  0.6992 -0.6322
19328SOL    HW259426   6.898   3.091   2.972 -0.4859  0.2583  0.9312
19329SOL     OW59427   7.136   6.241  11.834  0.3870  0.1377  0.5684
19329SOL    HW159428   7.210   6.199  11.790 -0.1608  0.3890 -0.6388
19329SOL    HW259429   7.117   6.185  11.909 -0.0099 -1.4919 -0.7066
19330SOL     OW59430   5.792   2.492   0.134 -0.5047 -0.3031 -0.0573
19330SOL    HW159431   5.821   2.583   0.142 -1.2533  0.0145 -0.7301
19330SOL    HW259432   5.730   2.494   0.060  0.8950 -1.7001 -1.3451
19331SOL     OW59433   6.104   3.120   2.677 -0.2851  0.0456  0.3642
19331SOL    HW159434   6.188   3.157   2.652 -0.6762  0.6602 -0.0466
19331SOL    HW259435   6.067   3.183   2.739 -0.7217  0.0879  0.0625
19332SOL     OW59436   6.204   1.325   1.578  0.3505 -0.2394 -0.1146
19332SOL    HW159437   6.139   1.328   1.649 -2.3343  0.4133 -2.3909
19332SOL    HW259438   6.189   1.240   1.536  1.8193 -0.5627 -0.0279
19333SOL     OW59439   7.470   3.006   0.196  0.3060 -0.2574 -0.5306
19333SOL    HW159440   7.522   3.015   0.276  1.2051 -2.9485 -0.7276
19333SOL    HW259441   7.475   2.913   0.174 -1.4391  0.0868 -2.7245
19334SOL     OW59442   6.912   3.680  12.357  0.2635  0.3817 -0.0178
19334SOL    HW159443   6.963   3.647  12.283  0.7784  1.2388 -0.0624
19334SOL    HW259444   6.956   3.762  12.381 -2.0694  2.0754 -1.1593
19335SOL     OW59445   6.293   3.329   1.689  0.3058  0.1346  0.2435
19335SOL    HW159446   6.298   3.403   1.749  2.0553 -1.0716  1.7044
19335SOL    HW259447   6.235   3.267   1.733  0.4932 -0.1860  0.0445
19336SOL     OW59448   6.059   2.317   0.890  0.0955  0.2841  0.1013
19336SOL    HW159449   5.988   2.262   0.855  0.4866 -0.4714  0.4927
19336SOL    HW259450   6.088   2.272   0.969  0.3887  1.0840  0.4552
19337SOL     OW59451   7.435   2.657   2.716  0.2447  0.3268  0.8801
19337SOL    HW159452   7.504   2.701   2.666 -0.6367  1.1729  0.3583
19337SOL    HW259453   7.403   2.724   2.776 -1.3426  0.5615 -0.1445
19338SOL     OW59454   6.129   5.959   0.239  0.1375 -0.0483  0.1420
19338SOL    HW159455   6.075   5.882   0.225 -1.4850  1.2241 -1.0531
19338SOL    HW259456   6.208   5.944   0.185 -0.0762 -0.9314  0.0675
19339SOL     OW59457   6.719   4.019   0.947 -0.0065 -0.1066  0.3781
19339SOL    HW159458   6.722   4.055   1.035 -0.1242 -0.9516  0.7383
19339SOL    HW259459   6.806   4.033   0.912 -0.6078  2.4030 -0.2800
19340SOL     OW59460   7.950   1.277   0.982  0.3052 -0.0164 -0.0306
19340SOL    HW159461   7.917   1.366   0.997 -1.2678 -0.5059 -0.3925
19340SOL    HW259462   8.038   1.290   0.946  0.5732  1.3533  1.0348
19341SOL     OW59463   5.410   4.498   1.313 -0.1225  0.6153  0.1085
19341SOL    HW159464   5.328   4.502   1.363 -0.1891 -2.0608  0.3465
19341SOL    HW259465   5.477   4.481   1.378  0.1652 -0.3331 -0.4250
19342SOL     OW59466   7.308   4.288  11.668 -0.3057  0.3893  0.4788
19342SOL    HW159467   7.312   4.307  11.762 -0.5399 -0.2623  0.6225
19342SOL    HW259468   7.374   4.220  11.655  1.7228  2.3841 -0.3199
19343SOL     OW59469   6.906   2.743   1.466 -0.4801  0.3452  0.2038
19343SOL    HW159470   6.899   2.796   1.546 -0.6316  0.9480 -0.2100
19343SOL    HW259471   6.917   2.806   1.396  0.3028 -0.2074 -0.1888
19344SOL     OW59472   7.740   3.489   2.511  0.2104 -0.3157  0.2171
19344SOL    HW159473   7.764   3.575   2.477 -1.5978  0.3137  0.4074
19344SOL    HW259474   7.686   3.508   2.588 -2.7096 -1.4771 -1.4036
19345SOL     OW59475   7.893   5.032  11.567 -0.1626  0.7777  0.3188
19345SOL    HW159476   7.836   5.091  11.616 -0.6524  0.5068  0.0880
19345SOL    HW259477   7.842   4.951  11.559 -0.5431  1.1571 -1.5666
19346SOL     OW59478   4.839   2.830   3.034 -0.1705  0.0371 -0.3303
19346SOL    HW159479   4.777   2.888   2.990 -0.9381 -0.6131 -0.1358
19346SOL    HW259480   4.838   2.858   3.125 -0.4395 -0.1833 -0.2626
19347SOL     OW59481   6.310   2.708   2.107  0.2922  0.2885 -0.1972
19347SOL    HW159482   6.329   2.630   2.054 -2.1614 -1.1452  0.8318
19347SOL    HW259483   6.368   2.701   2.182  0.8257  0.0385 -0.6247
19348SOL     OW59484   6.358   3.851  12.199 -1.4058 -0.2179  0.3360
19348SOL    HW159485   6.268   3.883  12.211 -1.6295 -0.2658 -1.0087
19348SOL    HW259486   6.363   3.830  12.105 -0.2211 -0.9316  0.5440
19349SOL     OW59487   6.546   1.184   1.003  0.3915  0.5383  0.1253
19349SOL    HW159488   6.617   1.202   1.066  1.1672 -1.8085  0.0035
19349SOL    HW259489   6.572   1.230   0.924  1.8041 -0.2786  0.0915
19350SOL     OW59490   4.687   2.953   0.538 -0.4419 -0.1637 -0.8699
19350SOL    HW159491   4.701   2.890   0.608  0.9821 -0.7006 -1.5991
19350SOL    HW259492   4.748   3.025   0.556 -0.3036 -0.1506 -1.3607
19351SOL     OW59493   0.182   2.519  11.443  0.2412  0.4376 -0.4592
19351SOL    HW159494   0.262   2.492  11.399  0.0963 -0.5479 -0.1429
19351SOL    HW259495   0.112   2.487  11.387  0.0148 -2.2447  1.1843
19352SOL     OW59496   4.194   2.300   1.563  0.4462  0.0507  0.1594
19352SOL    HW159497   4.274   2.325   1.517 -0.2239 -0.9991 -1.6927
19352SOL    HW259498   4.209   2.208   1.588 -0.4278 -0.3914 -0.8629
19353SOL     OW59499   0.652   2.985   0.321 -0.3930  0.4334 -0.0477
19353SOL    HW159500   0.706   2.911   0.291 -1.0742 -0.1780  0.2167
19353SOL    HW259501   0.597   2.949   0.390 -0.7922  1.1748  0.0368
19354SOL     OW59502   6.506   0.654   0.889 -0.3417  0.2515 -0.1516
19354SOL    HW159503   6.545   0.582   0.939 -0.9103 -0.3922 -0.6212
19354SOL    HW259504   6.413   0.650   0.908 -0.7520 -0.7643 -2.1727
19355SOL     OW59505   5.874   3.305   1.421 -0.3656 -0.0284 -0.7996
19355SOL    HW159506   5.875   3.355   1.503 -1.2117  1.0963 -1.4423
19355SOL    HW259507   5.853   3.215   1.448  1.3871 -0.1198  0.4014
19356SOL     OW59508   6.829   3.044  11.472 -0.4081 -0.6840  0.1966
19356SOL    HW159509   6.869   2.996  11.399  0.0009 -0.5099  0.3045
19356SOL    HW259510   6.752   2.992  11.496  1.0297 -2.3142  1.5139
19357SOL     OW59511   7.402   3.219  12.414  0.0619 -0.6752  0.1858
19357SOL    HW159512   7.317   3.187  12.384  0.8636 -1.5929 -1.2175
19357SOL    HW259513   7.423   3.291  12.355 -0.0310  0.0116  0.9689
19358SOL     OW59514   6.175   2.162   1.104  0.1597 -0.5924  0.5919
19358SOL    HW159515   6.256   2.111   1.103 -0.1893 -1.2017  1.4002
19358SOL    HW259516   6.111   2.102   1.143 -1.0617 -0.6761 -1.4398
19359SOL     OW59517   3.799   5.199  12.458  0.0993 -0.1136 -0.2896
19359SOL    HW159518   3.728   5.262  12.448 -0.0703 -0.4619 -1.3349
19359SOL    HW259519   3.827   5.210  12.549  0.2555  1.6679 -0.5113
19360SOL     OW59520   4.830   0.529   3.006  0.1500 -0.2508 -0.2276
19360SOL    HW159521   4.772   0.502   2.936  1.9917 -1.1747 -1.4929
19360SOL    HW259522   4.831   0.625   3.001 -1.0605 -0.2288 -0.3066
19361SOL     OW59523   6.725   3.511   1.159  0.2955 -0.1753 -0.0239
19361SOL    HW159524   6.719   3.599   1.124  1.6442 -0.4668 -1.0498
19361SOL    HW259525   6.711   3.453   1.084  1.4951 -0.8117  0.2163
19362SOL     OW59526   7.886   3.458   1.461 -0.3092  0.2928 -0.4217
19362SOL    HW159527   7.891   3.486   1.552  1.8761  0.7549 -0.6108
19362SOL    HW259528   7.886   3.362   1.466 -0.8566  0.3144  0.0738
19363SOL     OW59529   7.210   3.113  11.277 -0.2132  0.3364  0.2645
19363SOL    HW159530   7.271   3.175  11.238  0.4318  0.9916  2.1899
19363SOL    HW259531   7.153   3.087  11.205  1.6457  0.5130 -1.3688
19364SOL     OW59532   7.261   2.018   0.933 -0.2980 -0.4965 -0.4839
19364SOL    HW159533   7.308   2.097   0.904 -0.2791 -0.3174  0.0158
19364SOL    HW259534   7.228   1.979   0.852  1.6530 -1.2384 -0.9754
19365SOL     OW59535   0.154   2.830  11.754 -0.0791  0.6347 -0.3789
19365SOL    HW159536   0.238   2.792  11.778  0.0956  1.5743  0.5834
19365SOL    HW259537   0.175   2.908  11.702 -0.4147 -0.1120 -1.6842
19366SOL     OW59538   6.959   3.486   1.702  0.0313  0.4205  0.3836
19366SOL    HW159539   6.884   3.546   1.692 -2.8658 -3.0123 -0.9255
19366SOL    HW259540   6.954   3.430   1.625  2.9324 -1.1384  1.2038
19367SOL     OW59541   6.564   1.193   0.616  0.5069  0.1591  0.4581
19367SOL    HW159542   6.488   1.213   0.670 -0.8787 -1.9658 -0.5585
19367SOL    HW259543   6.571   1.267   0.555 -0.8104  0.3541  0.5231
19368SOL     OW59544   6.604   3.966  12.279 -0.4010  0.0074 -0.6380
19368SOL    HW159545   6.637   3.907  12.212 -0.7881  1.2988 -2.0151
19368SOL    HW259546   6.510   3.950  12.281 -0.0403 -3.0261  2.6560
19369SOL     OW59547   4.528   3.906   1.016  0.1705 -0.1118 -0.4668
19369SOL    HW159548   4.575   3.960   1.079 -1.8992  3.3744 -1.6229
19369SOL    HW259549   4.479   3.843   1.070  2.4218 -0.7282  0.9783
19370SOL     OW59550   7.416   3.253   0.378  0.7194  0.3858 -0.1407
19370SOL    HW159551   7.338   3.286   0.423 -0.5383 -3.4906  0.9512
19370SOL    HW259552   7.464   3.204   0.446  3.2385  1.1973 -1.2118
19371SOL     OW59553   6.590   2.324   0.582 -0.0114 -0.3383  0.1173
19371SOL    HW159554   6.555   2.342   0.495  0.9729  0.5149 -0.1272
19371SOL    HW259555   6.542   2.383   0.640  1.6780  1.6286 -0.3689
19372SOL     OW59556   7.861   3.925   0.106 -0.1030  0.1360  0.2912
19372SOL    HW159557   7.935   3.959   0.157 -1.1411  0.0342  1.9465
19372SOL    HW259558   7.840   3.841   0.147 -1.6876  0.5789  0.4647
19373SOL     OW59559   6.469   3.534   2.218 -0.1837  0.0220  0.0242
19373SOL    HW159560   6.466   3.588   2.140  0.3777 -0.8447 -0.6187
19373SOL    HW259561   6.540   3.472   2.202  0.3683  0.2279  1.4937
19374SOL     OW59562   4.727   3.865   2.393  0.1285  0.1657  0.1993
19374SOL    HW159563   4.692   3.922   2.324 -1.7158 -1.3713 -0.2112
19374SOL    HW259564   4.688   3.898   2.474 -0.4664 -0.1300  0.0390
19375SOL     OW59565   7.695   4.192   2.384 -0.5038  0.0397  0.6462
19375SOL    HW159566   7.638   4.124   2.348 -1.2097  0.0705  1.6497
19375SOL    HW259567   7.691   4.179   2.479  1.0040  0.1871  0.7530
19376SOL     OW59568   0.274   0.460   1.359  0.2600 -0.2528  0.1411
19376SOL    HW159569   0.245   0.413   1.437  0.8319 -1.1941 -0.1962
19376SOL    HW259570   0.370   0.457   1.364  0.3001 -0.1909 -0.5136
19377SOL     OW59571   5.111   0.966  11.907  0.4463  0.1116 -0.0598
19377SOL    HW159572   5.112   1.051  11.864  0.8265  1.6829  2.7715
19377SOL    HW259573   5.019   0.944  11.916  0.3099  0.7144  0.0386
19378SOL     OW59574   7.547   3.387   1.649  0.3207  0.0707  0.0121
19378SOL    HW159575   7.465   3.429   1.675 -0.9671 -2.5638  0.5162
19378SOL    HW259576   7.529   3.350   1.563  2.2107  2.4407 -1.5372
19379SOL     OW59577   6.085   2.154   1.727 -0.1436 -0.5173 -0.0062
19379SOL    HW159578   6.117   2.153   1.636 -0.4047 -1.8992 -0.1037
19379SOL    HW259579   6.149   2.208   1.774 -0.4747  0.9552 -1.1575
19380SOL     OW59580   0.116   3.258  11.054 -0.4052 -0.8177  0.6818
19380SOL    HW159581   0.083   3.206  11.127  0.1315 -2.0525  0.0844
19380SOL    HW259582   0.041   3.268  10.996 -0.3553 -1.5360  0.4798
19381SOL     OW59583   6.761   1.532   0.145 -0.3282 -0.0553  0.0572
19381SOL    HW159584   6.689   1.487   0.189  0.6042  0.6619  2.5089
19381SOL    HW259585   6.838   1.478   0.164  0.0722  0.1152 -1.0208
19382SOL     OW59586   7.799   1.074   1.073  0.0642 -0.1543 -0.5349
19382SOL    HW159587   7.846   1.140   1.022  0.8781  0.3372  0.7995
19382SOL    HW259588   7.783   1.116   1.158 -0.6975 -1.1638 -0.1600
19383SOL     OW59589   7.032   3.626   0.576  0.2633 -0.3699  0.3587
19383SOL    HW159590   7.041   3.541   0.620  0.8221 -0.7041 -0.3870
19383SOL    HW259591   6.945   3.624   0.538 -0.7245  0.3978  2.4029
19384SOL     OW59592   6.707   3.038   0.645 -0.1663  0.5668 -0.3789
19384SOL    HW159593   6.754   3.022   0.727  0.5040  1.1161 -0.6524
19384SOL    HW259594   6.674   2.952   0.620 -0.5265  0.4152  0.5529
19385SOL     OW59595   7.667   1.722  12.225 -0.7884 -0.2297  0.0759
19385SOL    HW159596   7.711   1.749  12.144 -0.9351 -0.7732 -0.1961
19385SOL    HW259597   7.702   1.634  12.242 -1.3983 -0.4649  0.1248
19386SOL     OW59598   7.900   1.831   1.491 -0.0273  0.4093  0.2146
19386SOL    HW159599   7.919   1.796   1.578 -2.1507 -0.3974  0.4128
19386SOL    HW259600   7.897   1.926   1.504 -0.4614  0.2934  1.0814
19387SOL     OW59601   0.040   0.444   0.735  0.1876 -0.4470  0.3072
19387SOL    HW159602   0.044   0.361   0.687 -0.2279  0.3129 -1.1113
19387SOL    HW259603   0.131   0.476   0.734  0.0793 -0.1244 -0.5991
19388SOL     OW59604   7.105   3.053  10.995  0.1839  0.3788 -0.4952
19388SOL    HW159605   7.104   3.119  10.925 -0.1226  0.9292  0.0228
19388SOL    HW259606   7.123   2.970  10.949  1.3346  0.9178 -1.0702
19389SOL     OW59607   5.723   4.996   0.454 -0.2127  0.4938 -0.5859
19389SOL    HW159608   5.666   5.037   0.519  0.1864 -0.4061  0.3669
19389SOL    HW259609   5.809   4.996   0.494  0.0639  0.0232 -1.1590
19390SOL     OW59610   5.443   2.862   0.806 -0.8163  0.4748  0.4714
19390SOL    HW159611   5.475   2.951   0.791  1.1008  0.0979  1.8655
19390SOL    HW259612   5.376   2.872   0.874 -0.6714  0.8747  0.5620
19391SOL     OW59613   7.929   2.691   3.463 -0.4809  0.0538  0.4767
19391SOL    HW159614   7.989   2.728   3.398  2.1514 -2.2297  1.4400
19391SOL    HW259615   7.870   2.635   3.412  0.8618 -0.8721 -0.0922
19392SOL     OW59616   6.333   3.418   2.876  0.7131  0.1054 -0.1198
19392SOL    HW159617   6.396   3.486   2.851  0.7973 -0.0420 -0.3164
19392SOL    HW259618   6.338   3.414   2.971  0.1380  0.9167 -0.0391
19393SOL     OW59619   4.632   2.788   3.462  0.0201 -0.6837 -0.4915
19393SOL    HW159620   4.592   2.707   3.493 -1.6921  0.4343  0.4344
19393SOL    HW259621   4.672   2.826   3.540 -0.5653  0.0827 -0.5460
19394SOL     OW59622   6.580   4.615   4.348  0.2645  0.6735 -0.2998
19394SOL    HW159623   6.667   4.599   4.311  0.0330 -1.1999 -0.0847
19394SOL    HW259624   6.587   4.585   4.438 -0.6256  0.4799 -0.2937
19395SOL     OW59625   5.802   0.829   4.330 -0.0534  0.2343 -0.1499
19395SOL    HW159626   5.725   0.816   4.386  1.2943  1.8203  2.2207
19395SOL    HW259627   5.877   0.821   4.389  1.5105  0.9258 -1.9364
19396SOL     OW59628   0.373   4.028   1.815  0.1517  0.6722  0.5518
19396SOL    HW159629   0.381   3.952   1.758  1.3691  2.2492 -1.5370
19396SOL    HW259630   0.313   4.001   1.884 -0.5703 -1.6773 -0.8999
19397SOL     OW59631   6.407   3.630   3.604  0.2593 -0.0356 -0.1200
19397SOL    HW159632   6.391   3.710   3.654 -1.0003 -0.1576 -0.3049
19397SOL    HW259633   6.492   3.645   3.562 -0.6549  1.8921 -1.4152
19398SOL     OW59634   6.393   3.130   2.879 -0.1896  0.0203  0.3392
19398SOL    HW159635   6.475   3.120   2.926 -0.4291 -1.7148  0.4610
19398SOL    HW259636   6.385   3.224   2.864  1.6074  0.2602  0.6683
19399SOL     OW59637   5.636   2.641   1.553 -0.5077  0.5597  0.4658
19399SOL    HW159638   5.652   2.664   1.461  1.6236 -0.6538  0.4756
19399SOL    HW259639   5.541   2.649   1.563 -0.5538  3.1984 -1.1348
19400SOL     OW59640   6.624   2.649   4.311 -0.0968  0.4500 -0.6294
19400SOL    HW159641   6.687   2.714   4.279 -1.1853  1.4056 -0.8739
19400SOL    HW259642   6.679   2.580   4.348  1.1088  1.0407 -1.2475
19401SOL     OW59643   4.117   3.633   0.642 -0.2565 -0.1760  0.0562
19401SOL    HW159644   4.089   3.541   0.647 -0.7122 -0.0398  0.0554
19401SOL    HW259645   4.144   3.644   0.551  1.2868 -0.7247  0.4131
19402SOL     OW59646   6.844   2.314   2.027 -0.1666  0.2147  0.1299
19402SOL    HW159647   6.765   2.261   2.023 -0.0367  0.0713 -0.6990
19402SOL    HW259648   6.916   2.252   2.020  0.1249  0.1021  3.0025
19403SOL     OW59649   3.843   2.735   3.011  0.5246  0.7636  0.7525
19403SOL    HW159650   3.908   2.706   2.946  0.8398  0.4467  1.2065
19403SOL    HW259651   3.775   2.778   2.959  0.8595  0.6645  0.2256
19404SOL     OW59652   0.508   2.371   2.726 -0.0574 -0.2495  0.0431
19404SOL    HW159653   0.558   2.292   2.748  0.2033  0.3069  1.6057
19404SOL    HW259654   0.489   2.363   2.633  0.1180 -2.0649  0.1337
19405SOL     OW59655   4.493   3.464   2.017  0.8359  0.0652  0.1086
19405SOL    HW159656   4.578   3.486   2.056  0.8326  0.5139 -0.1360
19405SOL    HW259657   4.512   3.453   1.924  0.2589  2.3054 -0.3288
19406SOL     OW59658   6.375   3.014   2.343 -0.5676  0.2615  0.3244
19406SOL    HW159659   6.341   2.992   2.430  1.6238  2.0731  1.7642
19406SOL    HW259660   6.298   3.018   2.287 -2.2148  0.1934  2.4675
19407SOL     OW59661   4.002   2.928   3.161  0.1247  0.0602 -0.3983
19407SOL    HW159662   4.041   2.868   3.224  0.8016 -0.0682 -0.9319
19407SOL    HW259663   3.953   2.872   3.101 -0.1615  0.1477 -0.2525
19408SOL     OW59664   5.506   3.972   2.880  0.2420 -0.2827 -0.0580
19408SOL    HW159665   5.512   4.054   2.930 -1.8628 -0.6154  0.8384
19408SOL    HW259666   5.597   3.943   2.871  0.8703  1.0798  1.4032
19409SOL     OW59667   5.739   1.809   4.684 -0.0964  0.5413  0.0739
19409SOL    HW159668   5.665   1.833   4.739 -0.7141  1.3081 -1.0401
19409SOL    HW259669   5.760   1.890   4.636 -0.0488 -0.2785 -1.3360
19410SOL     OW59670   5.394   2.848   2.545 -0.2442  0.5094 -0.1380
19410SOL    HW159671   5.413   2.873   2.454 -2.2537 -0.3782 -0.8646
19410SOL    HW259672   5.448   2.771   2.560  1.3396  1.6033  0.0188
19411SOL     OW59673   5.737   1.307   3.655 -0.0504 -0.4688 -0.0476
19411SOL    HW159674   5.833   1.305   3.648 -0.1573 -1.7962 -1.6857
19411SOL    HW259675   5.712   1.217   3.673 -0.9340  0.1614  2.1648
19412SOL     OW59676   6.853   1.830   2.880  0.2122  0.4831 -0.1924
19412SOL    HW159677   6.865   1.921   2.907  0.8510  0.2555  0.3261
19412SOL    HW259678   6.761   1.812   2.900  0.0654  1.0297 -0.3548
19413SOL     OW59679   5.873   2.926  12.450  0.1662 -0.3446 -0.6299
19413SOL    HW159680   5.815   2.871  12.398 -0.8071  0.5472 -0.5310
19413SOL    HW259681   5.881   2.881  12.534 -1.0153 -0.1017 -0.3775
19414SOL     OW59682   4.004   3.593   2.177  0.2420  0.8386 -0.3281
19414SOL    HW159683   3.951   3.672   2.189 -0.8041 -0.0713  1.4325
19414SOL    HW259684   4.074   3.601   2.241 -2.0559 -1.3456  2.7459
19415SOL     OW59685   7.461   2.809   1.744 -0.2033  0.3333  0.1775
19415SOL    HW159686   7.383   2.858   1.767 -0.3084 -0.5395  1.8383
19415SOL    HW259687   7.429   2.721   1.723  0.2312  0.2416 -0.1135
19416SOL     OW59688   5.295   3.465   1.691 -0.1953 -0.5796  0.6277
19416SOL    HW159689   5.361   3.519   1.647 -1.6445  0.9822  0.2423
19416SOL    HW259690   5.285   3.388   1.635 -0.2876  0.2460 -0.5265
19417SOL     OW59691   5.070   3.799   2.626  0.6811 -0.0488 -0.0402
19417SOL    HW159692   5.011   3.833   2.693  0.3606 -1.2955  0.3415
19417SOL    HW259693   5.156   3.830   2.651  0.4756  0.0158  0.6025
19418SOL     OW59694   5.280   2.924   1.402  0.5114 -0.0969 -0.0658
19418SOL    HW159695   5.304   2.835   1.375  0.4250  0.2124 -1.2428
19418SOL    HW259696   5.251   2.915   1.493 -4.1222 -2.1820 -1.4076
19419SOL     OW59697   7.455   4.103   3.902  0.0408 -0.0248  0.2285
19419SOL    HW159698   7.519   4.091   3.972 -0.0763 -0.1050  0.3233
19419SOL    HW259699   7.492   4.171   3.846  0.4881 -0.4837 -0.0460
19420SOL     OW59700   3.856   2.703   1.828 -0.2959  0.2635  0.2372
19420SOL    HW159701   3.848   2.786   1.781 -0.5886  0.7562  1.1340
19420SOL    HW259702   3.910   2.723   1.904  0.6535 -0.6571 -0.1693
19421SOL     OW59703   6.108   5.076   1.913 -0.0984  0.0573  0.0553
19421SOL    HW159704   6.063   5.113   1.989 -0.5489 -0.1991 -0.0885
19421SOL    HW259705   6.044   5.018   1.872 -0.0998  0.7236 -0.9250
19422SOL     OW59706   0.319   4.185   2.779 -0.1971 -0.1026 -0.0176
19422SOL    HW159707   0.409   4.215   2.794  0.5031 -1.7932 -0.5932
19422SOL    HW259708   0.318   4.155   2.688 -1.1478 -0.7750  0.1963
19423SOL     OW59709   5.706   2.844   4.022  0.6185  0.1724 -0.2570
19423SOL    HW159710   5.713   2.922   4.077 -1.0571 -0.3418  0.7686
19423SOL    HW259711   5.670   2.777   4.080 -1.7181 -0.2692 -2.0548
19424SOL     OW59712   4.998   3.425   3.289  0.0955  0.0411  0.1522
19424SOL    HW159713   4.970   3.334   3.304  2.7807 -0.8105  0.5446
19424SOL    HW259714   5.004   3.463   3.376 -0.6448  0.5069  0.0103
19425SOL     OW59715   7.139   4.410   3.733 -0.3430 -0.0899 -0.4557
19425SOL    HW159716   7.105   4.401   3.822 -2.5170 -0.0644 -1.2278
19425SOL    HW259717   7.217   4.464   3.742 -0.3583 -0.3356  1.4630
19426SOL     OW59718   6.335   1.735   3.634  0.3183 -0.2367 -0.5162
19426SOL    HW159719   6.419   1.699   3.665  0.4400 -0.0475 -0.6259
19426SOL    HW259720   6.297   1.664   3.581  0.5838 -0.1868 -0.7783
19427SOL     OW59721   7.161   2.392   3.170 -0.4614  0.4865 -0.0152
19427SOL    HW159722   7.107   2.460   3.130 -0.4670 -0.1776 -1.1742
19427SOL    HW259723   7.110   2.311   3.160 -0.3281  0.2463  1.0832
19428SOL     OW59724   0.122   2.764   1.708 -0.0412  0.1683 -0.6594
19428SOL    HW159725   0.112   2.793   1.617 -0.2505 -0.3217 -0.7941
19428SOL    HW259726   0.042   2.795   1.752 -0.3514 -0.3588 -0.8456
19429SOL     OW59727   5.256   3.980   2.408  0.3215 -0.3632 -0.9177
19429SOL    HW159728   5.333   3.959   2.355  1.5687 -2.0995  1.3925
19429SOL    HW259729   5.184   3.935   2.363  1.3106 -1.7085 -1.2211
19430SOL     OW59730   6.285   2.027   4.099  0.6157  0.8273 -0.3629
19430SOL    HW159731   6.294   1.964   4.171  1.1576  0.0648 -1.0911
19430SOL    HW259732   6.284   2.112   4.143  1.6252  0.4148  0.5025
19431SOL     OW59733   6.960   2.956   3.409 -0.9716  0.8717 -0.1240
19431SOL    HW159734   7.027   2.903   3.367 -2.0350  0.1604 -0.9939
19431SOL    HW259735   6.948   2.916   3.496 -1.1873  0.1751 -0.4636
19432SOL     OW59736   7.439   2.714   3.110 -0.3914 -0.1904 -0.5593
19432SOL    HW159737   7.438   2.638   3.051 -0.3264 -1.6313  1.2099
19432SOL    HW259738   7.447   2.676   3.197  1.0871  1.9403  0.2966
19433SOL     OW59739   6.407   2.950   1.703  0.4579  0.0292  0.1153
19433SOL    HW159740   6.460   3.014   1.656 -0.6534 -0.5019 -1.9695
19433SOL    HW259741   6.414   2.870   1.651 -0.3327 -0.7716  1.1953
19434SOL     OW59742   4.915   2.059   3.810  0.1080 -0.0151  0.2600
19434SOL    HW159743   4.885   2.144   3.779  1.1755  0.4744  0.5223
19434SOL    HW259744   4.844   1.999   3.787 -0.2283  0.7622 -0.8427
19435SOL     OW59745   6.087   3.596   3.796  0.0139 -0.0682  0.0032
19435SOL    HW159746   6.110   3.605   3.889  0.3019  0.4026 -0.1072
19435SOL    HW259747   6.084   3.687   3.764 -2.2946 -0.0635  0.0781
19436SOL     OW59748   6.626   2.426   1.139 -0.0680  0.0798 -0.2733
19436SOL    HW159749   6.536   2.398   1.157  0.3568 -2.0500 -1.1285
19436SOL    HW259750   6.622   2.466   1.053 -0.0898 -0.7397 -0.6635
19437SOL     OW59751   7.431   3.736   4.093  0.1542  0.4600 -0.0379
19437SOL    HW159752   7.367   3.712   4.026 -1.0399  1.1881  0.7884
19437SOL    HW259753   7.431   3.662   4.154  1.5463 -0.3850 -1.0222
19438SOL     OW59754   7.827   1.886   2.018  0.4478 -0.2418  0.0741
19438SOL    HW159755   7.889   1.926   1.957 -0.4330  0.5011 -0.3637
19438SOL    HW259756   7.874   1.883   2.101  1.6642 -1.2599 -0.6276
19439SOL     OW59757   5.159   2.248   3.258 -0.5225 -0.6060  0.2522
19439SOL    HW159758   5.076   2.270   3.301  0.9277  0.8050  2.6286
19439SOL    HW259759   5.218   2.225   3.331  1.3311 -0.9706 -1.2789
19440SOL     OW59760   6.270   2.650   4.705  0.4366  0.2638 -0.6445
19440SOL    HW159761   6.189   2.608   4.733 -0.5712  2.0466 -0.7738
19440SOL    HW259762   6.290   2.610   4.621 -1.0142  0.6785 -1.2104
19441SOL     OW59763   4.329   2.638   2.843 -0.0451 -0.2161 -0.3319
19441SOL    HW159764   4.365   2.681   2.766 -1.0603 -0.5158 -0.9905
19441SOL    HW259765   4.307   2.710   2.902  0.9570  0.0025 -0.1998
19442SOL     OW59766   7.561   3.581   5.239 -0.6172 -0.1875 -0.0635
19442SOL    HW159767   7.632   3.578   5.304 -0.8776 -0.7828  0.1988
19442SOL    HW259768   7.485   3.546   5.285 -0.8101 -0.5991 -0.6894
19443SOL     OW59769   7.370   4.443   5.290 -0.1894  0.7959 -0.2586
19443SOL    HW159770   7.306   4.483   5.231 -0.9565  2.1632  1.4030
19443SOL    HW259771   7.323   4.371   5.332  0.5191 -0.5197 -1.6464
19444SOL     OW59772   5.573   2.300   1.824  0.5901  0.2547  0.2701
19444SOL    HW159773   5.551   2.225   1.879  2.3127  1.6710  3.1404
19444SOL    HW259774   5.567   2.267   1.735  0.2317 -2.9712  1.3557
19445SOL     OW59775   5.929   3.324   1.776 -0.0514  0.7037  0.3699
19445SOL    HW159776   6.008   3.275   1.753 -1.3042 -0.8421 -0.9350
19445SOL    HW259777   5.886   3.270   1.842 -0.3903  1.1420  0.5101
19446SOL     OW59778   5.702   2.305   3.471  0.8556  0.1086 -0.5035
19446SOL    HW159779   5.790   2.341   3.481  0.2426  1.4940  0.2612
19446SOL    HW259780   5.646   2.365   3.521 -0.5104 -0.7944 -0.8914
19447SOL     OW59781   6.561   4.213   1.615  0.0139 -0.3336 -0.3550
19447SOL    HW159782   6.575   4.272   1.689  1.9136 -1.3018  0.1295
19447SOL    HW259783   6.474   4.176   1.629 -0.3627  0.8201  0.4279
19448SOL     OW59784   4.241   1.448   3.268 -0.2158  0.2159 -0.1192
19448SOL    HW159785   4.192   1.381   3.221 -0.0242 -1.0150  1.3616
19448SOL    HW259786   4.181   1.478   3.336  0.3011  0.3331  0.2918
19449SOL     OW59787   0.063   2.923   2.407  0.7529 -0.4701 -0.4914
19449SOL    HW159788   0.054   2.886   2.495 -0.7586  0.5039 -0.2048
19449SOL    HW259789  -0.002   2.876   2.354  0.1935  0.3811 -0.5808
19450SOL     OW59790   6.264   3.954   1.388  0.5009  0.6834 -0.1482
19450SOL    HW159791   6.191   3.896   1.412  0.3224  0.7697 -0.4766
19450SOL    HW259792   6.330   3.896   1.351  0.2945  0.6969 -0.5396
19451SOL     OW59793   7.399   2.841   2.888  0.1578 -0.1767 -0.0272
19451SOL    HW159794   7.324   2.900   2.890  0.9044  0.8301 -0.4284
19451SOL    HW259795   7.404   2.804   2.975 -1.3458 -0.9694 -0.2574
19452SOL     OW59796   4.510   2.821   3.156  0.7078  0.7991  0.0677
19452SOL    HW159797   4.532   2.749   3.216  0.6146  0.0727 -0.7591
19452SOL    HW259798   4.505   2.898   3.213 -0.1785 -0.0044  1.1275
19453SOL     OW59799   5.689   4.177   2.513  0.2951  0.4843 -0.1754
19453SOL    HW159800   5.726   4.227   2.585 -0.9265  0.3127  0.6130
19453SOL    HW259801   5.745   4.196   2.438  1.4571  0.8457  0.7643
19454SOL     OW59802   5.280   3.095   3.068 -0.5722 -0.2647 -0.1346
19454SOL    HW159803   5.310   3.166   3.011  1.2352 -0.3178  0.6739
19454SOL    HW259804   5.329   3.018   3.037 -0.5737 -0.5793  0.6359
19455SOL     OW59805   6.022   3.036   3.336  0.7542  0.0007  0.3289
19455SOL    HW159806   6.027   3.119   3.384  0.3398 -0.2828  0.8758
19455SOL    HW259807   6.055   2.971   3.399  1.2080 -0.2337 -0.1434
19456SOL     OW59808   6.424   1.581   2.371 -0.1068  0.3304 -0.6406
19456SOL    HW159809   6.393   1.660   2.416  0.3488  0.7019 -0.9605
19456SOL    HW259810   6.476   1.535   2.436 -0.5642  0.1719 -0.3823
19457SOL     OW59811   5.609   3.259   3.836 -0.0644 -0.0829  0.0041
19457SOL    HW159812   5.596   3.336   3.892  0.5688 -0.4886  0.7279
19457SOL    HW259813   5.657   3.292   3.760  2.6019 -0.1927  1.5281
19458SOL     OW59814   6.726   3.490   3.765 -0.2239 -0.0810 -0.3606
19458SOL    HW159815   6.790   3.443   3.820  1.2954 -1.1538 -2.8873
19458SOL    HW259816   6.648   3.496   3.821  0.5013 -2.9815  1.2065
19459SOL     OW59817   7.993   2.009   1.819 -0.2337  0.2827  0.0529
19459SOL    HW159818   7.940   2.053   1.753  0.2415  0.3065 -0.3159
19459SOL    HW259819   8.081   2.004   1.781 -0.2858 -1.0588  0.0540
19460SOL     OW59820   5.353   3.762   2.126 -0.0522 -0.2644 -0.2528
19460SOL    HW159821   5.419   3.739   2.191 -2.3499 -2.2883  1.5673
19460SOL    HW259822   5.389   3.729   2.043  2.5368  1.5580  0.0386
19461SOL     OW59823   6.142   2.082   2.164  0.1679  0.2149 -0.0135
19461SOL    HW159824   6.216   2.062   2.222  1.0544 -2.2470 -1.8114
19461SOL    HW259825   6.170   2.161   2.117  1.2576 -0.1502 -0.0154
19462SOL     OW59826   5.127   2.769   3.155 -0.1576 -0.3059 -0.1364
19462SOL    HW159827   5.092   2.717   3.227  0.1260  0.7922  0.8109
19462SOL    HW259828   5.215   2.795   3.184  0.6518 -1.2530 -1.5951
19463SOL     OW59829   5.285   3.808   2.782 -0.0728 -0.1246  0.3416
19463SOL    HW159830   5.357   3.871   2.788  0.1776 -0.4541  0.9200
19463SOL    HW259831   5.241   3.814   2.867  0.2284 -1.0499  0.5730
19464SOL     OW59832   6.798   2.004   1.909  0.1835  0.0928 -0.2739
19464SOL    HW159833   6.797   1.911   1.884  1.6269 -0.2706  0.9030
19464SOL    HW259834   6.880   2.015   1.958  0.2270  2.0839 -0.7066
19465SOL     OW59835   4.661   0.835   2.698  0.2524 -0.4857 -0.9452
19465SOL    HW159836   4.592   0.888   2.737 -0.1380  0.2781 -2.5623
19465SOL    HW259837   4.620   0.749   2.683 -0.1452 -0.2375 -1.2976
19466SOL     OW59838   7.623   2.898   5.298  0.0620  0.1918 -0.2180
19466SOL    HW159839   7.641   2.973   5.355 -0.0145  0.0499 -0.0049
19466SOL    HW259840   7.574   2.935   5.225 -1.7229  0.0410  0.8510
19467SOL     OW59841   6.624   3.223   2.637  0.0845 -0.1392 -0.0415
19467SOL    HW159842   6.683   3.273   2.581 -0.0645 -1.2381 -1.2324
19467SOL    HW259843   6.628   3.134   2.603 -1.7119 -0.3950  0.2808
19468SOL     OW59844   5.182   3.272   2.421  0.3573  0.0797 -0.3570
19468SOL    HW159845   5.195   3.366   2.410  1.9864 -0.1607 -0.7803
19468SOL    HW259846   5.111   3.250   2.361  0.7008  0.8694 -1.0628
19469SOL     OW59847   7.127   3.410   1.935  0.4257  0.6132 -0.2906
19469SOL    HW159848   7.098   3.320   1.922  0.2029  0.6263  0.0987
19469SOL    HW259849   7.076   3.462   1.873 -1.2460  0.7948  1.1523
19470SOL     OW59850   4.858   3.599   1.709 -0.0076  0.5340  0.1273
19470SOL    HW159851   4.926   3.546   1.751  0.4701  1.6709  0.8381
19470SOL    HW259852   4.891   3.614   1.620  1.2122  1.9474  0.7778
19471SOL     OW59853   6.983   1.473   2.022  0.3686 -0.0665  0.3577
19471SOL    HW159854   6.934   1.468   1.940 -1.0433 -0.3524  1.2027
19471SOL    HW259855   7.038   1.551   2.011 -0.3748  0.3551 -0.5397
19472SOL     OW59856   7.585   1.969   2.659  0.1012 -0.3374 -0.0626
19472SOL    HW159857   7.492   1.952   2.671  0.0819 -0.3600 -0.2516
19472SOL    HW259858   7.609   2.021   2.736  0.1593 -1.1741  0.5026
19473SOL     OW59859   7.907   3.230   0.446  0.2424 -0.0112 -0.9304
19473SOL    HW159860   7.985   3.281   0.469 -0.6071 -0.0413  2.7282
19473SOL    HW259861   7.936   3.139   0.448 -0.0257 -0.1404  2.0118
19474SOL     OW59862   7.115   2.226   1.676 -0.5872  0.2517  0.4728
19474SOL    HW159863   7.048   2.205   1.741  0.4728  0.4877  1.6836
19474SOL    HW259864   7.128   2.320   1.684  0.0640  0.1683  0.4362
19475SOL     OW59865   6.865   3.086   2.244  0.2000  0.2187 -0.6177
19475SOL    HW159866   6.952   3.123   2.230  1.1944 -1.8929 -0.3978
19475SOL    HW259867   6.845   3.039   2.163  1.5368 -3.4645  0.9523
19476SOL     OW59868   6.469   2.662   2.337 -0.6156  0.5857  0.2739
19476SOL    HW159869   6.395   2.689   2.391 -1.4881 -1.0270 -0.0376
19476SOL    HW259870   6.489   2.573   2.368 -1.0352 -0.3379 -1.9131
19477SOL     OW59871   6.616   3.061   3.015  0.7084  0.2254  0.0920
19477SOL    HW159872   6.677   3.001   2.972 -0.1394 -1.3465  0.9786
19477SOL    HW259873   6.626   3.041   3.109 -1.8193 -0.8175  0.2145
19478SOL     OW59874   4.049   4.803   2.145  0.1043 -0.2636  0.1598
19478SOL    HW159875   4.006   4.751   2.213  0.2523 -1.1752 -0.4202
19478SOL    HW259876   4.051   4.745   2.068  2.6480 -0.3911  0.2393
19479SOL     OW59877   0.347   3.589   2.763 -0.1533  0.2032  0.4080
19479SOL    HW159878   0.409   3.625   2.699  0.6713 -0.0123  1.0669
19479SOL    HW259879   0.307   3.514   2.719 -1.4397  1.5060 -0.7618
19480SOL     OW59880   7.912   1.236   1.691  0.9295 -0.0243  0.2350
19480SOL    HW159881   7.952   1.323   1.691 -0.7403  0.8004  1.7901
19480SOL    HW259882   7.844   1.241   1.624  0.7582 -0.0893  0.4023
19481SOL     OW59883   6.492   3.890   1.807  0.2869  0.0562  0.4977
19481SOL    HW159884   6.413   3.927   1.769  0.5332  1.1553  1.0020
19481SOL    HW259885   6.563   3.919   1.749  0.6064  1.3373  1.4813
19482SOL     OW59886   1.176   3.208   3.505  0.2412  0.5803  0.3049
19482SOL    HW159887   1.240   3.138   3.492  0.1819  0.2667  1.5489
19482SOL    HW259888   1.168   3.250   3.420  0.9830 -0.3332 -0.2278
19483SOL     OW59889   6.638   1.470   2.951 -0.0867 -0.2156 -0.1636
19483SOL    HW159890   6.718   1.445   2.995  0.6140  0.1299 -1.2017
19483SOL    HW259891   6.574   1.403   2.976  0.1901  0.1293  1.5727
19484SOL     OW59892   5.848   2.108   4.953  0.7057  0.1872  0.2214
19484SOL    HW159893   5.895   2.025   4.947  1.2353  0.4443  0.7288
19484SOL    HW259894   5.764   2.091   4.910  1.3894 -0.1761 -1.0193
19485SOL     OW59895   6.312   3.785   2.741  0.1754  0.4944  0.1445
19485SOL    HW159896   6.308   3.750   2.652 -0.4015  0.3937  0.2006
19485SOL    HW259897   6.368   3.724   2.789 -3.2236 -2.3043  1.0447
19486SOL     OW59898   7.290   4.220   5.729 -0.5372 -0.1214  0.1501
19486SOL    HW159899   7.254   4.204   5.642  1.5702 -0.7311 -0.6776
19486SOL    HW259900   7.289   4.315   5.739  1.3885  0.1637 -1.6153
19487SOL     OW59901   5.061   1.100   3.574  0.0121  1.1295 -0.2434
19487SOL    HW159902   5.001   1.113   3.501  0.9600  0.5860 -1.1436
19487SOL    HW259903   5.052   1.178   3.628  0.5710  2.3614 -1.8651
19488SOL     OW59904   5.602   1.860   2.482  0.0616 -0.2658  0.4208
19488SOL    HW159905   5.572   1.898   2.565  0.5261  0.0174  0.4613
19488SOL    HW259906   5.552   1.779   2.474  0.1991 -0.4283  1.1086
19489SOL     OW59907   7.165   0.407   1.874  0.2705  0.2064 -0.1288
19489SOL    HW159908   7.125   0.417   1.788 -0.8108 -0.4217  0.2782
19489SOL    HW259909   7.195   0.495   1.898 -1.3126  0.8158 -0.2554
19490SOL     OW59910   6.543   2.682   3.526  0.4552 -0.3462 -0.2605
19490SOL    HW159911   6.618   2.738   3.550  0.5632 -0.8145  0.5409
19490SOL    HW259912   6.476   2.703   3.591  0.1701 -0.4869 -0.5086
19491SOL     OW59913   7.562   0.768   3.915  0.1545 -0.8817 -0.1660
19491SOL    HW159914   7.586   0.851   3.875  0.0600 -1.4507 -1.4319
19491SOL    HW259915   7.468   0.775   3.932  0.5775  0.2399  2.1522
19492SOL     OW59916   5.243   3.810   3.791 -0.0592 -0.0428 -0.8573
19492SOL    HW159917   5.254   3.854   3.706 -1.7876 -1.5538 -1.9347
19492SOL    HW259918   5.151   3.786   3.793  0.5781 -2.6603  0.1429
19493SOL     OW59919   5.753   2.132   2.701  0.0646  0.0777  0.3277
19493SOL    HW159920   5.688   2.068   2.673 -0.6865  1.3643 -1.0405
19493SOL    HW259921   5.834   2.104   2.658  0.2139 -0.9629  1.2318
19494SOL     OW59922   6.898   0.150   2.560  0.3231  0.9735 -0.2841
19494SOL    HW159923   6.822   0.163   2.503 -0.1390  0.0463  0.1020
19494SOL    HW259924   6.878   0.070   2.610  1.3059  1.0214  0.2192
19495SOL     OW59925   0.179   2.305   2.298 -0.1170 -0.0190  0.2670
19495SOL    HW159926   0.126   2.265   2.229 -0.3169  0.1848  0.3006
19495SOL    HW259927   0.175   2.399   2.279 -1.1445  0.1526  1.2264
19496SOL     OW59928   5.771   3.742   2.369 -0.1356  0.2459  0.9884
19496SOL    HW159929   5.796   3.720   2.458  0.5920 -0.6826  0.5733
19496SOL    HW259930   5.764   3.658   2.324  0.5105  0.7300 -0.0761
19497SOL     OW59931   6.111   0.678   2.386  0.4944 -0.5163  0.4134
19497SOL    HW159932   6.056   0.682   2.309 -0.0207 -0.6098  0.7732
19497SOL    HW259933   6.051   0.691   2.460  0.9220 -0.7757  0.8151
19498SOL     OW59934   5.892   3.116   3.757 -0.0576  0.6153  0.4006
19498SOL    HW159935   5.871   3.081   3.671  0.7128 -0.5372  0.6589
19498SOL    HW259936   5.902   3.210   3.743 -1.1480  0.6137 -0.5105
19499SOL     OW59937   5.715   3.707   3.055  0.4395 -0.0371  0.3417
19499SOL    HW159938   5.770   3.707   3.132 -0.4222 -2.5380  1.0354
19499SOL    HW259939   5.629   3.735   3.086  0.3151 -0.1399  0.0994
19500SOL     OW59940   7.308   3.456   2.843  0.3043 -0.1276  0.3836
19500SOL    HW159941   7.376   3.520   2.865 -1.0833  1.7519 -0.5907
19500SOL    HW259942   7.337   3.418   2.760  1.4485 -1.2850  1.2756
19501SOL     OW59943   7.549   3.274   4.497 -0.4420 -0.1058  0.2195
19501SOL    HW159944   7.480   3.289   4.562  0.4581  0.3332  1.0919
19501SOL    HW259945   7.521   3.195   4.450 -0.3559 -1.3450  2.1670
19502SOL     OW59946   6.460   3.419   3.912  0.1318  0.5728 -0.4154
19502SOL    HW159947   6.510   3.380   3.984  1.5094  1.5892 -0.7863
19502SOL    HW259948   6.371   3.386   3.925  0.5461 -0.0443  1.1839
19503SOL     OW59949   5.033   2.954   2.393 -0.7216  0.3744  0.0401
19503SOL    HW159950   5.074   2.948   2.307  1.6026  0.3027  1.0714
19503SOL    HW259951   5.003   3.045   2.399  0.8547  0.9445 -0.1474
19504SOL     OW59952   5.847   1.882   2.076 -0.0166  0.1667 -0.4325
19504SOL    HW159953   5.774   1.826   2.054 -2.2081  1.6186  2.4338
19504SOL    HW259954   5.877   1.851   2.161 -0.0449  2.0477  0.3296
19505SOL     OW59955   6.371   3.119   3.210 -0.2120 -0.4031 -1.0120
19505SOL    HW159956   6.359   3.137   3.117 -2.0793 -0.8599 -0.9043
19505SOL    HW259957   6.329   3.034   3.223 -0.1150 -0.2683  0.2772
19506SOL     OW59958   6.647   3.711   2.594 -0.4332 -0.1813  0.5156
19506SOL    HW159959   6.724   3.744   2.640  1.1699 -0.8872 -1.5077
19506SOL    HW259960   6.612   3.788   2.549 -0.0236 -0.1172  0.2952
19507SOL     OW59961   5.857   3.626   3.276  0.4717 -0.0656 -0.0148
19507SOL    HW159962   5.832   3.547   3.325 -1.1407  0.7124  0.4790
19507SOL    HW259963   5.950   3.638   3.296  0.2059 -0.5888  1.7283
19508SOL     OW59964   6.434   3.007   3.510  0.4143 -0.3219 -0.4026
19508SOL    HW159965   6.422   3.014   3.605 -2.5384 -0.1230 -0.6882
19508SOL    HW259966   6.379   2.932   3.485 -0.9234  1.1517 -2.1993
19509SOL     OW59967   6.686   3.959   5.341  0.5540  0.0628  0.0584
19509SOL    HW159968   6.755   3.896   5.320 -0.1701 -0.3956 -1.0629
19509SOL    HW259969   6.681   4.015   5.263 -0.5200 -0.0879  0.0055
19510SOL     OW59970   6.422   1.464   2.050  0.0950  0.1999 -0.3891
19510SOL    HW159971   6.397   1.481   2.140  1.6618 -0.8818  0.2910
19510SOL    HW259972   6.415   1.369   2.040  0.4688  0.2455 -1.2305
19511SOL     OW59973   7.647   3.157   4.749  0.5273  0.8479 -0.1358
19511SOL    HW159974   7.577   3.104   4.710 -0.9546  0.9385  2.2235
19511SOL    HW259975   7.673   3.216   4.678 -1.3102  0.3498 -1.3194
19512SOL     OW59976   7.898   2.773   2.263 -0.2342  0.2671 -0.3208
19512SOL    HW159977   7.917   2.680   2.252  1.2743  0.6059 -0.7677
19512SOL    HW259978   7.927   2.813   2.182  0.3766  1.3040  0.3895
19513SOL     OW59979   6.871   3.458   3.537 -0.0887 -0.1499 -0.0258
19513SOL    HW159980   6.866   3.363   3.546 -0.0630 -0.0361  1.4712
19513SOL    HW259981   6.792   3.490   3.582 -0.0095  0.5479 -0.3714
19514SOL     OW59982   7.008   4.590   0.148  0.3145  0.1153  0.6896
19514SOL    HW159983   6.972   4.678   0.141  0.4980  0.3203  2.0774
19514SOL    HW259984   7.078   4.588   0.082 -1.0395  0.2669 -0.8328
19515SOL     OW59985   6.385   5.266   2.942  0.0893  0.3108 -0.3686
19515SOL    HW159986   6.365   5.253   2.849 -1.1585  1.9269 -0.3685
19515SOL    HW259987   6.300   5.282   2.983  0.5244 -1.1170  1.2288
19516SOL     OW59988   7.457   3.301   3.450 -0.1678 -0.1019 -0.5730
19516SOL    HW159989   7.431   3.312   3.542 -0.0420  0.3679 -0.5906
19516SOL    HW259990   7.536   3.247   3.454  1.1478  1.7400 -0.2239
19517SOL     OW59991   7.452   1.174   1.092  0.2315 -0.2213 -0.0490
19517SOL    HW159992   7.417   1.129   1.169 -0.5071  0.6057  0.1170
19517SOL    HW259993   7.399   1.141   1.019 -0.6021  0.6779  0.1344
19518SOL     OW59994   6.564   3.899   4.053  0.0699  0.2968  0.1595
19518SOL    HW159995   6.512   3.911   4.133 -2.2244  1.1616 -1.3459
19518SOL    HW259996   6.507   3.848   3.995  1.7204 -0.4080 -0.9281
19519SOL     OW59997   4.801   4.330   2.262 -0.2722  0.4705  0.1792
19519SOL    HW159998   4.807   4.261   2.327 -0.1099  0.6339  0.3387
19519SOL    HW259999   4.822   4.410   2.309  0.9871  0.4512 -0.3151
19520SOL     OW60000   4.986   2.848   1.805  0.1159  0.5342  0.4012
19520SOL    HW160001   4.904   2.804   1.785  0.2496  0.0801  0.8153
19520SOL    HW260002   5.037   2.782   1.852  1.5900  0.0692 -1.7358
19521SOL     OW60003   7.401   2.134   1.795  0.1272  0.0416  0.5350
19521SOL    HW160004   7.393   2.150   1.701  2.7069  0.0023  0.2242
19521SOL    HW260005   7.318   2.164   1.832 -1.1301 -0.3442 -1.7810
19522SOL     OW60006   0.304   7.995   2.280 -0.2967  0.5924  0.2925
19522SOL    HW160007   0.315   8.022   2.189 -2.0588  0.4054 -0.0148
19522SOL    HW260008   0.254   8.066   2.321 -0.2082  0.3038  0.9210
19523SOL     OW60009   5.691   2.617   2.431 -0.0582 -0.4800  0.4076
19523SOL    HW160010   5.745   2.597   2.508  0.7320  0.1068  0.0149
19523SOL    HW260011   5.754   2.636   2.362 -0.7715 -0.3697 -0.2211
19524SOL     OW60012   5.618   3.719   1.949  0.5020  0.0874  0.3452
19524SOL    HW160013   5.698   3.727   1.897  0.3275  0.4656  0.1261
19524SOL    HW260014   5.628   3.784   2.019 -0.4508  1.5540 -0.8105
19525SOL     OW60015   7.479   3.221   2.986 -0.7101 -0.4146 -0.1932
19525SOL    HW160016   7.502   3.157   3.053 -0.9723 -0.4642 -0.1500
19525SOL    HW260017   7.430   3.289   3.032 -0.1755 -0.0246 -0.1825
19526SOL     OW60018   5.589   4.223   2.053 -0.7016  0.0142  0.1702
19526SOL    HW160019   5.539   4.192   2.129 -0.9134 -1.3128 -0.4822
19526SOL    HW260020   5.657   4.279   2.090 -2.6276  1.8747  1.0925
19527SOL     OW60021   5.085   3.529   2.642  0.2231  0.2903 -0.3037
19527SOL    HW160022   5.067   3.623   2.644 -0.7499  0.1042  0.1296
19527SOL    HW260023   5.130   3.515   2.558 -0.5885  0.9789 -0.8750
19528SOL     OW60024   5.867   2.445   3.244  0.0224  0.3964 -0.3816
19528SOL    HW160025   5.896   2.419   3.332 -1.9297 -1.7959 -0.2766
19528SOL    HW260026   5.940   2.495   3.208  2.1876 -1.3458  1.3034
19529SOL     OW60027   6.875   2.555   1.852  0.1550  0.2463  0.0636
19529SOL    HW160028   6.859   2.469   1.891 -0.6592 -0.2192 -1.2167
19529SOL    HW260029   6.891   2.613   1.927 -0.0086 -0.8670  0.9879
19530SOL     OW60030   6.484   2.274   3.669  0.2147 -0.0184 -0.2997
19530SOL    HW160031   6.422   2.336   3.632 -0.1940 -0.6075 -0.6304
19530SOL    HW260032   6.443   2.188   3.655 -0.2544 -0.2433  2.0731
19531SOL     OW60033   6.064   3.726   2.348 -0.2015 -0.1376 -0.2310
19531SOL    HW160034   6.158   3.708   2.338  0.2500  1.6810  0.3375
19531SOL    HW260035   6.025   3.640   2.361  1.4059 -0.9354 -0.3802
19532SOL     OW60036   7.996   3.963   2.562 -0.7304  0.1199  0.4937
19532SOL    HW160037   8.050   3.930   2.633  0.1673 -1.2353 -0.7579
19532SOL    HW260038   8.011   4.057   2.562  3.0300 -0.3043 -0.7772
19533SOL     OW60039   6.716   1.796   3.408  0.2898 -0.4198  0.7385
19533SOL    HW160040   6.709   1.813   3.314  1.5955 -1.8872  0.3432
19533SOL    HW260041   6.724   1.883   3.448 -0.7075  0.2459 -0.4376
19534SOL     OW60042   4.104   2.122   2.633  0.1095  0.2758 -0.1575
19534SOL    HW160043   4.184   2.172   2.650  0.5342 -0.4306 -0.0326
19534SOL    HW260044   4.083   2.081   2.717  1.8418 -2.7050 -1.0543
19535SOL     OW60045   5.553   3.299   2.594 -0.3021  0.1312 -0.3355
19535SOL    HW160046   5.491   3.355   2.642 -0.4069  0.1709 -0.5165
19535SOL    HW260047   5.629   3.293   2.651  0.1920  1.4240 -0.8143
19536SOL     OW60048   7.286   2.102   1.231  0.2922  0.4676 -0.4180
19536SOL    HW160049   7.268   2.112   1.138 -0.8675  0.3069 -0.2194
19536SOL    HW260050   7.381   2.112   1.238  0.6480 -1.3014 -1.8570
19537SOL     OW60051   7.817   2.582   2.717 -0.8579  0.7725  0.1579
19537SOL    HW160052   7.823   2.513   2.783 -0.1776  1.4828  0.8570
19537SOL    HW260053   7.737   2.562   2.668 -0.4614 -0.7443  0.0775
19538SOL     OW60054   5.450   3.158   2.385  0.0335 -0.1349 -0.2897
19538SOL    HW160055   5.359   3.185   2.368  0.6059  1.2998 -1.2471
19538SOL    HW260056   5.479   3.215   2.456  0.8815  1.0748 -1.5432
19539SOL     OW60057   6.576   4.383   1.862  0.1384  0.0005 -0.2603
19539SOL    HW160058   6.561   4.474   1.835  0.8955  0.1441 -0.2264
19539SOL    HW260059   6.624   4.390   1.945 -0.6637 -0.4369  0.2531
19540SOL     OW60060   6.051   3.906   2.145 -0.2554  0.2422 -0.5431
19540SOL    HW160061   6.143   3.905   2.121  0.1319 -0.2113  0.8186
19540SOL    HW260062   6.046   3.848   2.222 -1.7704 -0.2103 -0.9402
19541SOL     OW60063   6.990   3.181   3.777  0.1653 -0.2494  0.3339
19541SOL    HW160064   7.012   3.208   3.688 -0.8192  1.7185  0.6215
19541SOL    HW260065   7.025   3.092   3.785  0.7520 -0.2672 -1.8150
19542SOL     OW60066   7.030   3.912   4.049 -0.1039  0.1148 -0.4939
19542SOL    HW160067   7.089   3.838   4.034 -0.0185  0.3082 -1.1277
19542SOL    HW260068   6.950   3.871   4.083  0.3620 -0.1524  0.2993
19543SOL     OW60069   6.693   4.800   3.488  0.3474  0.1451  0.3790
19543SOL    HW160070   6.599   4.814   3.497  0.2899  1.5457 -1.5815
19543SOL    HW260071   6.702   4.739   3.414  0.9581  1.5445 -0.7688
19544SOL     OW60072   6.276   2.303   2.099  0.6855 -0.6434 -0.0030
19544SOL    HW160073   6.232   2.351   2.168 -0.1476 -1.4895  0.0837
19544SOL    HW260074   6.368   2.327   2.107  0.5765 -0.6204  1.3041
19545SOL     OW60075   6.031   1.747   2.540  0.1246  0.4771  0.6212
19545SOL    HW160076   6.006   1.656   2.523  1.3868 -0.1825  2.0844
19545SOL    HW260077   6.007   1.793   2.459  0.5734 -1.3625 -0.6335
19546SOL     OW60078   0.257   5.044   0.467 -0.4660 -0.3550 -0.0065
19546SOL    HW160079   0.188   5.067   0.530  0.7490  2.6288  0.3945
19546SOL    HW260080   0.210   5.008   0.392 -2.5129  1.6428  0.2145
19547SOL     OW60081   0.082   4.730   4.385  0.1477  0.5318 -0.1897
19547SOL    HW160082   0.056   4.718   4.476  0.2698  0.1224 -0.2095
19547SOL    HW260083   0.055   4.649   4.341 -0.0123  0.7721 -0.5421
19548SOL     OW60084   7.957   2.869   3.213  0.3597 -0.0749 -0.2535
19548SOL    HW160085   8.022   2.925   3.170 -1.0793  1.8532 -0.0563
19548SOL    HW260086   7.933   2.805   3.146  0.3804  0.9822 -1.3152
19549SOL     OW60087   7.018   1.274   1.497  0.2585  0.0135  0.3733
19549SOL    HW160088   6.977   1.190   1.518 -0.2497 -0.0470 -0.7900
19549SOL    HW260089   6.950   1.323   1.453  0.5990  0.9997  0.9152
19550SOL     OW60090   7.466   3.687   2.956 -0.0409  0.3407  0.2379
19550SOL    HW160091   7.422   3.749   2.899 -0.9188 -0.3757  0.1182
19550SOL    HW260092   7.465   3.728   3.042  0.1631  0.8629 -0.0003
19551SOL     OW60093   7.332   3.304   3.765  0.0405  0.0116  0.3661
19551SOL    HW160094   7.325   3.214   3.733  2.4120  0.1140 -0.6252
19551SOL    HW260095   7.259   3.350   3.723 -1.2233 -1.4032  0.9050
19552SOL     OW60096   6.617   2.162   2.508 -0.4669  0.6810  0.0067
19552SOL    HW160097   6.620   2.192   2.599  2.1955 -0.6117  0.4535
19552SOL    HW260098   6.618   2.067   2.514  1.9166  0.5408 -1.3019
19553SOL     OW60099   6.489   3.001   1.324  0.2640 -0.5200 -0.4507
19553SOL    HW160100   6.462   3.047   1.244  2.4301 -2.3159 -2.3454
19553SOL    HW260101   6.433   2.923   1.327 -0.6011  0.1076  0.4925
19554SOL     OW60102   5.205   3.612   3.561 -0.6828 -0.2176  0.0522
19554SOL    HW160103   5.115   3.593   3.591 -0.4644  0.2900  1.0885
19554SOL    HW260104   5.260   3.559   3.619 -0.3099 -0.8193 -0.8251
19555SOL     OW60105   7.643   4.760   3.380 -0.2207  0.0681 -0.2978
19555SOL    HW160106   7.665   4.707   3.457 -2.5685 -0.3269  0.1918
19555SOL    HW260107   7.683   4.845   3.398 -0.8577  0.0414  1.4927
19556SOL     OW60108   5.757   3.084   2.518  0.4002 -0.0837  0.1487
19556SOL    HW160109   5.837   3.056   2.562  0.2602  0.5330  0.8062
19556SOL    HW260110   5.694   3.097   2.589  0.2158  1.0882 -0.2121
19557SOL     OW60111   5.083   2.970   3.685 -0.4089  0.0837  0.1828
19557SOL    HW160112   4.992   3.000   3.680 -0.0784  1.1814  0.3300
19557SOL    HW260113   5.130   3.031   3.628  0.0465 -1.3140 -0.9789
19558SOL     OW60114   7.388   3.699   2.400  0.0017  0.6681  0.1215
19558SOL    HW160115   7.351   3.774   2.355  2.1166  1.5302 -0.2935
19558SOL    HW260116   7.320   3.672   2.463 -0.5837  3.2797  0.6996
19559SOL     OW60117   7.559   3.030   4.308 -0.4578 -0.0980 -0.4945
19559SOL    HW160118   7.654   3.042   4.316 -0.3244  1.1543 -2.9989
19559SOL    HW260119   7.549   2.955   4.249 -1.0003  0.2027 -0.7956
19560SOL     OW60120   5.295   2.910   2.057 -0.0618  1.1582 -0.6615
19560SOL    HW160121   5.324   2.838   2.001 -0.8321  0.3653 -0.0829
19560SOL    HW260122   5.203   2.890   2.076  0.7592 -0.0003  2.8640
19561SOL     OW60123   6.060   4.482   3.953  0.1455 -0.9277 -0.0132
19561SOL    HW160124   6.146   4.459   3.986 -0.0551  0.9366  2.0048
19561SOL    HW260125   6.056   4.442   3.866  3.0829 -0.9326 -0.2203
19562SOL     OW60126   4.681   2.442   4.659 -0.6081 -0.3686 -0.0716
19562SOL    HW160127   4.744   2.370   4.662 -0.4857 -0.2495  0.3253
19562SOL    HW260128   4.664   2.455   4.566 -0.9805 -1.2065 -0.1306
19563SOL     OW60129   5.867   2.076   1.868 -0.6928 -0.1093  0.1765
19563SOL    HW160130   5.955   2.080   1.829 -0.6704  3.1272  0.2905
19563SOL    HW260131   5.880   2.031   1.951  0.6311 -0.7778 -0.3618
19564SOL     OW60132   7.279   4.031   4.182 -0.3473 -0.2216 -0.7631
19564SOL    HW160133   7.332   3.967   4.135 -1.5989 -2.7297  1.0200
19564SOL    HW260134   7.215   4.061   4.118 -0.7438 -2.0139 -1.2608
19565SOL     OW60135   4.317   1.016   1.959 -0.2776  0.2475 -0.6294
19565SOL    HW160136   4.318   0.924   1.934  0.8292  0.5966 -1.9662
19565SOL    HW260137   4.256   1.020   2.033  1.4054 -1.9391  0.9951
19566SOL     OW60138   7.125   2.234   0.534 -0.0632  0.2828  0.0229
19566SOL    HW160139   7.214   2.261   0.553  0.4540 -1.1207 -0.2582
19566SOL    HW260140   7.074   2.263   0.610  0.6377  1.0034  0.2305
19567SOL     OW60141   7.539   1.516   2.675 -0.4172 -0.2354 -0.0179
19567SOL    HW160142   7.564   1.582   2.610 -0.4345 -0.6157 -0.4060
19567SOL    HW260143   7.571   1.433   2.640  1.8287 -0.1599  1.6057
19568SOL     OW60144   7.919   3.740   2.401  0.1209 -0.2920  0.0976
19568SOL    HW160145   7.934   3.815   2.459 -0.0949 -1.2278  1.3991
19568SOL    HW260146   7.992   3.681   2.419  1.1205  0.2199 -2.0113
19569SOL     OW60147   7.670   3.373   4.079 -0.6133 -0.1604 -0.8100
19569SOL    HW160148   7.612   3.299   4.096  0.7556 -0.9561  0.6883
19569SOL    HW260149   7.692   3.406   4.166 -0.1623  1.1840 -1.4154
19570SOL     OW60150   7.374   2.728   3.713 -0.0963  0.2199 -0.4354
19570SOL    HW160151   7.287   2.716   3.675 -0.3066 -2.5752  0.7036
19570SOL    HW260152   7.360   2.730   3.807  1.1651 -2.5834 -0.0849
19571SOL     OW60153   5.570   3.567   3.581  0.2983 -0.0024 -0.4613
19571SOL    HW160154   5.519   3.505   3.634  1.9348 -2.0374 -1.0980
19571SOL    HW260155   5.626   3.511   3.527  0.0787  2.0252 -2.9626
19572SOL     OW60156   7.939   3.239   3.181 -0.1837  0.1597  0.0878
19572SOL    HW160157   7.864   3.298   3.187 -0.3796  0.0485 -1.0336
19572SOL    HW260158   7.918   3.168   3.241  0.0565  1.2019  1.4561
19573SOL     OW60159   6.618   1.871   3.762 -0.5626 -0.1194 -0.1588
19573SOL    HW160160   6.554   1.921   3.712 -0.0166  0.1715 -0.5736
19573SOL    HW260161   6.572   1.849   3.843 -0.3625  2.3436  0.7297
19574SOL     OW60162   5.151   3.429   0.599 -0.0483  0.0543 -0.1286
19574SOL    HW160163   5.213   3.357   0.598  2.0024  1.7315 -1.6474
19574SOL    HW260164   5.191   3.495   0.656 -1.0624  0.6641 -0.0912
19575SOL     OW60165   6.800   2.953   2.769 -0.2942  0.1629 -0.2614
19575SOL    HW160166   6.853   2.993   2.699 -1.9435  0.4329 -1.4127
19575SOL    HW260167   6.800   2.860   2.749  1.1775 -0.0949  0.7783
19576SOL     OW60168   7.375   3.490   1.829  0.0669  0.2623 -0.3817
19576SOL    HW160169   7.294   3.446   1.855  0.3047  0.6315  1.0572
19576SOL    HW260170   7.355   3.583   1.834 -0.4721  0.4152 -3.5354
19577SOL     OW60171   7.364   1.888   2.029 -0.5472 -0.1524  0.2614
19577SOL    HW160172   7.430   1.906   1.962  0.0304 -0.9647  0.5989
19577SOL    HW260173   7.413   1.855   2.104 -1.2699 -0.0809  0.7811
19578SOL     OW60174   7.470   2.502   1.958  0.4005  0.0714  0.0967
19578SOL    HW160175   7.398   2.463   2.006  0.6867  1.5351  1.8444
19578SOL    HW260176   7.433   2.527   1.874 -0.1985 -2.2825 -0.4016
19579SOL     OW60177   6.620   3.885   3.108 -0.1375  0.1515 -0.1910
19579SOL    HW160178   6.629   3.941   3.186  0.7029  0.2383 -0.3414
19579SOL    HW260179   6.677   3.810   3.127  0.2629  0.2921 -0.8217
19580SOL     OW60180   6.534   2.101   1.918  0.2088 -0.3107 -0.3399
19580SOL    HW160181   6.624   2.069   1.927  0.0597 -0.4851  0.6584
19580SOL    HW260182   6.507   2.120   2.008 -1.9088 -3.4478 -0.1698
19581SOL     OW60183   6.963   2.088   2.958  0.3408 -1.0467 -0.1499
19581SOL    HW160184   7.058   2.103   2.952  0.6489 -2.5926  0.4622
19581SOL    HW260185   6.924   2.170   2.928  1.8733 -0.3405 -0.3037
19582SOL     OW60186   5.166   2.927   2.635  0.2066  0.2455  0.0363
19582SOL    HW160187   5.111   2.938   2.558 -0.4785 -2.9283 -0.0277
19582SOL    HW260188   5.254   2.915   2.600  0.6538  2.8806  0.0388
19583SOL     OW60189   4.985   2.749   2.773  0.4570  0.7878 -0.4393
19583SOL    HW160190   5.049   2.812   2.741 -0.4188  0.9619 -1.9662
19583SOL    HW260191   4.963   2.696   2.696  1.1900 -1.4236  0.7959
19584SOL     OW60192   6.806   3.772   4.044  0.2885  0.1356  0.4736
19584SOL    HW160193   6.771   3.686   4.066 -0.7242 -0.1237 -1.8170
19584SOL    HW260194   6.732   3.832   4.054  0.3250  0.3136 -0.2687
19585SOL     OW60195   6.360   2.693   4.358  0.2454 -0.4753  0.5741
19585SOL    HW160196   6.351   2.786   4.376  1.9127 -0.0677 -0.4833
19585SOL    HW260197   6.455   2.679   4.352 -0.0201 -1.9510 -0.6660
19586SOL     OW60198   7.011   2.101   2.045 -0.3903  0.1174 -0.3446
19586SOL    HW160199   7.030   2.062   2.130  0.5976  1.1125 -0.0843
19586SOL    HW260200   7.065   2.051   1.984  1.1812  1.2794  0.0432
19587SOL     OW60201   7.732   4.173   2.937 -0.6728  0.1730 -0.3658
19587SOL    HW160202   7.708   4.239   3.002 -2.8919  0.2934 -1.1935
19587SOL    HW260203   7.781   4.107   2.986 -2.8761 -0.1154  1.6215
19588SOL     OW60204   6.975   2.676   2.322 -0.1113 -0.1683  0.1886
19588SOL    HW160205   6.886   2.706   2.339 -0.2989 -0.5532 -0.0898
19588SOL    HW260206   7.026   2.705   2.398 -0.6636 -0.7422  0.7884
19589SOL     OW60207   6.081   3.300   2.859  0.3391  0.2050 -0.0078
19589SOL    HW160208   6.165   3.344   2.870 -0.6151  2.0983  0.1878
19589SOL    HW260209   6.066   3.255   2.942  0.4342  1.1991  0.5609
19590SOL     OW60210   6.052   2.710   2.018 -0.5119  0.2628 -0.6592
19590SOL    HW160211   6.040   2.792   1.970 -1.2304 -0.7403 -2.2837
19590SOL    HW260212   6.134   2.722   2.066 -2.1937  3.1733  1.8826
19591SOL     OW60213   7.073   2.786   2.553  0.6302 -0.5675  0.0741
19591SOL    HW160214   7.144   2.838   2.591 -0.6617 -0.1478  2.0837
19591SOL    HW260215   6.996   2.842   2.562 -0.0253 -1.0769 -1.9024
19592SOL     OW60216   5.345   3.401   3.960 -0.1804  0.1753 -0.6155
19592SOL    HW160217   5.307   3.488   3.965 -1.4805 -0.4167  0.5006
19592SOL    HW260218   5.283   3.344   4.006  1.7696 -0.9594  0.8224
19593SOL     OW60219   7.919   3.618   3.196 -0.1449  0.4509 -0.7135
19593SOL    HW160220   7.860   3.675   3.245  1.3596  0.8843  0.6671
19593SOL    HW260221   7.906   3.643   3.104 -0.9843  1.5885 -0.3096
19594SOL     OW60222   7.286   4.002   4.617  0.1528  0.6452 -0.0631
19594SOL    HW160223   7.287   4.095   4.638  0.0571  0.1979  2.1599
19594SOL    HW260224   7.353   3.964   4.675  0.2975 -0.6449 -1.0444
19595SOL     OW60225   7.322   0.287   1.202  0.3277  0.0664  0.5228
19595SOL    HW160226   7.298   0.195   1.189  0.8885  0.0708 -0.6966
19595SOL    HW260227   7.396   0.301   1.143  1.0387  0.9802  1.6063
19596SOL     OW60228   7.191   1.158   1.887 -0.1368  0.6908  0.5490
19596SOL    HW160229   7.278   1.159   1.928  0.3260 -0.9287 -0.3107
19596SOL    HW260230   7.184   1.243   1.844  0.4624  1.3684  1.7416
19597SOL     OW60231   5.021   2.883   2.097  0.5839  0.2679 -0.4259
19597SOL    HW160232   4.988   2.926   2.018  1.3633  0.3426 -0.7160
19597SOL    HW260233   4.958   2.814   2.115 -0.0762  0.8155 -0.6023
19598SOL     OW60234   5.906   4.533   1.659 -0.6388 -0.2755 -0.1907
19598SOL    HW160235   5.981   4.587   1.683 -1.3158  0.8630 -0.5819
19598SOL    HW260236   5.945   4.457   1.615  0.2817  0.2537 -0.3189
19599SOL     OW60237   5.027   2.665   3.373 -0.7338 -0.0069 -0.0483
19599SOL    HW160238   5.071   2.681   3.456  0.9481 -0.0595 -0.8994
19599SOL    HW260239   5.008   2.572   3.374 -0.6346 -0.0258  0.2322
19600SOL     OW60240   5.046   3.117   5.086 -0.0358  0.4373  0.1994
19600SOL    HW160241   5.045   3.074   5.172  1.1601  0.6945  0.3539
19600SOL    HW260242   4.972   3.177   5.089 -0.6186 -0.2805  0.6655
19601SOL     OW60243   3.895   2.618   4.246 -0.4524 -0.3205 -0.3344
19601SOL    HW160244   3.954   2.642   4.318 -0.1828 -0.1885 -0.5966
19601SOL    HW260245   3.813   2.664   4.266 -0.2879 -0.0540 -0.2620
19602SOL     OW60246   5.291   3.836   4.051 -0.4116 -0.0215  0.0236
19602SOL    HW160247   5.267   3.820   3.960  0.1544  0.1318 -0.1574
19602SOL    HW260248   5.302   3.931   4.057  0.7200 -0.1318 -0.0571
19603SOL     OW60249   6.446   2.799   5.179 -0.1251 -0.1659 -0.0934
19603SOL    HW160250   6.478   2.749   5.104 -0.4793 -1.6399  0.7004
19603SOL    HW260251   6.386   2.863   5.140  0.0340 -0.5989 -1.1012
19604SOL     OW60252   5.900   3.011   5.974 -0.1515 -0.7966 -0.0159
19604SOL    HW160253   5.817   3.035   6.015 -0.0706 -1.8067  0.7951
19604SOL    HW260254   5.965   3.025   6.043  0.2359 -0.8353 -0.3684
19605SOL     OW60255   7.058   2.999   4.665 -0.5066 -0.1298 -0.0086
19605SOL    HW160256   7.002   2.989   4.587 -3.4795  0.0095  1.9299
19605SOL    HW260257   7.097   3.086   4.655 -0.9862 -0.0255 -1.2507
19606SOL     OW60258   6.816   2.539   2.772 -0.0601  0.4689 -0.2514
19606SOL    HW160259   6.738   2.575   2.814 -1.2637 -1.8341 -0.3677
19606SOL    HW260260   6.809   2.566   2.681 -0.2075  1.0740 -0.0648
19607SOL     OW60261   6.717   2.738   6.122  0.1958  0.0364 -0.0717
19607SOL    HW160262   6.780   2.808   6.137  0.5270 -0.5899  1.7170
19607SOL    HW260263   6.633   2.775   6.149  0.0942  0.2625 -0.6834
19608SOL     OW60264   7.494   1.797   2.252 -0.3517  0.0684  0.2888
19608SOL    HW160265   7.586   1.784   2.274 -0.5362 -0.9220  0.5575
19608SOL    HW260266   7.452   1.714   2.277 -1.3446  0.5740  0.3379
19609SOL     OW60267   7.018   1.452   3.219 -0.3490 -0.3279  0.0623
19609SOL    HW160268   7.104   1.492   3.208  0.4758 -1.5337  1.7427
19609SOL    HW260269   6.978   1.500   3.291 -2.0705  1.6784 -2.0636
19610SOL     OW60270   5.611   2.339   5.034  0.2026  0.2458 -0.5162
19610SOL    HW160271   5.699   2.345   5.071  0.3017 -0.1849 -0.6733
19610SOL    HW260272   5.552   2.346   5.109  0.4106 -0.8861 -0.2214
19611SOL     OW60273   6.855   2.500   4.587 -0.0124  0.2753  0.5241
19611SOL    HW160274   6.768   2.472   4.615 -0.0438  0.1641  0.3152
19611SOL    HW260275   6.882   2.563   4.654 -1.2813  2.2341 -0.6997
19612SOL     OW60276   5.903   4.235   3.517  0.2963  0.8571 -0.0628
19612SOL    HW160277   5.857   4.276   3.590 -1.3619  1.3751 -1.3416
19612SOL    HW260278   5.852   4.156   3.499 -0.7428  1.9380 -2.1271
19613SOL     OW60279   6.334   2.922   5.441  0.6597  0.3065  0.3772
19613SOL    HW160280   6.396   2.851   5.421  0.3666 -0.0375  0.6708
19613SOL    HW260281   6.372   2.966   5.517  1.1361  0.8300 -0.1563
19614SOL     OW60282   7.558   5.162   6.070 -0.1071  0.0667  0.4430
19614SOL    HW160283   7.463   5.166   6.062 -0.1106  0.1108  0.5139
19614SOL    HW260284   7.575   5.075   6.107 -0.0531 -0.4133 -0.6577
19615SOL     OW60285   5.854   1.384   8.085 -0.1768 -0.3664  0.6701
19615SOL    HW160286   5.837   1.454   8.148  1.2988 -0.1247  0.8450
19615SOL    HW260287   5.892   1.429   8.009 -0.4273 -0.8332  0.2677
19616SOL     OW60288   4.865   4.861   6.150 -0.0245  0.1546 -0.0081
19616SOL    HW160289   4.786   4.821   6.113 -0.4594  1.4695 -0.5607
19616SOL    HW260290   4.885   4.808   6.227  0.1264 -1.8494 -1.3618
19617SOL     OW60291   6.905   1.147   3.389 -0.4211 -0.3287 -0.0167
19617SOL    HW160292   6.846   1.204   3.341 -1.5374 -1.3033  0.1654
19617SOL    HW260293   6.968   1.116   3.324 -0.2548  0.5066 -0.2637
19618SOL     OW60294   6.317   3.256   4.483  0.0729  0.1725  0.6818
19618SOL    HW160295   6.337   3.331   4.538  1.0856  0.1297  0.3917
19618SOL    HW260296   6.371   3.185   4.517  0.2915 -0.0033 -0.0037
19619SOL     OW60297   7.306   2.777   4.568  0.2846 -0.0960 -0.1895
19619SOL    HW160298   7.246   2.774   4.642 -0.3953  0.7458 -0.6847
19619SOL    HW260299   7.305   2.688   4.532 -0.3314 -0.1925  0.0615
19620SOL     OW60300   6.772   1.998   4.218 -0.3031 -0.0347  0.5430
19620SOL    HW160301   6.763   1.926   4.280  0.1024  1.2419  2.1330
19620SOL    HW260302   6.808   2.070   4.269  0.2045  1.0257 -1.2186
19621SOL     OW60303   5.979   3.975   2.433  0.1642 -0.6975 -0.1975
19621SOL    HW160304   5.896   3.927   2.426 -0.8159  1.0925 -1.5230
19621SOL    HW260305   6.041   3.923   2.382 -1.4619  0.5171 -3.7197
19622SOL     OW60306   7.186   3.671   3.434 -0.0121  0.1603 -0.0910
19622SOL    HW160307   7.173   3.732   3.362  0.4861  0.8503  0.3978
19622SOL    HW260308   7.181   3.725   3.513 -2.2713 -0.8314  0.5137
19623SOL     OW60309   6.279   4.740   4.081 -0.1547  0.1463  0.4236
19623SOL    HW160310   6.282   4.646   4.068 -0.9538 -0.0861  1.7266
19623SOL    HW260311   6.280   4.751   4.177 -0.5336  1.4278  0.2969
19624SOL     OW60312   6.754   3.356   5.489 -0.1261 -0.3035  0.1695
19624SOL    HW160313   6.682   3.354   5.426 -3.0405 -2.6312  3.1962
19624SOL    HW260314   6.764   3.449   5.511 -1.2890  0.2019 -1.2556
19625SOL     OW60315   7.398   4.463   4.505 -0.4042  0.4645 -0.3985
19625SOL    HW160316   7.465   4.528   4.482  0.7660 -0.4521  0.3080
19625SOL    HW260317   7.407   4.394   4.440 -1.1246  0.6427 -0.6922
19626SOL     OW60318   6.225   2.110   5.277  0.2322  0.5014 -0.0945
19626SOL    HW160319   6.221   2.170   5.352  0.4462 -1.2621  1.4034
19626SOL    HW260320   6.176   2.033   5.306  0.2073 -0.1930 -1.8522
19627SOL     OW60321   6.914   3.045   4.879  0.1095 -0.1594 -0.2748
19627SOL    HW160322   6.956   3.021   4.796 -0.6433  0.4516 -0.8414
19627SOL    HW260323   6.932   3.139   4.888  0.2796 -0.2463  0.3151
19628SOL     OW60324   7.276   2.291   4.276  0.9177  0.0608  0.2101
19628SOL    HW160325   7.250   2.255   4.191  1.2556  0.5069 -0.0858
19628SOL    HW260326   7.195   2.323   4.314  0.9530  1.0501 -0.5198
19629SOL     OW60327   5.518   2.367   2.764 -0.0918  0.2302 -0.3825
19629SOL    HW160328   5.475   2.329   2.840 -0.7079 -0.5173 -1.0861
19629SOL    HW260329   5.595   2.313   2.750 -0.0529  0.2844 -0.3802
19630SOL     OW60330   7.046   4.886   3.658  0.2315  0.4444 -0.3726
19630SOL    HW160331   7.035   4.833   3.737  0.1390  0.7160 -0.1999
19630SOL    HW260332   7.096   4.963   3.688  0.9313  0.1471 -0.7499
19631SOL     OW60333   6.722   3.650   3.296 -0.2881 -0.0688  0.0341
19631SOL    HW160334   6.799   3.686   3.253 -0.4567 -0.0219 -0.2323
19631SOL    HW260335   6.721   3.692   3.382 -0.5955  0.7344 -0.3504
19632SOL     OW60336   7.619   1.933   4.536 -0.6193  0.0520 -0.2315
19632SOL    HW160337   7.668   1.932   4.453 -1.2949  0.8116 -0.6572
19632SOL    HW260338   7.565   1.854   4.532 -0.4726 -0.0426 -0.4012
19633SOL     OW60339   7.547   2.628   6.139 -0.3785 -0.1189  0.4910
19633SOL    HW160340   7.520   2.549   6.187  0.7693  0.2023  1.6922
19633SOL    HW260341   7.487   2.696   6.169  0.5360  0.1552  1.7344
19634SOL     OW60342   7.800   4.043   6.269 -0.0172 -0.5869 -0.1093
19634SOL    HW160343   7.844   4.128   6.266  1.4859 -1.3255  0.1277
19634SOL    HW260344   7.753   4.037   6.186  0.3489  0.2293 -0.3871
19635SOL     OW60345   0.188   3.773   4.702  0.1297 -0.6284 -0.1451
19635SOL    HW160346   0.164   3.697   4.755  0.0823 -0.8161 -0.4341
19635SOL    HW260347   0.272   3.801   4.738 -0.3986 -0.1108  0.7191
19636SOL     OW60348   6.636   2.820   4.599 -0.4631  0.3240  0.7487
19636SOL    HW160349   6.544   2.846   4.591 -0.4217  0.2573 -0.0371
19636SOL    HW260350   6.675   2.886   4.656 -0.7979  0.8713  0.3472
19637SOL     OW60351   6.361   2.707   3.711  0.5988 -0.6922  0.2982
19637SOL    HW160352   6.312   2.769   3.766  0.1176 -1.2111  0.4699
19637SOL    HW260353   6.345   2.621   3.752 -0.9655 -1.3051 -1.4358
19638SOL     OW60354   0.427   4.194   4.770 -0.8000  0.0319 -0.5240
19638SOL    HW160355   0.519   4.218   4.759 -1.1302  0.4816 -2.7125
19638SOL    HW260356   0.402   4.236   4.852  0.7160  0.6232 -0.3154
19639SOL     OW60357   7.616   3.408   6.690  0.4849  0.0016  0.3931
19639SOL    HW160358   7.693   3.382   6.639 -0.8881 -3.5979 -0.1129
19639SOL    HW260359   7.549   3.427   6.625  0.5079  1.8996  0.8570
19640SOL     OW60360   6.519   1.546   6.827  0.2313  0.3727  0.1092
19640SOL    HW160361   6.557   1.634   6.826 -0.1136  0.5813  1.7663
19640SOL    HW260362   6.425   1.561   6.837  0.3035 -0.1444  2.0645
19641SOL     OW60363   7.769   2.311   6.004  0.2783  0.2515  0.0932
19641SOL    HW160364   7.828   2.386   6.012 -1.2783  1.5177  0.3294
19641SOL    HW260365   7.748   2.306   5.911  2.7935 -1.9347 -0.4896
19642SOL     OW60366   6.267   3.330   4.913 -0.0772 -0.2849 -0.0902
19642SOL    HW160367   6.228   3.413   4.941  0.9582  0.7297 -1.5020
19642SOL    HW260368   6.194   3.282   4.874 -0.2841  0.8808 -1.2070
19643SOL     OW60369   5.458   5.033   3.603 -0.2169  0.0812  0.3252
19643SOL    HW160370   5.504   5.046   3.686  0.3827 -1.6790  0.3139
19643SOL    HW260371   5.527   5.012   3.540 -0.9226 -3.1167  0.4047
19644SOL     OW60372   5.333   2.626   3.471  0.3315  0.5369 -0.1208
19644SOL    HW160373   5.258   2.625   3.530  1.1582  0.1786  0.9685
19644SOL    HW260374   5.375   2.710   3.487  0.2122  0.7064 -0.6751
19645SOL     OW60375   6.215   2.564   6.428 -0.0013 -0.1091  0.0243
19645SOL    HW160376   6.150   2.612   6.479  0.2762 -1.0483  1.3228
19645SOL    HW260377   6.237   2.488   6.483  1.4071 -0.3763 -0.8553
19646SOL     OW60378   5.891   0.958   3.318  0.5394 -0.0502  0.2972
19646SOL    HW160379   5.801   0.961   3.351  0.0562 -0.0072 -0.9768
19646SOL    HW260380   5.933   0.890   3.371 -0.1041  0.2215  1.1989
19647SOL     OW60381   0.041   1.421   7.085 -0.3693  0.6393  0.0759
19647SOL    HW160382   0.128   1.443   7.119  0.1578  0.0618 -0.8347
19647SOL    HW260383  -0.006   1.504   7.083 -0.0835  0.8493  1.2314
19648SOL     OW60384   7.064   3.580   5.296 -0.1632  0.5010 -0.2555
19648SOL    HW160385   7.025   3.513   5.352 -1.7667  1.4961 -0.0985
19648SOL    HW260386   7.017   3.572   5.213  0.5572  0.5696 -0.6751
19649SOL     OW60387   5.091   3.560   4.155  1.2038 -0.4020 -0.6029
19649SOL    HW160388   5.064   3.512   4.233 -0.2705 -0.3299 -1.0366
19649SOL    HW260389   5.032   3.635   4.151  0.8272 -0.7392 -2.1084
19650SOL     OW60390   5.227   5.585   5.962  0.1694 -0.4292 -0.3435
19650SOL    HW160391   5.171   5.635   5.903 -0.2484 -0.5769 -0.0795
19650SOL    HW260392   5.209   5.493   5.939 -0.3163 -0.5018  0.2927
19651SOL     OW60393   6.707   3.545   4.128 -0.3380  0.2573  0.0150
19651SOL    HW160394   6.754   3.488   4.067 -1.9895  0.9304 -2.0105
19651SOL    HW260395   6.653   3.485   4.180 -0.6317 -0.1792 -0.7819
19652SOL     OW60396   7.795   2.128   4.148 -0.3358  0.6445 -0.0832
19652SOL    HW160397   7.864   2.123   4.082  0.2016 -1.0865  0.5517
19652SOL    HW260398   7.714   2.114   4.099  0.0592 -0.6585 -0.3992
19653SOL     OW60399   7.648   3.803   4.382 -0.3025 -0.0749  0.0802
19653SOL    HW160400   7.601   3.886   4.379  0.8282  0.5932  0.0654
19653SOL    HW260401   7.661   3.779   4.291  2.1929  1.4479 -0.0748
19654SOL     OW60402   6.481   3.833   4.356 -0.5018 -0.3238  0.0455
19654SOL    HW160403   6.488   3.916   4.404  1.2637 -1.7687  2.5759
19654SOL    HW260404   6.398   3.796   4.385 -0.6994  0.0083 -0.0969
19655SOL     OW60405   6.561   3.035   4.405 -0.4149  0.0696  0.2980
19655SOL    HW160406   6.621   3.071   4.340  0.3155 -1.4302  0.0854
19655SOL    HW260407   6.613   2.970   4.453 -1.6541 -0.7421  0.6032
19656SOL     OW60408   5.335   2.948   6.540  0.0066  0.3834 -0.1264
19656SOL    HW160409   5.320   3.043   6.537  0.2161  0.4101 -0.3376
19656SOL    HW260410   5.292   2.920   6.621 -0.4713  0.5830 -0.3065
19657SOL     OW60411   1.089   2.988   3.880  0.6183 -0.0326 -0.2407
19657SOL    HW160412   1.081   2.938   3.798 -0.6734  0.7841 -0.6408
19657SOL    HW260413   1.009   3.040   3.884  0.3352 -0.5540  1.9024
19658SOL     OW60414   6.914   0.282   5.544  0.1752  0.3126  0.1313
19658SOL    HW160415   6.977   0.260   5.474  1.0046  3.2442 -0.1809
19658SOL    HW260416   6.831   0.293   5.499  0.9616  3.5243 -0.8003
19659SOL     OW60417   7.454   3.808   4.788 -0.4984  0.4022  0.0869
19659SOL    HW160418   7.449   3.743   4.858  1.4390  0.5405  0.3874
19659SOL    HW260419   7.455   3.892   4.834  0.8305  0.4925 -0.0747
19660SOL     OW60420   6.966   3.688   5.787 -0.4660 -0.2042 -0.0004
19660SOL    HW160421   7.001   3.762   5.837  1.8406 -1.7218  0.8135
19660SOL    HW260422   6.889   3.659   5.836 -0.6077  0.8217  0.4067
19661SOL     OW60423   3.871   1.734   4.379  0.1345 -0.4059 -0.3149
19661SOL    HW160424   3.821   1.760   4.302 -0.0831  0.3406  0.0717
19661SOL    HW260425   3.807   1.690   4.436 -0.4769  1.7734  0.8069
19662SOL     OW60426   6.928   2.572   4.849  0.1905  0.0996  0.1165
19662SOL    HW160427   6.932   2.584   4.944  3.2893  1.9566 -0.1081
19662SOL    HW260428   7.008   2.525   4.827 -0.0871  0.3789 -1.6531
19663SOL     OW60429   6.978   5.104   4.246  0.4468  0.0274 -0.1219
19663SOL    HW160430   7.026   5.177   4.283  0.8453 -0.3397  0.0943
19663SOL    HW260431   6.950   5.135   4.159  1.6259  0.0190 -0.5213
19664SOL     OW60432   5.536   3.491   4.331  0.0724  0.0657  0.2101
19664SOL    HW160433   5.465   3.554   4.317 -0.5168 -0.5545  0.3629
19664SOL    HW260434   5.503   3.431   4.398  0.4536 -0.6521 -0.2249
19665SOL     OW60435   6.432   2.416   5.754 -0.3045 -0.3836  0.0711
19665SOL    HW160436   6.357   2.357   5.748 -0.7343  0.2848 -1.3543
19665SOL    HW260437   6.507   2.361   5.731 -0.6465 -0.5205 -0.7658
19666SOL     OW60438   5.540   5.951   4.149 -0.4457  0.0184 -0.1543
19666SOL    HW160439   5.471   5.947   4.215  0.0873 -1.2846  0.3439
19666SOL    HW260440   5.592   6.028   4.174  0.4077 -1.0836  1.6491
19667SOL     OW60441   6.300   3.229   5.378  0.3242 -0.2852 -0.3136
19667SOL    HW160442   6.240   3.179   5.433 -0.6487  1.9320  0.7730
19667SOL    HW260443   6.285   3.197   5.289 -1.5917 -0.6406  0.0991
19668SOL     OW60444   6.028   3.737   2.750  0.0464 -0.4926 -0.5681
19668SOL    HW160445   6.111   3.731   2.798 -0.0791 -0.6695 -0.3715
19668SOL    HW260446   6.003   3.646   2.732 -0.5165 -0.4779  0.0944
19669SOL     OW60447   7.337   1.227   3.581  0.0448  0.0557 -0.6796
19669SOL    HW160448   7.384   1.222   3.498  1.2480 -0.2683 -0.0016
19669SOL    HW260449   7.274   1.155   3.578  0.3425 -0.1886 -1.1602
19670SOL     OW60450   6.152   3.218   5.935 -0.1913  0.1628  0.3408
19670SOL    HW160451   6.100   3.236   6.013  1.3480  0.0758  1.4521
19670SOL    HW260452   6.242   3.211   5.968  0.3092 -1.4801 -1.2019
19671SOL     OW60453   5.947   2.727   3.923 -0.2451 -0.0688 -0.0626
19671SOL    HW160454   5.860   2.756   3.952 -0.4708 -0.0787 -0.7098
19671SOL    HW260455   5.996   2.714   4.004 -1.6982 -2.7781  0.5245
19672SOL     OW60456   4.638   1.800   3.198  0.0791  0.1490  0.4791
19672SOL    HW160457   4.716   1.848   3.168  0.3643 -0.8566 -0.4518
19672SOL    HW260458   4.658   1.775   3.288  1.1207 -0.6415  0.0489
19673SOL     OW60459   7.160   3.224   2.366 -0.6818  0.2344  0.2846
19673SOL    HW160460   7.190   3.294   2.308  0.3904  1.0471  1.7480
19673SOL    HW260461   7.200   3.145   2.329  0.3985  0.8035  0.1806
19674SOL     OW60462   4.571   0.506   4.185 -0.2935 -0.1587  0.1911
19674SOL    HW160463   4.570   0.592   4.225  1.6966 -0.4466  0.9680
19674SOL    HW260464   4.542   0.521   4.095  1.0876  1.5487 -0.0316
19675SOL     OW60465   7.437   3.419   3.214  0.4518 -0.2624 -0.3921
19675SOL    HW160466   7.465   3.379   3.297 -0.0593 -1.1117 -0.6195
19675SOL    HW260467   7.349   3.384   3.200 -0.6685  2.1151  0.1696
19676SOL     OW60468   0.042   3.698   5.402 -0.4371  1.1174 -0.1450
19676SOL    HW160469   0.011   3.615   5.439 -1.3762  1.7630  0.5485
19676SOL    HW260470   0.121   3.718   5.451 -1.7192  2.0124  1.6571
19677SOL     OW60471   7.433   4.606   6.736 -0.3449  0.2168  0.1825
19677SOL    HW160472   7.462   4.586   6.647 -0.5178 -0.3765  0.2527
19677SOL    HW260473   7.512   4.596   6.789 -0.5385 -0.9046  0.3005
19678SOL     OW60474   6.676   2.936   4.858  0.3428 -0.0561  0.0399
19678SOL    HW160475   6.761   2.977   4.871 -0.5735  2.4174 -1.2160
19678SOL    HW260476   6.613   2.995   4.898 -0.8391 -1.7995  0.8830
19679SOL     OW60477   6.953   4.429   5.779  0.0074 -0.0836 -0.6151
19679SOL    HW160478   6.958   4.485   5.701  0.0525 -0.3747 -0.8246
19679SOL    HW260479   6.986   4.344   5.749  0.3962 -0.0881 -0.1710
19680SOL     OW60480   3.903   2.983   4.456 -0.0875  0.7930 -0.0460
19680SOL    HW160481   3.871   3.011   4.541 -2.3828  0.7912 -0.8467
19680SOL    HW260482   3.959   3.055   4.426  0.0477  1.1621  1.0626
19681SOL     OW60483   6.774   1.019   2.751  0.7545  0.4514  0.4378
19681SOL    HW160484   6.686   0.986   2.768  0.4929  0.8713 -0.0517
19681SOL    HW260485   6.761   1.090   2.687  1.4295  0.6185  0.4752
19682SOL     OW60486   4.993   2.342   3.988  0.1893  0.1477  0.8215
19682SOL    HW160487   5.022   2.310   4.074 -0.8198  0.2138  1.1991
19682SOL    HW260488   4.969   2.263   3.940 -0.3433  0.1904  1.0155
19683SOL     OW60489   6.444   2.738   2.692  0.2330  0.5190  0.0369
19683SOL    HW160490   6.420   2.753   2.784 -0.4700 -0.4754  0.0228
19683SOL    HW260491   6.437   2.825   2.652  1.2743  1.1236  1.0626
19684SOL     OW60492   7.939   2.120   3.903 -0.1130 -0.6941  0.3423
19684SOL    HW160493   7.889   2.074   3.836 -0.2207 -0.8586  0.5358
19684SOL    HW260494   8.012   2.160   3.855 -0.0660 -0.9962  0.1596
19685SOL     OW60495   5.826   0.411   4.993 -0.5360 -0.2913  0.2096
19685SOL    HW160496   5.920   0.393   5.003 -0.1097  1.3278 -0.4967
19685SOL    HW260497   5.807   0.389   4.901 -0.5163  0.6867 -0.0344
19686SOL     OW60498   7.894   3.513   4.399 -0.1712 -0.1726  0.2187
19686SOL    HW160499   7.809   3.497   4.359 -0.4389  0.9168  0.3336
19686SOL    HW260500   7.929   3.589   4.353  1.1412 -1.1354 -0.4378
19687SOL     OW60501   6.165   2.541   4.431 -0.2000  0.5047  0.3387
19687SOL    HW160502   6.211   2.461   4.454 -0.5096  0.2150 -0.0334
19687SOL    HW260503   6.234   2.602   4.405  0.0059  0.2116  0.1893
19688SOL     OW60504   7.891   1.635   4.836  0.1729 -0.6559  0.7554
19688SOL    HW160505   7.949   1.566   4.803  0.4656  0.0971 -0.3825
19688SOL    HW260506   7.875   1.690   4.759 -1.1897 -0.2516  1.3148
19689SOL     OW60507   7.655   3.839   3.582 -0.0578 -0.1758  0.1380
19689SOL    HW160508   7.577   3.804   3.625 -0.4060 -0.3886 -0.6427
19689SOL    HW260509   7.663   3.928   3.617  0.2378 -0.6577  1.3599
19690SOL     OW60510   6.498   3.933   5.546 -0.4920  0.1822  0.4901
19690SOL    HW160511   6.422   3.892   5.504  1.2213 -3.2140  0.3194
19690SOL    HW260512   6.565   3.935   5.477  0.2670  0.9810  1.2339
19691SOL     OW60513   6.978   3.318   4.928 -0.6152  0.4358 -0.4728
19691SOL    HW160514   6.967   3.387   4.994  0.7832  3.6061 -3.2146
19691SOL    HW260515   6.946   3.358   4.847 -0.3522 -2.4767 -2.1513
19692SOL     OW60516   6.148   2.957   6.161  0.2410  0.0686 -0.4046
19692SOL    HW160517   6.154   2.866   6.190 -0.3756 -0.2392 -1.2052
19692SOL    HW260518   6.172   3.008   6.238 -0.8559 -0.7421  0.5145
19693SOL     OW60519   7.768   3.517   5.396  0.4810  0.3205  0.0333
19693SOL    HW160520   7.762   3.542   5.488  2.4967 -0.8012  0.5380
19693SOL    HW260521   7.851   3.470   5.390  0.7667  1.0313 -2.5316
19694SOL     OW60522   7.250   1.744   4.345  0.1125 -0.2819  0.2251
19694SOL    HW160523   7.221   1.655   4.328 -1.0315 -0.0165  0.6780
19694SOL    HW260524   7.326   1.734   4.402 -0.4858 -0.9667  0.9280
19695SOL     OW60525   5.380   2.773   5.452  0.5923 -0.2639  0.4183
19695SOL    HW160526   5.298   2.786   5.403 -0.2282 -0.3305  1.7268
19695SOL    HW260527   5.449   2.791   5.388 -0.4131  2.9639  0.0554
19696SOL     OW60528   5.917   4.263   4.793 -0.3922  0.1058  0.1069
19696SOL    HW160529   5.943   4.347   4.830  1.0373 -0.7506  1.1457
19696SOL    HW260530   5.933   4.272   4.699 -0.0472  0.9160  0.2343
19697SOL     OW60531   0.132   2.594   3.940  0.4340 -0.5387  0.3663
19697SOL    HW160532   0.209   2.547   3.907  0.9912 -1.0554  2.2539
19697SOL    HW260533   0.076   2.606   3.864  1.1820 -2.5267 -0.5540
19698SOL     OW60534   6.632   2.656   4.883 -0.8265 -0.1531 -0.7620
19698SOL    HW160535   6.630   2.749   4.860  2.0277  0.1812  0.0119
19698SOL    HW260536   6.721   2.628   4.862 -0.3754 -1.7147  2.5631
19699SOL     OW60537   7.135   4.014   5.305 -0.2279 -0.5146  0.0617
19699SOL    HW160538   7.060   3.996   5.248 -1.9794  0.5856  1.9128
19699SOL    HW260539   7.133   3.945   5.371  0.8276 -0.8561 -0.2339
19700SOL     OW60540   6.041   2.459   4.141  0.4197 -0.0101 -0.7793
19700SOL    HW160541   6.035   2.375   4.095  1.8679 -1.0909  0.8949
19700SOL    HW260542   6.130   2.489   4.124  0.7358 -0.0714  0.6613
19701SOL     OW60543   5.476   4.232   2.964 -0.1825 -0.2655  0.1021
19701SOL    HW160544   5.389   4.240   2.925  1.1094  0.7723 -2.8844
19701SOL    HW260545   5.470   4.279   3.047 -1.9496  1.7213 -1.0481
19702SOL     OW60546   5.563   1.450   4.082 -0.4101  0.0589  0.7042
19702SOL    HW160547   5.539   1.357   4.090  2.1501 -0.5531  2.7232
19702SOL    HW260548   5.513   1.481   4.007 -1.1584 -3.0130 -0.2256
19703SOL     OW60549   6.977   5.424   2.817  0.2547 -0.1969  0.5531
19703SOL    HW160550   7.067   5.456   2.815 -0.8050  3.0871  0.8483
19703SOL    HW260551   6.981   5.339   2.771  3.1035  0.8069 -1.3290
19704SOL     OW60552   7.502   3.167   6.041  0.4943  0.3570  1.0783
19704SOL    HW160553   7.424   3.114   6.062  0.0303 -1.1968 -3.4722
19704SOL    HW260554   7.469   3.256   6.030 -1.1534 -0.5135 -2.1982
19705SOL     OW60555   7.159   3.236   4.632 -0.3507  0.1591 -0.1364
19705SOL    HW160556   7.220   3.301   4.667  0.3192 -0.7007  0.3338
19705SOL    HW260557   7.128   3.274   4.550 -1.1786  1.7810  0.8611
19706SOL     OW60558   5.949   5.267   4.744 -0.0794  0.0131 -0.5675
19706SOL    HW160559   5.972   5.202   4.810 -0.3912  0.5572  0.0892
19706SOL    HW260560   6.020   5.262   4.680  1.1656  0.6909  0.7026
19707SOL     OW60561   5.878   2.814   5.380 -0.5580 -0.1272 -0.2432
19707SOL    HW160562   5.849   2.904   5.373 -1.3346 -0.3505  0.0327
19707SOL    HW260563   5.824   2.776   5.449 -1.6803 -1.3408 -1.7048
19708SOL     OW60564   1.117   2.494   4.872  0.1939 -1.0294 -0.5628
19708SOL    HW160565   1.143   2.440   4.797 -1.4739 -2.2047 -0.3494
19708SOL    HW260566   1.127   2.436   4.948 -0.4120 -0.6207 -0.1636
19709SOL     OW60567   5.281   0.715   5.487 -0.0403 -0.1951 -0.3673
19709SOL    HW160568   5.268   0.671   5.571  0.4474 -1.7380 -1.0584
19709SOL    HW260569   5.222   0.669   5.426  0.8898 -0.2743 -1.2392
19710SOL     OW60570   5.396   2.334   4.177  0.1343 -0.2565 -0.1353
19710SOL    HW160571   5.342   2.259   4.150 -1.2026  0.8954 -0.8107
19710SOL    HW260572   5.426   2.311   4.265  1.3515 -2.4022 -1.0237
19711SOL     OW60573   5.794   3.511   4.980 -0.1895  0.1131  0.3803
19711SOL    HW160574   5.815   3.506   5.073 -1.9721 -0.3231  0.7967
19711SOL    HW260575   5.699   3.506   4.976 -0.1210 -0.7736 -1.5289
19712SOL     OW60576   7.942   2.126   2.639  0.1245 -0.1234  0.4854
19712SOL    HW160577   7.879   2.068   2.680 -0.2706  0.9701  1.4547
19712SOL    HW260578   7.911   2.134   2.548 -0.9128  0.1020  0.8479
19713SOL     OW60579   5.521   0.542   4.974  0.0289  0.3577  0.1815
19713SOL    HW160580   5.511   0.469   4.912  0.5767  0.4083  0.0313
19713SOL    HW260581   5.562   0.504   5.051 -0.0470  0.4309  0.2594
19714SOL     OW60582   5.515   3.182   5.156 -0.2842  0.7840 -0.0550
19714SOL    HW160583   5.610   3.184   5.145 -0.2992 -1.3083 -1.0157
19714SOL    HW260584   5.502   3.189   5.251  0.9062 -0.1248  0.1987
19715SOL     OW60585   0.593   4.481   5.017  0.2856 -0.2001 -0.1040
19715SOL    HW160586   0.527   4.523   5.072  0.6932 -1.9912  1.8656
19715SOL    HW260587   0.668   4.541   5.020 -0.1239  0.3047  0.3023
19716SOL     OW60588   6.894   1.756   5.791  0.3830  0.5378  0.1485
19716SOL    HW160589   6.847   1.835   5.762 -2.5287 -0.2938  2.0617
19716SOL    HW260590   6.914   1.774   5.883  1.5415 -0.1883  0.0508
19717SOL     OW60591   6.225   7.896   3.747  0.5231  0.5689  0.1159
19717SOL    HW160592   6.274   7.916   3.827  0.0413  0.5994  0.4080
19717SOL    HW260593   6.149   7.953   3.750  0.3722  0.3920 -0.2417
19718SOL     OW60594   7.473   0.913   3.402  0.2675 -0.7547  0.2658
19718SOL    HW160595   7.524   0.853   3.348 -1.7678 -2.7785  0.4569
19718SOL    HW260596   7.534   0.942   3.469  2.1399 -0.2027 -1.5400
19719SOL     OW60597   5.949   1.695   5.901 -0.1476  0.3908 -0.6688
19719SOL    HW160598   6.024   1.739   5.860 -0.9380  0.7586 -1.7888
19719SOL    HW260599   5.923   1.753   5.972  0.3755  0.4715 -0.5434
19720SOL     OW60600   6.473   3.900   5.002  0.0471 -0.7419  0.4235
19720SOL    HW160601   6.408   3.903   5.072 -0.0156  2.1477  0.3702
19720SOL    HW260602   6.445   3.969   4.941  2.2568 -0.4985 -0.4031
19721SOL     OW60603   7.924   2.104   7.094  0.0316  0.0810 -0.1013
19721SOL    HW160604   7.923   2.139   7.183  0.6888 -0.0324 -0.0398
19721SOL    HW260605   7.838   2.126   7.058 -0.7509 -1.0324  0.9904
19722SOL     OW60606   7.989   3.443   5.539 -0.4705 -0.3876 -0.0441
19722SOL    HW160607   7.990   3.348   5.554  0.4948 -0.2179  1.1779
19722SOL    HW260608   8.006   3.481   5.626 -1.5770  0.9309 -0.3784
19723SOL     OW60609   5.389   3.062   4.928 -0.4323 -0.3743 -0.3159
19723SOL    HW160610   5.334   3.135   4.900 -1.8561 -1.3705 -0.2197
19723SOL    HW260611   5.429   3.092   5.010 -0.0379  0.7271 -0.8875
19724SOL     OW60612   5.884   2.384   2.900 -0.1058  0.0484 -0.0550
19724SOL    HW160613   5.796   2.397   2.933 -0.5055  2.2565 -1.7278
19724SOL    HW260614   5.876   2.310   2.839 -0.0054 -1.9659  2.2397
19725SOL     OW60615   7.643   3.784   5.031 -0.4445 -0.4284  0.0800
19725SOL    HW160616   7.667   3.696   5.061 -1.4129 -0.6574  0.2239
19725SOL    HW260617   7.609   3.771   4.942  0.7213  0.0062 -0.4582
19726SOL     OW60618   7.147   2.770   4.774 -0.5093 -0.2071 -0.2199
19726SOL    HW160619   7.099   2.846   4.741 -0.1261  0.1128 -0.0547
19726SOL    HW260620   7.081   2.714   4.814 -0.5106  1.2314  1.9566
19727SOL     OW60621   5.045   1.173   3.184  0.5030  0.2517 -0.6642
19727SOL    HW160622   4.985   1.204   3.252  0.8926 -1.9505  0.7775
19727SOL    HW260623   4.994   1.178   3.103 -2.4885 -3.3012  0.7149
19728SOL     OW60624   7.133   1.512   4.358 -0.4237  0.5595  0.4174
19728SOL    HW160625   7.136   1.424   4.320 -1.2714  0.8100 -0.2423
19728SOL    HW260626   7.115   1.497   4.451  1.6171 -0.0560  0.7645
19729SOL     OW60627   7.460   2.438   5.147  0.1406 -0.2639 -0.1303
19729SOL    HW160628   7.548   2.474   5.136  0.3989 -0.8869 -0.1682
19729SOL    HW260629   7.426   2.479   5.226  0.8912 -0.8356  0.5021
19730SOL     OW60630   4.413   1.569   4.383  0.4669  0.0611 -0.3226
19730SOL    HW160631   4.421   1.661   4.406  0.5604 -0.2457  0.8948
19730SOL    HW260632   4.479   1.524   4.436  1.9590 -0.4780 -2.4881
19731SOL     OW60633   6.106   5.085   2.782  0.4411  0.2474 -0.5271
19731SOL    HW160634   6.027   5.133   2.804  0.9489  0.6393  0.5048
19731SOL    HW260635   6.079   5.024   2.713 -0.4930  1.1297 -0.9605
19732SOL     OW60636   5.030   3.050   3.938 -0.3706  0.0495 -0.3353
19732SOL    HW160637   5.069   3.011   3.860  0.5948 -1.4328  0.8232
19732SOL    HW260638   5.102   3.095   3.981  0.6135 -3.6123  2.3858
19733SOL     OW60639   5.797   3.091   5.058  1.1432 -1.0312 -0.5477
19733SOL    HW160640   5.746   3.025   5.011  0.5567 -0.1452 -1.2029
19733SOL    HW260641   5.864   3.118   4.995  1.0766 -0.6676 -0.4640
19734SOL     OW60642   5.241   5.138   3.847 -0.6479 -0.2074  0.2758
19734SOL    HW160643   5.203   5.208   3.900 -0.0668 -1.8339  3.0470
19734SOL    HW260644   5.336   5.152   3.853 -0.5119 -1.2938  1.0661
19735SOL     OW60645   5.954   2.057   7.070 -0.2326  0.1237  0.4180
19735SOL    HW160646   5.940   2.098   6.984  1.1485 -0.8007 -0.2928
19735SOL    HW260647   5.973   1.966   7.049  3.7479  0.5437  1.3387
19736SOL     OW60648   6.647   3.356   5.158  0.6577  1.0808 -0.2499
19736SOL    HW160649   6.628   3.270   5.196  1.6573  1.4166  1.0481
19736SOL    HW260650   6.742   3.362   5.158  0.6942  1.2807 -2.4711
19737SOL     OW60651   5.623   2.728   4.743  0.1379  0.4769 -0.9680
19737SOL    HW160652   5.610   2.817   4.710  0.5475  0.5679 -0.8817
19737SOL    HW260653   5.577   2.673   4.680  0.3378  0.7067 -1.3199
19738SOL     OW60654   0.145   2.374   3.515  0.1245  0.4245  0.6008
19738SOL    HW160655   0.103   2.339   3.437  3.6474 -0.3221 -1.1728
19738SOL    HW260656   0.171   2.463   3.490  1.4606  0.1081  0.8082
19739SOL     OW60657   5.829   2.648   5.150  0.7028 -0.1357 -0.0771
19739SOL    HW160658   5.864   2.702   5.220 -3.7368  0.4623  2.0765
19739SOL    HW260659   5.817   2.562   5.190  1.5300 -0.8849 -1.3668
19740SOL     OW60660   6.987   2.619   3.926 -0.4169  0.0540  0.4059
19740SOL    HW160661   7.016   2.685   3.989  0.2284 -0.2026  0.3845
19740SOL    HW260662   6.896   2.602   3.950 -0.5794  0.9128  0.4430
19741SOL     OW60663   7.189   3.598   4.471  0.9024  0.1813  0.6544
19741SOL    HW160664   7.257   3.657   4.503  0.3723  0.7778  0.7008
19741SOL    HW260665   7.106   3.641   4.494  0.5051 -0.5336  0.6079
19742SOL     OW60666   4.243   2.247   3.931  0.1537  0.2687 -0.0130
19742SOL    HW160667   4.204   2.174   3.979  0.3215 -0.0407 -0.3408
19742SOL    HW260668   4.284   2.301   3.999  0.8428 -0.4427  0.1466
19743SOL     OW60669   6.064   2.684   6.243  0.9661  0.2035 -0.4730
19743SOL    HW160670   6.119   2.619   6.287  0.9543  0.5286  0.0243
19743SOL    HW260671   5.991   2.698   6.304  1.6088  1.6190 -0.0060
19744SOL     OW60672   7.973   3.925   7.029 -0.0154 -0.0573  0.0134
19744SOL    HW160673   7.943   3.862   6.964 -1.2817 -1.0775  1.5148
19744SOL    HW260674   8.068   3.922   7.024 -0.0683  0.3190 -2.1448
19745SOL     OW60675   7.808   1.863   4.013 -0.2808 -0.1910 -0.2685
19745SOL    HW160676   7.733   1.910   4.048  0.5050  0.2379  0.9111
19745SOL    HW260677   7.852   1.926   3.956  0.6669  0.4993  1.1651
19746SOL     OW60678   7.491   2.448   6.494  0.0726 -0.0417 -0.0797
19746SOL    HW160679   7.556   2.511   6.463 -0.5428 -0.2060 -1.8259
19746SOL    HW260680   7.506   2.370   6.441 -0.8354 -0.4607  0.2534
19747SOL     OW60681   7.928   4.355   4.989 -0.2109  0.1457  0.2363
19747SOL    HW160682   7.866   4.427   4.985 -0.8770 -0.4085  0.2580
19747SOL    HW260683   7.875   4.277   4.970  1.0659 -0.0466 -3.2889
19748SOL     OW60684   5.645   2.197   6.510  0.1078 -0.2045  0.2059
19748SOL    HW160685   5.716   2.134   6.496  1.5659  1.5502 -0.6070
19748SOL    HW260686   5.595   2.196   6.429 -1.3812 -2.0253  1.0553
19749SOL     OW60687   5.489   2.759   6.039 -0.2899 -0.0177  0.4278
19749SOL    HW160688   5.413   2.702   6.051 -1.0852  1.0309  0.5240
19749SOL    HW260689   5.454   2.837   5.998  0.7998  0.3775  0.2138
19750SOL     OW60690   1.278   3.288   5.031  0.2814  0.0186 -0.5228
19750SOL    HW160691   1.297   3.196   5.016  0.0411  0.1855 -1.9694
19750SOL    HW260692   1.229   3.290   5.114 -0.5557 -1.2588 -0.9627
19751SOL     OW60693   6.089   4.136   3.727  0.8970 -0.2585  0.1416
19751SOL    HW160694   6.023   4.136   3.796  1.3233  0.3788  0.5601
19751SOL    HW260695   6.041   4.160   3.648  0.5685 -0.1037  0.3858
19752SOL     OW60696   6.451   3.629   6.796 -0.0364 -0.4987  0.1517
19752SOL    HW160697   6.382   3.617   6.862 -1.5101 -0.4562 -1.3201
19752SOL    HW260698   6.453   3.723   6.782  2.3489 -0.1523  2.1984
19753SOL     OW60699   5.758   4.163   4.974 -0.3992 -0.2844  0.3412
19753SOL    HW160700   5.809   4.197   4.900  0.0567 -1.5951  0.0337
19753SOL    HW260701   5.669   4.194   4.957 -0.0170  0.7249  0.0730
19754SOL     OW60702   0.930   2.402   5.836 -0.1465  0.2292  0.0992
19754SOL    HW160703   0.920   2.467   5.906  0.8668  2.0345 -1.3430
19754SOL    HW260704   0.856   2.420   5.777 -0.1891 -0.3281 -0.0178
19755SOL     OW60705   0.893   2.393   6.167  0.2479  0.0288  0.5185
19755SOL    HW160706   0.900   2.482   6.133  0.2249 -1.1561 -2.9324
19755SOL    HW260707   0.941   2.396   6.250  1.8948  2.8151 -0.3768
19756SOL     OW60708   7.996   1.850   4.975  0.0567 -0.2171  0.3566
19756SOL    HW160709   7.935   1.849   5.049  0.0622  1.4267  0.4067
19756SOL    HW260710   7.971   1.773   4.923 -0.4145 -0.9830  1.6790
19757SOL     OW60711   6.396   2.327   4.479  0.2563  0.0415  0.0863
19757SOL    HW160712   6.458   2.258   4.502 -0.2022 -0.7588 -0.9794
19757SOL    HW260713   6.426   2.404   4.528  1.4538 -0.6023  0.4059
19758SOL     OW60714   6.530   4.565   3.739 -0.2626  0.1081  0.2189
19758SOL    HW160715   6.561   4.484   3.700  0.3187  0.7699 -0.7274
19758SOL    HW260716   6.601   4.627   3.726 -1.8244  1.6298 -1.8505
19759SOL     OW60717   5.026   2.822   5.651 -0.2410  0.3429  0.3800
19759SOL    HW160718   4.936   2.798   5.626 -0.3433  1.6794 -0.6436
19759SOL    HW260719   5.021   2.915   5.671  1.3146  0.9556 -1.7733
19760SOL     OW60720   7.154   2.489   3.776 -0.2763 -0.3881  0.2083
19760SOL    HW160721   7.123   2.503   3.686 -1.2841 -1.0996  0.4340
19760SOL    HW260722   7.099   2.546   3.829 -0.8785 -1.2737  0.5561
19761SOL     OW60723   7.766   3.597   3.833 -0.3721  0.4506 -0.1779
19761SOL    HW160724   7.768   3.512   3.789 -1.5605  0.0944  0.4030
19761SOL    HW260725   7.673   3.620   3.837 -0.2182  0.9373  1.2344
19762SOL     OW60726   7.348   2.603   5.309 -0.2426  0.3640 -0.2724
19762SOL    HW160727   7.386   2.671   5.365 -1.0559  0.5096  0.1326
19762SOL    HW260728   7.323   2.649   5.229  0.6908  0.2067 -0.6633
19763SOL     OW60729   6.624   2.343   5.398 -0.4842  0.0797  0.2234
19763SOL    HW160730   6.654   2.329   5.308  0.5451  0.2907  0.5150
19763SOL    HW260731   6.539   2.386   5.389 -0.2954  0.2888 -0.6497
19764SOL     OW60732   7.019   2.115   4.906 -0.0832  0.4804 -0.0573
19764SOL    HW160733   7.041   2.124   4.999  0.4140 -1.1138  0.0019
19764SOL    HW260734   6.933   2.159   4.898 -1.0083 -0.9176  1.5510
19765SOL     OW60735   5.416   7.921   4.619 -1.1100  0.2240  0.1192
19765SOL    HW160736   5.367   7.875   4.550  0.9469 -0.7078 -0.8041
19765SOL    HW260737   5.388   8.012   4.611 -0.4874  0.2791 -2.4583
19766SOL     OW60738   6.759   1.865   4.648 -0.4210  0.5503 -0.0677
19766SOL    HW160739   6.853   1.870   4.633 -0.4915  0.2226 -0.6745
19766SOL    HW260740   6.730   1.957   4.648 -0.3148  0.6115 -1.4081
19767SOL     OW60741   7.036   1.304   5.817 -0.6726  0.4740  0.0254
19767SOL    HW160742   7.012   1.236   5.754  0.2740 -1.7076  1.8996
19767SOL    HW260743   6.960   1.363   5.819 -1.4873 -0.4377 -1.7284
19768SOL     OW60744   6.832   2.813   4.223 -0.0607 -0.3149 -0.1504
19768SOL    HW160745   6.807   2.897   4.183 -0.7799 -0.1243  0.6736
19768SOL    HW260746   6.912   2.788   4.178  0.8235  1.4118  0.3801
19769SOL     OW60747   5.232   2.967   6.142 -0.7218 -0.4619  0.1193
19769SOL    HW160748   5.290   2.986   6.068 -1.0822  0.0196 -0.0381
19769SOL    HW260749   5.162   2.914   6.105 -0.2020 -1.3599  0.3810
19770SOL     OW60750   6.641   3.109   5.958  0.4730 -0.1399  0.0755
19770SOL    HW160751   6.548   3.087   5.968  0.0042 -0.1553 -3.0859
19770SOL    HW260752   6.642   3.205   5.948  0.5785 -0.2455 -1.1392
19771SOL     OW60753   4.874   2.022   5.016 -0.4118 -0.1857  0.1713
19771SOL    HW160754   4.934   2.015   4.941  2.5666 -0.6511  2.4413
19771SOL    HW260755   4.895   2.107   5.055 -1.5609 -0.1760  0.8044
19772SOL     OW60756   7.631   2.701   5.873 -0.0487 -0.1733  0.1335
19772SOL    HW160757   7.562   2.657   5.824 -0.3858  0.8665 -0.3536
19772SOL    HW260758   7.596   2.710   5.962 -0.3491 -0.0854  0.0080
19773SOL     OW60759   4.962   1.628   1.712 -0.4864  0.1528  0.1237
19773SOL    HW160760   4.867   1.631   1.724 -0.2975  0.9614  1.7320
19773SOL    HW260761   4.976   1.554   1.653 -2.0245 -0.8793  0.9587
19774SOL     OW60762   7.718   3.793   4.122 -0.2130 -0.3019  0.0552
19774SOL    HW160763   7.648   3.757   4.067 -0.5793 -1.2829  1.1293
19774SOL    HW260764   7.710   3.888   4.111  1.4008 -0.4161 -3.6317
19775SOL     OW60765   5.981   2.939   4.842  0.3965  0.1504 -0.4909
19775SOL    HW160766   5.960   2.939   4.748 -0.8709  0.6133 -0.2285
19775SOL    HW260767   5.905   2.898   4.883  1.1073 -0.4061  0.3189
19776SOL     OW60768   6.816   2.480   5.571 -0.0098  0.5294 -0.2520
19776SOL    HW160769   6.784   2.433   5.494 -1.0787 -1.0522  1.0835
19776SOL    HW260770   6.750   2.546   5.588 -0.4981 -0.0485  0.1181
19777SOL     OW60771   5.920   3.555   4.528  0.6541 -0.5443  0.3069
19777SOL    HW160772   5.934   3.460   4.530 -0.7036 -0.7620  2.4723
19777SOL    HW260773   5.943   3.585   4.616  0.5783  1.0839 -0.1906
19778SOL     OW60774   5.893   3.593   5.246 -0.7428  0.0778 -0.6294
19778SOL    HW160775   5.843   3.661   5.291  0.8119  0.7842  0.1230
19778SOL    HW260776   5.964   3.572   5.307  0.6685  0.0987 -2.1968
19779SOL     OW60777   6.334   2.811   5.831 -0.5815 -0.1299  0.0634
19779SOL    HW160778   6.264   2.787   5.892 -0.3314  1.4461  1.0117
19779SOL    HW260779   6.403   2.747   5.848 -1.5842 -1.4317 -0.5746
19780SOL     OW60780   7.073   2.553   5.305 -0.2841 -0.0307  0.3229
19780SOL    HW160781   7.162   2.568   5.337 -0.3857 -0.9235  1.0936
19780SOL    HW260782   7.068   2.458   5.295 -0.7419  0.1150 -0.9772
19781SOL     OW60783   1.196   1.336   5.269 -0.0762 -0.3679  0.4733
19781SOL    HW160784   1.135   1.332   5.343 -0.5394  0.7978  0.1872
19781SOL    HW260785   1.241   1.252   5.270 -0.9951 -0.8724  1.2919
19782SOL     OW60786   4.514   1.959   4.817 -0.6978  0.3066 -0.1814
19782SOL    HW160787   4.520   2.021   4.889 -1.2934 -0.2973  0.4067
19782SOL    HW260788   4.421   1.957   4.794 -0.6056  0.0318 -0.5382
19783SOL     OW60789   6.768   2.888   5.265 -0.0283 -0.4390  0.2038
19783SOL    HW160790   6.767   2.871   5.359 -0.0986  0.3958  0.3619
19783SOL    HW260791   6.678   2.875   5.237 -0.7387  2.3781  0.8563
19784SOL     OW60792   7.246   2.732   5.087 -0.0471  0.1289 -0.3222
19784SOL    HW160793   7.259   2.753   4.995 -0.4907  1.8313 -0.0355
19784SOL    HW260794   7.153   2.707   5.093 -0.2383  0.8599 -0.2000
19785SOL     OW60795   5.419   3.637   2.602 -0.5212  0.3245  0.4200
19785SOL    HW160796   5.498   3.687   2.580 -0.6733  1.6957  2.7202
19785SOL    HW260797   5.360   3.702   2.641 -3.2883 -0.4009 -2.1244
19786SOL     OW60798   0.245   2.934   5.273  0.3505  0.4716 -0.2610
19786SOL    HW160799   0.309   2.941   5.344 -0.3319  2.8391  0.2239
19786SOL    HW260800   0.198   3.017   5.276  2.5208  2.3151 -5.6011
19787SOL     OW60801   7.663   3.427   5.919 -0.1772 -0.0920  0.4212
19787SOL    HW160802   7.738   3.369   5.915 -0.8886 -0.9626 -1.3529
19787SOL    HW260803   7.663   3.473   5.835  0.4736  2.7082  1.8023
19788SOL     OW60804   5.787   2.236   2.093  0.0444  0.6235  0.5145
19788SOL    HW160805   5.702   2.215   2.133 -0.7867  1.3861 -0.7554
19788SOL    HW260806   5.831   2.292   2.157 -1.3045  1.9411  0.3525
19789SOL     OW60807   7.597   5.425   5.987 -0.0992  0.3560  0.0723
19789SOL    HW160808   7.521   5.479   6.009 -0.2584  0.9200 -1.6484
19789SOL    HW260809   7.578   5.340   6.025 -1.5525  0.5216 -0.2155
19790SOL     OW60810   5.391   1.522   5.352  0.2778  0.0624  0.1321
19790SOL    HW160811   5.362   1.481   5.434 -0.9284  1.8899  0.6817
19790SOL    HW260812   5.459   1.584   5.379  1.0459 -0.4817 -0.4973
19791SOL     OW60813   4.776   3.236   5.120 -0.0738  0.3287 -0.1686
19791SOL    HW160814   4.755   3.290   5.196  0.1597  0.2116 -0.0210
19791SOL    HW260815   4.728   3.278   5.048  1.2197  1.5903 -0.3460
19792SOL     OW60816   5.682   3.751   5.333 -0.4409 -0.4309  0.2557
19792SOL    HW160817   5.610   3.795   5.288 -0.0059 -0.5744 -0.6044
19792SOL    HW260818   5.706   3.810   5.404 -3.1024 -1.5408  2.2035
19793SOL     OW60819   6.677   1.410   4.768  0.2105  0.3278 -0.0862
19793SOL    HW160820   6.682   1.359   4.686 -2.8164 -0.8882  0.3500
19793SOL    HW260821   6.637   1.493   4.742 -0.5140  0.0417  0.0912
19794SOL     OW60822   5.396   2.614   4.107  0.3077  0.3083 -0.8390
19794SOL    HW160823   5.367   2.523   4.108 -0.6444  0.5928 -1.0346
19794SOL    HW260824   5.363   2.649   4.024  1.0777  0.7019 -0.9814
19795SOL     OW60825   7.702   3.866   5.598 -0.4913 -0.4326  0.1675
19795SOL    HW160826   7.677   3.834   5.685 -1.8915  0.4562  0.1124
19795SOL    HW260827   7.623   3.858   5.545 -0.0756  0.4512 -0.6245
19796SOL     OW60828   5.575   3.143   3.529 -0.7835  0.1406  0.3989
19796SOL    HW160829   5.586   3.178   3.440 -0.1857  1.5609  0.9879
19796SOL    HW260830   5.650   3.085   3.542 -0.9334 -0.1557 -0.0637
19797SOL     OW60831   7.093   3.472   5.672 -0.0707 -0.2469 -0.3952
19797SOL    HW160832   7.081   3.562   5.704 -0.0585 -0.0368 -0.9769
19797SOL    HW260833   7.012   3.427   5.695 -1.2689  0.6645 -2.6311
19798SOL     OW60834   7.466   2.022   6.950 -0.0992 -0.6543  0.1927
19798SOL    HW160835   7.536   2.087   6.944 -1.4749  0.7546 -1.8985
19798SOL    HW260836   7.504   1.943   6.911  1.0499 -0.6427  1.2308
19799SOL     OW60837   6.221   1.489   3.540  0.5119  0.0437 -0.4893
19799SOL    HW160838   6.226   1.480   3.444  1.2444 -0.8155 -0.3832
19799SOL    HW260839   6.274   1.417   3.573  0.5385  0.5415  0.5716
19800SOL     OW60840   6.080   2.583   3.196 -0.3733  0.7146  0.1193
19800SOL    HW160841   6.152   2.535   3.155  0.1642  0.5130  1.2701
19800SOL    HW260842   6.118   2.667   3.219 -0.8350  1.0446 -0.2962
19801SOL     OW60843   4.187   3.431   5.035 -0.2219  0.6130 -0.2341
19801SOL    HW160844   4.274   3.471   5.039  0.0366  0.1277 -0.8526
19801SOL    HW260845   4.128   3.504   5.016 -0.2956  1.3749  2.5046
19802SOL     OW60846   7.978   1.282   2.974  0.0352  0.0613 -0.0403
19802SOL    HW160847   8.011   1.372   2.974 -0.6828  0.3270 -0.3393
19802SOL    HW260848   8.047   1.232   3.017  0.2384  0.8243  0.5430
19803SOL     OW60849   6.029   1.210   4.340 -0.3085 -0.2134  0.0060
19803SOL    HW160850   5.946   1.199   4.386  0.5256  0.0317  1.6636
19803SOL    HW260851   6.031   1.303   4.317 -0.1881 -0.0589  0.6195
19804SOL     OW60852   5.862   1.910   4.338 -0.2525  0.1542  0.8173
19804SOL    HW160853   5.887   1.843   4.402 -0.2869 -0.1299  0.5325
19804SOL    HW260854   5.800   1.966   4.386 -1.0638 -0.6526  0.7226
19805SOL     OW60855   6.178   5.151   3.490 -0.1168 -0.4758 -0.7376
19805SOL    HW160856   6.115   5.079   3.489  0.3598 -0.9166  0.3379
19805SOL    HW260857   6.138   5.217   3.547  1.6893 -2.0087  2.5439
19806SOL     OW60858   6.128   5.475   4.298  0.2424  0.0425  0.4401
19806SOL    HW160859   6.218   5.507   4.311  0.0370  0.3498  1.1686
19806SOL    HW260860   6.073   5.543   4.338 -0.4246  0.7366 -1.5164
19807SOL     OW60861   5.414   2.976   5.916 -0.1863 -0.1138 -0.6989
19807SOL    HW160862   5.503   3.012   5.906 -0.2108  0.5099  0.9899
19807SOL    HW260863   5.389   2.950   5.827  1.1935  0.8719 -1.4260
19808SOL     OW60864   4.481   1.845   6.805 -0.3971 -0.1642 -0.4897
19808SOL    HW160865   4.404   1.898   6.823 -0.8745 -0.3582 -1.8863
19808SOL    HW260866   4.555   1.906   6.816 -0.8043  0.2582 -0.0747
19809SOL     OW60867   4.681   2.572   4.909 -0.2576 -0.1434  0.2716
19809SOL    HW160868   4.660   2.524   4.829  0.0376 -1.8933  1.2068
19809SOL    HW260869   4.661   2.663   4.888  1.6626 -0.2470 -2.4526
19810SOL     OW60870   5.029   2.647   7.374  0.8720  0.5540 -0.0096
19810SOL    HW160871   4.939   2.679   7.375  0.2146 -0.9883  3.1823
19810SOL    HW260872   5.080   2.717   7.415  0.3569 -0.1891  1.9899
19811SOL     OW60873   6.720   3.475   6.159 -0.2014 -0.2066  0.2063
19811SOL    HW160874   6.667   3.411   6.206 -1.1113  0.4076  0.0583
19811SOL    HW260875   6.767   3.523   6.228  0.8079 -1.2794  0.2925
19812SOL     OW60876   6.523   3.105   7.220 -0.0807 -0.1532 -0.3548
19812SOL    HW160877   6.432   3.113   7.192 -0.0045  0.8413 -0.3590
19812SOL    HW260878   6.563   3.047   7.155 -0.2238  1.0794 -1.5913
19813SOL     OW60879   7.454   1.408   6.534 -0.0628  0.2807 -0.2028
19813SOL    HW160880   7.508   1.476   6.493 -2.3816  0.9237 -2.3963
19813SOL    HW260881   7.367   1.447   6.542 -0.9435 -1.6915  0.5385
19814SOL     OW60882   6.778   3.638   7.808 -0.1605  0.1949 -0.0984
19814SOL    HW160883   6.750   3.547   7.811  0.6305 -0.1115 -1.5464
19814SOL    HW260884   6.719   3.679   7.745  0.0458  0.4908 -0.1004
19815SOL     OW60885   6.900   7.385   8.238  0.5313 -0.0259  0.6714
19815SOL    HW160886   6.844   7.396   8.160  0.7087  0.5900  0.6300
19815SOL    HW260887   6.867   7.305   8.279 -0.4327  0.3672  0.6851
19816SOL     OW60888   6.634   2.116   8.134  0.1867 -0.3938 -0.3951
19816SOL    HW160889   6.685   2.195   8.148  2.2977 -2.0862  2.8451
19816SOL    HW260890   6.689   2.061   8.077 -0.7593 -0.0340 -1.7049
19817SOL     OW60891   6.923   1.759   6.091 -0.3154 -0.0920  0.4029
19817SOL    HW160892   6.977   1.694   6.136  0.2548  0.4586  0.5307
19817SOL    HW260893   6.972   1.841   6.101 -2.0318  0.8124  2.1179
19818SOL     OW60894   6.813   2.286   6.202 -0.7410 -0.7093 -0.5524
19818SOL    HW160895   6.865   2.340   6.143 -0.3477 -3.1980 -2.6585
19818SOL    HW260896   6.866   2.277   6.280 -0.0314  0.4035 -0.8828
19819SOL     OW60897   5.202   2.915   6.783 -0.0123  0.1997  0.3390
19819SOL    HW160898   5.215   2.839   6.839  0.1686 -1.7422 -2.1575
19819SOL    HW260899   5.109   2.938   6.795  0.4595  1.1144  2.8089
19820SOL     OW60900   5.274   2.548   6.691 -0.2062  0.7770 -0.1242
19820SOL    HW160901   5.289   2.589   6.776 -0.0247 -2.2752  1.4462
19820SOL    HW260902   5.361   2.520   6.662 -0.4955  0.0841 -0.3437
19821SOL     OW60903   6.203   2.289   5.510  0.1992 -0.2206 -0.1844
19821SOL    HW160904   6.120   2.308   5.554  1.0924 -0.3012  1.6161
19821SOL    HW260905   6.236   2.211   5.553  1.1484 -0.2861 -0.9892
19822SOL     OW60906   5.939   3.801   5.764  0.5644 -0.2490 -0.1374
19822SOL    HW160907   5.935   3.713   5.728  1.4630 -0.3884  0.0795
19822SOL    HW260908   5.848   3.832   5.762  0.4527 -0.6255 -1.5708
19823SOL     OW60909   5.655   4.322   9.367 -0.0150  0.4608  0.3616
19823SOL    HW160910   5.664   4.230   9.391 -0.0848 -0.0184 -1.3050
19823SOL    HW260911   5.701   4.330   9.284  0.8007  2.1667  0.9355
19824SOL     OW60912   6.296   3.171   6.340  0.3231 -0.1916  0.1950
19824SOL    HW160913   6.220   3.213   6.380  0.2202  0.1011 -0.3043
19824SOL    HW260914   6.330   3.112   6.408 -1.5101 -1.8298 -0.2255
19825SOL     OW60915   6.925   1.524   6.823  0.3192  0.0065 -0.2049
19825SOL    HW160916   6.850   1.568   6.783  0.7519 -0.1888 -1.2795
19825SOL    HW260917   7.000   1.553   6.771  1.0257  0.3925  1.0104
19826SOL     OW60918   6.520   2.858   7.024  0.3783  0.1801 -0.0927
19826SOL    HW160919   6.566   2.868   6.940  1.8223  1.1843  0.7670
19826SOL    HW260920   6.586   2.824   7.084 -0.9162 -1.5277  0.4266
19827SOL     OW60921   7.381   2.965   4.779  0.0075 -0.2617 -0.3126
19827SOL    HW160922   7.339   3.050   4.794  1.5384  0.9871 -2.5272
19827SOL    HW260923   7.312   2.912   4.737 -1.0468 -0.2745  1.3489
19828SOL     OW60924   4.757   2.833   5.609 -0.1590 -0.3861  0.0999
19828SOL    HW160925   4.736   2.849   5.701  0.1625 -1.2158  0.3197
19828SOL    HW260926   4.724   2.911   5.564  0.5975  0.5051  1.0335
19829SOL     OW60927   3.767   1.422   7.010  0.1939  0.2970  0.5006
19829SOL    HW160928   3.848   1.372   7.016 -0.6961 -1.3354 -0.3302
19829SOL    HW260929   3.781   1.485   6.940  0.7196 -0.0111  0.3287
19830SOL     OW60930   0.346   3.663   7.503  0.5765  0.3700 -0.3102
19830SOL    HW160931   0.405   3.668   7.578  0.8507 -0.6708 -0.4413
19830SOL    HW260932   0.321   3.571   7.499 -0.7453  0.7203 -0.5031
19831SOL     OW60933   5.896   4.248   5.705 -0.1695 -0.3920  0.3397
19831SOL    HW160934   5.823   4.226   5.763 -0.0490  0.7090  0.9337
19831SOL    HW260935   5.863   4.231   5.617 -0.8152 -0.8165  0.6585
19832SOL     OW60936   7.706   2.031   6.555  0.2096 -0.0102  0.4548
19832SOL    HW160937   7.751   1.954   6.589  1.3698  0.3320 -0.2581
19832SOL    HW260938   7.741   2.104   6.607 -0.7989  0.0678  1.0511
19833SOL     OW60939   6.930   2.283   6.447 -0.6716  0.0966  0.6497
19833SOL    HW160940   7.015   2.328   6.452 -0.9762  0.7780 -0.0445
19833SOL    HW260941   6.893   2.292   6.534  0.0688 -0.4260  1.0351
19834SOL     OW60942   6.001   4.016   7.028  0.1272 -0.3916  0.5103
19834SOL    HW160943   6.080   3.998   7.078 -0.2473 -3.1594  0.2262
19834SOL    HW260944   5.989   3.939   6.973 -0.9564  1.3716 -1.9192
19835SOL     OW60945   6.461   2.881   6.150 -0.1140 -0.0511 -0.4598
19835SOL    HW160946   6.471   2.965   6.195 -0.5648 -0.5182  0.5521
19835SOL    HW260947   6.391   2.897   6.087  0.2303  0.4971 -0.7175
19836SOL     OW60948   7.986   7.916   6.281 -0.4201 -0.5273 -0.4551
19836SOL    HW160949   7.965   7.868   6.361  0.6253 -0.9510 -0.4214
19836SOL    HW260950   8.043   7.857   6.232 -0.6998 -0.0898 -1.3117
19837SOL     OW60951   6.129   0.551   4.357  0.3667 -0.0732 -0.4359
19837SOL    HW160952   6.195   0.603   4.403  0.0477  1.1569 -1.3135
19837SOL    HW260953   6.109   0.602   4.279  0.9156 -2.0712 -1.9936
19838SOL     OW60954   5.225   1.929   6.416  0.2913  0.0108  0.1369
19838SOL    HW160955   5.191   1.952   6.502 -1.3185 -0.2431 -0.3940
19838SOL    HW260956   5.159   1.869   6.380  0.5837  0.6364 -1.5323
19839SOL     OW60957   0.556   1.645   5.084 -0.1711  0.3804  0.0836
19839SOL    HW160958   0.637   1.676   5.044 -0.6595 -1.2936 -2.3992
19839SOL    HW260959   0.585   1.597   5.162  1.7003 -2.8684 -2.3606
19840SOL     OW60960   7.289   6.022   8.579  0.3102  0.0120  0.3120
19840SOL    HW160961   7.305   5.950   8.640 -0.6938 -0.4265  0.0780
19840SOL    HW260962   7.370   6.030   8.529  1.0038  0.1222  1.4288
19841SOL     OW60963   6.469   2.047   7.206  0.1703  0.2635  0.6535
19841SOL    HW160964   6.400   2.109   7.181  0.9942  1.9600  2.2986
19841SOL    HW260965   6.460   2.039   7.301  0.0938 -2.2183  0.5008
19842SOL     OW60966   6.333   4.036   6.307 -0.1984 -0.0098 -0.2553
19842SOL    HW160967   6.407   4.008   6.360  0.5044 -0.3645 -1.3972
19842SOL    HW260968   6.337   4.132   6.309 -0.3997 -0.0089  0.6073
19843SOL     OW60969   6.897   3.212   5.660 -0.3626 -1.2020 -0.6922
19843SOL    HW160970   6.892   3.264   5.580 -1.0497  0.2116  0.2275
19843SOL    HW260971   6.826   3.149   5.653 -3.8247  2.1476  0.9155
19844SOL     OW60972   7.891   2.878   6.615 -0.2437 -0.3336  0.1490
19844SOL    HW160973   7.876   2.952   6.557 -3.0493 -0.8805  0.0432
19844SOL    HW260974   7.984   2.883   6.637  0.6741  0.5940 -3.3789
19845SOL     OW60975   7.505   1.832   6.690 -0.0624  0.0340 -0.3558
19845SOL    HW160976   7.491   1.765   6.757  1.6400 -0.7510 -0.7142
19845SOL    HW260977   7.600   1.834   6.678 -0.3219 -0.5538 -3.3956
19846SOL     OW60978   7.221   2.332   6.115  0.3467  0.5956 -0.0263
19846SOL    HW160979   7.187   2.284   6.190 -0.8847 -1.3290 -1.6896
19846SOL    HW260980   7.316   2.322   6.121  0.3776  1.6852  1.9725
19847SOL     OW60981   4.821   1.473   8.084 -0.3317 -0.2493  0.4221
19847SOL    HW160982   4.757   1.533   8.046 -0.9529 -0.9031  0.4272
19847SOL    HW260983   4.774   1.391   8.096  0.2368 -0.4572  1.3444
19848SOL     OW60984   7.273   1.517   6.914 -0.3683  0.1471  0.0678
19848SOL    HW160985   7.249   1.562   6.995  1.7950  0.2928  0.7009
19848SOL    HW260986   7.238   1.429   6.924  1.6377 -0.5044  2.1808
19849SOL     OW60987   6.526   2.552   6.703  0.2549  1.1693  0.0334
19849SOL    HW160988   6.535   2.557   6.608 -0.4109 -1.8348 -0.2887
19849SOL    HW260989   6.615   2.535   6.735  0.3046  1.0414 -0.1724
19850SOL     OW60990   5.102   2.331   6.623  0.3641 -0.4055 -0.0075
19850SOL    HW160991   5.006   2.322   6.623  0.1605  1.1839 -1.7412
19850SOL    HW260992   5.119   2.406   6.679  0.3650  0.6769 -1.3890
19851SOL     OW60993   7.341   2.179   5.888 -0.3505 -0.2595  0.4347
19851SOL    HW160994   7.305   2.254   5.935  2.0309  0.8432  0.6350
19851SOL    HW260995   7.270   2.116   5.886 -2.8445  2.3415 -0.6306
19852SOL     OW60996   5.660   2.918   7.513 -0.4586  0.1530 -0.0598
19852SOL    HW160997   5.629   2.898   7.601 -0.4235  0.7694  0.0973
19852SOL    HW260998   5.600   2.986   7.482  0.3593  0.9350  0.0192
19853SOL     OW60999   5.163   4.533   7.134  0.6683 -0.0986 -0.2506
19853SOL    HW161000   5.096   4.506   7.070  1.9362  0.4803 -1.8824
19853SOL    HW261001   5.239   4.480   7.112  1.6062  1.1946 -0.2215
19854SOL     OW61002   6.637   2.085   6.166 -0.5751 -0.5846 -0.4929
19854SOL    HW161003   6.614   2.081   6.259 -2.6765 -0.1654 -0.9407
19854SOL    HW261004   6.680   2.170   6.156 -0.6773 -0.4642  0.0389
19855SOL     OW61005   5.602   2.663   6.867  0.0991 -0.1216 -0.6655
19855SOL    HW161006   5.602   2.708   6.783  0.2700  1.0951 -0.0507
19855SOL    HW261007   5.599   2.734   6.932  2.3921 -0.9175  0.4100
19856SOL     OW61008   7.134   1.982   5.922 -0.1082  0.5627  0.4058
19856SOL    HW161009   7.074   2.033   5.867  1.7183  1.5179 -0.7989
19856SOL    HW261010   7.101   1.993   6.011 -1.0054  2.0736 -0.0874
19857SOL     OW61011   6.395   0.835   5.439  0.0696 -0.0334  0.0432
19857SOL    HW161012   6.417   0.828   5.346 -1.0039  0.7222 -0.2868
19857SOL    HW261013   6.474   0.872   5.480  0.1199  0.8064 -0.7825
19858SOL     OW61014   6.826   3.786   7.082 -0.2714 -0.4449  0.2702
19858SOL    HW161015   6.743   3.739   7.094 -0.4543 -1.1200 -2.8249
19858SOL    HW261016   6.889   3.737   7.135 -1.1773 -2.0415 -0.0597
19859SOL     OW61017   5.374   4.013   6.174  0.2008  0.3118  0.1481
19859SOL    HW161018   5.366   3.919   6.193 -0.5643  0.7623  2.4262
19859SOL    HW261019   5.287   4.038   6.144 -0.5135  0.7918  2.4152
19860SOL     OW61020   6.662   1.289   6.278  0.6289  0.4567 -0.3049
19860SOL    HW161021   6.599   1.240   6.225  0.4851  0.1823  0.1083
19860SOL    HW261022   6.741   1.292   6.225  0.2576  0.8304 -0.8405
19861SOL     OW61023   6.678   3.392   7.897 -0.2863 -0.6043 -0.1464
19861SOL    HW161024   6.737   3.370   7.969  0.2369 -0.2274 -0.4555
19861SOL    HW261025   6.590   3.374   7.932 -0.0164 -0.7896  0.4503
19862SOL     OW61026   6.788   1.566   5.613 -0.1120  0.1618 -0.4721
19862SOL    HW161027   6.839   1.617   5.676 -0.3034 -0.5850  0.3030
19862SOL    HW261028   6.845   1.559   5.536  0.7230 -0.1784  0.1672
19863SOL     OW61029   6.284   1.870   6.133 -0.3082  0.0921  0.2530
19863SOL    HW161030   6.206   1.923   6.114 -0.0628  0.7994  1.2096
19863SOL    HW261031   6.341   1.884   6.057 -0.7113  0.2986 -0.0189
19864SOL     OW61032   6.902   3.619   7.405 -0.1491  0.3718  0.5179
19864SOL    HW161033   6.812   3.649   7.393  0.6586  2.2727 -1.4017
19864SOL    HW261034   6.942   3.685   7.461  0.4375  0.3484  0.1365
19865SOL     OW61035   6.832   4.325   5.525 -0.0642  0.0051  0.2733
19865SOL    HW161036   6.746   4.312   5.486  0.4749  0.3287 -1.0772
19865SOL    HW261037   6.857   4.238   5.556 -0.1561 -0.4614 -0.8995
19866SOL     OW61038   6.328   0.339   6.285 -0.0775  0.6299  0.5184
19866SOL    HW161039   6.242   0.379   6.300 -1.4544 -2.0529  0.3807
19866SOL    HW261040   6.323   0.254   6.329  1.7293 -0.4851 -1.2747
19867SOL     OW61041   1.705   2.948   5.311 -0.1934 -0.1683  0.5625
19867SOL    HW161042   1.750   2.877   5.355 -1.4985  0.8123  3.7312
19867SOL    HW261043   1.678   3.007   5.381  0.0487  3.0472 -1.8290
19868SOL     OW61044   6.063   4.807   5.139 -0.1528  0.0255 -0.3156
19868SOL    HW161045   6.120   4.810   5.062  0.3557 -0.2766  0.0414
19868SOL    HW261046   6.092   4.729   5.188 -1.6498 -0.8386 -0.7200
19869SOL     OW61047   5.541   2.769   6.622 -0.2587 -0.1237  0.1970
19869SOL    HW161048   5.573   2.709   6.554  0.9929  1.6830 -0.8767
19869SOL    HW261049   5.472   2.819   6.579 -3.1143 -2.3343  1.8046
19870SOL     OW61050   6.851   2.832   7.460  0.1806  0.0643  0.0658
19870SOL    HW161051   6.766   2.863   7.493  0.2752 -1.3133  1.7474
19870SOL    HW261052   6.887   2.908   7.415 -1.7803  0.7994 -0.3924
19871SOL     OW61053   7.188   5.354   6.815  0.0643  0.3112 -0.0874
19871SOL    HW161054   7.238   5.322   6.740  1.4148  1.6965  0.1909
19871SOL    HW261055   7.253   5.389   6.875 -1.1097  0.5513  1.0924
19872SOL     OW61056   6.935   1.327   4.270 -0.2067  0.3102  0.4000
19872SOL    HW161057   6.913   1.339   4.177 -3.1800 -0.4794  0.8824
19872SOL    HW261058   6.936   1.232   4.282  1.0773  0.3863  1.0388
19873SOL     OW61059   6.031   1.464   6.964 -0.1671  0.3587 -0.3043
19873SOL    HW161060   6.045   1.375   6.932 -0.3148  0.1742  0.1282
19873SOL    HW261061   6.089   1.519   6.911  2.0340 -0.3352  1.2266
19874SOL     OW61062   6.003   3.263   6.160  0.3323 -0.1771  0.5397
19874SOL    HW161063   5.926   3.317   6.180 -0.3499 -0.9925  0.1584
19874SOL    HW261064   6.052   3.260   6.242  0.1243  0.6095  0.7049
19875SOL     OW61065   5.332   2.315   6.076  0.1533 -0.1916 -0.2938
19875SOL    HW161066   5.362   2.294   5.987 -1.2705 -2.5266 -0.3166
19875SOL    HW261067   5.238   2.335   6.065 -0.0860 -0.7363  0.7083
19876SOL     OW61068   6.078   2.532   7.821 -0.0647 -0.3428 -0.0507
19876SOL    HW161069   6.167   2.566   7.820 -0.2973  0.6306  2.7397
19876SOL    HW261070   6.089   2.438   7.836  0.5126 -0.1643  0.7132
19877SOL     OW61071   7.351   1.861   5.638 -0.4011  0.0220 -0.1121
19877SOL    HW161072   7.374   1.852   5.546 -2.2265  1.6616 -0.8028
19877SOL    HW261073   7.361   1.955   5.656 -0.9761 -0.1244  1.0868
19878SOL     OW61074   6.886   2.182   6.978  0.3217 -0.0292  0.5290
19878SOL    HW161075   6.915   2.143   7.060  1.6832 -0.9574 -0.3626
19878SOL    HW261076   6.885   2.276   6.996  1.5810 -0.1446  1.3157
19879SOL     OW61077   6.328   0.152   8.151 -0.0925  0.1711 -0.0711
19879SOL    HW161078   6.306   0.186   8.065  0.5345 -0.6996 -0.5896
19879SOL    HW261079   6.344   0.230   8.205  2.0593  0.7253 -1.3999
19880SOL     OW61080   6.308   2.285   4.223 -0.2673  0.8889 -0.2393
19880SOL    HW161081   6.318   2.373   4.187  2.6901  0.7818  0.1177
19880SOL    HW261082   6.339   2.292   4.313 -1.3023 -0.2528  0.2411
19881SOL     OW61083   7.097   2.767   7.002 -0.0867 -0.3114  0.1140
19881SOL    HW161084   7.154   2.777   6.926  0.9655  1.4245  1.0687
19881SOL    HW261085   7.096   2.673   7.019 -0.4013 -0.7481 -2.0470
19882SOL     OW61086   4.789   1.687   5.386  0.2633 -0.2925  0.2150
19882SOL    HW161087   4.819   1.777   5.373  2.9753 -1.1415  0.0253
19882SOL    HW261088   4.732   1.670   5.310  0.3244  1.0011 -0.1437
19883SOL     OW61089   6.618   1.636   4.575 -0.0803  0.2410  0.5938
19883SOL    HW161090   6.668   1.716   4.590  0.5590  0.2350 -1.2648
19883SOL    HW261091   6.680   1.576   4.534 -1.4015  0.0182 -1.1865
19884SOL     OW61092   6.373   2.280   6.459  0.3032 -0.0789  0.3277
19884SOL    HW161093   6.342   2.270   6.369 -0.0404  0.1771  0.4121
19884SOL    HW261094   6.432   2.356   6.456 -2.0732  1.9503  0.8497
19885SOL     OW61095   6.782   4.328   5.163 -0.1338  0.1728  0.2181
19885SOL    HW161096   6.801   4.235   5.149  2.2490  0.8005 -1.2437
19885SOL    HW261097   6.687   4.334   5.153 -0.4085 -2.1428  0.7396
19886SOL     OW61098   7.397   3.485   5.691 -0.2115  0.2181  0.2543
19886SOL    HW161099   7.307   3.473   5.662 -0.3121  1.1339  0.1734
19886SOL    HW261100   7.423   3.398   5.722 -1.1390 -0.0454  0.3413
19887SOL     OW61101   6.345   2.900   6.487 -0.1017  0.1266  0.4605
19887SOL    HW161102   6.285   2.832   6.517  1.8738 -1.8533  0.2082
19887SOL    HW261103   6.378   2.941   6.567 -1.6292  1.1377  0.6015
19888SOL     OW61104   7.889   2.024   5.719 -0.0546 -0.4873 -0.2203
19888SOL    HW161105   7.875   2.119   5.725 -1.1196 -0.6860  0.6359
19888SOL    HW261106   7.894   1.995   5.809  0.6768 -1.2048 -0.4840
19889SOL     OW61107   4.708   1.573   7.439 -0.1419 -0.1363 -0.6956
19889SOL    HW161108   4.755   1.650   7.408  0.4203  0.8071  2.2177
19889SOL    HW261109   4.616   1.596   7.432 -0.0989 -0.3413 -2.4200
19890SOL     OW61110   6.313   0.814   7.260  0.1686  0.3051  0.2423
19890SOL    HW161111   6.279   0.852   7.340 -1.1267  1.4373 -0.8011
19890SOL    HW261112   6.247   0.750   7.233  1.9210 -2.2681  1.5232
19891SOL     OW61113   6.552   1.981   5.207  0.1669 -0.5203 -0.1543
19891SOL    HW161114   6.461   2.007   5.190  0.4661  0.2502 -0.6296
19891SOL    HW261115   6.554   1.887   5.187 -0.2692 -0.3070 -1.2631
19892SOL     OW61116   4.155   0.210   5.650  0.1470  0.4875  0.6361
19892SOL    HW161117   4.138   0.139   5.588 -1.2265  0.8973  0.5104
19892SOL    HW261118   4.141   0.290   5.600 -1.2109  0.8273  1.4845
19893SOL     OW61119   6.944   2.784   4.482 -0.0348 -0.0038  0.1803
19893SOL    HW161120   6.888   2.835   4.423  0.7365  1.9109  1.0409
19893SOL    HW261121   6.882   2.732   4.534 -0.8315 -0.1149 -0.8513
19894SOL     OW61122   0.666   0.973   8.064 -0.3691 -0.1132 -0.0313
19894SOL    HW161123   0.631   1.062   8.051  0.3175  0.5140  2.0698
19894SOL    HW261124   0.721   0.958   7.988  0.7472  1.9231  0.2917
19895SOL     OW61125   7.479   1.910   5.016  0.1190 -0.0558 -0.0437
19895SOL    HW161126   7.460   2.002   5.035  0.4130  0.0826 -0.3954
19895SOL    HW261127   7.558   1.913   4.962 -0.9110 -0.4066 -1.6496
19896SOL     OW61128   6.504   4.591   5.321 -0.3185 -0.3872 -0.5083
19896SOL    HW161129   6.465   4.559   5.402  2.3229 -2.3442  0.1270
19896SOL    HW261130   6.503   4.516   5.262  0.1992  0.2469 -1.3480
19897SOL     OW61131   6.049   1.656   7.579  0.6315  0.2789  0.0132
19897SOL    HW161132   6.049   1.631   7.486  2.0379  1.0287 -0.2169
19897SOL    HW261133   6.011   1.744   7.580  2.0577  0.9259 -0.0836
19898SOL     OW61134   5.639   1.659   6.148 -0.1553  0.6108 -0.3273
19898SOL    HW161135   5.607   1.692   6.232 -2.1888  1.3518 -1.3039
19898SOL    HW261136   5.732   1.682   6.147 -0.2046  1.0587  1.4794
19899SOL     OW61137   4.574   2.142   5.242  0.1315  0.3938 -0.1270
19899SOL    HW161138   4.535   2.105   5.162 -0.3969  1.0964 -0.2049
19899SOL    HW261139   4.584   2.235   5.222 -2.7253  1.1906  1.6231
19900SOL     OW61140   7.303   3.113   7.973 -0.0625 -0.6458 -0.1185
19900SOL    HW161141   7.258   3.037   8.010 -0.6475 -0.0455  0.4227
19900SOL    HW261142   7.237   3.182   7.973  1.0394  0.4656  1.3412
19901SOL     OW61143   5.266   2.029   7.354  0.6113  0.0993 -0.0636
19901SOL    HW161144   5.223   1.950   7.324  0.7241  0.1751 -0.4249
19901SOL    HW261145   5.204   2.070   7.414  1.3586 -1.3416  1.8021
19902SOL     OW61146   6.307   2.858   7.521  0.1401  0.0083 -0.2404
19902SOL    HW161147   6.350   2.793   7.466 -0.6140 -1.7501  1.1626
19902SOL    HW261148   6.378   2.915   7.550  1.0239 -0.9093 -0.5307
19903SOL     OW61149   0.463   3.462   6.446  0.0139  0.2109 -0.4401
19903SOL    HW161150   0.507   3.378   6.431  0.3243 -0.0831  1.7759
19903SOL    HW261151   0.526   3.528   6.415  1.1724 -0.2893  0.7400
19904SOL     OW61152   7.048   1.868   7.809 -0.3911 -0.9531 -0.3721
19904SOL    HW161153   7.034   1.775   7.793  0.7275 -1.0864 -0.7026
19904SOL    HW261154   7.075   1.903   7.723  0.3759 -0.5817  0.0065
19905SOL     OW61155   6.206   1.158   5.881 -0.5152 -0.5551 -0.3238
19905SOL    HW161156   6.251   1.205   5.811 -0.2141 -0.2875  0.0499
19905SOL    HW261157   6.150   1.224   5.922  0.2952 -0.3861  0.5367
19906SOL     OW61158   5.595   2.274   7.770  0.0304  0.3161  0.5632
19906SOL    HW161159   5.612   2.351   7.825 -1.9587  0.7907  0.5892
19906SOL    HW261160   5.634   2.201   7.819  1.1096  1.1507  1.0008
19907SOL     OW61161   0.716   2.174   6.118  0.0582  0.4683  0.1023
19907SOL    HW161162   0.768   2.255   6.128  1.8935 -0.7825  1.4418
19907SOL    HW261163   0.688   2.175   6.027  1.0903  2.0236 -0.2515
19908SOL     OW61164   5.111   2.974   7.474 -0.3860  0.3197  0.3627
19908SOL    HW161165   5.035   3.032   7.464  0.0888  0.5733 -3.1075
19908SOL    HW261166   5.137   2.984   7.566 -2.3527  2.9972  0.7504
19909SOL     OW61167   5.237   2.959   7.241  0.7966  0.2005 -0.1136
19909SOL    HW161168   5.194   2.952   7.326  0.4732 -1.1225 -0.3637
19909SOL    HW261169   5.165   2.965   7.178  1.0210  0.5094 -0.3435
19910SOL     OW61170   5.266   3.664   7.013 -0.4199  0.0374 -0.2257
19910SOL    HW161171   5.220   3.743   6.986 -0.2847 -0.2244 -1.2522
19910SOL    HW261172   5.235   3.647   7.102  0.5386  1.9972  0.5340
19911SOL     OW61173   5.597   3.808   6.371 -0.6035 -0.1814  0.1186
19911SOL    HW161174   5.566   3.896   6.351 -0.8238 -0.3731 -0.4002
19911SOL    HW261175   5.602   3.765   6.286  1.8138  0.0712  0.0590
19912SOL     OW61176   7.203   2.389   6.469  0.6196 -0.5664 -0.4230
19912SOL    HW161177   7.214   2.368   6.562  0.1719 -1.6691 -0.5983
19912SOL    HW261178   7.285   2.432   6.444  0.8993 -0.6136  0.3896
19913SOL     OW61179   7.484   2.167   5.110 -0.2010  0.4492  0.1306
19913SOL    HW161180   7.436   2.248   5.124 -1.3033 -0.2856  0.7939
19913SOL    HW261181   7.576   2.190   5.125 -0.4637  1.6146  0.0471
19914SOL     OW61182   6.690   3.946   6.109 -0.0242  0.5314 -0.0147
19914SOL    HW161183   6.779   3.940   6.074 -0.1137  3.9124 -1.1986
19914SOL    HW261184   6.633   3.930   6.034 -0.3016  2.0945 -0.1722
19915SOL     OW61185   5.568   0.724   6.399 -0.2356  0.2662  0.7347
19915SOL    HW161186   5.539   0.634   6.414 -3.4067  1.0291 -0.2365
19915SOL    HW261187   5.591   0.756   6.486  0.9879 -1.4230  1.1011
19916SOL     OW61188   5.483   3.481   7.153  0.2036 -0.0783  0.2678
19916SOL    HW161189   5.426   3.505   7.226  1.0975 -1.4379  1.4793
19916SOL    HW261190   5.462   3.389   7.136  0.7773 -0.0785 -0.4795
19917SOL     OW61191   7.621   2.968   7.529 -0.2208  0.2844  0.1363
19917SOL    HW161192   7.606   2.993   7.438  0.6065 -1.1611 -0.4348
19917SOL    HW261193   7.586   2.879   7.536 -1.4796  0.8378  1.6100
19918SOL     OW61194   6.797   1.401   9.158  0.1871 -0.0793 -0.3883
19918SOL    HW161195   6.804   1.452   9.078  1.9825 -0.6462 -0.6490
19918SOL    HW261196   6.730   1.336   9.139  0.7177 -0.3267 -1.5125
19919SOL     OW61197   7.252   1.909   7.994  0.3430 -0.0317 -0.5330
19919SOL    HW161198   7.271   1.993   7.952 -2.5294  2.0386  1.9111
19919SOL    HW261199   7.172   1.878   7.951  0.4313 -0.6854 -0.2473
19920SOL     OW61200   6.958   0.960   9.007 -0.9580 -0.3172 -0.1633
19920SOL    HW161201   7.024   0.916   9.060 -1.1511 -0.5862 -0.1460
19920SOL    HW261202   6.987   1.052   9.005 -1.3496 -0.1475  1.0579
19921SOL     OW61203   5.691   2.436   7.967  0.2319 -0.7343  0.1551
19921SOL    HW161204   5.771   2.411   8.014 -0.2272 -0.0318  1.3511
19921SOL    HW261205   5.714   2.518   7.924  0.3828 -0.9233 -0.1272
19922SOL     OW61206   6.475   2.702   7.366  0.6867  0.1030  0.0882
19922SOL    HW161207   6.532   2.740   7.299 -0.6721 -0.1802 -1.2999
19922SOL    HW261208   6.514   2.617   7.386  1.6407  0.6076  0.3856
19923SOL     OW61209   7.007   2.544   6.208 -0.1092 -0.1081 -0.4863
19923SOL    HW161210   7.100   2.566   6.197 -0.2737  0.5783 -0.5353
19923SOL    HW261211   6.960   2.612   6.161 -0.7255  1.0912  1.7072
19924SOL     OW61212   3.084   7.013   8.464  0.5553  0.6588 -0.1918
19924SOL    HW161213   3.141   6.970   8.400  0.2092 -0.1092  0.0120
19924SOL    HW261214   3.071   7.101   8.428  1.7217  0.7969 -0.3326
19925SOL     OW61215   7.052   3.238   8.831 -0.0381  0.0842 -0.2595
19925SOL    HW161216   7.069   3.163   8.888  1.2345  0.4623 -0.1106
19925SOL    HW261217   7.112   3.306   8.862  0.3539  0.4590 -1.7491
19926SOL     OW61218   5.293   2.754   6.341  0.0010 -0.1999 -1.1290
19926SOL    HW161219   5.316   2.818   6.408  0.1621 -1.3245 -0.0729
19926SOL    HW261220   5.280   2.806   6.261 -0.8322  1.2526 -0.0985
19927SOL     OW61221   6.592   2.269   8.595  0.2422 -0.1252  0.5685
19927SOL    HW161222   6.649   2.290   8.521  0.3628 -2.0871  0.0343
19927SOL    HW261223   6.608   2.176   8.611 -1.6361 -0.3385  1.4471
19928SOL     OW61224   5.752   1.534   5.831  0.1724 -0.0163 -0.3341
19928SOL    HW161225   5.704   1.529   5.913  0.5021 -2.2166 -0.2273
19928SOL    HW261226   5.827   1.590   5.851  0.2802 -0.5705  0.8764
19929SOL     OW61227   0.224   2.739   7.414  0.0316 -0.0929 -0.1065
19929SOL    HW161228   0.282   2.670   7.383 -0.9174 -1.0873  0.2352
19929SOL    HW261229   0.175   2.766   7.336 -0.2061 -0.4271 -0.0742
19930SOL     OW61230   7.435   1.951   5.358 -0.2475 -0.2559  0.2174
19930SOL    HW161231   7.516   2.000   5.374 -0.6719  0.1540  1.1753
19930SOL    HW261232   7.465   1.863   5.335  0.5239  0.4538 -1.6664
19931SOL     OW61233   6.172   2.900   6.743  0.4136  0.0859 -0.4130
19931SOL    HW161234   6.091   2.900   6.693  0.8237  1.8434 -1.1666
19931SOL    HW261235   6.181   2.991   6.773  1.6125 -0.3018  0.4469
19932SOL     OW61236   0.361   3.373   8.713 -0.0336  0.4044  0.2312
19932SOL    HW161237   0.280   3.354   8.666  1.1328 -1.1772 -1.2448
19932SOL    HW261238   0.415   3.420   8.650  0.8049  0.0384  0.6600
19933SOL     OW61239   5.587   2.876   7.782  0.0230 -0.0094  0.3442
19933SOL    HW161240   5.545   2.957   7.812 -0.3813 -0.5724  1.3131
19933SOL    HW261241   5.678   2.884   7.810 -0.4264 -0.6954  2.1253
19934SOL     OW61242   5.668   2.617   4.178  0.3715  0.3143  0.0982
19934SOL    HW161243   5.573   2.612   4.166 -0.0597  1.0450  2.6071
19934SOL    HW261244   5.703   2.549   4.120 -1.6004  0.5268 -1.4471
19935SOL     OW61245   6.820   0.781   5.515 -0.2996  0.3608  0.0147
19935SOL    HW161246   6.769   0.704   5.489 -0.2331  0.1916  0.3884
19935SOL    HW261247   6.755   0.852   5.518 -0.2341  0.4801 -1.0376
19936SOL     OW61248   6.860   2.587   6.440  0.4433 -0.1793  0.0767
19936SOL    HW161249   6.922   2.583   6.367 -0.5023  1.5360 -0.8904
19936SOL    HW261250   6.914   2.612   6.515  1.2515 -0.8684 -0.2544
19937SOL     OW61251   3.909   2.960   6.039  0.2842  0.3880  0.6362
19937SOL    HW161252   3.872   2.900   5.973  0.7594 -0.3915  1.0688
19937SOL    HW261253   3.832   3.005   6.075 -0.7063 -2.9278  3.2615
19938SOL     OW61254   4.649   3.260   6.421 -0.0930 -0.2251  0.4070
19938SOL    HW161255   4.658   3.332   6.358 -0.3473 -1.0374 -0.5802
19938SOL    HW261256   4.712   3.194   6.391  0.3893 -0.2739  1.5103
19939SOL     OW61257   6.241   2.445   6.702 -0.1837  0.2791  0.2037
19939SOL    HW161258   6.336   2.453   6.707 -0.1422 -0.6576  1.1256
19939SOL    HW261259   6.210   2.457   6.792 -1.0027  1.2112 -0.1796
19940SOL     OW61260   7.744   2.289   5.730 -0.0505 -0.1415 -0.4878
19940SOL    HW161261   7.692   2.275   5.651 -1.3541 -0.9255  0.4685
19940SOL    HW261262   7.772   2.380   5.725  0.6919 -0.4223 -2.2989
19941SOL     OW61263   6.065   3.596   6.827  0.0062 -0.4081 -0.4738
19941SOL    HW161264   6.000   3.602   6.897 -0.4604 -1.6100 -0.7871
19941SOL    HW261265   6.147   3.626   6.868 -0.2702 -1.0380  0.5830
19942SOL     OW61266   7.214   3.208   6.381  0.0864 -0.4344 -0.0125
19942SOL    HW161267   7.142   3.195   6.443  0.0981  0.9780  0.3124
19942SOL    HW261268   7.289   3.230   6.436  0.8381 -2.0260 -0.3370
19943SOL     OW61269   6.842   3.763   5.296 -0.0283 -0.2364 -0.2081
19943SOL    HW161270   6.881   3.713   5.224 -1.5388 -2.2737  0.3068
19943SOL    HW261271   6.860   3.710   5.374  0.2865  1.1944  0.7197
19944SOL     OW61272   4.923   1.703   7.285  0.1050 -0.4441  0.2816
19944SOL    HW161273   4.952   1.626   7.237  2.4578  0.0437  0.7736
19944SOL    HW261274   4.984   1.772   7.259 -0.3808  0.5835  1.7119
19945SOL     OW61275   4.693   1.810   5.904 -0.4725  0.0631  0.3287
19945SOL    HW161276   4.605   1.774   5.912 -0.8348  0.3018 -2.0298
19945SOL    HW261277   4.724   1.780   5.819  0.9097  1.6750  0.2107
19946SOL     OW61278   4.167   2.711   8.496 -0.0426  0.2886 -0.2620
19946SOL    HW161279   4.189   2.690   8.587 -0.7376 -1.7912 -0.5156
19946SOL    HW261280   4.244   2.756   8.463  1.0075 -0.6273  0.8327
19947SOL     OW61281   6.524   2.990   9.368 -0.0252  0.0794  0.2390
19947SOL    HW161282   6.533   3.012   9.275 -2.1005 -0.4015 -0.1251
19947SOL    HW261283   6.482   2.904   9.368 -0.1797  0.1377  1.6386
19948SOL     OW61284   5.920   2.357   5.625 -0.0340 -0.5555 -0.6986
19948SOL    HW161285   5.826   2.345   5.618 -0.1951 -0.5383  1.1044
19948SOL    HW261286   5.933   2.400   5.710  1.5477  0.0308 -1.1970
19949SOL     OW61287   6.018   2.231   7.851 -0.1693  0.2301 -0.6329
19949SOL    HW161288   6.078   2.162   7.822 -1.3358 -1.9289  1.6993
19949SOL    HW261289   5.980   2.265   7.770  1.8666 -0.5179 -1.9732
19950SOL     OW61290   6.154   4.790   8.434 -0.0928 -0.0979 -0.3106
19950SOL    HW161291   6.239   4.772   8.395  0.3692 -1.2938  1.1637
19950SOL    HW261292   6.093   4.789   8.361  1.2260  1.5253 -1.5033
19951SOL     OW61293   5.716   2.294   7.242  0.5669  0.1385 -0.2643
19951SOL    HW161294   5.711   2.324   7.151  0.6207 -0.3290 -0.4224
19951SOL    HW261295   5.668   2.211   7.243  1.3343 -0.3149 -0.0680
19952SOL     OW61296   6.186   2.720   7.265 -0.2950 -0.3289  0.3704
19952SOL    HW161297   6.273   2.680   7.264 -1.5142 -3.3749 -1.7057
19952SOL    HW261298   6.181   2.769   7.183 -0.9605 -1.3886 -0.2500
19953SOL     OW61299   6.782   1.682   6.382  0.2391 -0.1292  0.4172
19953SOL    HW161300   6.823   1.761   6.417 -0.8024  0.6713 -0.1349
19953SOL    HW261301   6.730   1.712   6.308 -1.4407 -1.0964  1.1561
19954SOL     OW61302   6.445   2.572   6.968 -0.5404 -0.3199  0.1582
19954SOL    HW161303   6.469   2.662   6.991  0.9650 -0.2424 -1.5636
19954SOL    HW261304   6.455   2.567   6.873 -1.2849 -2.1339  0.1271
19955SOL     OW61305   5.877   3.987   6.078  0.0662  0.1765  0.2058
19955SOL    HW161306   5.805   4.049   6.090  0.1798 -0.0129  2.0685
19955SOL    HW261307   5.834   3.901   6.076  0.1040  0.1614 -0.4433
19956SOL     OW61308   0.337   2.986   7.464  0.2144  0.2183 -0.0549
19956SOL    HW161309   0.337   3.050   7.394 -2.3191  0.8303  0.3752
19956SOL    HW261310   0.333   2.901   7.419 -1.8683  0.6127 -0.7549
19957SOL     OW61311   6.910   3.935   8.045  0.0726  0.0096 -0.6485
19957SOL    HW161312   6.866   3.909   7.964  1.9984  1.3905 -2.2422
19957SOL    HW261313   6.939   4.025   8.028  1.2088  0.0522  1.2874
19958SOL     OW61314   0.296   2.394   6.864  0.3043 -0.4132  0.3442
19958SOL    HW161315   0.275   2.311   6.906  0.2933 -0.7325 -0.2716
19958SOL    HW261316   0.276   2.379   6.771  3.3824 -0.8241 -0.3531
19959SOL     OW61317   6.700   1.753   6.795  0.5089 -0.3099  0.0808
19959SOL    HW161318   6.716   1.840   6.832 -0.5737 -0.0205 -0.1039
19959SOL    HW261319   6.668   1.770   6.706  0.3147 -0.9006  0.0343
19960SOL     OW61320   5.107   4.393   7.472 -0.2951 -0.2271 -0.2560
19960SOL    HW161321   5.064   4.328   7.527 -0.6283  0.3515  0.1713
19960SOL    HW261322   5.177   4.344   7.428 -1.5345 -1.2353 -1.1721
19961SOL     OW61323   5.344   1.916   5.800  0.1377 -0.0516  0.4856
19961SOL    HW161324   5.260   1.939   5.841 -0.8234 -0.4164 -1.1901
19961SOL    HW261325   5.400   1.891   5.873 -1.2771 -0.0040  1.6334
19962SOL     OW61326   6.222   3.914   7.172 -0.0408  0.2312  0.3023
19962SOL    HW161327   6.300   3.893   7.224 -0.6351 -0.4675  0.9396
19962SOL    HW261328   6.163   3.839   7.186 -0.3403  0.1751 -1.1499
19963SOL     OW61329   6.557   4.747   6.218  0.0768  0.1277  0.4952
19963SOL    HW161330   6.610   4.738   6.139 -0.2280  0.0268  0.3002
19963SOL    HW261331   6.483   4.801   6.191 -0.0582  0.0451  0.6967
19964SOL     OW61332   5.673   2.277   5.729 -0.3939 -0.0775 -0.2955
19964SOL    HW161333   5.652   2.195   5.774  1.4101 -0.4788 -0.1091
19964SOL    HW261334   5.663   2.344   5.796  2.0571 -0.6478  0.7436
19965SOL     OW61335   6.891   3.770   6.445  0.1146  0.0246  0.0853
19965SOL    HW161336   6.854   3.690   6.482 -0.5877  0.8423  1.1787
19965SOL    HW261337   6.979   3.775   6.482 -0.0330  0.0364  0.4346
19966SOL     OW61338   6.729   3.917   6.617 -0.1903 -0.4694  0.1274
19966SOL    HW161339   6.787   3.851   6.579 -0.5880 -0.1212 -1.1595
19966SOL    HW261340   6.714   3.979   6.545 -2.1429 -0.5345  0.4336
19967SOL     OW61341   7.139   3.411   7.631 -0.4990  0.2450 -0.3562
19967SOL    HW161342   7.054   3.367   7.629 -0.8798  0.9738 -0.5189
19967SOL    HW261343   7.187   3.374   7.557  0.1641 -1.7665  0.9846
19968SOL     OW61344   6.949   0.766   6.189 -0.0982  0.8193 -0.0997
19968SOL    HW161345   6.906   0.849   6.208 -0.2759  0.9328 -0.9601
19968SOL    HW261346   6.900   0.701   6.239 -0.5129  1.1147 -0.1197
19969SOL     OW61347   6.225   1.903   7.477  0.1041 -0.2837 -0.2056
19969SOL    HW161348   6.249   1.818   7.441  0.1443 -0.6479  0.6383
19969SOL    HW261349   6.154   1.935   7.422  1.6849  0.2572 -2.0333
19970SOL     OW61350   6.459   1.084   6.178 -0.3882  0.0912  0.0287
19970SOL    HW161351   6.430   1.015   6.239  0.8321  0.5101  1.1139
19970SOL    HW261352   6.463   1.040   6.093  0.1739 -1.1409  0.6669
19971SOL     OW61353   5.469   3.012   6.856 -0.3426 -0.0818 -0.1107
19971SOL    HW161354   5.377   2.998   6.831  0.1075 -0.0359 -1.9361
19971SOL    HW261355   5.507   3.058   6.781  1.0387  0.4562  0.8834
19972SOL     OW61356   7.759   2.652   5.410  0.7505 -0.2693 -0.1663
19972SOL    HW161357   7.698   2.712   5.367  0.6656  0.9840  1.5937
19972SOL    HW261358   7.815   2.709   5.462  0.5326 -1.7080  1.7464
19973SOL     OW61359   5.874   2.704   7.140  0.3611  0.1549 -0.5112
19973SOL    HW161360   5.958   2.669   7.170 -0.4796 -1.6561 -0.0936
19973SOL    HW261361   5.811   2.674   7.206 -0.5417  2.0492 -0.4505
19974SOL     OW61362   7.973   3.770   7.911 -0.5553  0.4851 -0.1635
19974SOL    HW161363   7.937   3.762   7.822 -0.9597  1.7740 -0.1330
19974SOL    HW261364   8.067   3.756   7.900 -0.7929 -1.0546 -0.5223
19975SOL     OW61365   5.525   2.104   7.360 -0.0516 -0.7291 -0.2716
19975SOL    HW161366   5.583   2.055   7.302 -0.0812 -1.5151  0.3458
19975SOL    HW261367   5.439   2.064   7.349  0.0034 -1.0894  0.5257
19976SOL     OW61368   7.180   0.450   8.008  0.3022 -0.3553  0.5414
19976SOL    HW161369   7.101   0.501   8.027 -0.0371 -0.8801  0.5824
19976SOL    HW261370   7.197   0.466   7.915  0.0709 -0.3307  0.5015
19977SOL     OW61371   6.067   2.935   5.144 -0.4201 -0.2261  0.1629
19977SOL    HW161372   6.072   2.849   5.101 -1.4167 -2.3722  3.8218
19977SOL    HW261373   5.973   2.953   5.149 -0.4365 -0.5950  2.1573
19978SOL     OW61374   7.366   4.010   7.962 -0.1802  0.2508  0.1666
19978SOL    HW161375   7.441   3.967   8.003 -0.2311  0.0715  0.0734
19978SOL    HW261376   7.302   3.939   7.947 -0.0001  0.2349 -0.5935
19979SOL     OW61377   7.234   2.788   6.760  0.2349 -0.3781 -0.0881
19979SOL    HW161378   7.259   2.837   6.681  0.1251 -1.0809 -0.5784
19979SOL    HW261379   7.302   2.720   6.767  1.4955  0.9658  1.6774
19980SOL     OW61380   7.260   4.160   7.322 -0.2276 -0.4452 -0.3576
19980SOL    HW161381   7.212   4.241   7.337 -0.1897 -0.6473  1.0264
19980SOL    HW261382   7.307   4.174   7.240  0.1895  1.1461  0.1204
19981SOL     OW61383   6.260   1.789   7.921 -0.3636 -0.3470 -0.1197
19981SOL    HW161384   6.271   1.800   7.827  0.6969 -0.6273 -0.0437
19981SOL    HW261385   6.308   1.863   7.960 -0.0373 -0.7218  0.2079
19982SOL     OW61386   7.368   2.826   6.193 -0.3360  0.3366  0.1335
19982SOL    HW161387   7.345   2.788   6.109 -1.3239 -1.5579  1.2037
19982SOL    HW261388   7.319   2.909   6.196 -0.1406  0.5128 -1.2129
19983SOL     OW61389   6.145   3.664   6.566  0.0040 -0.5177  1.1228
19983SOL    HW161390   6.057   3.661   6.528 -0.0245 -0.4091  1.1790
19983SOL    HW261391   6.130   3.659   6.660 -0.0037  0.4697  1.1902
19984SOL     OW61392   5.633   3.039   4.329  0.1759 -0.3328 -0.4118
19984SOL    HW161393   5.585   3.084   4.259 -0.5604 -0.0055  0.2915
19984SOL    HW261394   5.572   2.973   4.362  0.3155 -0.1151  0.2925
19985SOL     OW61395   5.344   4.872   5.913  0.1180  0.2283  0.0992
19985SOL    HW161396   5.260   4.889   5.955  0.7250  2.3061  0.5596
19985SOL    HW261397   5.396   4.827   5.980 -0.5577 -0.9660 -0.1534
19986SOL     OW61398   6.325   1.335   8.736  0.4427 -0.0030  0.0219
19986SOL    HW161399   6.345   1.241   8.728  1.2412  0.0345  1.2895
19986SOL    HW261400   6.378   1.364   8.810 -0.9240  1.1304  0.5906
19987SOL     OW61401   7.665   2.471   7.357  0.2502 -0.0572  0.2698
19987SOL    HW161402   7.617   2.392   7.381  0.6805 -0.3222  0.2787
19987SOL    HW261403   7.746   2.466   7.407 -0.4830  1.2999  1.6611
19988SOL     OW61404   6.626   2.460   6.055 -0.0876  0.4901 -0.2327
19988SOL    HW161405   6.667   2.535   6.099  0.4302  1.2848 -1.9920
19988SOL    HW261406   6.697   2.399   6.039 -0.7484 -1.2489  2.6626
19989SOL     OW61407   5.437   3.640   5.790  0.0147  0.3552 -0.3489
19989SOL    HW161408   5.375   3.687   5.734 -0.4905 -0.2179 -0.2843
19989SOL    HW261409   5.521   3.682   5.774 -0.6107  2.1112  0.6360
19990SOL     OW61410   6.680   3.165   8.762  0.3222  0.6957  0.4921
19990SOL    HW161411   6.718   3.080   8.739 -1.4093 -0.2392  0.9260
19990SOL    HW261412   6.755   3.218   8.787  1.5247 -0.4644 -0.4985
19991SOL     OW61413   4.557   2.122   7.361 -0.2227 -0.1223  0.3501
19991SOL    HW161414   4.543   2.215   7.342  0.8029 -0.0432 -0.1286
19991SOL    HW261415   4.641   2.102   7.319  1.0246 -0.5500  2.8613
19992SOL     OW61416   5.290   1.698   5.630  1.0550  0.3094 -0.6237
19992SOL    HW161417   5.324   1.629   5.687 -0.9407  0.4145  0.7760
19992SOL    HW261418   5.305   1.779   5.679  2.5624  0.8618 -1.8695
19993SOL     OW61419   6.723   3.094   6.950 -0.1004 -0.3022  0.0844
19993SOL    HW161420   6.790   3.064   7.011  1.1555 -1.4854 -1.7866
19993SOL    HW261421   6.705   3.019   6.894 -0.5655  0.9614 -1.5533
19994SOL     OW61422   7.671   1.510   6.127  0.4843 -0.3537 -0.1354
19994SOL    HW161423   7.750   1.558   6.103 -0.3409  0.9357 -0.3646
19994SOL    HW261424   7.634   1.560   6.200 -0.3003 -0.7425 -0.2552
19995SOL     OW61425   6.450   5.269   4.445 -0.3407  0.1898  0.1211
19995SOL    HW161426   6.406   5.348   4.413 -0.1112  0.6241  0.8586
19995SOL    HW261427   6.511   5.246   4.375 -2.3482 -0.9801 -1.3725
19996SOL     OW61428   4.932   3.890   5.785  0.2199  0.2653  0.0639
19996SOL    HW161429   4.875   3.946   5.733  0.6642  0.5198 -0.1610
19996SOL    HW261430   4.887   3.807   5.790 -0.3348  0.5704  0.1913
19997SOL     OW61431   7.149   2.763   6.344 -0.2095  0.0226 -0.2858
19997SOL    HW161432   7.138   2.777   6.438  0.3327 -0.5912 -0.1284
19997SOL    HW261433   7.241   2.780   6.327  0.2667 -2.2921 -0.2567
19998SOL     OW61434   7.788   2.279   6.696 -0.4106 -0.4072 -0.3437
19998SOL    HW161435   7.860   2.276   6.634 -0.2434 -0.5089 -0.1464
19998SOL    HW261436   7.790   2.368   6.731  1.3801 -1.1841  1.7148
19999SOL     OW61437   7.629   1.952   6.099  0.0442 -0.6586 -0.5548
19999SOL    HW161438   7.570   1.980   6.169  1.2863  2.3022 -0.5441
19999SOL    HW261439   7.576   1.957   6.019  0.1564  1.9820 -0.5517
20000SOL     OW61440   5.066   3.944   6.846 -0.7559  0.1452 -0.1970
20000SOL    HW161441   4.991   3.885   6.858 -0.2072 -0.5123  0.0343
20000SOL    HW261442   5.116   3.907   6.774  0.2594 -0.3842  0.7465
20001SOL     OW61443   5.539   3.749   6.067  0.4109  0.4179 -0.5817
20001SOL    HW161444   5.453   3.715   6.090  0.5970  0.1641 -0.2601
20001SOL    HW261445   5.522   3.810   5.995 -0.1161  0.8417 -0.1083
20002SOL     OW61446   6.154   2.540   7.524  0.0418  0.0137  0.3664
20002SOL    HW161447   6.234   2.492   7.503  0.7088  0.5078  1.6572
20002SOL    HW261448   6.119   2.496   7.601 -0.7886 -0.0210 -0.0189
20003SOL     OW61449   7.952   2.481   6.260 -0.0064  0.1069  0.1834
20003SOL    HW161450   8.020   2.536   6.299  0.2847  0.7115 -1.0918
20003SOL    HW261451   7.931   2.525   6.177  0.4057 -1.7910 -1.0043
20004SOL     OW61452   4.962   1.093   6.242 -0.2418 -0.1256  0.3414
20004SOL    HW161453   4.940   1.183   6.220  0.7077  0.0048 -0.1132
20004SOL    HW261454   4.893   1.066   6.303 -1.2445  0.4899 -0.4755
20005SOL     OW61455   5.455   1.058   5.852 -0.4211 -0.4313 -0.2381
20005SOL    HW161456   5.503   1.119   5.796  0.3293 -0.1380  0.6894
20005SOL    HW261457   5.522   0.997   5.883 -0.8419 -0.6614  0.2270
20006SOL     OW61458   5.857   2.895   7.834  0.0356 -0.2996  0.9630
20006SOL    HW161459   5.885   2.966   7.892 -0.1225  1.1755 -0.6808
20006SOL    HW261460   5.935   2.873   7.783 -0.8422  1.6562 -1.4360
20007SOL     OW61461   7.704   4.550   5.689  0.3364 -0.2044  0.0852
20007SOL    HW161462   7.707   4.464   5.731 -3.2916  0.0685  1.2563
20007SOL    HW261463   7.645   4.538   5.614 -0.0738  1.2198  0.1522
20008SOL     OW61464   7.463   0.652   6.652  0.4424 -0.1062 -0.2986
20008SOL    HW161465   7.463   0.603   6.570 -0.0616 -0.5604 -0.0386
20008SOL    HW261466   7.413   0.731   6.634 -1.1795 -1.0034  0.0059
20009SOL     OW61467   5.477   0.982   7.697 -0.1744  0.0880 -0.3039
20009SOL    HW161468   5.501   0.920   7.627  0.7985  0.6423 -0.4851
20009SOL    HW261469   5.440   0.927   7.766  2.5513 -1.0135  0.4008
20010SOL     OW61470   6.449   1.772   6.596 -0.4124  0.4846  0.2546
20010SOL    HW161471   6.469   1.786   6.503 -2.2992 -0.0888 -0.2772
20010SOL    HW261472   6.422   1.680   6.601 -0.5510  0.5727  1.3336
20011SOL     OW61473   6.266   1.691   4.117 -0.0269 -0.1034 -0.5895
20011SOL    HW161474   6.270   1.703   4.212  1.0804  1.1539 -0.7646
20011SOL    HW261475   6.185   1.734   4.091  0.9101  1.8433 -0.4714
20012SOL     OW61476   6.759   1.329   5.390 -0.5598 -0.9218 -0.1627
20012SOL    HW161477   6.808   1.391   5.443 -1.3899  1.1963 -1.7429
20012SOL    HW261478   6.683   1.305   5.443 -0.5406 -0.1004  0.2402
20013SOL     OW61479   6.553   0.737   4.635 -0.3462 -0.1092  0.5237
20013SOL    HW161480   6.483   0.735   4.570 -0.1124  0.3414  0.2623
20013SOL    HW261481   6.630   0.767   4.587  0.9808 -3.9190 -0.1112
20014SOL     OW61482   0.372   1.236   6.919 -0.5535  0.2296 -0.1043
20014SOL    HW161483   0.378   1.265   6.828 -0.4879  0.1514 -0.1252
20014SOL    HW261484   0.377   1.317   6.970  0.8096  0.1809 -0.1166
20015SOL     OW61485   6.066   2.697   5.039 -0.3654 -0.0388 -0.4058
20015SOL    HW161486   5.991   2.644   5.067 -0.1572 -0.0421  0.1690
20015SOL    HW261487   6.072   2.682   4.945 -0.6201 -0.6405 -0.3330
20016SOL     OW61488   6.318   2.353   5.088  0.1609 -0.2026  0.1501
20016SOL    HW161489   6.326   2.260   5.110 -1.2328 -0.2991  0.3227
20016SOL    HW261490   6.270   2.354   5.006  1.1822  0.3387 -0.4564
20017SOL     OW61491   4.699   3.074  10.501 -0.0763  0.4031  0.1711
20017SOL    HW161492   4.696   3.022  10.582  0.7124 -1.2028 -0.7746
20017SOL    HW261493   4.608   3.077  10.472 -0.0923 -0.8505  0.0335
20018SOL     OW61494   5.621   2.800   8.056 -0.2587 -0.3491 -0.2947
20018SOL    HW161495   5.539   2.803   8.105 -0.4774 -1.1790 -0.5904
20018SOL    HW261496   5.595   2.801   7.964  0.1393  0.9085 -0.4167
20019SOL     OW61497   6.969   2.953   8.568 -0.2126 -0.1183 -0.1471
20019SOL    HW161498   6.893   2.907   8.604  0.7275 -1.3535  0.3281
20019SOL    HW261499   7.041   2.890   8.576  0.2950 -0.0488 -3.2394
20020SOL     OW61500   1.411   2.674   8.499 -0.0267 -0.1649  0.0913
20020SOL    HW161501   1.490   2.649   8.548 -0.7205 -0.0257  1.3280
20020SOL    HW261502   1.419   2.627   8.416  1.0708 -0.6144  0.4247
20021SOL     OW61503   6.972   3.778   9.801 -0.0686 -0.5494  0.5079
20021SOL    HW161504   7.061   3.744   9.797  0.1865  0.1755 -2.5111
20021SOL    HW261505   6.983   3.873   9.812 -0.5161 -0.5579  1.0757
20022SOL     OW61506   7.669   6.155   7.647  0.0023 -0.0774  0.2645
20022SOL    HW161507   7.683   6.212   7.572 -1.4850  0.8142  0.6222
20022SOL    HW261508   7.660   6.068   7.610 -0.9241  0.3779 -0.6364
20023SOL     OW61509   7.021   3.661   8.895  0.5335  0.5733  0.5283
20023SOL    HW161510   7.007   3.592   8.960 -0.7082  0.0074 -0.3001
20023SOL    HW261511   7.049   3.615   8.816  2.1411  1.2655  0.6600
20024SOL     OW61512   4.718   3.496  10.656 -0.4123 -0.1136  0.2204
20024SOL    HW161513   4.731   3.515  10.749 -0.1800  0.8029  0.0110
20024SOL    HW261514   4.667   3.569  10.623 -1.3454 -0.9211 -0.1752
20025SOL     OW61515   6.219   2.955   8.869  0.8299 -0.2506  0.1717
20025SOL    HW161516   6.165   2.889   8.826  0.5044  0.0536  0.1019
20025SOL    HW261517   6.308   2.922   8.863  0.6120 -0.9143  0.5730
20026SOL     OW61518   5.397   3.549   8.662  0.1920 -0.2931  0.1552
20026SOL    HW161519   5.316   3.499   8.673 -0.6148  0.2536 -2.5285
20026SOL    HW261520   5.438   3.510   8.585  0.2661  2.1559 -1.1277
20027SOL     OW61521   4.612   3.133   9.503 -0.4155 -0.4249  0.2638
20027SOL    HW161522   4.622   3.124   9.408 -1.9839 -1.7913  0.1815
20027SOL    HW261523   4.630   3.046   9.537  0.2173  0.0756  1.2516
20028SOL     OW61524   6.766   2.728   9.134  0.2542 -0.2679  0.3471
20028SOL    HW161525   6.832   2.762   9.194  1.3053 -2.5088  0.5509
20028SOL    HW261526   6.683   2.742   9.180  0.6214  1.7884  0.4695
20029SOL     OW61527   6.084   2.881   8.149  0.4199 -0.0045  1.0470
20029SOL    HW161528   6.049   2.955   8.100  0.0422 -0.5780  0.4297
20029SOL    HW261529   6.009   2.822   8.161  0.7387 -0.3439  1.4312
20030SOL     OW61530   6.233   2.269   7.609 -0.7557 -0.0033  0.2046
20030SOL    HW161531   6.271   2.323   7.540 -0.5500 -0.1133  0.2333
20030SOL    HW261532   6.152   2.235   7.571 -0.9667  0.4540  0.2417
20031SOL     OW61533   6.635   4.118   8.912 -0.8057  0.7760  0.0954
20031SOL    HW161534   6.569   4.059   8.877 -1.1727  2.5253 -2.4997
20031SOL    HW261535   6.606   4.139   9.000 -1.2985 -1.8786  0.6235
20032SOL     OW61536   7.351   5.345   9.264 -0.1891  0.0312  0.4095
20032SOL    HW161537   7.368   5.333   9.170 -0.4168 -0.1744  0.3925
20032SOL    HW261538   7.373   5.436   9.281  0.0818  0.0040  0.2043
20033SOL     OW61539   6.690   2.887   6.773  0.2920 -0.2557  0.0218
20033SOL    HW161540   6.743   2.904   6.695 -1.0085  1.6320 -0.5251
20033SOL    HW261541   6.648   2.803   6.756  1.7334 -0.9472 -0.2796
20034SOL     OW61542   5.705   3.345   7.742 -0.2906  0.5467 -0.2755
20034SOL    HW161543   5.687   3.386   7.826  1.1353  0.8571 -0.1117
20034SOL    HW261544   5.791   3.306   7.751 -0.3914  0.0092 -1.3819
20035SOL     OW61545   6.406   3.775   9.125 -0.2458 -0.0139  0.5347
20035SOL    HW161546   6.492   3.818   9.127  0.9966 -2.2597 -0.4664
20035SOL    HW261547   6.344   3.847   9.113  1.4309  1.7259  1.5634
20036SOL     OW61548   6.125   3.699   8.045  0.0991 -0.5455  0.0388
20036SOL    HW161549   6.123   3.680   7.951  2.6758  0.6802 -0.3488
20036SOL    HW261550   6.183   3.775   8.053  0.5509 -1.0682  2.7137
20037SOL     OW61551   5.515   1.325   8.590  0.3603 -0.4378  0.3310
20037SOL    HW161552   5.606   1.321   8.617  0.1697 -0.1416  1.0483
20037SOL    HW261553   5.510   1.401   8.532  0.2972  0.4285  1.4370
20038SOL     OW61554   3.760   0.899   7.303 -0.2736  0.1879  0.0131
20038SOL    HW161555   3.816   0.977   7.309 -2.0764  1.4237  2.3028
20038SOL    HW261556   3.699   0.918   7.232  1.3313 -0.6771 -1.7087
20039SOL     OW61557   6.564   4.303   8.706  0.4722 -0.1411 -0.4774
20039SOL    HW161558   6.493   4.345   8.756  0.2852 -0.2856 -0.6224
20039SOL    HW261559   6.589   4.228   8.759  1.5753  0.7694  0.3463
20040SOL     OW61560   4.604   1.922   7.558  0.3397 -0.5554  0.2527
20040SOL    HW161561   4.565   1.858   7.498 -4.1884  1.3595  0.7293
20040SOL    HW261562   4.585   2.007   7.518  0.9205  0.6408  2.3398
20041SOL     OW61563   7.299   4.086   9.724 -0.2403 -0.7629  0.3206
20041SOL    HW161564   7.372   4.147   9.737  0.3754 -0.8208 -2.4250
20041SOL    HW261565   7.237   4.133   9.669 -1.8541 -1.0981  1.7650
20042SOL     OW61566   6.497   4.224   8.447  0.1256 -0.2000  0.3526
20042SOL    HW161567   6.499   4.257   8.537 -1.2675 -1.4425  0.8817
20042SOL    HW261568   6.474   4.300   8.394 -1.7462  0.0289  1.3896
20043SOL     OW61569   6.142   3.703  10.868 -0.2003  0.3390  0.7485
20043SOL    HW161570   6.097   3.772  10.917 -2.0055  0.6003 -1.1285
20043SOL    HW261571   6.181   3.749  10.793  1.0807 -0.2796  1.0161
20044SOL     OW61572   4.875   3.327   8.534  0.4120  0.3558 -0.3551
20044SOL    HW161573   4.890   3.393   8.467 -0.1269  0.9913  0.1383
20044SOL    HW261574   4.782   3.334   8.555  0.4753 -0.1520  0.1280
20045SOL     OW61575   0.409   2.772   7.721  0.4679  0.1758  0.0834
20045SOL    HW161576   0.409   2.825   7.642  2.1103  0.9076  0.5327
20045SOL    HW261577   0.346   2.702   7.703  0.8513  0.2817 -1.8887
20046SOL     OW61578   5.244   0.501   7.702 -0.8324 -0.0153 -0.2206
20046SOL    HW161579   5.163   0.535   7.664 -1.3332  0.6959  1.4105
20046SOL    HW261580   5.222   0.481   7.793  1.2196  1.8245  0.7833
20047SOL     OW61581   5.199   3.524   7.806 -0.6976  0.2124 -0.4533
20047SOL    HW161582   5.156   3.456   7.753  0.1461 -0.3895 -0.3933
20047SOL    HW261583   5.128   3.569   7.850 -1.2199 -1.6628  0.7239
20048SOL     OW61584   6.298   2.259   9.287 -0.2424  0.2388  0.3713
20048SOL    HW161585   6.385   2.226   9.306 -0.1744  1.0519  1.5650
20048SOL    HW261586   6.312   2.343   9.244 -0.4353  0.5992  1.0064
20049SOL     OW61587   5.519   3.643   9.595 -0.1569  0.3489  0.3175
20049SOL    HW161588   5.466   3.682   9.525  0.1851 -0.1683 -0.2422
20049SOL    HW261589   5.488   3.552   9.601  0.3704  0.1619  0.2780
20050SOL     OW61590   5.801   3.098   9.040  0.5884  0.1273 -0.3533
20050SOL    HW161591   5.771   3.126   9.126 -0.0185 -0.9639 -0.1890
20050SOL    HW261592   5.754   3.154   8.978  0.7436  0.6606  0.0036
20051SOL     OW61593   7.372   3.588   8.059  0.6198  0.2379  0.4837
20051SOL    HW161594   7.414   3.505   8.082  1.9874  1.0901  1.2556
20051SOL    HW261595   7.321   3.569   7.981  1.3371 -1.1978  0.3312
20052SOL     OW61596   7.721   5.465   9.413 -0.5605  0.1748  0.0507
20052SOL    HW161597   7.763   5.502   9.335  1.4293  1.6672  1.7058
20052SOL    HW261598   7.761   5.378   9.423  0.4184  0.6414  0.2938
20053SOL     OW61599   4.916   3.473   8.301 -0.0419 -1.0273 -0.3571
20053SOL    HW161600   4.848   3.450   8.238 -0.0446 -0.8462 -0.4208
20053SOL    HW261601   4.927   3.568   8.291  0.2022 -1.0528 -0.3305
20054SOL     OW61602   6.419   3.273   7.975  0.4781  0.0671 -0.1189
20054SOL    HW161603   6.323   3.271   7.979  0.3646  2.2597 -0.6184
20054SOL    HW261604   6.444   3.183   7.950 -1.2664 -1.2043  2.2822
20055SOL     OW61605   7.324   2.594   7.309 -0.5068 -0.4321  0.3687
20055SOL    HW161606   7.266   2.569   7.381 -1.4088  0.8322  0.1131
20055SOL    HW261607   7.406   2.619   7.351 -0.1665 -2.0623  0.7463
20056SOL     OW61608   7.508   2.704   7.476  0.2799  0.2604  0.0120
20056SOL    HW161609   7.434   2.751   7.514  0.1794  0.0165  0.1182
20056SOL    HW261610   7.517   2.625   7.529  1.7283  1.1171  1.1095
20057SOL     OW61611   7.918   3.616   9.281 -0.0568 -0.2965 -0.0213
20057SOL    HW161612   7.835   3.630   9.236 -0.1243  0.7112  0.3993
20057SOL    HW261613   7.910   3.529   9.319 -0.9876 -0.1400  0.1637
20058SOL     OW61614   0.493   1.779   8.685 -0.7071  0.0202 -0.5999
20058SOL    HW161615   0.463   1.853   8.633 -1.7515  0.3556  0.4276
20058SOL    HW261616   0.472   1.702   8.632  0.1781  0.4393 -1.5778
20059SOL     OW61617   7.637   7.732   9.667 -0.0317 -0.0936  0.2264
20059SOL    HW161618   7.614   7.758   9.756  0.4442 -1.3605  0.7378
20059SOL    HW261619   7.577   7.661   9.645 -0.5879  0.6409 -0.7378
20060SOL     OW61620   5.527   0.698   8.589  0.5971 -0.2660  0.2607
20060SOL    HW161621   5.566   0.650   8.662  1.3023  0.4393  0.3629
20060SOL    HW261622   5.540   0.642   8.513  1.1523 -0.3693  0.4292
20061SOL     OW61623   6.015   1.296   6.030  0.1495  0.0064  0.0731
20061SOL    HW161624   6.048   1.345   6.106  0.0382 -0.5396  0.4735
20061SOL    HW261625   5.925   1.326   6.020  0.5067  0.9448 -0.5677
20062SOL     OW61626   5.771   4.146   6.605 -0.0811 -0.2162 -0.4551
20062SOL    HW161627   5.736   4.135   6.516 -0.3639 -2.2912 -0.1407
20062SOL    HW261628   5.710   4.096   6.660  1.0293 -0.3628  0.6662
20063SOL     OW61629   6.327   0.511   8.863  0.0137 -0.4579 -0.2181
20063SOL    HW161630   6.273   0.470   8.931 -1.8843 -0.0800 -1.4416
20063SOL    HW261631   6.296   0.473   8.781  0.7096  0.7473 -1.0630
20064SOL     OW61632   7.156   0.862   9.176 -0.0446  0.0393 -0.5740
20064SOL    HW161633   7.106   0.809   9.237  1.1768 -1.5477 -0.8846
20064SOL    HW261634   7.195   0.931   9.229 -0.9826  0.1564 -0.0206
20065SOL     OW61635   5.810   3.104   6.914 -0.1363 -0.0155  0.1185
20065SOL    HW161636   5.765   3.093   6.830 -3.6045  2.6242  1.4176
20065SOL    HW261637   5.809   3.198   6.930  0.9063 -0.3794  2.9137
20066SOL     OW61638   6.881   0.979   9.320  0.0354 -0.0750 -0.2143
20066SOL    HW161639   6.910   1.036   9.390 -0.0237  0.1090 -0.3374
20066SOL    HW261640   6.893   0.890   9.354  3.9740 -0.2175 -1.4523
20067SOL     OW61641   5.318   2.268   7.717 -0.1472 -0.1129 -0.4636
20067SOL    HW161642   5.405   2.287   7.752 -0.7814  0.8509  0.6518
20067SOL    HW261643   5.326   2.287   7.623  0.6792  0.5891 -0.2639
20068SOL     OW61644   7.528   2.501   7.665 -0.2194 -0.1186 -0.0512
20068SOL    HW161645   7.452   2.527   7.717  0.5826 -0.2133  1.2184
20068SOL    HW261646   7.511   2.410   7.642  0.2407 -0.6700  1.6602
20069SOL     OW61647   4.991   2.234   8.662 -0.4125 -0.2798 -0.0659
20069SOL    HW161648   5.082   2.264   8.660 -0.8596  1.1599 -0.6539
20069SOL    HW261649   4.946   2.293   8.601 -2.1816  0.5955  1.9579
20070SOL     OW61650   7.460   3.443   9.021 -0.1629  0.2090  0.2224
20070SOL    HW161651   7.416   3.446   8.936 -2.1592 -1.5181  1.1198
20070SOL    HW261652   7.390   3.455   9.085  0.7049 -2.0452  1.7030
20071SOL     OW61653   6.475   1.777   6.321  0.4760  0.3080  0.2207
20071SOL    HW161654   6.527   1.781   6.241 -0.1867  4.6998 -0.2388
20071SOL    HW261655   6.385   1.795   6.292 -0.0382  0.3581  1.7482
20072SOL     OW61656   7.263   2.224  10.182 -0.0246 -0.0262 -0.0028
20072SOL    HW161657   7.302   2.312  10.185 -1.7849  0.7809  0.5955
20072SOL    HW261658   7.333   2.167  10.214  1.5832  0.9559 -1.5626
20073SOL     OW61659   6.719   5.153   9.166 -0.1154 -0.7559 -0.2915
20073SOL    HW161660   6.738   5.062   9.189  0.0152 -0.2628  1.7356
20073SOL    HW261661   6.642   5.148   9.109  0.3013 -2.1626 -0.7577
20074SOL     OW61662   7.232   3.897   8.650  0.2310 -0.0383 -0.0353
20074SOL    HW161663   7.252   3.815   8.693  2.3896 -0.2854 -1.3728
20074SOL    HW261664   7.168   3.939   8.708 -0.4496 -2.3336  0.9940
20075SOL     OW61665   6.555   0.612   9.439  0.0010 -0.2653 -0.0084
20075SOL    HW161666   6.628   0.587   9.382 -0.3733  0.9511 -1.0664
20075SOL    HW261667   6.500   0.533   9.443  0.6225 -0.7270 -0.3823
20076SOL     OW61668   7.075   1.994   7.573 -0.2760  0.2906 -0.5627
20076SOL    HW161669   7.125   2.068   7.607  1.7160 -1.8542  1.6137
20076SOL    HW261670   7.120   1.969   7.492  0.1106  0.4325 -0.3915
20077SOL     OW61671   5.875   3.904   8.669  0.1589  0.3722  0.6747
20077SOL    HW161672   5.863   3.809   8.661 -1.0673  0.4111  1.7204
20077SOL    HW261673   5.961   3.920   8.631 -0.0957 -0.9908 -0.5888
20078SOL     OW61674   6.415   2.114   6.690  0.2712  0.0778  0.7928
20078SOL    HW161675   6.389   2.169   6.617 -0.7046  1.0772  1.8453
20078SOL    HW261676   6.495   2.071   6.661  0.3027  1.0051 -0.5739
20079SOL     OW61677   6.563   4.339   7.113  0.6980 -0.3096 -0.4369
20079SOL    HW161678   6.622   4.389   7.055  0.3530 -0.9362 -1.3429
20079SOL    HW261679   6.498   4.302   7.055 -0.4002  0.0572  0.5153
20080SOL     OW61680   7.406   3.087   7.670  0.0958  0.4015 -0.2063
20080SOL    HW161681   7.493   3.058   7.645  0.6584  2.0221 -0.2609
20080SOL    HW261682   7.404   3.079   7.765  0.1416 -0.0353 -0.2402
20081SOL     OW61683   6.089   1.994   7.735  0.1958  0.7843  0.5510
20081SOL    HW161684   6.137   1.965   7.658  0.3579  0.6008  0.7217
20081SOL    HW261685   6.003   1.953   7.726  0.9246 -1.0463  1.5888
20082SOL     OW61686   6.076   0.254   9.730  0.3814 -0.6171 -0.0169
20082SOL    HW161687   6.088   0.242   9.635 -0.1262 -0.4809 -0.1010
20082SOL    HW261688   6.160   0.229   9.768  1.3658  1.4089 -0.6731
20083SOL     OW61689   6.543   0.235   8.407  0.0672  0.0888  0.5836
20083SOL    HW161690   6.578   0.149   8.430  0.4995 -0.1043 -0.7157
20083SOL    HW261691   6.618   0.293   8.409  0.1993 -0.0192 -0.7050
20084SOL     OW61692   7.708   3.463   8.616 -0.1142  0.0839  0.8131
20084SOL    HW161693   7.657   3.544   8.622 -0.0864  0.2328 -0.6812
20084SOL    HW261694   7.644   3.395   8.596  0.0991  0.0493  0.2386
20085SOL     OW61695   6.545   5.250   6.973 -0.3646 -0.2554  0.4082
20085SOL    HW161696   6.603   5.326   6.982 -0.1229 -0.1995 -1.2924
20085SOL    HW261697   6.515   5.233   7.062  0.7494  0.9054  1.0536
20086SOL     OW61698   6.582   2.224   9.270 -0.8696  0.1601  0.2475
20086SOL    HW161699   6.624   2.152   9.318 -0.3113 -0.0688 -0.5639
20086SOL    HW261700   6.623   2.222   9.184 -0.8231  1.4862  0.2216
20087SOL     OW61701   7.657   3.749   7.072  0.0935  0.2903 -0.2791
20087SOL    HW161702   7.612   3.759   6.988  0.1055  2.1877 -0.0939
20087SOL    HW261703   7.621   3.818   7.127  0.3644 -0.6811  1.1760
20088SOL     OW61704   6.468   1.337   8.487  0.7007  0.6570 -0.2391
20088SOL    HW161705   6.544   1.393   8.503  0.0825  1.5263 -0.2958
20088SOL    HW261706   6.418   1.340   8.568 -0.7790  2.4860 -1.1339
20089SOL     OW61707   6.658   0.643   6.880  0.0107 -0.7424  0.5545
20089SOL    HW161708   6.605   0.657   6.801  1.9725  1.0057 -0.5535
20089SOL    HW261709   6.632   0.714   6.939  0.4086 -0.4627  0.3981
20090SOL     OW61710   7.702   4.535   6.871 -0.3057 -0.4211 -0.2216
20090SOL    HW161711   7.775   4.499   6.922 -0.3119 -1.4917 -0.9201
20090SOL    HW261712   7.723   4.512   6.780 -0.6262  0.8557 -0.6410
20091SOL     OW61713   5.891   1.880   7.588 -0.3158 -0.0094  0.8961
20091SOL    HW161714   5.855   1.968   7.578 -0.0081 -0.0800 -1.1014
20091SOL    HW261715   5.824   1.822   7.555  0.2470 -0.3841  0.3907
20092SOL     OW61716   6.462   2.650   6.271 -0.3115  0.4212  0.2398
20092SOL    HW161717   6.440   2.737   6.238 -0.5086  0.3729  0.2440
20092SOL    HW261718   6.379   2.615   6.304 -0.2121  0.2728  0.3309
20093SOL     OW61719   6.708   1.555   9.365  0.3953  0.3777 -0.3013
20093SOL    HW161720   6.756   1.518   9.291 -1.4780 -0.1667 -1.3216
20093SOL    HW261721   6.658   1.628   9.327  1.7609  2.1278  1.0848
20094SOL     OW61722   7.621   3.815   8.365  0.2764 -0.5232  0.0905
20094SOL    HW161723   7.643   3.802   8.273  1.1962 -0.7639  0.3396
20094SOL    HW261724   7.525   3.816   8.366  0.2402 -1.4533 -0.7415
20095SOL     OW61725   5.894   1.541   8.338  0.4308 -0.1021 -0.7238
20095SOL    HW161726   5.978   1.496   8.328  0.4161 -0.0073 -1.2662
20095SOL    HW261727   5.848   1.490   8.405  0.6797 -0.5060 -0.8572
20096SOL     OW61728   7.810   4.851   6.563 -0.4083  0.1756 -0.7471
20096SOL    HW161729   7.769   4.856   6.649 -1.1702  0.9322 -1.1358
20096SOL    HW261730   7.832   4.758   6.552 -0.3977  0.0587  0.2138
20097SOL     OW61731   6.582   1.336   7.798  0.1780 -0.0528  0.0186
20097SOL    HW161732   6.573   1.304   7.888  1.6515  0.5865  0.4208
20097SOL    HW261733   6.606   1.428   7.808  1.3860 -0.2381 -1.0142
20098SOL     OW61734   5.951   2.336   7.589  0.1328 -0.6983 -0.5185
20098SOL    HW161735   5.885   2.269   7.569 -0.9139  0.4825 -1.2290
20098SOL    HW261736   5.900   2.411   7.621  1.4141 -0.8959  2.2764
20099SOL     OW61737   7.481   3.199   8.351  0.1311 -0.0093 -0.3211
20099SOL    HW161738   7.398   3.197   8.398  0.4278 -1.4803  0.1945
20099SOL    HW261739   7.547   3.204   8.421  0.4990  0.9578 -0.7188
20100SOL     OW61740   7.149   4.330  10.386  0.1134 -0.1415  0.3499
20100SOL    HW161741   7.110   4.315  10.473 -1.2540  0.4433 -0.1344
20100SOL    HW261742   7.215   4.397  10.401 -0.0836 -0.0745  0.9442
20101SOL     OW61743   5.740   2.177   8.396 -0.3035 -0.2150 -0.3459
20101SOL    HW161744   5.688   2.150   8.471  1.6523  0.8900  1.5462
20101SOL    HW261745   5.733   2.273   8.395  1.6290 -0.0158  0.0218
20102SOL     OW61746   7.823   2.789   8.009  0.6308 -0.2493  0.1524
20102SOL    HW161747   7.860   2.832   7.931  0.7911  1.5283  1.1483
20102SOL    HW261748   7.896   2.740   8.046  1.1901  0.7310  0.3980
20103SOL     OW61749   7.910   1.360   8.995 -0.4056  0.6326  0.0862
20103SOL    HW161750   7.952   1.438   9.030 -2.5159  2.1754 -0.6020
20103SOL    HW261751   7.830   1.393   8.953 -1.8406 -2.0020  0.5474
20104SOL     OW61752   0.426   2.020   8.109  0.2441 -0.7138 -0.5273
20104SOL    HW161753   0.485   2.095   8.119  0.4429 -0.5769 -2.2736
20104SOL    HW261754   0.380   2.037   8.027 -1.0962 -1.5981  0.0092
20105SOL     OW61755   5.484   2.674   8.304  0.4997  0.5331  0.1319
20105SOL    HW161756   5.401   2.721   8.316  0.9012  1.5659 -0.9650
20105SOL    HW261757   5.478   2.636   8.217  1.9172  2.2475 -0.7766
20106SOL     OW61758   7.258   2.093   8.564 -0.3601  0.0893 -0.4356
20106SOL    HW161759   7.333   2.100   8.623 -1.3831  1.1588  0.7949
20106SOL    HW261760   7.255   2.001   8.539  1.5479  0.0915 -0.7891
20107SOL     OW61761   5.298   1.341   6.159 -0.4227 -0.2584  0.0860
20107SOL    HW161762   5.338   1.361   6.243  1.0737  1.1470 -0.9038
20107SOL    HW261763   5.204   1.336   6.177 -0.1825  0.5845  1.7301
20108SOL     OW61764   5.534   2.457   6.684 -0.1280 -0.2025  0.2435
20108SOL    HW161765   5.601   2.416   6.629 -1.2298  0.5161 -1.7346
20108SOL    HW261766   5.580   2.528   6.729  0.1954  1.4092 -2.3965
20109SOL     OW61767   7.453   3.925  10.356 -0.4274  0.1010 -0.5730
20109SOL    HW161768   7.430   3.839  10.391  1.1435  0.6458  2.0621
20109SOL    HW261769   7.387   3.984  10.392 -0.6515  0.2398 -1.1919
20110SOL     OW61770   6.351   4.107  11.304 -0.2296  0.4599 -0.1290
20110SOL    HW161771   6.366   4.199  11.280  0.1459  0.2270 -0.7993
20110SOL    HW261772   6.392   4.098  11.390 -1.1679  1.1814  0.4072
20111SOL     OW61773   5.745   3.824   9.545  0.1861 -0.0607  0.4044
20111SOL    HW161774   5.654   3.796   9.535  0.3179 -0.1779 -0.6425
20111SOL    HW261775   5.741   3.902   9.600 -0.2866 -1.4876  2.5091
20112SOL     OW61776   6.985   3.869   8.403 -0.8410 -0.3330  0.0264
20112SOL    HW161777   6.904   3.895   8.448 -1.6543 -1.0473 -0.9760
20112SOL    HW261778   7.055   3.889   8.465 -1.8626 -0.5918  1.2919
20113SOL     OW61779   7.338   2.716   8.088  0.3540 -0.1406 -0.2400
20113SOL    HW161780   7.402   2.756   8.030  0.1197 -1.1502 -1.2121
20113SOL    HW261781   7.338   2.773   8.165  1.3144  0.7175 -0.8414
20114SOL     OW61782   6.818   1.817   7.544 -0.0080  0.1286 -0.3094
20114SOL    HW161783   6.855   1.743   7.496  0.4776  0.7573 -0.9421
20114SOL    HW261784   6.820   1.889   7.481 -3.2185  0.0018 -0.7138
20115SOL     OW61785   5.549   4.172   9.636 -0.2198 -0.3344  0.5763
20115SOL    HW161786   5.463   4.136   9.657  0.8120 -2.6081  1.1304
20115SOL    HW261787   5.532   4.236   9.567 -2.3242 -0.8492  0.5672
20116SOL     OW61788   6.807   2.307   7.877  0.2752 -0.3206 -0.3188
20116SOL    HW161789   6.799   2.297   7.972  1.1407  1.2785 -0.0396
20116SOL    HW261790   6.730   2.358   7.852 -0.6197 -1.7961 -0.7076
20117SOL     OW61791   6.330   2.805   8.045 -0.2674 -0.5434  0.3256
20117SOL    HW161792   6.257   2.838   8.098  0.2529 -0.8415  1.2567
20117SOL    HW261793   6.374   2.884   8.014 -0.1554 -0.3486  0.9530
20118SOL     OW61794   6.462   1.501   9.604  1.0405  0.0076  0.1024
20118SOL    HW161795   6.510   1.469   9.528  0.5119 -0.6231  0.0266
20118SOL    HW261796   6.523   1.490   9.677  1.1693 -0.3946 -0.0591
20119SOL     OW61797   4.597   3.015   7.624  0.4612 -0.1314 -0.1371
20119SOL    HW161798   4.590   3.091   7.681  1.5099 -0.1227  0.0059
20119SOL    HW261799   4.524   3.023   7.563  0.2878  0.7313  0.1796
20120SOL     OW61800   5.567   3.396   5.853 -0.5361 -0.2976 -0.0517
20120SOL    HW161801   5.544   3.329   5.788 -0.3117 -0.3115 -0.1186
20120SOL    HW261802   5.521   3.474   5.824 -1.3056 -0.5897  0.3816
20121SOL     OW61803   4.843   2.747   8.010  0.0491  0.1563 -0.0780
20121SOL    HW161804   4.784   2.744   8.085 -1.1887 -0.1780 -1.0229
20121SOL    HW261805   4.802   2.810   7.951  0.7257  0.0280 -0.6914
20122SOL     OW61806   0.216   3.332   7.839 -0.4456  0.2292 -0.0651
20122SOL    HW161807   0.221   3.305   7.748  0.7069  1.6099 -0.4470
20122SOL    HW261808   0.234   3.253   7.889  1.2867 -0.0773 -1.0903
20123SOL     OW61809   6.978   3.086   7.798  0.7046 -0.5034  0.3953
20123SOL    HW161810   6.883   3.090   7.806  0.8089  0.3249  1.6014
20123SOL    HW261811   7.009   3.062   7.886  1.6109 -0.3668  0.1281
20124SOL     OW61812   0.433   1.108   8.891 -0.6735 -0.7478  0.3810
20124SOL    HW161813   0.388   1.192   8.886 -0.8284 -0.6289  2.8422
20124SOL    HW261814   0.522   1.130   8.921 -0.4402 -1.3977  0.1896
20125SOL     OW61815   6.149   4.566   8.861  0.0268 -0.3678  0.1956
20125SOL    HW161816   6.116   4.623   8.931 -0.2846  1.0028 -1.0305
20125SOL    HW261817   6.089   4.581   8.788  1.7377  0.0760 -1.1794
20126SOL     OW61818   5.928   3.214   7.351  0.1764 -0.3015  0.2809
20126SOL    HW161819   6.018   3.249   7.352 -0.0746  0.4080  2.4054
20126SOL    HW261820   5.875   3.285   7.315  0.3998 -0.5898 -0.6409
20127SOL     OW61821   6.189   1.725   8.263 -0.1021 -0.4430 -0.2349
20127SOL    HW161822   6.096   1.704   8.261 -0.4115  0.0747  3.1656
20127SOL    HW261823   6.198   1.788   8.334  2.7313  0.2923 -1.1190
20128SOL     OW61824   7.618   0.046   9.094 -0.3240  0.4269  0.0066
20128SOL    HW161825   7.568  -0.026   9.131 -2.1497  2.2583  1.3198
20128SOL    HW261826   7.606   0.039   8.999 -2.0665  0.0858  0.2328
20129SOL     OW61827   5.807   3.289  10.942  0.4079  0.0825  0.1184
20129SOL    HW161828   5.829   3.373  10.904 -0.6517  2.2068  3.6872
20129SOL    HW261829   5.712   3.288  10.946  0.4390 -0.0624  2.3291
20130SOL     OW61830   5.155   3.107   7.704  1.0764 -0.0463  0.3062
20130SOL    HW161831   5.126   3.194   7.677  3.1562  1.3914  2.2803
20130SOL    HW261832   5.148   3.108   7.799  0.0574 -2.5238  0.3235
20131SOL     OW61833   5.311   1.998   7.734 -0.2057 -0.2028  0.2555
20131SOL    HW161834   5.400   1.978   7.706  0.5240  0.2086  2.1593
20131SOL    HW261835   5.304   2.093   7.725 -0.1352 -0.1284  0.9308
20132SOL     OW61836   5.601   1.503   7.182 -0.3989 -0.3462 -0.3086
20132SOL    HW161837   5.624   1.594   7.162  1.2418 -0.5374  0.5239
20132SOL    HW261838   5.626   1.454   7.104 -1.2978 -0.1005 -0.7643
20133SOL     OW61839   7.444   0.541   6.892 -0.9384  0.2515  0.2970
20133SOL    HW161840   7.458   0.583   6.807 -1.5738 -0.0882  0.0202
20133SOL    HW261841   7.353   0.564   6.915 -1.3087 -0.9930  0.1262
20134SOL     OW61842   5.678   2.381   9.764 -0.4452 -0.6076 -0.5784
20134SOL    HW161843   5.730   2.300   9.766 -0.2781 -0.5150  1.7396
20134SOL    HW261844   5.743   2.451   9.767 -0.6333 -0.4344 -0.5543
20135SOL     OW61845   7.070   3.231   8.316 -0.6836 -0.0854  0.9584
20135SOL    HW161846   7.010   3.157   8.321 -0.0296 -0.6614  0.5806
20135SOL    HW261847   7.084   3.244   8.222 -1.9345  1.4800  0.9518
20136SOL     OW61848   7.202   2.947  10.033  0.2281  0.2273 -0.3048
20136SOL    HW161849   7.183   2.854  10.045  0.6104  0.0993 -0.6706
20136SOL    HW261850   7.120   2.992  10.055 -0.0431 -0.2139 -0.4236
20137SOL     OW61851   6.601   2.954   7.546 -0.3205  0.2286  0.1109
20137SOL    HW161852   6.555   2.978   7.626  0.1639 -0.1811  0.5169
20137SOL    HW261853   6.587   3.028   7.487 -2.0118 -0.1289 -0.0021
20138SOL     OW61854   6.189   2.575   8.466  0.4602 -0.6654 -0.0714
20138SOL    HW161855   6.250   2.523   8.414 -0.0045 -0.3360 -0.9763
20138SOL    HW261856   6.170   2.651   8.411  0.6904  0.1888  0.9898
20139SOL     OW61857   5.379   2.354   7.459 -0.1442 -0.3066 -0.1535
20139SOL    HW161858   5.415   2.266   7.456  0.5823 -0.0517  0.5775
20139SOL    HW261859   5.455   2.411   7.450 -0.7304  0.2704 -1.9894
20140SOL     OW61860   6.452   2.706  10.104  0.0102  0.4560 -0.0683
20140SOL    HW161861   6.535   2.679  10.065 -0.4892 -1.1791 -0.0683
20140SOL    HW261862   6.452   2.801  10.096  1.9522  0.5004  0.1016
20141SOL     OW61863   6.498   4.616   8.543 -0.1640  0.0927  0.2876
20141SOL    HW161864   6.556   4.598   8.617 -0.5512  0.3497  0.6602
20141SOL    HW261865   6.544   4.683   8.492  0.7551 -1.1034 -0.4852
20142SOL     OW61866   7.336   3.395   8.774 -0.4595  0.4305  0.0332
20142SOL    HW161867   7.344   3.349   8.691 -0.4387  0.2177  0.1517
20142SOL    HW261868   7.313   3.485   8.750 -0.9686  0.2465 -0.1884
20143SOL     OW61869   7.006   1.155   7.854 -0.0187  0.1056 -0.0663
20143SOL    HW161870   6.931   1.111   7.895  0.2998  1.1059  1.6934
20143SOL    HW261871   6.975   1.179   7.767 -0.6855 -2.2354 -0.5585
20144SOL     OW61872   5.511   4.054   6.470  0.2252  0.1841  0.3737
20144SOL    HW161873   5.421   4.082   6.453  0.6576  1.7336  0.4233
20144SOL    HW261874   5.513   4.035   6.564 -0.7016 -2.6157 -0.0924
20145SOL     OW61875   0.243   5.019   7.031 -0.1987 -0.7300 -0.3636
20145SOL    HW161876   0.299   4.942   7.038  1.4591  0.3002 -1.6315
20145SOL    HW261877   0.228   5.029   6.937  0.2044  0.8854 -0.2826
20146SOL     OW61878   5.443   2.492   8.083  0.2676 -0.0553  0.2255
20146SOL    HW161879   5.537   2.475   8.077  0.1670 -0.8862  0.8239
20146SOL    HW261880   5.427   2.559   8.016  1.2162 -0.1638 -0.1360
20147SOL     OW61881   6.175   2.870   8.394  0.1383  0.1980  0.1527
20147SOL    HW161882   6.134   2.940   8.444  0.8231  1.0427 -0.4384
20147SOL    HW261883   6.132   2.871   8.309  1.7711  1.5654 -0.7299
20148SOL     OW61884   5.460   0.605   9.103  0.0079  0.5191  0.7044
20148SOL    HW161885   5.510   0.677   9.065 -1.6071 -0.3305 -3.6343
20148SOL    HW261886   5.369   0.634   9.097 -0.5307 -0.9948  1.0825
20149SOL     OW61887   6.440   1.407  10.121  0.2313  0.0961  0.3218
20149SOL    HW161888   6.496   1.377  10.193  1.3689 -1.6283 -1.1759
20149SOL    HW261889   6.382   1.332  10.104  2.7982 -1.3449 -3.1989
20150SOL     OW61890   6.941   3.004   6.646 -0.4670  0.2870 -0.1872
20150SOL    HW161891   6.942   3.069   6.575  4.0066 -1.9788 -2.6556
20150SOL    HW261892   6.999   3.041   6.713 -0.0230 -0.0086 -0.4037
20151SOL     OW61893   5.864   2.634   7.528 -0.3462 -0.5298 -0.5142
20151SOL    HW161894   5.814   2.636   7.610 -0.8139 -0.2465 -0.8003
20151SOL    HW261895   5.819   2.568   7.476  0.3711 -1.2188 -0.2877
20152SOL     OW61896   7.912   3.853   6.752  0.0756  0.2409 -0.3541
20152SOL    HW161897   7.969   3.777   6.737 -1.6568 -1.5804  1.6498
20152SOL    HW261898   7.831   3.831   6.705 -0.4599  0.8146  0.2843
20153SOL     OW61899   4.938   2.978   6.808  1.0826  0.5036 -0.5383
20153SOL    HW161900   4.910   3.032   6.734  1.1714  1.4593  0.1099
20153SOL    HW261901   4.858   2.931   6.835  0.4418  2.0108  0.2964
20154SOL     OW61902   5.995   3.035   8.511 -0.4031 -0.1453 -0.0004
20154SOL    HW161903   5.948   3.104   8.465  2.1053  1.8580  0.2274
20154SOL    HW261904   5.966   3.043   8.602 -2.7852 -1.8721 -0.4953
20155SOL     OW61905   6.252   4.549   8.063  0.1173 -0.3955 -0.2749
20155SOL    HW161906   6.240   4.626   8.007 -1.4060 -1.3615 -1.3711
20155SOL    HW261907   6.310   4.492   8.012  0.3711 -0.4359  0.0557
20156SOL     OW61908   5.915   3.546   8.903 -0.5017 -0.1061  0.4943
20156SOL    HW161909   5.905   3.593   8.986  1.9082  0.6790  0.4354
20156SOL    HW261910   5.833   3.561   8.857 -1.8418 -0.3984  2.6233
20157SOL     OW61911   5.217   2.734   8.372 -0.2588  0.3779  0.3141
20157SOL    HW161912   5.201   2.735   8.278 -1.2436 -3.7213  0.2761
20157SOL    HW261913   5.136   2.769   8.410 -0.7345 -0.0215 -0.3147
20158SOL     OW61914   0.218   4.703   8.302  0.0356 -0.2520 -0.3643
20158SOL    HW161915   0.305   4.662   8.295  0.4986  0.8267 -1.2261
20158SOL    HW261916   0.226   4.764   8.375 -1.2026 -2.8945  2.1529
20159SOL     OW61917   6.535   3.016   8.321 -0.4609  0.5139  0.2995
20159SOL    HW161918   6.602   3.007   8.254 -0.3060 -0.5098  0.5738
20159SOL    HW261919   6.501   3.105   8.310 -0.3428  0.4024 -1.0349
20160SOL     OW61920   5.700   1.101   9.179 -0.3406 -0.1945  0.7598
20160SOL    HW161921   5.782   1.052   9.171 -0.0266 -0.2041  3.1406
20160SOL    HW261922   5.718   1.165   9.249 -1.7411  1.1860 -0.0947
20161SOL     OW61923   7.127   3.942   9.102 -0.1944  0.2006  0.2537
20161SOL    HW161924   7.161   3.978   9.184  0.0333  0.9227 -0.1542
20161SOL    HW261925   7.098   3.853   9.125  0.9126 -0.0145  0.8617
20162SOL     OW61926   4.244   0.423   8.507 -0.1289  0.2807 -0.3249
20162SOL    HW161927   4.153   0.415   8.479  0.6715 -1.1535 -2.8525
20162SOL    HW261928   4.278   0.499   8.460  0.4618 -0.3208 -0.8870
20163SOL     OW61929   5.921   3.438   9.237 -0.0269 -0.3942 -0.6266
20163SOL    HW161930   5.896   3.430   9.329  1.0785 -1.0306 -0.3778
20163SOL    HW261931   5.838   3.458   9.192 -0.6984 -0.8175  0.3927
20164SOL     OW61932   6.765   4.403   8.399 -1.7457 -0.7450 -0.2887
20164SOL    HW161933   6.810   4.433   8.477 -1.6164  3.2289 -1.6823
20164SOL    HW261934   6.688   4.356   8.432 -0.8273 -0.6761  2.1364
20165SOL     OW61935   6.771   2.869   8.741  0.5269  0.3479 -0.5742
20165SOL    HW161936   6.781   2.775   8.751 -1.5257  0.1976  0.5207
20165SOL    HW261937   6.795   2.905   8.826  1.8251  0.9175 -1.1391
20166SOL     OW61938   6.496   2.803   8.841 -0.2455 -0.2095  0.2514
20166SOL    HW161939   6.456   2.738   8.783 -1.7355  1.6394 -0.8990
20166SOL    HW261940   6.566   2.841   8.788 -0.7509  0.5706  0.1358
20167SOL     OW61941   7.201   4.038   6.700  0.2202  0.2812 -0.2170
20167SOL    HW161942   7.144   3.962   6.714  0.3554  0.1932 -0.1458
20167SOL    HW261943   7.183   4.096   6.774  0.4081  0.1392 -0.0581
20168SOL     OW61944   5.677   2.249   6.794 -0.1328 -0.8134 -0.5703
20168SOL    HW161945   5.656   2.212   6.708  1.0053 -0.0581 -1.2005
20168SOL    HW261946   5.771   2.239   6.802  0.2319  1.7602 -0.7169
20169SOL     OW61947   5.327   3.557   7.366  0.3004  0.0345 -0.0172
20169SOL    HW161948   5.262   3.500   7.407 -0.6681  1.8743  1.1435
20169SOL    HW261949   5.374   3.597   7.439  0.3851  1.3061 -0.7297
20170SOL     OW61950   4.570   2.776   7.088 -0.0821  0.6121 -0.2251
20170SOL    HW161951   4.658   2.754   7.057 -0.1860  0.4234 -0.3894
20170SOL    HW261952   4.576   2.771   7.183 -0.1405 -0.2752 -0.2626
20171SOL     OW61953   7.175   1.466   8.629 -0.3738 -0.3844  0.8559
20171SOL    HW161954   7.250   1.456   8.688  0.2287 -1.7843 -0.1133
20171SOL    HW261955   7.208   1.518   8.556 -0.5401 -0.4332  0.7445
20172SOL     OW61956   4.572   0.784   9.459 -0.8463 -0.2111 -0.1883
20172SOL    HW161957   4.662   0.817   9.455 -0.8081 -0.2604  0.3018
20172SOL    HW261958   4.540   0.809   9.545 -1.1213 -0.6673 -0.1529
20173SOL     OW61959   5.945   2.956   7.454 -0.2980 -0.5643 -0.0677
20173SOL    HW161960   5.860   2.949   7.497 -0.3350 -0.1436 -0.0720
20173SOL    HW261961   5.939   3.035   7.400  0.2478 -0.2813  0.2787
20174SOL     OW61962   6.387   3.813   8.305  0.2281  0.0083 -0.2097
20174SOL    HW161963   6.392   3.753   8.379 -3.6875  0.3427  0.5309
20174SOL    HW261964   6.364   3.897   8.345 -2.5660  0.0690 -1.7217
20175SOL     OW61965   7.259   4.215   8.168  0.2671  1.0876 -0.1807
20175SOL    HW161966   7.258   4.161   8.089  1.2681 -0.4152  0.7729
20175SOL    HW261967   7.184   4.186   8.219  0.5260  0.9149  0.1114
20176SOL     OW61968   6.023   5.831   8.870 -0.6280 -0.1539  0.1574
20176SOL    HW161969   6.063   5.918   8.872  1.0494 -0.7162 -2.8363
20176SOL    HW261970   5.946   5.842   8.813  0.2459 -0.8014 -1.1925
20177SOL     OW61971   7.850   2.193   9.636 -0.9122 -0.0992 -0.0527
20177SOL    HW161972   7.908   2.265   9.614  0.3075 -0.9650  0.1990
20177SOL    HW261973   7.873   2.124   9.574 -0.6556 -0.9541  0.9653
20178SOL     OW61974   5.236   2.402   9.179 -0.3883 -0.0212  0.3017
20178SOL    HW161975   5.165   2.385   9.241 -0.7760  2.7671  0.7466
20178SOL    HW261976   5.305   2.340   9.203 -1.1152 -0.0459  2.5059
20179SOL     OW61977   5.995   1.772   8.033 -0.1921  0.3514  0.5329
20179SOL    HW161978   6.077   1.809   8.002 -1.2406  2.1735 -0.2562
20179SOL    HW261979   5.983   1.692   7.982  1.2451 -0.1586  0.9489
20180SOL     OW61980   5.817   2.040   7.870 -0.0416 -0.1940  0.3569
20180SOL    HW161981   5.884   2.107   7.883 -0.5808  0.7187 -1.2919
20180SOL    HW261982   5.847   1.966   7.923  2.0960  0.3014 -0.0658
20181SOL     OW61983   7.303   1.414   5.853  0.3863 -0.1603 -0.5920
20181SOL    HW161984   7.208   1.400   5.858  0.6752 -1.7216  1.7363
20181SOL    HW261985   7.335   1.399   5.942  2.8630  0.1759 -1.3451
20182SOL     OW61986   6.200   3.960   9.084  0.4751 -0.3108  0.0217
20182SOL    HW161987   6.141   3.957   9.008  0.1132  1.2551  0.2129
20182SOL    HW261988   6.142   3.961   9.160  0.8228 -1.1648  0.3170
20183SOL     OW61989   6.571   1.626   8.792  0.3432 -0.3621 -0.2019
20183SOL    HW161990   6.545   1.566   8.861 -2.0821  0.3093 -0.4640
20183SOL    HW261991   6.518   1.704   8.807  1.4038  0.6534 -1.5104
20184SOL     OW61992   5.499   0.358   5.800  0.5264  0.1386  0.1181
20184SOL    HW161993   5.591   0.378   5.786  0.5426 -1.4498 -2.7354
20184SOL    HW261994   5.496   0.262   5.809 -0.7247  0.2756  1.8353
20185SOL     OW61995   7.203   1.650   7.132  0.0532  0.4157  0.2283
20185SOL    HW161996   7.212   1.735   7.174 -0.3742  0.8851 -0.6134
20185SOL    HW261997   7.154   1.597   7.195  1.7257  0.2500  1.4763
20186SOL     OW61998   6.458   3.706   5.983 -0.6225  0.2579  0.3544
20186SOL    HW161999   6.397   3.767   6.026 -3.0734 -0.7753 -1.4310
20186SOL    HW262000   6.411   3.623   5.981  0.3324 -0.3124 -2.1516
20187SOL     OW62001   5.433   2.802   9.181  0.6099  0.6513  0.4876
20187SOL    HW162002   5.386   2.864   9.125 -1.1150  0.3480  1.5332
20187SOL    HW262003   5.472   2.739   9.119  1.7390  2.2660 -0.5346
20188SOL     OW62004   5.778   4.497   9.782  0.4076  0.1389 -0.0619
20188SOL    HW162005   5.712   4.566   9.789  0.9031  0.5711  0.4931
20188SOL    HW262006   5.857   4.542   9.752  0.0458 -0.6478 -2.4136
20189SOL     OW62007   7.039   3.263   9.753 -0.5670 -0.2532 -0.9987
20189SOL    HW162008   7.026   3.178   9.794 -0.2776 -0.2426 -0.8775
20189SOL    HW262009   6.953   3.305   9.755 -0.5273 -0.1982 -0.2668
20190SOL     OW62010   5.699   2.131   6.144  0.2432  0.0654  0.1236
20190SOL    HW162011   5.727   2.222   6.138  0.1557  0.2285  1.7699
20190SOL    HW262012   5.634   2.130   6.215  0.1823 -1.2595  0.0779
20191SOL     OW62013   7.305   2.991   8.556  0.4687  0.3372 -0.7618
20191SOL    HW162014   7.264   2.926   8.612 -0.4232  1.4385 -0.1018
20191SOL    HW262015   7.395   2.961   8.546  0.5376 -0.1160  0.9209
20192SOL     OW62016   5.724   0.550   6.860  0.0648 -0.1238 -0.1947
20192SOL    HW162017   5.662   0.520   6.927  0.4749  0.4192  0.4463
20192SOL    HW262018   5.785   0.477   6.851 -0.0883 -0.2673 -0.1021
20193SOL     OW62019   6.342   3.573   6.371  0.0928 -0.1475 -0.1750
20193SOL    HW162020   6.412   3.639   6.367 -0.6348  0.5834 -2.5328
20193SOL    HW262021   6.276   3.611   6.429 -0.0170  0.9043 -0.9679
20194SOL     OW62022   5.468   2.674   9.533  0.1492 -0.0399 -0.1339
20194SOL    HW162023   5.497   2.764   9.519 -1.5170  0.3218 -1.5786
20194SOL    HW262024   5.441   2.671   9.625  0.1165  0.9595 -0.1040
20195SOL     OW62025   7.921   6.099   8.177  0.6689  0.2584  0.0323
20195SOL    HW162026   7.836   6.059   8.155  0.5102  1.3166 -1.4203
20195SOL    HW262027   7.985   6.045   8.129  0.8560 -0.5954  1.1996
20196SOL     OW62028   6.800   3.489   8.520  0.0426 -0.0307  0.3389
20196SOL    HW162029   6.801   3.395   8.502  0.2180  0.1603 -0.7302
20196SOL    HW262030   6.892   3.515   8.513 -0.0581  0.2943  0.2013
20197SOL     OW62031   5.180   5.725   9.346  0.1117 -0.2147 -0.0827
20197SOL    HW162032   5.097   5.767   9.324 -0.3658 -1.0130  0.1553
20197SOL    HW262033   5.188   5.653   9.283 -0.3699 -1.3772  1.1347
20198SOL     OW62034   5.231   4.454   8.410  0.2021 -0.0807 -0.2060
20198SOL    HW162035   5.222   4.362   8.435  0.0954 -0.1541 -0.5098
20198SOL    HW262036   5.153   4.473   8.358  0.0057  0.3072  0.2217
20199SOL     OW62037   6.659   3.741   7.420  0.5727 -0.6946 -0.1147
20199SOL    HW162038   6.637   3.727   7.512 -0.0957  0.2773 -0.1111
20199SOL    HW262039   6.606   3.816   7.394 -0.6041 -2.0446 -1.7991
20200SOL     OW62040   5.786   1.396   8.634 -0.4877  0.3207  0.9015
20200SOL    HW162041   5.804   1.488   8.656  1.0527  0.5196 -0.9276
20200SOL    HW262042   5.871   1.362   8.605 -1.4460 -1.0999 -0.3642
20201SOL     OW62043   5.905   3.317  10.133  0.3367  0.2433 -0.5054
20201SOL    HW162044   5.819   3.359  10.142 -0.2607 -1.1796  0.8722
20201SOL    HW262045   5.894   3.255  10.061 -0.2210 -0.8764  0.5151
20202SOL     OW62046   7.421   2.331   8.231  0.4769 -0.4005 -0.2654
20202SOL    HW162047   7.397   2.399   8.293  1.9073  0.8623 -1.0127
20202SOL    HW262048   7.378   2.357   8.149  0.8604 -0.4857 -0.4997
20203SOL     OW62049   0.208   3.492   8.960 -0.2515 -0.0299 -0.0161
20203SOL    HW162050   0.157   3.566   8.927  0.9042  0.3602 -1.0096
20203SOL    HW262051   0.177   3.417   8.910  1.0256  0.4428 -1.6136
20204SOL     OW62052   6.005   4.569   7.682  0.1881  0.1372  0.6036
20204SOL    HW162053   6.002   4.484   7.638 -0.3117  0.7715 -0.6384
20204SOL    HW262054   6.095   4.598   7.672  0.7632 -0.9074  2.3870
20205SOL     OW62055   7.556   4.949   8.587 -0.3571 -0.4275  0.1190
20205SOL    HW162056   7.650   4.963   8.588 -0.3039 -0.7497  1.6300
20205SOL    HW262057   7.542   4.877   8.649 -1.6055 -0.2642  0.0466
20206SOL     OW62058   7.105   2.713   7.905  0.3257  0.0631  0.4074
20206SOL    HW162059   7.198   2.725   7.919  0.5057 -0.7796  0.0043
20206SOL    HW262060   7.097   2.695   7.811 -0.4282  1.8185  0.0839
20207SOL     OW62061   6.195   3.058   7.742  0.3666  0.4935 -0.2945
20207SOL    HW162062   6.194   3.153   7.755  0.2315  0.4723 -0.1425
20207SOL    HW262063   6.286   3.032   7.755  0.0541  0.3124  1.7846
20208SOL     OW62064   0.154   3.328   8.528 -0.4434  0.5476 -0.1227
20208SOL    HW162065   0.182   3.318   8.437  0.1283  0.1552  0.0913
20208SOL    HW262066   0.083   3.392   8.524 -1.9441 -1.0874 -1.1259
20209SOL     OW62067   4.712   2.908   8.978  0.1207 -0.2561  0.3013
20209SOL    HW162068   4.668   2.993   8.976  0.5624 -0.0149  0.6735
20209SOL    HW262069   4.692   2.868   8.893  1.6145  1.0846 -0.7243
20210SOL     OW62070   7.279   2.781   9.187  0.8382 -0.3657  0.5974
20210SOL    HW162071   7.359   2.728   9.182  0.0976 -1.4672 -0.0669
20210SOL    HW262072   7.210   2.722   9.157 -0.3730  0.2818  1.9853
20211SOL     OW62073   6.929   4.064   7.076  0.6709 -0.0182 -0.2640
20211SOL    HW162074   6.853   4.111   7.043  0.5609  0.4099  0.5687
20211SOL    HW262075   6.900   3.973   7.084  0.4892  0.0030 -0.6694
20212SOL     OW62076   0.878   2.387   9.859  0.1606 -0.2330  0.2817
20212SOL    HW162077   0.805   2.371   9.800  0.1418 -0.9601  0.4969
20212SOL    HW262078   0.837   2.420   9.939  0.1751  0.6064 -0.0432
20213SOL     OW62079   7.640   1.576   9.428  0.0925 -0.2407  0.2097
20213SOL    HW162080   7.563   1.532   9.464  1.5204 -1.7921  1.5528
20213SOL    HW262081   7.605   1.643   9.370 -2.2433 -1.6728 -0.1506
20214SOL     OW62082   6.793   2.792   7.942 -0.1543  0.1059  0.1541
20214SOL    HW162083   6.736   2.763   7.870  1.6968 -0.5279 -1.1270
20214SOL    HW262084   6.880   2.794   7.904  0.7519  0.7706  2.1383
20215SOL     OW62085   6.867   1.457   8.197 -0.4767  0.4069  0.3523
20215SOL    HW162086   6.846   1.363   8.197 -1.0184  0.4154 -2.5133
20215SOL    HW262087   6.783   1.500   8.214 -0.6720  0.3525 -0.4183
20216SOL     OW62088   7.631   3.190   9.350 -0.3404  0.2696  0.2707
20216SOL    HW162089   7.607   3.226   9.265 -1.3746  1.5911  1.0888
20216SOL    HW262090   7.556   3.206   9.406  0.6062  0.1237  1.6459
20217SOL     OW62091   5.440   0.074   8.532  0.0350  0.0374 -0.6843
20217SOL    HW162092   5.517   0.124   8.559 -0.5506  0.7579 -0.3015
20217SOL    HW262093   5.379   0.139   8.499 -1.7877  0.0081  2.2237
20218SOL     OW62094   6.102   2.814   7.733  0.1639  0.2310 -0.5637
20218SOL    HW162095   6.145   2.894   7.765 -1.4272 -0.0069  2.6652
20218SOL    HW262096   6.164   2.744   7.753  0.2913  0.3689 -0.4713
20219SOL     OW62097   6.092   2.280   8.160 -0.1738  0.0119 -0.5102
20219SOL    HW162098   6.069   2.372   8.146 -2.2760 -0.3673 -0.0196
20219SOL    HW262099   6.076   2.238   8.075  1.5418  0.1865 -0.9576
20220SOL     OW62100   6.080   3.322   6.464  0.4265  0.2223  0.2876
20220SOL    HW162101   6.080   3.416   6.481 -0.7471  0.1823  0.5870
20220SOL    HW262102   6.030   3.285   6.536  0.1264 -0.5358 -0.2975
20221SOL     OW62103   7.034   3.565   7.905 -0.2018  0.5196  0.8494
20221SOL    HW162104   7.112   3.579   7.851 -0.7506 -0.4678 -0.2368
20221SOL    HW262105   6.963   3.605   7.856 -0.6312  0.0440  1.0707
20222SOL     OW62106   6.892   3.355  10.148  0.1908  0.0389  0.6173
20222SOL    HW162107   6.943   3.430  10.119  1.1231 -0.3074  1.3191
20222SOL    HW262108   6.814   3.394  10.188  0.0991  0.5891 -0.0823
20223SOL     OW62109   5.475   4.250   3.923  0.8109 -0.1412 -0.2947
20223SOL    HW162110   5.551   4.193   3.918 -0.5619 -2.1143  0.1585
20223SOL    HW262111   5.477   4.285   4.012  0.3385 -1.4887  0.2701
20224SOL     OW62112   6.191   5.811   7.559 -0.0721  0.0810 -0.5356
20224SOL    HW162113   6.153   5.777   7.479  4.1123 -1.8706 -2.0030
20224SOL    HW262114   6.219   5.900   7.537  0.5114 -0.2344 -1.1071
20225SOL     OW62115   6.365   4.832   9.486 -0.3747 -0.1762  0.1553
20225SOL    HW162116   6.424   4.869   9.552 -1.3444  0.3684  0.7496
20225SOL    HW262117   6.366   4.738   9.504 -0.2203 -0.0956  0.6052
20226SOL     OW62118   5.363   2.906  10.664  0.1999 -0.2774 -0.6301
20226SOL    HW162119   5.391   2.854  10.738 -1.4679 -0.7156 -0.2596
20226SOL    HW262120   5.369   2.847  10.589  3.5338  0.6472 -1.2642
20227SOL     OW62121   5.106   1.492   8.583 -0.3915  0.1254 -0.2831
20227SOL    HW162122   5.026   1.530   8.620 -0.3430  0.4527 -0.5116
20227SOL    HW262123   5.077   1.409   8.545 -0.3589 -0.4183  0.8577
20228SOL     OW62124   5.883   3.282  11.331 -0.2226 -0.0862  0.2794
20228SOL    HW162125   5.867   3.228  11.409 -0.3348  0.6936  0.8080
20228SOL    HW262126   5.822   3.355  11.341  0.5000  0.5555 -0.0116
20229SOL     OW62127   6.495   3.293  11.612  1.0338  0.1844 -0.1448
20229SOL    HW162128   6.510   3.337  11.528 -0.1073  1.1460  0.1286
20229SOL    HW262129   6.423   3.342  11.652  1.0617 -0.7267  1.0677
20230SOL     OW62130   6.182   2.198  10.263 -0.0027  0.5897  0.0939
20230SOL    HW162131   6.169   2.103  10.266 -2.5491  0.8609 -0.3386
20230SOL    HW262132   6.245   2.215  10.333  0.2559 -1.3614  0.4176
20231SOL     OW62133   7.107   2.898   9.506  0.3728  0.4092 -0.5368
20231SOL    HW162134   7.194   2.861   9.492  0.8448  1.5511 -0.6613
20231SOL    HW262135   7.118   2.992   9.495 -0.8225  0.5988 -0.2641
20232SOL     OW62136   6.586   3.342  10.676  0.5107 -0.6407  0.0564
20232SOL    HW162137   6.644   3.357  10.751  0.8746 -1.6535  0.0010
20232SOL    HW262138   6.641   3.293  10.614  0.0069 -0.3983 -0.5827
20233SOL     OW62139   7.421   4.763  11.524  0.0401 -0.4331 -0.5425
20233SOL    HW162140   7.390   4.674  11.538  0.3453 -0.5944 -0.8762
20233SOL    HW262141   7.515   4.754  11.510  0.3971  0.1308  1.2460
20234SOL     OW62142   3.471   4.512  11.041  0.3073  0.0894 -0.3211
20234SOL    HW162143   3.545   4.454  11.058 -0.0345 -0.0307  0.7878
20234SOL    HW262144   3.489   4.589  11.094  0.1583  0.5170 -0.8776
20235SOL     OW62145   5.946   3.755  10.565 -0.3544 -0.0900  0.0075
20235SOL    HW162146   5.936   3.790  10.654 -0.9360 -0.2923  0.0289
20235SOL    HW262147   5.976   3.830  10.513  0.5511 -0.1114  0.4827
20236SOL     OW62148   7.903   3.764  10.438 -0.2934  0.6057  0.2979
20236SOL    HW162149   7.950   3.832  10.487  1.4350 -2.8013  3.9419
20236SOL    HW262150   7.826   3.745  10.492  0.1979 -1.4274  0.3384
20237SOL     OW62151   7.540   4.813  10.756 -0.5934  0.2029  0.4390
20237SOL    HW162152   7.604   4.748  10.784 -0.3828 -0.5241 -1.5575
20237SOL    HW262153   7.590   4.893  10.744 -0.5642  0.3393  1.3919
20238SOL     OW62154   0.263   0.876  10.379  0.2389  0.0723  0.5233
20238SOL    HW162155   0.317   0.898  10.455  3.0402  0.1533 -1.3446
20238SOL    HW262156   0.280   0.783  10.364  1.1714  0.4597 -1.0180
20239SOL     OW62157   6.293   4.333   9.668 -0.0805  0.3401  0.1036
20239SOL    HW162158   6.205   4.299   9.656 -0.8064  2.0814  0.1410
20239SOL    HW262159   6.346   4.257   9.690 -1.1019 -1.0912 -2.0975
20240SOL     OW62160   3.669   2.131   9.885 -0.2217  0.2466  0.4199
20240SOL    HW162161   3.606   2.060   9.894 -0.7760  0.8727  1.8285
20240SOL    HW262162   3.616   2.210   9.875  0.3849  0.4806 -1.1684
20241SOL     OW62163   6.939   3.440   9.429 -0.1680 -0.3048  0.0067
20241SOL    HW162164   6.922   3.500   9.502  0.0732 -0.1821 -0.0358
20241SOL    HW262165   6.876   3.369   9.441 -0.8448  0.2365 -0.2697
20242SOL     OW62166   6.563   5.064  10.825  0.3161  0.3874 -0.2655
20242SOL    HW162167   6.555   5.157  10.803  1.4476  0.3953 -0.7105
20242SOL    HW262168   6.544   5.019  10.742 -0.1535  0.2173 -0.0699
20243SOL     OW62169   5.223   3.412  10.501  0.0313 -0.1376  0.1219
20243SOL    HW162170   5.229   3.494  10.452 -1.9858 -0.2091 -0.3155
20243SOL    HW262171   5.136   3.413  10.540 -0.7469 -2.8412 -1.3164
20244SOL     OW62172   6.013   4.743  11.711 -0.7505 -0.5334 -0.9039
20244SOL    HW162173   5.926   4.782  11.720 -0.1867  0.6612 -0.4118
20244SOL    HW262174   6.042   4.730  11.801 -0.6277 -1.4400 -1.0680
20245SOL     OW62175   5.587   5.010   9.270  0.5131 -0.0056  0.0405
20245SOL    HW162176   5.535   5.054   9.203 -0.2088  2.6803  2.1686
20245SOL    HW262177   5.675   5.007   9.234  0.4901  2.8392 -0.5311
20246SOL     OW62178   6.842   2.116   9.556 -1.0152  0.6400  0.2559
20246SOL    HW162179   6.930   2.084   9.576 -0.2273  1.4670 -1.6575
20246SOL    HW262180   6.798   2.119   9.641 -0.0453 -2.1312  0.9790
20247SOL     OW62181   5.593   3.134  10.634 -0.0821 -0.2097 -0.6198
20247SOL    HW162182   5.643   3.065  10.591 -1.0886 -0.1626 -1.9112
20247SOL    HW262183   5.508   3.134  10.590 -0.0735  1.9238 -0.7602
20248SOL     OW62184   1.233   3.506   9.058 -0.5224 -0.0439  0.3492
20248SOL    HW162185   1.318   3.519   9.099 -0.3431  1.0198 -0.3092
20248SOL    HW262186   1.176   3.477   9.129  0.2378 -0.1740  0.9217
20249SOL     OW62187   5.969   3.330   8.305  0.1949  0.1831  0.1771
20249SOL    HW162188   6.063   3.313   8.302  0.0432 -0.5940 -1.5473
20249SOL    HW262189   5.960   3.410   8.357  1.8172  0.3572  0.2247
20250SOL     OW62190   7.073   5.489  10.888  0.1569  0.5736 -0.0065
20250SOL    HW162191   6.978   5.481  10.900  0.1908  0.2684  0.0708
20250SOL    HW262192   7.110   5.427  10.952  0.3809 -0.0300 -0.7044
20251SOL     OW62193   7.637   2.822   8.218  0.1521 -0.3449 -0.3405
20251SOL    HW162194   7.632   2.917   8.210  4.4990  0.3051  1.6685
20251SOL    HW262195   7.684   2.794   8.140  1.9126 -0.2960  0.6657
20252SOL     OW62196   5.658   3.700  12.107  0.4744  0.2187  0.2347
20252SOL    HW162197   5.650   3.606  12.091  1.1063  0.0043  1.0904
20252SOL    HW262198   5.568   3.733  12.100  0.3724 -0.2853 -0.9852
20253SOL     OW62199   7.167   2.814  10.873  0.1828  0.0141  0.1502
20253SOL    HW162200   7.141   2.736  10.922 -1.6000 -0.1283 -0.9344
20253SOL    HW262201   7.181   2.782  10.784  1.7636  0.5550  0.1738
20254SOL     OW62202   7.823   3.837  11.590  0.6534  0.1152  0.6895
20254SOL    HW162203   7.819   3.905  11.658  2.3528  0.6879  0.2899
20254SOL    HW262204   7.732   3.824  11.563  0.3443  3.5894 -0.4758
20255SOL     OW62205   7.439   3.315   8.083 -0.1956  0.3777  0.2808
20255SOL    HW162206   7.393   3.241   8.043  0.0142  1.4106 -2.0428
20255SOL    HW262207   7.405   3.319   8.173 -1.2029 -1.6789  0.0460
20256SOL     OW62208   5.609   4.510  10.861  0.1107 -0.1401  0.0272
20256SOL    HW162209   5.531   4.550  10.898  0.1296  1.0622 -1.1593
20256SOL    HW262210   5.681   4.540  10.916  0.0263  0.8458 -0.3802
20257SOL     OW62211   5.910   2.640   9.110 -0.1970 -0.0802 -0.1752
20257SOL    HW162212   5.988   2.692   9.092 -0.9678  0.4840 -2.1323
20257SOL    HW262213   5.840   2.704   9.121 -0.5368 -0.6091  0.9227
20258SOL     OW62214   6.171   2.604  11.602  0.3890  0.1869 -0.1725
20258SOL    HW162215   6.130   2.637  11.682  0.8309  1.5789 -0.4930
20258SOL    HW262216   6.118   2.638  11.531  1.7565  1.6063 -0.5705
20259SOL     OW62217   5.125   3.506  11.466 -0.2427  0.7749  0.4790
20259SOL    HW162218   5.191   3.436  11.460 -1.0849 -0.2495  2.2136
20259SOL    HW262219   5.041   3.461  11.456 -0.8353  1.3732  2.3371
20260SOL     OW62220   7.894   4.051   9.867 -0.5325  0.1016 -0.3936
20260SOL    HW162221   7.873   4.138   9.832  2.6471 -0.6999 -5.2361
20260SOL    HW262222   7.967   4.067   9.928 -1.2703  0.9518  0.2900
20261SOL     OW62223   5.634   4.561   9.027  0.1782  0.1504  0.1571
20261SOL    HW162224   5.641   4.606   9.111 -1.0929  0.2115  0.2509
20261SOL    HW262225   5.553   4.595   8.988  0.2819 -0.5303 -0.6924
20262SOL     OW62226   6.296   2.322  11.277  0.3113  1.0915  0.3683
20262SOL    HW162227   6.302   2.386  11.349  0.0561 -0.1272  1.5118
20262SOL    HW262228   6.325   2.240  11.316 -2.1470 -0.1289 -0.1915
20263SOL     OW62229   6.190   0.829   9.442  0.2582 -0.0857  0.5917
20263SOL    HW162230   6.173   0.781   9.523 -0.4291 -2.3515 -0.8202
20263SOL    HW262231   6.108   0.825   9.394 -0.1000  3.2565  0.6614
20264SOL     OW62232   6.761   3.867   9.472 -0.1165 -0.2223  0.3267
20264SOL    HW162233   6.826   3.804   9.503 -0.3809  0.4742  2.4472
20264SOL    HW262234   6.810   3.949   9.464 -0.4759  0.0413  0.7963
20265SOL     OW62235   7.219   2.823  10.308 -0.0154 -0.7758 -0.9601
20265SOL    HW162236   7.199   2.755  10.373  0.5108 -0.0080  0.0235
20265SOL    HW262237   7.133   2.848  10.273 -0.4854  0.0130  0.6865
20266SOL     OW62238   7.316   2.477  11.568  0.6247 -0.3146  0.0293
20266SOL    HW162239   7.265   2.448  11.644 -0.9232  1.7014 -0.1624
20266SOL    HW262240   7.387   2.529  11.605 -0.5474  1.2811  0.1345
20267SOL     OW62241   7.068   3.361  11.813 -0.4783  0.1925  0.1260
20267SOL    HW162242   7.016   3.408  11.878  0.9651  0.2227  1.3138
20267SOL    HW262243   7.012   3.289  11.785 -1.8292  1.2490  0.0106
20268SOL     OW62244   7.195   3.293  10.921 -0.5158 -0.0199 -0.0737
20268SOL    HW162245   7.186   3.374  10.971  0.6217  0.1779 -0.1786
20268SOL    HW262246   7.233   3.320  10.838 -1.1589 -0.5298 -0.5451
20269SOL     OW62247   5.595   1.700   9.358  0.5502  0.1363 -0.2294
20269SOL    HW162248   5.532   1.665   9.421  0.2515  0.3954 -0.3814
20269SOL    HW262249   5.572   1.793   9.351  0.4757  0.0701 -0.8539
20270SOL     OW62250   6.207   2.949  11.926 -0.0109 -0.4913 -0.4303
20270SOL    HW162251   6.270   2.989  11.986 -1.0826 -0.8730  1.0053
20270SOL    HW262252   6.129   3.004  11.934 -0.8074 -1.6604 -0.0132
20271SOL     OW62253   5.544   3.937  10.268  0.3762  0.1730 -0.3093
20271SOL    HW162254   5.452   3.924  10.242  0.6402 -0.6935 -0.8480
20271SOL    HW262255   5.589   3.956  10.186  0.7075  0.4871 -0.0562
20272SOL     OW62256   6.100   2.066   9.207 -0.2080  0.2300 -0.4233
20272SOL    HW162257   6.184   2.104   9.232 -1.0840  1.4514  0.8114
20272SOL    HW262258   6.078   2.106   9.123  0.5203 -0.2527 -0.8518
20273SOL     OW62259   6.353   1.428   9.209  0.3552 -0.2828 -0.4204
20273SOL    HW162260   6.374   1.354   9.265  0.6459  0.3422  0.3242
20273SOL    HW262261   6.257   1.432   9.208  0.3256 -1.0133 -0.9474
20274SOL     OW62262   6.549   2.324   9.776 -0.2758 -0.0898  0.2860
20274SOL    HW162263   6.541   2.366   9.861 -0.8648  0.7333 -0.1582
20274SOL    HW262264   6.600   2.244   9.792  0.4619  0.5605  1.2241
20275SOL     OW62265   5.321   2.540   8.550 -0.0338 -0.1742 -0.0765
20275SOL    HW162266   5.260   2.586   8.607  2.6441  0.4442  2.5698
20275SOL    HW262267   5.309   2.580   8.465 -2.2954  0.8565  0.6469
20276SOL     OW62268   5.254   3.869   8.883 -0.5149 -0.5425  0.0098
20276SOL    HW162269   5.313   3.913   8.821  1.5036 -0.4896  1.8319
20276SOL    HW262270   5.219   3.795   8.834 -1.0898  0.9568 -1.9901
20277SOL     OW62271   5.712   3.601  10.511  0.1339 -0.5586 -0.2148
20277SOL    HW162272   5.641   3.664  10.524  0.9983  0.8525 -1.8519
20277SOL    HW262273   5.790   3.646  10.545  0.3036 -2.0675  1.5215
20278SOL     OW62274   7.226   2.658  10.633  0.3485 -0.0921 -0.0403
20278SOL    HW162275   7.321   2.666  10.633  0.2961  0.5695  0.0223
20278SOL    HW262276   7.207   2.595  10.564  0.8735 -0.8013  0.4504
20279SOL     OW62277   7.243   4.002  10.056  0.2032  0.0819  0.0490
20279SOL    HW162278   7.206   4.088  10.074 -0.3461  0.2075 -1.5001
20279SOL    HW262279   7.335   4.020  10.037  0.1481  0.3049 -0.0208
20280SOL     OW62280   5.297   3.447   9.017 -0.3440 -0.3922  0.4236
20280SOL    HW162281   5.230   3.514   9.002  0.6498  1.1567  2.4064
20280SOL    HW262282   5.343   3.441   8.934 -1.2567  0.4550 -0.1713
20281SOL     OW62283   7.003   0.336  11.137  0.1067  0.3888 -0.0477
20281SOL    HW162284   6.937   0.342  11.068 -1.6700 -1.1117  1.4086
20281SOL    HW262285   7.068   0.273  11.104 -0.0717  0.6141 -0.8244
20282SOL     OW62286   5.458   5.274  12.126  0.3024 -0.5993 -0.8952
20282SOL    HW162287   5.428   5.345  12.183  0.7631  0.0049 -1.3853
20282SOL    HW262288   5.470   5.199  12.185 -0.3671 -0.3262 -0.4003
20283SOL     OW62289   6.289   5.584   8.903  0.1637 -0.5446 -0.3851
20283SOL    HW162290   6.352   5.527   8.946 -0.1914 -0.1086  0.7553
20283SOL    HW262291   6.204   5.559   8.940 -0.2200 -0.5173 -1.2332
20284SOL     OW62292   6.000   2.735  10.892  0.2693 -0.0507 -0.0850
20284SOL    HW162293   6.018   2.706  10.803  2.3771  0.6985  0.0428
20284SOL    HW262294   6.006   2.831  10.888 -0.2309  0.0271  0.7482
20285SOL     OW62295   6.613   6.371   8.669  0.1888  0.3009  0.0266
20285SOL    HW162296   6.666   6.351   8.592  0.2879 -0.1495  0.2113
20285SOL    HW262297   6.663   6.437   8.716 -0.2461  1.1824 -0.7012
20286SOL     OW62298   7.168   4.000   9.392  0.4963  0.4134 -0.1024
20286SOL    HW162299   7.153   4.084   9.436 -0.1534  0.7248 -0.8788
20286SOL    HW262300   7.118   3.936   9.443 -0.4656  0.8121 -0.5190
20287SOL     OW62301   5.780   2.820   9.421  0.4424 -0.0166 -0.2373
20287SOL    HW162302   5.713   2.888   9.418 -0.9537 -1.3318 -0.3229
20287SOL    HW262303   5.820   2.822   9.334 -0.1463  0.1594 -0.5137
20288SOL     OW62304   5.751   3.760  10.883 -0.0529 -0.5542 -0.3340
20288SOL    HW162305   5.777   3.843  10.842 -0.2547  0.9881  2.4617
20288SOL    HW262306   5.658   3.770  10.900  0.0637 -1.0738  0.6426
20289SOL     OW62307   6.419   4.265   0.034  0.0927 -0.0480  0.4399
20289SOL    HW162308   6.383   4.302  -0.046  0.5479 -0.2992  0.1171
20289SOL    HW262309   6.387   4.175   0.036  2.6128 -1.0890 -1.1149
20290SOL     OW62310   5.740   2.035   9.266 -0.1880  0.5077 -0.4176
20290SOL    HW162311   5.727   2.128   9.248  0.9519  0.8039  0.2356
20290SOL    HW262312   5.813   2.010   9.209 -0.8343 -0.1393 -0.9956
20291SOL     OW62313   7.534   1.659  11.190  0.0827 -0.4185  0.1556
20291SOL    HW162314   7.571   1.595  11.129 -0.8846 -1.7005  0.8706
20291SOL    HW262315   7.609   1.714  11.214  2.2943 -4.1767  3.2007
20292SOL     OW62316   5.459   2.009  10.761 -0.2178 -0.4227  0.0289
20292SOL    HW162317   5.533   1.965  10.720  0.1134 -1.3515  1.5329
20292SOL    HW262318   5.382   1.959  10.732 -0.1567 -0.1832 -0.5747
20293SOL     OW62319   6.999   1.932  11.098  0.0391  0.6465  0.1159
20293SOL    HW162320   7.006   1.863  11.031  0.2066  0.6866  0.0908
20293SOL    HW262321   6.923   1.908  11.150 -0.0795  0.6011 -0.0760
20294SOL     OW62322   7.174   4.520   9.240 -0.5838  0.2084  0.3139
20294SOL    HW162323   7.159   4.610   9.268 -1.6201  0.2264 -0.2372
20294SOL    HW262324   7.158   4.521   9.146 -0.1054 -0.4565  0.2125
20295SOL     OW62325   7.515   2.689  10.740 -0.4028 -0.4273  0.1273
20295SOL    HW162326   7.534   2.754  10.807  1.0705  1.3250 -1.8378
20295SOL    HW262327   7.600   2.671  10.699 -1.3452 -0.6553 -1.8785
20296SOL     OW62328   0.617   5.153  10.934 -0.6811  0.0075  0.3888
20296SOL    HW162329   0.614   5.248  10.932  1.6087  0.1569  0.6756
20296SOL    HW262330   0.710   5.132  10.947 -0.9760 -2.2665 -0.5306
20297SOL     OW62331   6.192   3.502   9.315  0.1196  0.1793  0.4089
20297SOL    HW162332   6.130   3.506   9.387 -0.2121 -1.4129  0.2385
20297SOL    HW262333   6.158   3.435   9.256  1.4399  0.0116 -0.2184
20298SOL     OW62334   5.829   0.643   9.877 -0.1193 -0.8321 -0.0880
20298SOL    HW162335   5.862   0.671   9.963 -1.2430  1.4777 -0.3455
20298SOL    HW262336   5.741   0.680   9.872  0.5366  0.5700 -2.8987
20299SOL     OW62337   6.108   2.355   9.479  0.3484  0.9853 -0.0972
20299SOL    HW162338   6.152   2.306   9.409  0.0599 -1.4255  1.3257
20299SOL    HW262339   6.152   2.328   9.559 -1.3209  1.3233  0.9885
20300SOL     OW62340   5.239   3.049   8.739  0.8853 -0.1622 -0.4322
20300SOL    HW162341   5.151   3.031   8.773  1.4568  0.7850  1.7364
20300SOL    HW262342   5.233   3.136   8.700  0.2663 -1.1892 -2.7938
20301SOL     OW62343   5.870   0.408   8.737 -0.4054 -0.1773 -0.0954
20301SOL    HW162344   5.808   0.406   8.810  0.8962 -0.3656  1.0389
20301SOL    HW262345   5.856   0.494   8.697 -0.3038  0.4390  1.1364
20302SOL     OW62346   7.861   2.635  10.255  0.1236  0.6128 -0.1250
20302SOL    HW162347   7.925   2.675  10.196  0.1810  0.6154 -0.0603
20302SOL    HW262348   7.796   2.595  10.197 -0.3991  1.5439 -0.1997
20303SOL     OW62349   7.488   3.600  11.151  0.0788 -0.2477 -0.3272
20303SOL    HW162350   7.526   3.659  11.217 -0.4236  0.0944 -0.3419
20303SOL    HW262351   7.441   3.658  11.091 -1.4998 -0.7553  0.3696
20304SOL     OW62352   7.062   5.315   9.143 -0.4502 -0.1149 -0.1708
20304SOL    HW162353   7.036   5.407   9.137 -0.9880 -0.2482  0.0231
20304SOL    HW262354   7.150   5.317   9.181 -0.8890  0.2759  0.8593
20305SOL     OW62355   6.682   2.245  11.239  0.4295 -0.8875  0.0127
20305SOL    HW162356   6.773   2.243  11.210  0.0514 -2.9852 -1.2559
20305SOL    HW262357   6.631   2.242  11.158 -0.8891  2.6190  0.5398
20306SOL     OW62358   5.322   1.627   8.840 -0.2843  0.3414  0.4944
20306SOL    HW162359   5.288   1.539   8.823  0.8862 -0.0982  0.3457
20306SOL    HW262360   5.389   1.614   8.907 -0.6113  1.2279  1.0002
20307SOL     OW62361   5.667   3.140   9.277 -0.4309 -0.1753 -0.2332
20307SOL    HW162362   5.609   3.073   9.314  1.6902 -1.3358  1.2154
20307SOL    HW262363   5.671   3.208   9.344 -0.8924  0.3999 -0.7753
20308SOL     OW62364   6.361   3.455   9.825 -0.2694 -0.3546 -0.2458
20308SOL    HW162365   6.348   3.389   9.758 -0.8756 -0.5970  0.1118
20308SOL    HW262366   6.441   3.428   9.871  2.0379  1.4963 -2.8655
20309SOL     OW62367   6.151   1.936  11.196  0.2186  0.0234  0.0129
20309SOL    HW162368   6.069   1.887  11.204 -0.3002  1.0264  1.1236
20309SOL    HW262369   6.146   1.977  11.110 -0.8933  0.7944  0.4162
20310SOL     OW62370   5.560   1.720   8.522 -0.3413  0.2487  0.1168
20310SOL    HW162371   5.478   1.681   8.492 -1.1845  1.7846  0.3103
20310SOL    HW262372   5.620   1.711   8.448 -0.8914 -0.2866 -0.2726
20311SOL     OW62373   6.698   3.254   9.522  0.4009  0.0890  0.6353
20311SOL    HW162374   6.607   3.274   9.501 -0.1148 -1.9075  0.6952
20311SOL    HW262375   6.716   3.172   9.475  2.4595  0.8576 -0.0582
20312SOL     OW62376   6.552   1.830   9.297  0.7534  0.0865  0.0110
20312SOL    HW162377   6.533   1.847   9.205  2.2584  1.8644 -0.0298
20312SOL    HW262378   6.632   1.879   9.315  1.8028 -2.0134  1.6912
20313SOL     OW62379   6.703   4.030   8.346 -0.0093  0.6712  0.0078
20313SOL    HW162380   6.652   4.110   8.340  1.4651  1.6157 -0.6628
20313SOL    HW262381   6.743   4.033   8.433 -0.0997  0.5690  0.0533
20314SOL     OW62382   5.688   4.053   9.371 -0.0561 -0.0200  0.6701
20314SOL    HW162383   5.599   4.038   9.404 -0.8010 -2.0026 -1.8491
20314SOL    HW262384   5.724   3.966   9.357  0.7499  0.6370 -2.0017
20315SOL     OW62385   6.316   2.377   8.334  0.4631 -0.4970  0.6143
20315SOL    HW162386   6.380   2.412   8.272  0.5459  0.3268  1.1424
20315SOL    HW262387   6.249   2.336   8.279  0.9098 -0.4328  0.0132
20316SOL     OW62388   6.190   1.926  10.272 -0.1725  0.5749 -0.4985
20316SOL    HW162389   6.223   1.920  10.183 -2.1190 -0.3930 -1.2208
20316SOL    HW262390   6.104   1.884  10.268 -0.0892  0.0136  1.9458
20317SOL     OW62391   0.380   2.993  10.727  0.3923 -0.0023 -0.0413
20317SOL    HW162392   0.360   2.985  10.820 -0.4309 -4.0060 -0.3655
20317SOL    HW262393   0.296   2.985  10.683  1.0358 -1.2735 -1.1312
20318SOL     OW62394   6.321   3.483  10.230 -0.2095  0.0997 -0.0603
20318SOL    HW162395   6.374   3.409  10.260  1.7593  1.5858  0.3129
20318SOL    HW262396   6.345   3.495  10.138 -0.1874  0.5364 -0.0009
20319SOL     OW62397   7.259   1.907  11.499 -0.0582  0.3113 -0.0697
20319SOL    HW162398   7.207   1.865  11.431  0.0118  0.8864 -0.4869
20319SOL    HW262399   7.312   1.837  11.536  0.4042  0.1113 -1.0749
20320SOL     OW62400   6.908   3.491  10.673  0.5945  0.2971 -0.0859
20320SOL    HW162401   6.873   3.526  10.591  1.4901 -0.6572 -0.9017
20320SOL    HW262402   6.968   3.560  10.704 -1.1900  1.5120  0.8213
20321SOL     OW62403   7.336   4.474  10.890 -0.0496  0.0301 -0.0549
20321SOL    HW162404   7.371   4.461  10.978  0.6685 -0.7706 -0.4489
20321SOL    HW262405   7.411   4.464  10.832 -0.6929 -0.4465 -0.8274
20322SOL     OW62406   6.756   4.408  10.392  0.0202 -0.0985  0.1355
20322SOL    HW162407   6.803   4.480  10.435 -0.0826  0.4330 -0.6182
20322SOL    HW262408   6.670   4.445  10.373  0.7933  0.5032 -2.6238
20323SOL     OW62409   7.906   2.864   0.117  0.0433  0.1129  0.4850
20323SOL    HW162410   7.959   2.819   0.052  0.9437  0.6592  0.8265
20323SOL    HW262411   7.888   2.797   0.184  1.1487  0.1706  0.8570
20324SOL     OW62412   6.470   2.597  10.938 -0.3636  1.1822  0.1969
20324SOL    HW162413   6.482   2.691  10.940 -1.1491  1.4556 -2.7637
20324SOL    HW262414   6.559   2.561  10.927 -0.2714  1.7654 -1.0705
20325SOL     OW62415   6.668   2.086   9.769 -0.1846 -0.0767 -0.1136
20325SOL    HW162416   6.644   2.002   9.810 -0.3729 -0.1432 -0.3535
20325SOL    HW262417   6.624   2.084   9.684  0.2645  0.0270 -0.3513
20326SOL     OW62418   7.086   1.006  10.111 -0.2866 -0.3100  0.0404
20326SOL    HW162419   7.104   0.915  10.091 -1.1683 -0.8569  1.5359
20326SOL    HW262420   7.121   1.019  10.199  0.6034  1.0487 -0.4828
20327SOL     OW62421   5.453   4.706  10.570 -0.1256 -0.3588  0.2627
20327SOL    HW162422   5.378   4.758  10.540  0.4969  0.1411 -0.4810
20327SOL    HW262423   5.507   4.768  10.618 -0.1346 -0.6934  0.7081
20328SOL     OW62424   5.542   2.938   9.395  0.0731 -0.3671  0.1911
20328SOL    HW162425   5.518   2.896   9.312  2.1148  1.5578 -1.4886
20328SOL    HW262426   5.458   2.958   9.437 -1.0815 -0.0763 -2.1175
20329SOL     OW62427   6.277   2.278   9.684  0.6877 -0.2467  0.2037
20329SOL    HW162428   6.215   2.283   9.757 -1.6847  0.2767 -1.7302
20329SOL    HW262429   6.362   2.296   9.724 -0.2650 -1.4630  3.0774
20330SOL     OW62430   5.052   4.546   9.547  0.3385  0.5295 -0.2632
20330SOL    HW162431   5.018   4.508   9.627  2.2232 -0.2691  0.2126
20330SOL    HW262432   4.975   4.580   9.501 -0.8891 -0.0049  1.3400
20331SOL     OW62433   7.959   4.926  11.117  0.2169 -0.1195  0.4960
20331SOL    HW162434   7.943   4.832  11.125  2.1109 -0.5432 -0.0943
20331SOL    HW262435   8.036   4.942  11.172 -0.3456  1.1941  0.9473
20332SOL     OW62436   7.113   1.332   9.387  0.0740  0.0930  0.3678
20332SOL    HW162437   7.107   1.419   9.427  0.9226 -0.0449  0.8202
20332SOL    HW262438   7.189   1.338   9.330  0.7398 -0.6407  1.1555
20333SOL     OW62439   6.790   4.401   0.205  0.4765  0.0369 -0.0942
20333SOL    HW162440   6.875   4.439   0.180 -0.1810  1.2580 -0.5753
20333SOL    HW262441   6.777   4.427   0.296  0.0191  1.0319 -0.4285
20334SOL     OW62442   6.707   3.491  10.272  0.9935  0.4659 -0.1248
20334SOL    HW162443   6.714   3.528  10.361  0.6145  0.4201 -0.0762
20334SOL    HW262444   6.678   3.565  10.218  0.3103  0.2561 -0.0422
20335SOL     OW62445   6.146   1.101  10.335 -0.2641 -0.0410 -0.5697
20335SOL    HW162446   6.130   1.036  10.403 -1.9753 -0.0363 -0.9220
20335SOL    HW262447   6.105   1.181  10.368  1.1906  0.6898 -0.4605
20336SOL     OW62448   7.769   3.065  10.382  0.7212 -0.5677 -0.5596
20336SOL    HW162449   7.679   3.046  10.353  0.6515 -2.5845  0.7594
20336SOL    HW262450   7.760   3.140  10.440  0.2333  0.6462 -2.1369
20337SOL     OW62451   6.366   3.310  10.500  0.4423  0.6704 -0.3083
20337SOL    HW162452   6.446   3.348  10.536  1.1947 -0.3523 -0.8610
20337SOL    HW262453   6.298   3.332  10.564  1.0502  2.0126 -0.1016
20338SOL     OW62454   5.962   1.956   9.893  0.1241  0.3020 -0.2170
20338SOL    HW162455   5.905   1.915   9.828 -0.3024  1.8029 -0.8290
20338SOL    HW262456   5.936   1.917   9.976  1.4052 -2.4677 -0.9966
20339SOL     OW62457   6.697   3.133  10.386  0.2829  0.4024 -0.3946
20339SOL    HW162458   6.645   3.061  10.422  0.6485  0.6641  0.7026
20339SOL    HW262459   6.787   3.100  10.387  0.3590  0.6064 -0.5896
20340SOL     OW62460   5.001   0.791  10.661  0.3285 -0.4497  0.0331
20340SOL    HW162461   4.967   0.833  10.581 -0.0922 -1.8801 -0.5731
20340SOL    HW262462   5.092   0.821  10.666  0.2119  0.0765 -0.6917
20341SOL     OW62463   5.394   3.826  11.343 -0.0522  0.7224  0.5455
20341SOL    HW162464   5.455   3.754  11.358  0.7159  1.3895  0.6811
20341SOL    HW262465   5.313   3.784  11.316  0.5879 -0.1626 -0.0332
20342SOL     OW62466   7.417   4.993   9.764 -0.0605 -0.0221  0.5568
20342SOL    HW162467   7.394   5.076   9.721 -1.3962 -0.9838 -0.6756
20342SOL    HW262468   7.444   5.018   9.852  1.7106  1.9313 -0.4400
20343SOL     OW62469   5.471   0.246   7.991 -0.2684 -0.2854  0.2163
20343SOL    HW162470   5.558   0.206   7.995  0.4239  1.1326 -0.1782
20343SOL    HW262471   5.412   0.174   7.967  0.4863 -1.6849  2.2376
20344SOL     OW62472   4.535   1.817  11.094 -0.4193 -0.4226 -0.7365
20344SOL    HW162473   4.600   1.803  11.025 -0.6302 -1.9705 -0.6446
20344SOL    HW262474   4.578   1.786  11.174 -0.0794  1.6002 -0.0813
20345SOL     OW62475   6.334   2.002  10.520 -0.1499  0.1349 -0.1598
20345SOL    HW162476   6.271   1.972  10.455 -0.8748  2.0004 -0.3632
20345SOL    HW262477   6.357   2.091  10.492 -0.5333  1.0114  2.1647
20346SOL     OW62478   7.481   2.062  10.285 -0.1663 -0.2136 -0.4750
20346SOL    HW162479   7.454   2.020  10.203 -0.4733 -0.5409 -0.2128
20346SOL    HW262480   7.574   2.080  10.274 -0.1703 -0.4058 -0.8333
20347SOL     OW62481   6.325   2.625   8.702  0.1984  0.3025 -0.3974
20347SOL    HW162482   6.280   2.545   8.728  2.1594 -1.2252 -1.4523
20347SOL    HW262483   6.291   2.645   8.614  0.4271  0.0805 -0.5344
20348SOL     OW62484   6.265   5.171  10.916 -0.5964 -0.6489 -0.1385
20348SOL    HW162485   6.274   5.097  10.975 -0.6012 -0.1638  0.4836
20348SOL    HW262486   6.183   5.213  10.943 -0.8053 -0.6445 -0.7512
20349SOL     OW62487   0.314   3.703  10.486 -0.1576 -0.7971 -0.8623
20349SOL    HW162488   0.325   3.737  10.575  0.0330  0.2024 -1.2498
20349SOL    HW262489   0.220   3.690  10.476 -0.2584 -0.1407 -0.7826
20350SOL     OW62490   5.587   1.995   8.620  0.5902  0.1746  0.2248
20350SOL    HW162491   5.575   1.907   8.585  1.8022  0.2153 -0.3440
20350SOL    HW262492   5.682   2.007   8.622  0.4857  0.9710  1.5550
20351SOL     OW62493   7.517   3.121   8.834  0.0271  0.7746 -0.4891
20351SOL    HW162494   7.450   3.184   8.808 -1.3821  1.1923  3.3897
20351SOL    HW262495   7.470   3.037   8.838 -0.0596  0.8698  1.1988
20352SOL     OW62496   6.287   3.580  11.352  0.0093  0.1501 -0.0454
20352SOL    HW162497   6.312   3.488  11.359  1.1770  0.5044  0.5409
20352SOL    HW262498   6.195   3.582  11.381 -0.0541 -0.8360 -0.1522
20353SOL     OW62499   6.776   3.316   9.784 -0.4878  0.2755  0.0046
20353SOL    HW162500   6.762   3.410   9.797  0.1159  0.1416  1.9304
20353SOL    HW262501   6.758   3.302   9.691 -0.5543  2.2990 -0.3401
20354SOL     OW62502   7.166   2.863  11.409  0.0058 -0.2750 -0.6599
20354SOL    HW162503   7.181   2.955  11.385  0.4722 -0.2686 -0.3407
20354SOL    HW262504   7.074   2.848  11.386  0.1319  0.0524 -1.4138
20355SOL     OW62505   4.660   1.669   8.453  0.7321 -0.0063 -0.3038
20355SOL    HW162506   4.659   1.738   8.519  0.1537  0.2060 -0.5329
20355SOL    HW262507   4.724   1.699   8.388  0.7830  0.1193 -0.1956
20356SOL     OW62508   5.094   2.853   9.109 -0.2737  0.2047  0.1673
20356SOL    HW162509   5.150   2.911   9.059 -0.3562  0.7260  0.6651
20356SOL    HW262510   5.110   2.766   9.073  2.7746 -0.0860  1.9162
20357SOL     OW62511   6.220   3.540   9.025 -0.1314 -0.1309 -0.2291
20357SOL    HW162512   6.208   3.522   9.118 -0.5121  0.5443 -0.1388
20357SOL    HW262513   6.254   3.630   9.022  0.3383 -0.3154 -0.7238
20358SOL     OW62514   5.872   4.211  11.007 -0.0707  0.2597 -0.5409
20358SOL    HW162515   5.811   4.227  11.079 -1.6249 -1.8846 -1.2592
20358SOL    HW262516   5.824   4.238  10.929  0.1313 -0.8522 -1.0694
20359SOL     OW62517   6.711   4.818  11.546 -0.3813  0.1676  0.1765
20359SOL    HW162518   6.804   4.809  11.566 -0.4935  0.5137  0.8673
20359SOL    HW262519   6.691   4.741  11.492  0.0212 -0.5856  1.0708
20360SOL     OW62520   5.131   1.356  10.781 -0.1910 -0.1978 -0.0485
20360SOL    HW162521   5.046   1.354  10.738 -0.1492 -0.3395 -0.1236
20360SOL    HW262522   5.190   1.310  10.721  0.0741  0.4448 -0.2897
20361SOL     OW62523   6.564   3.398  11.373  0.2760 -0.1281 -0.4490
20361SOL    HW162524   6.585   3.361  11.287  2.1438 -1.0498  0.3496
20361SOL    HW262525   6.610   3.481  11.375  0.8807 -0.4655 -0.0663
20362SOL     OW62526   0.523   5.018  11.564  0.6699 -0.2315 -0.8295
20362SOL    HW162527   0.558   4.979  11.484  0.1946 -1.8712 -0.2954
20362SOL    HW262528   0.445   4.966  11.582  1.0270 -0.1986  0.9403
20363SOL     OW62529   6.363   3.730   9.385 -0.1710  0.0117  0.0079
20363SOL    HW162530   6.280   3.682   9.393 -1.3298  1.7915 -0.6229
20363SOL    HW262531   6.383   3.728   9.291  0.0093  0.3772  0.0375
20364SOL     OW62532   6.060   2.233   9.871  0.4375 -0.5709  0.1139
20364SOL    HW162533   6.051   2.291   9.946  0.3013  0.2302 -0.5078
20364SOL    HW262534   6.059   2.145   9.908  4.0869 -0.2021  1.4586
20365SOL     OW62535   5.359   3.633  10.365 -0.3438  0.1184  0.4322
20365SOL    HW162536   5.413   3.554  10.366  0.4745  0.6701  0.3172
20365SOL    HW262537   5.402   3.693  10.427 -1.6623  0.0222  1.4891
20366SOL     OW62538   7.789   3.678   9.825 -0.7689 -0.1847  0.2099
20366SOL    HW162539   7.754   3.758   9.863 -0.2168 -1.0028  2.6282
20366SOL    HW262540   7.852   3.709   9.759 -1.8784  1.3101 -0.2057
20367SOL     OW62541   7.650   2.921  12.211 -0.0340 -0.6738 -0.1400
20367SOL    HW162542   7.555   2.922  12.197 -0.0480  0.3885 -0.0519
20367SOL    HW262543   7.677   3.012  12.199  0.5208 -0.3552  2.8129
20368SOL     OW62544   5.480   3.598   9.874  0.6161 -0.3910  0.6152
20368SOL    HW162545   5.438   3.671   9.921  0.0369 -1.5588  1.9780
20368SOL    HW262546   5.479   3.626   9.782 -1.1743  0.5827  0.8695
20369SOL     OW62547   6.135   2.593   9.315 -0.0962 -0.1751  0.6759
20369SOL    HW162548   6.145   2.524   9.381  0.2121 -0.8384 -0.0424
20369SOL    HW262549   6.121   2.545   9.233 -0.3367  0.6301  0.2400
20370SOL     OW62550   7.252   3.750  10.145 -0.3210  0.0577 -0.4748
20370SOL    HW162551   7.202   3.763  10.226  0.7636  0.6956  0.1169
20370SOL    HW262552   7.231   3.826  10.092  0.6592  0.7809  0.1349
20371SOL     OW62553   6.116   3.829   8.504  0.0672 -0.4068 -0.6635
20371SOL    HW162554   6.101   3.777   8.425  1.3591  0.4327 -1.5126
20371SOL    HW262555   6.151   3.912   8.472 -1.9476  1.0411  0.6538
20372SOL     OW62556   6.560   3.479   9.183  0.0413  0.3819 -0.4559
20372SOL    HW162557   6.592   3.447   9.099 -0.8440 -0.6029 -0.4404
20372SOL    HW262558   6.512   3.559   9.163 -0.5619 -0.1018 -0.9524
20373SOL     OW62559   7.991   4.970  10.536 -0.3922 -0.2010 -0.2383
20373SOL    HW162560   7.911   4.923  10.516  1.0770 -2.4248 -1.3536
20373SOL    HW262561   8.058   4.929  10.481  2.0764 -0.3634  2.5963
20374SOL     OW62562   4.598   4.389  10.689 -0.6992  0.3283 -0.2653
20374SOL    HW162563   4.590   4.367  10.782 -0.5258  2.7565  0.3914
20374SOL    HW262564   4.553   4.473  10.680 -1.1955 -0.1062 -2.5240
20375SOL     OW62565   5.468   3.851  10.877 -0.1381  0.0837  0.0924
20375SOL    HW162566   5.464   3.935  10.924  0.3564  0.3095 -0.2550
20375SOL    HW262567   5.429   3.870  10.792  0.8348  0.2109 -0.3348
20376SOL     OW62568   7.924   2.130  10.746 -0.0061 -0.1901  0.4544
20376SOL    HW162569   7.964   2.167  10.824  0.7561  0.4308 -0.2124
20376SOL    HW262570   7.997   2.094  10.696 -0.5574 -1.1970  0.3368
20377SOL     OW62571   6.685   2.218   9.010 -0.1847 -0.0668  0.2527
20377SOL    HW162572   6.775   2.249   9.021 -1.3176  2.9844  1.9387
20377SOL    HW262573   6.650   2.269   8.937 -0.5497 -1.3804 -0.5326
20378SOL     OW62574   6.013   4.541  11.493 -0.6775 -0.1291 -0.5723
20378SOL    HW162575   6.089   4.493  11.524 -0.4162  0.6690  0.0534
20378SOL    HW262576   6.006   4.616  11.551 -0.2891  1.3363 -2.3153
20379SOL     OW62577   6.193   2.736  10.393 -0.3938  0.0756 -0.1451
20379SOL    HW162578   6.248   2.813  10.380 -1.3386  0.8018  0.0799
20379SOL    HW262579   6.249   2.675  10.441  0.2407  0.7585  0.0044
20380SOL     OW62580   6.470   2.638   9.477 -0.2820  0.2021 -0.0826
20380SOL    HW162581   6.474   2.551   9.518 -0.5919  0.3491  0.2683
20380SOL    HW262582   6.509   2.626   9.391 -0.4662 -0.3239 -0.0970
20381SOL     OW62583   7.128   3.785   6.550 -0.1778  0.3034 -0.6219
20381SOL    HW162584   7.192   3.822   6.489  1.4557  0.5379  1.1273
20381SOL    HW262585   7.181   3.737   6.614 -1.8197 -0.0614  0.5267
20382SOL     OW62586   5.910   2.988   9.650  0.2650 -0.0948 -0.3890
20382SOL    HW162587   5.998   2.954   9.631 -0.1009 -0.9751 -0.5635
20382SOL    HW262588   5.852   2.936   9.594 -0.5206 -0.5706  0.8404
20383SOL     OW62589   0.809   2.915  10.865  0.8712  0.0586  0.5798
20383SOL    HW162590   0.785   2.879  10.779 -1.3239  0.6130  0.9226
20383SOL    HW262591   0.905   2.911  10.865  0.8940 -1.2477 -1.3298
20384SOL     OW62592   0.500   1.592   9.632  0.1542 -0.4185  0.3854
20384SOL    HW162593   0.547   1.636   9.703 -0.6333 -0.8992  1.2263
20384SOL    HW262594   0.552   1.611   9.554 -0.4589  2.5450  0.5738
20385SOL     OW62595   5.513   3.416  10.328  0.1193  0.0289 -0.9878
20385SOL    HW162596   5.476   3.334  10.298  0.8510 -0.3676 -0.8410
20385SOL    HW262597   5.557   3.453  10.251  0.5534 -0.1616 -0.8359
20386SOL     OW62598   7.560   3.715  11.586  0.0343  0.3610 -0.1367
20386SOL    HW162599   7.551   3.722  11.681  0.6827  0.9250 -0.1178
20386SOL    HW262600   7.598   3.628  11.572  0.5108  0.5177  0.1591
20387SOL     OW62601   0.708   2.738   9.269 -0.3964  0.0824  0.8336
20387SOL    HW162602   0.727   2.727   9.176  1.3041 -0.1415  1.1806
20387SOL    HW262603   0.774   2.686   9.314 -2.2212 -1.2061  2.1700
20388SOL     OW62604   6.827   1.830   8.554 -0.9157 -0.0306  0.4448
20388SOL    HW162605   6.733   1.813   8.555 -0.4993 -2.8253  1.8078
20388SOL    HW262606   6.841   1.887   8.630 -1.4071 -0.5347  0.9273
20389SOL     OW62607   6.235   4.586  10.299  0.6154 -0.0804  0.6872
20389SOL    HW162608   6.203   4.662  10.251  0.7683  0.8570  2.0457
20389SOL    HW262609   6.323   4.571  10.265  0.8367  0.7542  0.8977
20390SOL     OW62610   6.366   2.302  10.465  0.2691  0.4736 -0.1546
20390SOL    HW162611   6.346   2.385  10.422  0.2423  0.7044  0.3022
20390SOL    HW262612   6.422   2.326  10.539 -0.8207  0.2409  0.7799
20391SOL     OW62613   6.755   4.767   8.613  0.2664  0.1028 -0.0374
20391SOL    HW162614   6.737   4.813   8.695 -3.2054 -2.3169  0.7977
20391SOL    HW262615   6.820   4.700   8.637 -1.0351 -0.8583  0.9133
20392SOL     OW62616   5.798   1.690   8.677 -0.3264  0.0802 -0.1142
20392SOL    HW162617   5.843   1.773   8.663  0.0407  0.1443  1.2809
20392SOL    HW262618   5.706   1.709   8.660 -0.1607  0.6020 -0.4556
20393SOL     OW62619   6.672   4.801   8.363 -0.0179 -0.3869  0.0770
20393SOL    HW162620   6.702   4.793   8.454 -0.5544 -0.6448  0.2345
20393SOL    HW262621   6.752   4.818   8.313  0.2562 -0.0654  0.6180
20394SOL     OW62622   6.554   3.721   9.605  0.2646  0.3378 -0.6599
20394SOL    HW162623   6.634   3.766   9.577 -0.2486  1.0299 -1.0530
20394SOL    HW262624   6.490   3.743   9.538 -0.8822  1.6617  0.7723
20395SOL     OW62625   6.584   3.371   8.931 -0.0771 -0.3715 -0.2725
20395SOL    HW162626   6.600   3.276   8.928  0.8747 -0.2592  0.8521
20395SOL    HW262627   6.657   3.409   8.883 -0.5180 -0.1954 -0.8206
20396SOL     OW62628   6.218   7.814  10.471  0.0347 -0.2849 -0.0927
20396SOL    HW162629   6.271   7.763  10.409 -0.6265 -0.2059 -0.7403
20396SOL    HW262630   6.246   7.904  10.457  0.4733 -0.3543  0.3191
20397SOL     OW62631   7.633   0.998   8.729 -0.5619  0.2566  0.1712
20397SOL    HW162632   7.702   0.961   8.785 -0.2271 -0.6818 -0.8229
20397SOL    HW262633   7.680   1.049   8.663 -0.9515  1.3205  0.6971
20398SOL     OW62634   5.864   0.464   9.063 -0.3815 -0.3969  0.3464
20398SOL    HW162635   5.790   0.417   9.025 -0.7911 -1.3757  2.1939
20398SOL    HW262636   5.888   0.530   8.998 -2.5859 -0.3554 -0.4866
20399SOL     OW62637   5.999   1.604  10.676  0.0414  0.4930 -0.4539
20399SOL    HW162638   6.051   1.525  10.664 -0.6579  0.2346 -2.0973
20399SOL    HW262639   5.918   1.574  10.719 -0.6332  0.1278 -1.9404
20400SOL     OW62640   5.856   2.000   8.628 -0.2366  0.0338 -0.3018
20400SOL    HW162641   5.932   2.019   8.574  0.6325 -1.1754  0.4451
20400SOL    HW262642   5.879   2.031   8.715 -0.6754 -0.1422 -0.1183
20401SOL     OW62643   6.243   3.438   8.212 -0.1390 -0.4925  0.1608
20401SOL    HW162644   6.309   3.506   8.229  0.7346 -0.6916 -2.1219
20401SOL    HW262645   6.270   3.364   8.267  1.7112 -0.6472 -0.8860
20402SOL     OW62646   6.029   3.608  11.385  0.2365  0.2725  0.1863
20402SOL    HW162647   6.007   3.665  11.459  0.1831  0.5203 -0.0160
20402SOL    HW262648   5.982   3.647  11.311 -0.4814 -0.5238  0.2140
20403SOL     OW62649   7.252   2.951   8.930  0.0714 -0.0524 -0.2587
20403SOL    HW162650   7.250   2.897   9.010  2.1619  0.3278  0.1179
20403SOL    HW262651   7.213   2.895   8.863 -1.2404 -0.5918  0.8985
20404SOL     OW62652   5.131   2.513  10.191  0.6814 -0.2731  0.4402
20404SOL    HW162653   5.104   2.474  10.274 -0.2488 -0.1523  0.2045
20404SOL    HW262654   5.054   2.561  10.161  1.0701 -0.1584 -0.4051
20405SOL     OW62655   5.698   2.212  10.624 -0.0854 -0.6113 -0.1401
20405SOL    HW162656   5.641   2.270  10.573 -0.9459 -2.9349 -1.9936
20405SOL    HW262657   5.786   2.237  10.598 -0.3543  0.9075  0.3240
20406SOL     OW62658   5.536   3.273  10.881  0.0731  0.0675 -0.3775
20406SOL    HW162659   5.555   3.239  10.793  0.9279 -0.6035  0.0585
20406SOL    HW262660   5.506   3.363  10.865 -1.0052 -0.4546 -1.4432
20407SOL     OW62661   7.738   2.498   9.747 -0.1617 -0.1394 -0.1317
20407SOL    HW162662   7.813   2.458   9.702  0.8802 -1.4454  2.5527
20407SOL    HW262663   7.773   2.579   9.784 -0.3512 -0.2442  0.2760
20408SOL     OW62664   5.772   1.800  10.062 -0.1593  0.6993 -0.0039
20408SOL    HW162665   5.679   1.780  10.072  0.0601 -0.4345 -0.0944
20408SOL    HW262666   5.803   1.736   9.997  0.7713  0.7954  0.3362
20409SOL     OW62667   5.814   3.286   9.490 -0.2391  0.4560  0.4847
20409SOL    HW162668   5.908   3.273   9.503 -0.1173  0.4988 -0.3083
20409SOL    HW262669   5.777   3.280   9.578  0.2111 -1.8597  0.5814
20410SOL     OW62670   7.190   2.638  11.971  0.2455  0.6817 -0.1145
20410SOL    HW162671   7.126   2.594  12.028  0.2729  0.4344 -0.2717
20410SOL    HW262672   7.146   2.718  11.943  0.2689  0.8510  0.3290
20411SOL     OW62673   7.416   3.743   9.054 -0.5914 -0.4386 -0.0351
20411SOL    HW162674   7.343   3.802   9.073 -0.8959 -0.7207 -0.3036
20411SOL    HW262675   7.488   3.801   9.027 -0.6569 -0.1464  0.4136
20412SOL     OW62676   5.830   3.746   9.088 -0.3051 -0.0328 -0.2674
20412SOL    HW162677   5.852   3.739   9.181 -2.0391 -1.0404  0.1051
20412SOL    HW262678   5.735   3.736   9.085 -0.4719  1.5383 -2.0200
20413SOL     OW62679   5.304   4.238  10.689  0.0195 -0.5658  0.4897
20413SOL    HW162680   5.334   4.327  10.705  0.3794 -0.7660  0.9536
20413SOL    HW262681   5.232   4.225  10.752 -1.8280  0.2827 -1.3386
20414SOL     OW62682   7.194   4.265   9.548 -0.6812  0.1967  0.6032
20414SOL    HW162683   7.128   4.310   9.495 -1.5164 -1.2734  0.3341
20414SOL    HW262684   7.275   4.313   9.530 -1.0003  0.0069 -1.7497
20415SOL     OW62685   5.697   2.256   9.047 -0.1855 -0.1414 -0.2433
20415SOL    HW162686   5.675   2.322   8.982 -1.7078 -1.1617 -0.8150
20415SOL    HW262687   5.730   2.182   8.996 -2.0744 -1.2293  0.0134
20416SOL     OW62688   7.651   4.122   8.108 -0.1241 -0.0513 -0.6810
20416SOL    HW162689   7.742   4.148   8.115 -0.2624  0.0992  0.7488
20416SOL    HW262690   7.651   4.052   8.043  1.1699 -0.8065  0.0977
20417SOL     OW62691   5.295   2.697  11.483  0.0687 -0.2544 -1.0090
20417SOL    HW162692   5.311   2.790  11.500 -1.2237 -0.4461  1.7229
20417SOL    HW262693   5.375   2.667  11.441  1.7491  1.4654  0.7488
20418SOL     OW62694   5.937   4.283  10.553 -0.0488  0.5991 -0.1553
20418SOL    HW162695   5.967   4.373  10.541 -0.0167  0.6963  0.6514
20418SOL    HW262696   5.903   4.258  10.467  0.8265  1.0493 -0.6444
20419SOL     OW62697   6.578   4.416  10.672 -0.2490 -0.2239 -0.2218
20419SOL    HW162698   6.525   4.368  10.608  1.4916 -0.5944 -1.4277
20419SOL    HW262699   6.569   4.508  10.646  0.0666 -0.3294 -0.7197
20420SOL     OW62700   6.330   1.172  10.131 -0.0058  0.0763  0.3537
20420SOL    HW162701   6.275   1.179  10.209 -0.7377  0.3729 -0.1842
20420SOL    HW262702   6.401   1.114  10.158  1.1882  2.2068  2.0421
20421SOL     OW62703   5.969   2.818   8.850 -0.2543 -0.1868 -0.2775
20421SOL    HW162704   5.906   2.788   8.784 -0.8429  1.4245 -0.4778
20421SOL    HW262705   5.944   2.769   8.929 -1.2027 -0.2408 -0.5905
20422SOL     OW62706   7.463   2.925   9.667 -0.1056 -0.3173  0.0875
20422SOL    HW162707   7.439   3.002   9.718 -1.1956 -0.0485 -0.7969
20422SOL    HW262708   7.441   2.948   9.576  2.1423 -0.6130 -0.6087
20423SOL     OW62709   5.499   1.655  10.476 -0.3919 -0.3429 -0.1222
20423SOL    HW162710   5.438   1.665  10.403 -2.0993  1.6679  1.4334
20423SOL    HW262711   5.449   1.606  10.542  1.0916 -2.0749 -0.2285
20424SOL     OW62712   5.821   5.253   9.347 -0.2195 -0.3474 -0.4322
20424SOL    HW162713   5.890   5.292   9.401  0.4070 -0.2818 -1.2630
20424SOL    HW262714   5.792   5.325   9.291 -1.5598 -0.1496  0.4686
20425SOL     OW62715   7.629   3.195   8.586  0.3499  0.3389 -0.0919
20425SOL    HW162716   7.606   3.166   8.674 -0.7204 -0.4743 -0.6242
20425SOL    HW262717   7.707   3.145   8.563  1.0233  1.0187  0.6122
20426SOL     OW62718   6.137   2.535  11.033  0.2853 -0.4041  1.0329
20426SOL    HW162719   6.166   2.620  11.000  2.5018 -1.0570  1.1752
20426SOL    HW262720   6.106   2.489  10.955  0.1414  0.1049  0.7834
20427SOL     OW62721   6.825   4.436  10.983  0.6936 -0.3353 -0.2369
20427SOL    HW162722   6.913   4.455  11.014  1.4002 -1.1297 -1.6595
20427SOL    HW262723   6.793   4.520  10.950  1.2463 -0.2278 -0.5054
20428SOL     OW62724   5.663   4.539  11.811 -0.0432  0.0732 -0.2474
20428SOL    HW162725   5.660   4.444  11.798  1.3054  0.1009 -1.0081
20428SOL    HW262726   5.749   4.554  11.850 -0.6136  0.9029  0.7112
20429SOL     OW62727   6.372   4.869   8.001  0.1410 -0.3644  0.1693
20429SOL    HW162728   6.417   4.812   7.938 -0.4176  1.5530 -2.1217
20429SOL    HW262729   6.282   4.875   7.968 -0.2266  0.5432  1.2747
20430SOL     OW62730   6.183   2.964   9.862 -0.0941  0.1798 -0.2017
20430SOL    HW162731   6.180   2.954   9.767  0.6538  0.3764 -0.2528
20430SOL    HW262732   6.108   3.020   9.882 -0.5657 -0.2987 -0.6141
20431SOL     OW62733   6.580   1.683  10.804  0.2043  0.5671  0.3992
20431SOL    HW162734   6.646   1.736  10.850 -0.1267  0.2088  1.3162
20431SOL    HW262735   6.556   1.735  10.728  0.8942  1.1056  0.5381
20432SOL     OW62736   4.593   0.493   9.715 -0.0798  0.4676  0.7625
20432SOL    HW162737   4.637   0.543   9.646  1.2515  1.4930  2.2657
20432SOL    HW262738   4.505   0.530   9.721  0.0650  0.9137  0.1526
20433SOL     OW62739   7.811   2.815   8.801  0.5325 -0.2899  0.4771
20433SOL    HW162740   7.792   2.734   8.754 -1.0020  0.3078 -0.0207
20433SOL    HW262741   7.756   2.812   8.879 -0.7665  0.9388 -0.3445
20434SOL     OW62742   6.151   2.288  12.080  0.0922 -0.8910  0.6080
20434SOL    HW162743   6.169   2.366  12.134  1.5089 -0.6421 -0.1735
20434SOL    HW262744   6.082   2.316  12.020 -1.2451 -1.0554  1.9980
20435SOL     OW62745   6.329   2.059  10.807 -0.0898  0.5255  0.1655
20435SOL    HW162746   6.272   1.989  10.840  0.0894 -0.0781 -0.7794
20435SOL    HW262747   6.351   2.033  10.718  0.3113  1.5947 -0.0690
20436SOL     OW62748   5.314   1.900  12.198 -0.2830  0.5254 -0.0364
20436SOL    HW162749   5.310   1.812  12.235  1.3790 -1.2511 -3.5924
20436SOL    HW262750   5.354   1.953  12.266 -0.1099 -1.7581  1.7644
20437SOL     OW62751   5.390   3.548   1.934 -0.6150 -0.5306  0.1883
20437SOL    HW162752   5.368   3.533   1.842 -2.0614 -0.2495  0.4729
20437SOL    HW262753   5.475   3.592   1.931 -1.3716  0.9492 -1.0888
20438SOL     OW62754   7.174   2.459  10.443 -0.8917  0.4532  0.1111
20438SOL    HW162755   7.120   2.384  10.418  0.7628 -0.4867 -0.8269
20438SOL    HW262756   7.189   2.506  10.361 -0.5406  0.8849  0.4191
20439SOL     OW62757   0.444   1.740  11.856  0.2275 -0.2054 -0.3613
20439SOL    HW162758   0.394   1.695  11.924 -0.9547 -1.2618 -1.8492
20439SOL    HW262759   0.460   1.828  11.891 -1.8733 -0.1378  0.5723
20440SOL     OW62760   5.959   2.200  11.647  0.6762  0.4009 -0.8058
20440SOL    HW162761   6.037   2.154  11.680 -1.5129 -1.8247  1.7883
20440SOL    HW262762   5.933   2.150  11.570  0.0657 -0.9152  0.2082
20441SOL     OW62763   6.761   2.480  10.771 -0.8055 -0.5568 -0.0783
20441SOL    HW162764   6.839   2.479  10.826 -0.3600  0.6752 -0.6424
20441SOL    HW262765   6.724   2.392  10.780 -0.0182 -0.7917  1.1259
20442SOL     OW62766   5.007   4.690   0.854  0.1333 -0.9082  0.2545
20442SOL    HW162767   5.092   4.705   0.897  0.6356 -1.2160 -0.6074
20442SOL    HW262768   5.026   4.628   0.784 -0.7430 -0.7160 -0.1683
20443SOL     OW62769   0.376   0.620  11.136 -0.1302  0.0843  0.2040
20443SOL    HW162770   0.354   0.532  11.104  0.1876 -0.1240  0.5547
20443SOL    HW262771   0.401   0.607  11.227 -2.4892  0.8628  1.0326
20444SOL     OW62772   7.346   4.613  11.984  0.0371  0.3367  0.4616
20444SOL    HW162773   7.342   4.517  11.979 -0.0077  0.3210  0.8124
20444SOL    HW262774   7.343   4.641  11.893  1.3690 -0.0559  0.2649
20445SOL     OW62775   6.680   4.781   9.406  0.9648 -0.1930  0.5386
20445SOL    HW162776   6.650   4.700   9.364  0.4134  0.8125 -1.1442
20445SOL    HW262777   6.601   4.817   9.447  0.6729  0.5230 -0.5785
20446SOL     OW62778   4.943   2.892   0.384 -0.1477 -0.0368 -0.4520
20446SOL    HW162779   4.955   2.801   0.355 -0.4124  0.5817 -2.5903
20446SOL    HW262780   4.848   2.901   0.396 -0.5179  0.8005 -3.3711
20447SOL     OW62781   5.395   2.288  12.436  0.7636  0.1133  0.5386
20447SOL    HW162782   5.340   2.311  12.361 -1.1153 -2.8408  0.8712
20447SOL    HW262783   5.335   2.282  12.509  2.0508 -0.1634  1.6154
20448SOL     OW62784   6.634   3.122  11.800 -0.4184 -0.2194  0.0259
20448SOL    HW162785   6.600   3.193  11.746  1.1852  1.0350  0.5931
20448SOL    HW262786   6.561   3.097  11.856 -0.8182  1.4914  0.3182
20449SOL     OW62787   6.921   4.024  10.824  0.0211 -0.3717 -0.6053
20449SOL    HW162788   6.952   4.041  10.913 -1.2708 -0.1668 -0.1824
20449SOL    HW262789   6.920   4.111  10.783 -2.3171  0.0431  0.1725
20450SOL     OW62790   4.812   3.368   0.803  0.6317  0.8633 -0.0307
20450SOL    HW162791   4.804   3.287   0.854  0.9288 -1.0413 -2.8196
20450SOL    HW262792   4.888   3.412   0.841 -0.5658  0.8127  2.7025
20451SOL     OW62793   0.007   6.276  12.140  0.1868  0.3928 -0.0609
20451SOL    HW162794   0.025   6.286  12.047  2.0453  1.8454  0.3780
20451SOL    HW262795   0.049   6.193  12.164 -0.5784 -0.1475 -0.5536
20452SOL     OW62796   0.858   4.897  11.778  0.2397 -0.6390 -0.2826
20452SOL    HW162797   0.937   4.934  11.741  0.6743  2.4047  3.1318
20452SOL    HW262798   0.886   4.813  11.815  1.6713 -0.0485  0.0374
20453SOL     OW62799   6.432   1.385  12.066 -0.6063 -0.5208  0.0921
20453SOL    HW162800   6.398   1.316  12.123 -2.3588 -0.5618 -0.9390
20453SOL    HW262801   6.527   1.382  12.079 -0.8579 -1.2909  2.1019
20454SOL     OW62802   4.802   4.010   0.538 -0.4248 -0.6751  0.5061
20454SOL    HW162803   4.884   3.987   0.494  0.2336  0.1319  1.2716
20454SOL    HW262804   4.741   4.030   0.466  0.5337  0.3093 -0.0688
20455SOL     OW62805   5.484   3.984  11.833 -0.1412  0.1269 -0.2504
20455SOL    HW162806   5.532   3.996  11.915  0.0504  1.3880 -0.5339
20455SOL    HW262807   5.497   3.891  11.812  0.3224 -0.0697  0.8195
20456SOL     OW62808   4.646   3.891   0.722 -0.2511  0.0970 -0.2828
20456SOL    HW162809   4.615   3.961   0.780 -0.0942  0.1164 -0.2208
20456SOL    HW262810   4.691   3.938   0.651  1.0339  0.0183  0.4530
20457SOL     OW62811   6.612   2.363   0.096  0.0510  0.2021  0.2503
20457SOL    HW162812   6.634   2.312   0.018  1.3400  1.0799  0.0063
20457SOL    HW262813   6.516   2.358   0.102 -0.1878  0.8828 -1.9406
20458SOL     OW62814   7.243   4.965   0.637 -0.1545 -0.0360 -0.1244
20458SOL    HW162815   7.163   4.927   0.602 -1.1785  0.9106  1.0723
20458SOL    HW262816   7.282   5.011   0.563 -0.7039 -0.5434 -0.7365
20459SOL     OW62817   0.949   3.157  11.173 -0.0745  0.1144 -0.2080
20459SOL    HW162818   0.891   3.091  11.209 -0.8615  1.0846  0.3608
20459SOL    HW262819   0.937   3.152  11.078 -3.2464  2.1342 -0.0382
20460SOL     OW62820   6.186   2.010  11.823 -0.0965  0.0291 -0.1367
20460SOL    HW162821   6.144   1.999  11.908  0.4667 -0.3864  0.0950
20460SOL    HW262822   6.229   2.096  11.829 -0.7255  0.3620 -0.2999
20461SOL     OW62823   7.328   2.812   0.062  0.4158 -0.0357 -0.5326
20461SOL    HW162824   7.256   2.807  -0.001 -0.0994  0.7010 -0.0099
20461SOL    HW262825   7.402   2.843   0.010 -0.0056  0.5737 -0.7883
20462SOL     OW62826   6.234   4.825  10.108 -0.1662  0.1651 -0.2379
20462SOL    HW162827   6.197   4.770  10.039  1.6775 -2.8052  0.9429
20462SOL    HW262828   6.299   4.880  10.063 -0.2149 -0.4814 -1.1135
20463SOL     OW62829   7.483   1.100  12.089  0.4156  0.1672 -0.0075
20463SOL    HW162830   7.537   1.155  12.032  1.6204 -0.3549  0.5993
20463SOL    HW262831   7.487   1.142  12.175  0.2779 -0.1581  0.1623
20464SOL     OW62832   6.555   1.133   9.315  0.0693  0.1334  0.4504
20464SOL    HW162833   6.599   1.094   9.240 -1.8030  0.0296 -0.6453
20464SOL    HW262834   6.462   1.118   9.299 -0.7131  3.8290  0.5961
20465SOL     OW62835   5.809   3.997   0.836  0.0684 -0.6833  0.5118
20465SOL    HW162836   5.885   4.055   0.844  0.1637 -0.7909  0.3958
20465SOL    HW262837   5.843   3.920   0.790  0.0228 -0.9739  0.9575
20466SOL     OW62838   5.472   2.613  11.964  0.2262 -0.2535  0.4118
20466SOL    HW162839   5.465   2.690  12.022 -0.2489  0.0115  0.0074
20466SOL    HW262840   5.544   2.634  11.905 -0.9995  0.6562 -0.8252
20467SOL     OW62841   6.806   2.449   9.747 -0.1325  0.2194  0.2906
20467SOL    HW162842   6.842   2.523   9.700 -0.1165 -0.0738 -0.1707
20467SOL    HW262843   6.727   2.425   9.697  1.2051 -1.6330 -1.0560
20468SOL     OW62844   6.321   4.924  11.054  0.2381  0.2339 -0.1035
20468SOL    HW162845   6.400   4.974  11.077 -0.4958  1.4677 -0.1850
20468SOL    HW262846   6.295   4.881  11.136  1.6668 -1.2015 -0.3513
20469SOL     OW62847   1.056   5.178  11.548 -0.8847 -0.3893  0.1240
20469SOL    HW162848   0.975   5.209  11.509 -0.1388  1.7503  0.1704
20469SOL    HW262849   1.105   5.139  11.476 -0.8985  0.5723 -0.4091
20470SOL     OW62850   0.329   1.944   0.476  0.4779 -0.1959 -0.9739
20470SOL    HW162851   0.385   1.987   0.410 -1.2303  2.0277 -1.0936
20470SOL    HW262852   0.241   1.975   0.456  0.0958  2.6708  3.7636
20471SOL     OW62853   5.770   2.224  10.313 -0.3211 -0.9187 -0.0960
20471SOL    HW162854   5.707   2.156  10.335 -1.9102  0.2094 -0.8850
20471SOL    HW262855   5.786   2.212  10.219 -0.4920 -0.3191 -0.2067
20472SOL     OW62856   0.272   2.560  12.041 -0.7865  0.4173 -0.2577
20472SOL    HW162857   0.220   2.483  12.063 -0.6183  0.8441  1.7580
20472SOL    HW262858   0.211   2.633  12.045 -0.2944  0.7742  0.9718
20473SOL     OW62859   6.779   5.255  11.134 -0.5331  0.2544  0.0994
20473SOL    HW162860   6.699   5.218  11.097 -1.3543  1.6221  0.4056
20473SOL    HW262861   6.827   5.289  11.058 -0.4671 -0.1633 -0.0440
20474SOL     OW62862   7.251   3.864  10.754  0.1358 -0.3429 -0.7514
20474SOL    HW162863   7.258   3.954  10.787  2.9921 -0.5026 -0.6675
20474SOL    HW262864   7.298   3.867  10.670  1.3753 -1.9716 -0.1654
20475SOL     OW62865   7.864   4.196  12.075  0.4030 -0.2503  0.1040
20475SOL    HW162866   7.924   4.122  12.071  1.0720  0.3318 -1.1189
20475SOL    HW262867   7.816   4.184  12.157  2.3014 -0.6424  1.2094
20476SOL     OW62868   7.373   2.887  12.201 -0.6708  0.0650  0.0809
20476SOL    HW162869   7.298   2.840  12.236 -1.1686 -0.1841 -1.2947
20476SOL    HW262870   7.335   2.959  12.151  0.0578  2.2256  2.3759
20477SOL     OW62871   7.170   4.358   0.224 -0.0122  0.1258 -0.0504
20477SOL    HW162872   7.094   4.401   0.185 -0.5361 -2.0013 -1.5103
20477SOL    HW262873   7.221   4.328   0.149  1.1767 -0.3511  0.9332
20478SOL     OW62874   5.689   2.986  11.829 -0.6043  0.1792  0.0770
20478SOL    HW162875   5.705   2.906  11.779 -1.0719  0.5038 -0.6075
20478SOL    HW262876   5.703   2.960  11.921 -0.4109 -0.5911 -0.1604
20479SOL     OW62877   7.623   2.504  11.414  0.1078  1.0440  0.2218
20479SOL    HW162878   7.608   2.431  11.474 -0.3971  1.3517  0.4728
20479SOL    HW262879   7.601   2.582  11.464 -0.6830  1.2791 -0.4690
20480SOL     OW62880   6.068   2.368  10.104 -0.5989 -0.8060  0.1914
20480SOL    HW162881   6.107   2.309  10.169  1.0623 -0.1932 -0.2177
20480SOL    HW262882   6.141   2.418  10.068 -1.9309  1.6034  0.5740
20481SOL     OW62883   5.871   2.756   0.777 -0.1265 -0.1050 -0.2521
20481SOL    HW162884   5.786   2.718   0.799  0.2365 -1.2331 -0.7098
20481SOL    HW262885   5.850   2.833   0.725 -0.8652 -1.1660 -1.5866
20482SOL     OW62886   7.987   4.778  11.489 -0.0798  0.1639  0.4594
20482SOL    HW162887   8.035   4.857  11.466  0.3324  0.0222  0.8148
20482SOL    HW262888   8.051   4.707  11.479 -0.8498 -0.3332 -1.3462
20483SOL     OW62889   5.580   1.741  10.900 -0.4588  0.1716  0.5119
20483SOL    HW162890   5.544   1.798  10.968 -0.6969 -0.8036  1.2252
20483SOL    HW262891   5.503   1.708  10.853 -0.4154 -0.6466  0.9993
20484SOL     OW62892   6.294   0.637   9.796 -0.6652 -0.5078  0.0779
20484SOL    HW162893   6.224   0.664   9.736 -0.5350 -1.9100 -0.7412
20484SOL    HW262894   6.373   0.676   9.759 -0.6894 -0.7800 -0.2607
20485SOL     OW62895   5.501   2.026  12.381  0.1653  0.1795  0.0290
20485SOL    HW162896   5.449   2.099  12.413  0.4834  0.3768  0.1009
20485SOL    HW262897   5.526   1.977  12.459 -0.1836 -0.1004 -0.0325
20486SOL     OW62898   6.361   2.268  10.033 -0.0779 -0.5838  0.0898
20486SOL    HW162899   6.309   2.213  10.092 -0.3255  0.3292  0.7505
20486SOL    HW262900   6.302   2.339  10.007  0.2930 -0.5139 -0.5863
20487SOL     OW62901   0.981   3.861   1.014 -0.4469 -0.6788 -0.4681
20487SOL    HW162902   1.011   3.783   1.060  0.7904  0.5283  0.8848
20487SOL    HW262903   1.056   3.921   1.016 -1.1900  0.3632 -1.9075
20488SOL     OW62904   5.655   3.704  11.810  0.2226  0.2314 -0.4871
20488SOL    HW162905   5.679   3.682  11.900 -1.4111  0.5617  0.0600
20488SOL    HW262906   5.627   3.621  11.771  0.1440  0.2343 -0.4365
20489SOL     OW62907   5.945   1.725  10.327 -0.1314 -0.3253  0.2359
20489SOL    HW162908   5.860   1.722  10.283  0.2459 -2.7983 -0.4365
20489SOL    HW262909   5.923   1.730  10.420 -0.9671  0.9528 -0.0098
20490SOL     OW62910   5.434   0.769  12.351 -0.1443  0.0845  0.3463
20490SOL    HW162911   5.478   0.704  12.405  1.4198 -1.4521 -2.5136
20490SOL    HW262912   5.341   0.760  12.374  0.4860  0.2317  3.3327
20491SOL     OW62913   6.952   2.221  11.200 -0.1731 -0.4480  0.3045
20491SOL    HW162914   6.988   2.157  11.262  0.2259 -0.4932  0.0323
20491SOL    HW262915   6.995   2.304  11.224 -1.4145 -0.0457  1.2932
20492SOL     OW62916   5.891   1.569   9.580 -0.1355 -0.0954 -0.5555
20492SOL    HW162917   5.908   1.475   9.573 -0.1119 -0.0904 -0.5652
20492SOL    HW262918   5.812   1.575   9.633  1.3165 -0.0340  1.7093
20493SOL     OW62919   6.195   7.719  11.369 -0.1894  0.3398  0.0755
20493SOL    HW162920   6.244   7.691  11.447  2.5078  0.6581 -1.3898
20493SOL    HW262921   6.217   7.653  11.303 -0.2990  1.4867 -1.1236
20494SOL     OW62922   5.634   2.668   0.821 -0.3679  0.0266  0.3266
20494SOL    HW162923   5.603   2.604   0.757  1.0045 -0.6856  0.3246
20494SOL    HW262924   5.567   2.736   0.823 -0.8983 -0.4303 -1.1437
20495SOL     OW62925   6.804   3.866   0.634 -0.9449  0.0849  0.4052
20495SOL    HW162926   6.793   3.804   0.706  0.3737 -2.6080 -1.5334
20495SOL    HW262927   6.721   3.862   0.587 -0.1623 -2.0661 -0.9544
20496SOL     OW62928   0.807   2.741   0.283 -0.4755  0.2884  0.0258
20496SOL    HW162929   0.736   2.678   0.298 -0.5673  0.4935  0.4861
20496SOL    HW262930   0.866   2.697   0.222  2.8247 -2.9991  4.8035
20497SOL     OW62931   5.825   3.294   0.059  0.3627 -0.6200 -0.1280
20497SOL    HW162932   5.747   3.255   0.099 -0.1826  0.3930 -0.1968
20497SOL    HW262933   5.866   3.345   0.129 -0.0206  0.3039 -0.5605
20498SOL     OW62934   7.109   2.372  11.387 -0.2532 -0.3688  0.1598
20498SOL    HW162935   7.174   2.420  11.439 -0.5889 -1.2404  1.4239
20498SOL    HW262936   7.105   2.286  11.427  0.0507 -1.3715 -1.8305
20499SOL     OW62937   6.697   2.794   9.574  0.0706  0.3448  0.4468
20499SOL    HW162938   6.606   2.784   9.546  0.2392 -1.6351  0.4633
20499SOL    HW262939   6.693   2.856   9.646 -1.0952  1.2476 -0.3500
20500SOL     OW62940   6.397   1.188   9.830  0.0985  0.3476  0.4186
20500SOL    HW162941   6.337   1.250   9.786  0.9138  0.5264 -0.4901
20500SOL    HW262942   6.354   1.167   9.912 -1.3127  0.3172 -0.2957
20501SOL     OW62943   0.038   4.013  11.490  0.2554 -0.2641 -0.0946
20501SOL    HW162944   0.000   4.086  11.441  0.3894 -0.2605 -0.1950
20501SOL    HW262945  -0.033   3.981  11.546 -0.0598 -0.6136 -0.6842
20502SOL     OW62946   6.109   1.706   0.924 -0.2089 -0.3741 -0.3598
20502SOL    HW162947   6.117   1.633   0.863  1.2969 -0.0021 -0.6677
20502SOL    HW262948   6.021   1.741   0.910  0.4835  0.4610 -3.2698
20503SOL     OW62949   7.660   2.886  10.089 -0.2910 -0.0171  0.2659
20503SOL    HW162950   7.607   2.824  10.140  1.1649  0.0478  1.9778
20503SOL    HW262951   7.604   2.962  10.077 -0.7037 -0.0459  1.8044
20504SOL     OW62952   6.167   3.201   0.764  0.0832  0.4276  0.1476
20504SOL    HW162953   6.189   3.263   0.695  1.2024  2.1748  1.9659
20504SOL    HW262954   6.214   3.121   0.741 -0.0290  0.7679 -1.3684
20505SOL     OW62955   6.890   2.148   0.925  0.4067  0.1979 -0.1129
20505SOL    HW162956   6.856   2.172   0.839 -1.2925  1.9169  0.9480
20505SOL    HW262957   6.900   2.053   0.922 -1.1020  0.0537 -1.7019
20506SOL     OW62958   7.825   2.720  12.178 -0.0073  0.3484  0.1920
20506SOL    HW162959   7.911   2.733  12.139  0.4244  1.5630  1.5146
20506SOL    HW262960   7.776   2.798  12.154 -0.6297 -0.1373 -0.1746
20507SOL     OW62961   6.177   1.789  10.882 -0.2192  0.2783 -0.3810
20507SOL    HW162962   6.178   1.753  10.793 -1.5315  1.1350 -0.7692
20507SOL    HW262963   6.092   1.833  10.889 -0.8074 -1.1060  1.8510
20508SOL     OW62964   7.398   2.598   9.965 -0.0588  0.0162 -0.7137
20508SOL    HW162965   7.407   2.635   9.877 -0.8324 -0.2686 -0.9185
20508SOL    HW262966   7.438   2.511   9.959  2.4489  1.0287 -0.0402
20509SOL     OW62967   7.884   3.778  10.161  0.4827  0.2140  0.3125
20509SOL    HW162968   7.795   3.797  10.130 -0.0817 -0.0601  1.7020
20509SOL    HW262969   7.882   3.803  10.254  2.9315  3.8525 -0.4109
20510SOL     OW62970   0.734   4.715  11.001 -0.2992  0.1309 -0.1755
20510SOL    HW162971   0.748   4.622  10.984 -0.6069 -0.2760  1.5392
20510SOL    HW262972   0.646   4.720  11.037  0.7041  0.6120  2.4645
20511SOL     OW62973   7.357   4.005  12.477 -0.2913  0.4466  0.2419
20511SOL    HW162974   7.318   4.002  12.564 -1.3790 -1.2752 -0.2747
20511SOL    HW262975   7.416   3.931  12.474  1.8125  2.0179  0.3904
20512SOL     OW62976   4.968   1.202  11.002 -0.5435 -0.0336 -0.6007
20512SOL    HW162977   4.888   1.254  10.998 -0.3862  0.2768  0.0618
20512SOL    HW262978   5.024   1.239  10.935 -0.0974  1.2516  0.4411
20513SOL     OW62979   7.848   4.065  11.760  0.9778 -0.0940 -0.7510
20513SOL    HW162980   7.827   4.148  11.803  0.7884 -1.7214  2.6138
20513SOL    HW262981   7.943   4.058  11.767  0.9366 -0.4109 -0.4686
20514SOL     OW62982   7.091   1.625   9.392  0.0400 -0.4190  0.0094
20514SOL    HW162983   7.088   1.721   9.389 -1.6182 -0.4587 -0.7361
20514SOL    HW262984   7.077   1.598   9.301  0.7442 -1.3826  0.1682
20515SOL     OW62985   6.768   1.218   1.204  0.0961  0.4462  0.1736
20515SOL    HW162986   6.769   1.145   1.266 -0.3646  0.1375 -0.1720
20515SOL    HW262987   6.860   1.232   1.181  0.1300 -0.4977 -0.2957
20516SOL     OW62988   4.641   2.125   0.801  0.3616  0.4933  0.2098
20516SOL    HW162989   4.659   2.145   0.893 -1.2993 -0.2287  0.7327
20516SOL    HW262990   4.619   2.032   0.801  0.2563  0.5048 -0.9074
20517SOL     OW62991   7.189   2.728   0.654  0.1342 -0.0956  0.1432
20517SOL    HW162992   7.101   2.709   0.622  0.1430 -0.0743  0.1054
20517SOL    HW262993   7.230   2.642   0.663 -0.0835 -0.1398  0.7282
20518SOL     OW62994   7.146   7.895  11.449  0.4225  0.1623  0.2116
20518SOL    HW162995   7.071   7.919  11.503  1.3082  0.8487  1.1807
20518SOL    HW262996   7.192   7.978  11.434  1.8619 -0.4544  1.0148
20519SOL     OW62997   7.048   2.441  10.835  0.1852 -0.5446  0.8321
20519SOL    HW162998   7.076   2.486  10.915 -2.3055 -0.9521  2.0445
20519SOL    HW262999   7.096   2.485  10.765  1.4773  0.7196  2.4291
20520SOL     OW63000   6.779   3.119   0.238 -0.1580  0.0686 -0.4712
20520SOL    HW163001   6.786   3.204   0.194 -1.3270  1.3252  1.5882
20520SOL    HW263002   6.686   3.097   0.233 -0.5563  0.7695  2.0913
20521SOL     OW63003   1.089   2.427  10.743  0.2257  0.8150  0.4321
20521SOL    HW163004   1.066   2.444  10.651  1.5532  1.9467  0.2827
20521SOL    HW263005   1.140   2.346  10.740 -0.4582  0.3762  0.2977
20522SOL     OW63006   6.617   3.322  11.127  0.7986  0.6446 -0.1691
20522SOL    HW163007   6.701   3.365  11.112  0.6873  0.6295 -0.8553
20522SOL    HW263008   6.563   3.349  11.053  1.4411 -2.4900 -1.9333
20523SOL     OW63009   0.478   4.713  11.128  0.7206 -0.5948  0.3232
20523SOL    HW163010   0.389   4.680  11.117  1.0375 -1.9424  1.4944
20523SOL    HW263011   0.470   4.808  11.117 -0.6708 -0.7935 -0.5925
20524SOL     OW63012   7.129   3.841  12.282  0.1701 -0.1967  0.4069
20524SOL    HW163013   7.207   3.870  12.330  0.6406 -0.4632 -0.1849
20524SOL    HW263014   7.164   3.796  12.205 -0.5738  0.1464 -0.1416
20525SOL     OW63015   6.971   2.520  12.077 -0.5090  0.5362  0.4160
20525SOL    HW163016   6.952   2.612  12.095 -1.1392  0.1179  1.9941
20525SOL    HW263017   6.888   2.484  12.049 -0.0736  0.6083 -1.0668
20526SOL     OW63018   6.994   2.871  11.941 -0.0812  0.1840 -0.1954
20526SOL    HW163019   6.936   2.872  11.865 -0.0180 -1.9818 -0.3210
20526SOL    HW263020   6.938   2.895  12.015 -1.1865 -1.8062 -0.3277
20527SOL     OW63021   5.392   1.824   9.775  0.1100  0.0995  0.3661
20527SOL    HW163022   5.398   1.914   9.806 -1.4075  0.1098  0.6873
20527SOL    HW263023   5.402   1.830   9.680  0.3406  0.5565  0.4149
20528SOL     OW63024   6.969   4.220   9.040  0.2301 -0.0398  0.0313
20528SOL    HW163025   7.000   4.222   8.949  0.4789  0.6477  0.1276
20528SOL    HW263026   6.985   4.130   9.068  0.0921 -0.2800 -0.6227
20529SOL     OW63027   6.468   3.178   1.561 -1.1282 -0.1121 -0.2445
20529SOL    HW163028   6.424   3.134   1.488 -1.2233  1.3664 -1.1079
20529SOL    HW263029   6.399   3.229   1.604 -0.7720  0.1858 -0.0187
20530SOL     OW63030   6.270   2.309  10.863  0.3146  0.4233  0.0667
20530SOL    HW163031   6.276   2.216  10.840  1.2601  0.3033  0.7334
20530SOL    HW263032   6.204   2.345  10.803 -2.3027 -1.2786  1.7399
20531SOL     OW63033   6.001   3.530  12.418  0.2360  0.3752 -0.3734
20531SOL    HW163034   5.921   3.484  12.391 -0.0169  0.9859 -0.6859
20531SOL    HW263035   6.021   3.493  12.505 -1.2459  1.2671  0.3999
20532SOL     OW63036   6.045   2.012  11.452 -0.0669  0.2920 -0.1467
20532SOL    HW163037   6.048   1.941  11.516 -1.3097 -0.2432 -0.6346
20532SOL    HW263038   6.094   1.979  11.377  1.5923  1.0132  0.5898
20533SOL     OW63039   7.119   3.579  11.460 -0.6862  0.6335  0.4216
20533SOL    HW163040   7.030   3.545  11.470  0.0326 -1.0746  1.4667
20533SOL    HW263041   7.163   3.516  11.404 -0.1952  1.6449 -0.3616
20534SOL     OW63042   6.456   1.604  11.340 -0.4210  0.2208  0.0225
20534SOL    HW163043   6.403   1.527  11.318 -1.2752  0.4520  1.2274
20534SOL    HW263044   6.470   1.648  11.255 -0.7268 -0.7335 -0.5388
20535SOL     OW63045   7.039   4.356   0.539 -0.4767  0.1644  0.3177
20535SOL    HW163046   7.046   4.302   0.460 -0.0197  0.9295 -0.1790
20535SOL    HW263047   7.107   4.324   0.597 -0.2705  0.1461  0.0659
20536SOL     OW63048   6.611   2.790   0.544 -0.2969 -0.2728 -0.0636
20536SOL    HW163049   6.529   2.743   0.555 -0.9411  0.4861 -1.3077
20536SOL    HW263050   6.613   2.814   0.451  0.4962  1.2168  0.2907
20537SOL     OW63051   6.507   4.070  11.857  0.2309  0.0105  0.5467
20537SOL    HW163052   6.469   4.096  11.773  1.7193  1.0603  0.1667
20537SOL    HW263053   6.465   4.127  11.922 -0.1738 -0.1088  0.3939
20538SOL     OW63054   5.017   2.371  10.699  0.1963 -0.4490  0.2969
20538SOL    HW163055   5.110   2.354  10.684 -0.0108 -0.5478 -0.9600
20538SOL    HW263056   4.986   2.294  10.746  0.4027 -1.1798 -0.7351
20539SOL     OW63057   0.176   5.795  11.716 -0.4419  0.2224 -0.5557
20539SOL    HW163058   0.272   5.790  11.720 -0.5168 -0.5295  0.4335
20539SOL    HW263059   0.151   5.724  11.656 -0.4144  0.1446 -0.4738
20540SOL     OW63060   7.264   4.592  11.292 -0.4368  0.2764  0.6977
20540SOL    HW163061   7.236   4.584  11.200  0.3854 -1.3410  0.5570
20540SOL    HW263062   7.320   4.669  11.293 -2.2524  1.6600  0.3265
20541SOL     OW63063   5.647   3.916   1.053  0.4012  0.3573  0.9833
20541SOL    HW163064   5.590   3.966   0.994  0.5746 -1.5821 -0.9200
20541SOL    HW263065   5.727   3.902   1.002 -0.2006 -3.1218  0.7618
20542SOL     OW63066   1.481   3.093  11.065 -0.2478 -0.1304 -0.3163
20542SOL    HW163067   1.442   3.150  10.998 -0.5006  1.7094  1.3035
20542SOL    HW263068   1.406   3.057  11.112 -0.1143  1.1762  0.9924
20543SOL     OW63069   0.724   3.716  10.182  0.0664 -0.2384  0.1882
20543SOL    HW163070   0.697   3.802  10.214 -1.6856 -0.4600 -0.6238
20543SOL    HW263071   0.817   3.711  10.204  0.2673  1.9481  0.0502
20544SOL     OW63072   7.466   2.650   9.693  0.1701 -1.0166  0.5047
20544SOL    HW163073   7.547   2.617   9.654 -0.0628 -0.8731 -0.1049
20544SOL    HW263074   7.469   2.745   9.679  0.9285 -0.7074  2.4152
20545SOL     OW63075   7.710   4.759  11.509  0.0774 -0.5143 -0.2297
20545SOL    HW163076   7.800   4.758  11.477  0.2070 -0.0150  0.1045
20545SOL    HW263077   7.715   4.720  11.596  0.1769  0.6258  0.2921
20546SOL     OW63078   0.115   3.368   1.226  0.6864  0.5789  0.2915
20546SOL    HW163079   0.205   3.385   1.198  0.2093  1.8862 -0.5376
20546SOL    HW263080   0.123   3.348   1.320  1.8999 -0.0369  0.0744
20547SOL     OW63081   7.712   1.536   0.540  0.0108  0.6004 -0.3728
20547SOL    HW163082   7.799   1.507   0.568  0.2068  1.0625 -0.4973
20547SOL    HW263083   7.707   1.628   0.568  0.5367  1.3473 -2.5817
20548SOL     OW63084   6.061   1.002  11.690 -0.0116  1.0940 -0.2478
20548SOL    HW163085   6.040   1.091  11.717 -0.5952  1.6216 -2.2670
20548SOL    HW263086   5.983   0.971  11.645 -0.2425 -0.9051  1.3507
20549SOL     OW63087   7.003   3.447   9.062  0.2073  0.0341  0.0216
20549SOL    HW163088   7.049   3.417   9.141 -0.4426  1.3110  0.9136
20549SOL    HW263089   6.923   3.394   9.059  0.8049 -0.8723 -0.4867
20550SOL     OW63090   0.982   4.786  11.139  0.1870  0.3478 -0.6542
20550SOL    HW163091   1.051   4.778  11.074 -0.0981 -1.4399 -0.7885
20550SOL    HW263092   0.900   4.780  11.089 -0.0391 -1.5792 -0.1454
20551SOL     OW63093   6.706   3.630  10.520 -0.0193 -0.1892  0.3410
20551SOL    HW163094   6.612   3.620  10.505  0.4233 -1.0192 -2.3775
20551SOL    HW263095   6.714   3.713  10.567 -2.1208 -0.4253  1.2367
20552SOL     OW63096   6.789   4.285  10.739 -0.7669 -0.3029 -0.1654
20552SOL    HW163097   6.707   4.332  10.720 -0.3830  1.1496  1.4318
20552SOL    HW263098   6.806   4.305  10.831  1.2613 -0.7867 -0.3983
20553SOL     OW63099   7.207   2.390  11.801 -0.1114  0.0130 -0.5525
20553SOL    HW163100   7.289   2.347  11.821  0.8885  1.3817 -1.4971
20553SOL    HW263101   7.195   2.454  11.871 -0.5187 -0.3545 -0.2788
20554SOL     OW63102   7.037   2.916  12.453  0.3646  0.0547 -0.0622
20554SOL    HW163103   6.946   2.898  12.477  0.4461  0.4791  0.5941
20554SOL    HW263104   7.059   2.848  12.389  0.3959 -1.6566  1.6867
20555SOL     OW63105   7.965   5.403  10.760  0.1250  0.2232 -0.1396
20555SOL    HW163106   8.060   5.412  10.774 -0.0511  1.2944  0.4848
20555SOL    HW263107   7.958   5.348  10.682  1.2945  1.3851 -1.1180
20556SOL     OW63108   7.137   2.497  12.324 -0.0056  0.0106  0.5882
20556SOL    HW163109   7.076   2.451  12.382  0.7913 -0.1334  1.3446
20556SOL    HW263110   7.143   2.442  12.246 -0.2378 -0.3712  0.8394
20557SOL     OW63111   6.327   3.109  10.698 -0.1439  0.1214 -1.0879
20557SOL    HW163112   6.370   3.044  10.642  1.1345 -0.1687  0.1864
20557SOL    HW263113   6.366   3.193  10.672  2.1378 -0.2525  0.7941
20558SOL     OW63114   4.993   1.463   9.522  0.4986 -0.1440  0.1868
20558SOL    HW163115   4.924   1.512   9.478 -0.2449 -0.7817  0.6179
20558SOL    HW263116   5.026   1.523   9.590  0.3504  0.1548 -0.0040
20559SOL     OW63117   5.827   1.482  10.018  0.0186  0.3295 -0.3128
20559SOL    HW163118   5.878   1.546   9.968  0.7063 -0.7173 -0.9746
20559SOL    HW263119   5.754   1.533  10.053  0.4361  1.4422 -0.9937
20560SOL     OW63120   5.919   2.640  12.082 -0.4435 -0.2003  0.0002
20560SOL    HW163121   5.965   2.606  12.159  0.3050  1.1268  0.1809
20560SOL    HW263122   5.866   2.567  12.051 -0.4060 -0.9016  1.5069
20561SOL     OW63123   0.250   4.962  11.747  0.7612  0.4310 -0.1692
20561SOL    HW163124   0.168   4.956  11.795  0.1798  0.4914 -1.1319
20561SOL    HW263125   0.317   4.976  11.815 -0.0722  0.8784  0.5794
20562SOL     OW63126   7.359   2.457   0.003 -0.1769 -0.1184 -0.3415
20562SOL    HW163127   7.423   2.401  -0.041  1.5430  2.9242 -2.0775
20562SOL    HW263128   7.282   2.453  -0.053 -0.9087 -2.3112  0.7257
20563SOL     OW63129   7.041   0.921  11.346  0.1963 -0.0625  0.3698
20563SOL    HW163130   7.039   0.997  11.404  0.9960 -0.3201  0.7490
20563SOL    HW263131   7.020   0.956  11.259 -0.3999  0.4278  0.7053
20564SOL     OW63132   6.847   3.265   0.528  0.4379  0.2993 -0.2461
20564SOL    HW163133   6.803   3.292   0.448 -0.6733  0.3808  0.3751
20564SOL    HW263134   6.792   3.197   0.564  1.3870 -0.3486  0.0172
20565SOL     OW63135   7.802   4.411   0.139 -0.2012  0.3041  0.4759
20565SOL    HW163136   7.815   4.468   0.214 -1.6467 -0.7200  1.5743
20565SOL    HW263137   7.780   4.326   0.178 -2.9961  0.2125 -1.0473
20566SOL     OW63138   6.099   5.078  11.956 -0.3992 -0.1440 -0.1353
20566SOL    HW163139   6.134   5.042  12.038  0.7493  2.1217  0.4616
20566SOL    HW263140   6.005   5.059  11.960 -0.1084 -1.5274  0.9064
20567SOL     OW63141   6.332   3.483  12.411 -0.0838 -0.4187  0.1865
20567SOL    HW163142   6.245   3.447  12.393 -0.4254  0.5999 -0.2483
20567SOL    HW263143   6.372   3.494  12.325 -0.1565  0.6349  0.2758
20568SOL     OW63144   7.831   3.602  11.897  0.5020  0.2987  0.5610
20568SOL    HW163145   7.914   3.571  11.860  0.5529  0.7121  0.3146
20568SOL    HW263146   7.794   3.525  11.940 -0.1752 -0.5547 -1.4342
20569SOL     OW63147   6.469   2.560  11.249 -0.4454  0.4815  0.3951
20569SOL    HW163148   6.460   2.655  11.261  1.4829  0.5729  1.3489
20569SOL    HW263149   6.563   2.545  11.241 -0.7613 -1.2937 -0.4857
20570SOL     OW63150   0.503   4.595  10.465  0.6425  0.1750  0.2458
20570SOL    HW163151   0.550   4.651  10.404 -0.1063  0.8890  0.3044
20570SOL    HW263152   0.443   4.654  10.511  0.6750 -0.4709  1.1560
20571SOL     OW63153   6.806   2.072  12.137 -0.0073  0.5374 -0.1457
20571SOL    HW163154   6.871   2.053  12.204 -0.0050  0.1082 -0.2727
20571SOL    HW263155   6.737   2.007  12.150  0.0043  0.4354 -0.5746
20572SOL     OW63156   7.290   2.943   0.520 -0.3884 -0.0469 -0.3106
20572SOL    HW163157   7.237   2.935   0.440  0.6010 -1.6323 -0.8588
20572SOL    HW263158   7.257   2.874   0.577 -2.1243  2.0237  1.3565
20573SOL     OW63159   5.336   2.971  11.334  0.4411 -0.9623  0.6017
20573SOL    HW163160   5.253   3.018  11.324  1.6771  1.2096 -0.2384
20573SOL    HW263161   5.346   2.923  11.252  1.8381  2.0477 -1.1437
20574SOL     OW63162   0.067   4.277  11.025  0.3017  0.1392 -0.0145
20574SOL    HW163163   0.047   4.223  10.949  1.1323  1.4323 -1.1890
20574SOL    HW263164   0.163   4.279  11.030  0.2701  0.5511  0.7016
20575SOL     OW63165   5.733   3.139  12.105 -0.0004 -0.5581  0.2432
20575SOL    HW163166   5.697   3.151  12.193 -1.1104  0.3011 -0.2945
20575SOL    HW263167   5.669   3.083  12.061  0.3200 -0.6196 -0.1480
20576SOL     OW63168   7.291   3.404  11.270 -0.5831 -0.1573  0.0189
20576SOL    HW163169   7.361   3.467  11.250 -0.4048 -0.2944  0.2175
20576SOL    HW263170   7.221   3.428  11.209 -0.5956  0.3631  0.2317
20577SOL     OW63171   7.126   0.816  10.849 -0.1887 -0.0155  0.2531
20577SOL    HW163172   7.133   0.787  10.939  0.3411 -1.1812 -0.1497
20577SOL    HW263173   7.074   0.896  10.854  1.6217  1.1597  1.8302
20578SOL     OW63174   6.382   4.355  10.492 -0.3637  0.4322  0.2526
20578SOL    HW163175   6.383   4.336  10.398  0.7077 -3.3163  0.8492
20578SOL    HW263176   6.295   4.325  10.521 -0.4222  0.9062  0.5808
20579SOL     OW63177   0.567   4.183  11.337  0.5698  0.0369  0.1876
20579SOL    HW163178   0.652   4.214  11.369  0.8819 -0.8717  0.2724
20579SOL    HW263179   0.577   4.088  11.331 -0.7128 -0.1687  0.9866
20580SOL     OW63180   6.701   2.581  12.273  0.4782  0.7132 -0.1821
20580SOL    HW163181   6.724   2.489  12.284 -2.7311 -0.4896 -1.8994
20580SOL    HW263182   6.711   2.597  12.179  1.2608  2.2507  0.1291
20581SOL     OW63183   6.059   2.554  12.334  0.9501  0.4843  0.0361
20581SOL    HW163184   6.141   2.604  12.333  2.1200 -1.3088  1.1843
20581SOL    HW263185   6.056   2.516  12.422 -0.9980  0.2721 -0.0945
20582SOL     OW63186   6.904   2.834  11.271 -0.3346 -0.5886 -0.1425
20582SOL    HW163187   6.857   2.841  11.188  0.0377 -0.0710 -0.3141
20582SOL    HW263188   6.913   2.740  11.286 -0.6777 -0.6864 -0.5297
20583SOL     OW63189   1.245   4.862  12.263  0.4362 -0.1227  0.4217
20583SOL    HW163190   1.250   4.767  12.273 -0.3408 -0.2960 -0.6882
20583SOL    HW263191   1.295   4.881  12.184  0.1074  0.3255  0.3157
20584SOL     OW63192   6.778   4.424   0.489 -0.3696 -0.7507 -0.1246
20584SOL    HW163193   6.867   4.427   0.525 -0.0085 -0.6971 -0.9853
20584SOL    HW263194   6.737   4.350   0.533  0.6908 -1.8906 -0.9868
20585SOL     OW63195   6.249   2.836  12.192  0.2905  0.2469 -0.1602
20585SOL    HW163196   6.168   2.840  12.142  0.4990 -0.5455 -0.5785
20585SOL    HW263197   6.228   2.878  12.276 -0.2134  1.0815 -0.6913
20586SOL     OW63198   6.177   6.995   1.632 -0.1233 -0.3991 -0.4352
20586SOL    HW163199   6.273   6.991   1.622 -0.1332  0.1053 -0.7609
20586SOL    HW263200   6.150   7.064   1.572 -0.5131  0.6788  0.9169
20587SOL     OW63201   5.484   4.602  12.447 -0.1004 -0.3563 -0.4274
20587SOL    HW163202   5.460   4.521  12.493 -2.4209  2.3332  3.6459
20587SOL    HW263203   5.415   4.613  12.382  0.3321 -1.6478 -1.1531
20588SOL     OW63204   7.565   4.439   2.623  0.1434 -0.0513  0.2248
20588SOL    HW163205   7.521   4.372   2.571  2.8340 -0.2916 -1.9534
20588SOL    HW263206   7.514   4.518   2.607 -2.0768 -1.1356  1.4599
20589SOL     OW63207   6.402   4.641  11.428 -0.1848 -0.3026 -0.3985
20589SOL    HW163208   6.427   4.627  11.519 -0.9635  1.8202  0.2017
20589SOL    HW263209   6.464   4.589  11.378 -1.1626 -3.4045  1.3598
20590SOL     OW63210   0.166   4.951   0.196  0.0381  0.5104 -0.2683
20590SOL    HW163211   0.176   4.937   0.102  1.4276  0.5494 -0.1439
20590SOL    HW263212   0.218   4.882   0.237 -0.6739  0.4035  0.4858
20591SOL     OW63213   7.972   5.615   0.694 -0.1811  0.1341 -0.1672
20591SOL    HW163214   7.951   5.684   0.631  0.0619  1.1748  0.8507
20591SOL    HW263215   8.042   5.564   0.652  1.2704  1.9070 -0.0464
20592SOL     OW63216   5.913   2.467   1.332 -0.1142  0.0370  0.3103
20592SOL    HW163217   5.920   2.372   1.336  1.1047  0.0641 -0.7143
20592SOL    HW263218   5.831   2.483   1.285 -0.6916 -0.4878  1.1246
20593SOL     OW63219   7.703   6.293   0.154  0.3882  0.4865 -0.2698
20593SOL    HW163220   7.626   6.285   0.210  0.9950 -0.6207  0.4489
20593SOL    HW263221   7.689   6.374   0.105 -1.3642  0.1590 -0.3800
20594SOL     OW63222   7.118   4.321   3.096 -0.2306  0.2657 -0.1344
20594SOL    HW163223   7.168   4.282   3.168 -0.6575  0.1683  0.1086
20594SOL    HW263224   7.035   4.273   3.095 -0.4599  0.6644 -0.3154
20595SOL     OW63225   6.420   5.773   0.579 -0.4675 -0.6600 -0.0386
20595SOL    HW163226   6.463   5.786   0.494  0.5813  1.0165  0.6857
20595SOL    HW263227   6.378   5.687   0.572 -1.8698  0.1411 -2.8484
20596SOL     OW63228   6.179   4.469   1.314  0.3729  0.0639  0.4736
20596SOL    HW163229   6.101   4.469   1.259  0.0561 -0.2844  0.9112
20596SOL    HW263230   6.206   4.377   1.318  1.3585  0.3037 -0.4356
20597SOL     OW63231   7.653   5.020   0.494  0.5123  0.1844 -0.3896
20597SOL    HW163232   7.606   5.103   0.506  1.0875  0.5760 -0.7326
20597SOL    HW263233   7.662   5.012   0.399 -0.2927 -0.7142 -0.3929
20598SOL     OW63234   7.779   5.375   0.365 -0.1912 -0.4661 -0.7095
20598SOL    HW163235   7.716   5.433   0.409  1.2230  0.2781  0.4396
20598SOL    HW263236   7.765   5.390   0.272  1.1872  3.0644 -0.5062
20599SOL     OW63237   6.659   6.457   0.827  0.1238  0.1626  0.0270
20599SOL    HW163238   6.730   6.456   0.892 -0.7541  0.6547  1.0142
20599SOL    HW263239   6.586   6.413   0.870 -1.7803  3.8868  0.9471
20600SOL     OW63240   0.258   5.764   0.870 -0.1651  0.1791  0.4142
20600SOL    HW163241   0.244   5.694   0.932  1.1569 -0.6341 -0.1552
20600SOL    HW263242   0.284   5.720   0.789 -0.5423  1.2695 -0.3328
20601SOL     OW63243   6.644   6.942   1.045 -0.3121 -0.2055 -0.0289
20601SOL    HW163244   6.685   6.987   1.118 -1.1890  0.1725  0.2455
20601SOL    HW263245   6.672   6.990   0.967  0.2390 -0.3194  0.0964
20602SOL     OW63246   6.284   4.433   1.598  0.5447 -0.1258 -0.4445
20602SOL    HW163247   6.274   4.479   1.515  1.9237  1.2290  0.1073
20602SOL    HW263248   6.216   4.365   1.595 -0.7865  1.1703 -1.7857
20603SOL     OW63249   6.531   5.898  12.091 -0.7708 -0.4999 -0.8870
20603SOL    HW163250   6.481   5.931  12.016  0.9314  0.1415 -1.8100
20603SOL    HW263251   6.542   5.974  12.148  0.1402 -0.3174 -1.2840
20604SOL     OW63252   7.264   5.505  10.673 -0.5440 -0.3394 -0.6515
20604SOL    HW163253   7.310   5.421  10.675 -0.1086 -0.1074  1.1906
20604SOL    HW263254   7.197   5.498  10.741  0.8568  1.4734  1.0409
20605SOL     OW63255   7.578   4.697   1.694 -0.4102  0.0387  0.5057
20605SOL    HW163256   7.547   4.609   1.676  0.7946 -0.2608 -0.1800
20605SOL    HW263257   7.598   4.734   1.608  0.6774  0.3762  0.8874
20606SOL     OW63258   5.816   2.998   0.637 -0.0942  0.4224  0.0429
20606SOL    HW163259   5.756   3.018   0.565  2.4908  1.1171 -2.0798
20606SOL    HW263260   5.836   3.083   0.676 -0.3714  0.2199  0.6227
20607SOL     OW63261   6.145   7.273   0.135  0.8799 -0.2123  0.6973
20607SOL    HW163262   6.130   7.321   0.216  2.6842 -0.4967  1.2353
20607SOL    HW263263   6.139   7.181   0.160 -0.1111 -0.3196  0.1572
20608SOL     OW63264   6.236   7.098   1.372  0.0256 -0.0686 -0.6506
20608SOL    HW163265   6.326   7.090   1.339  0.3420  0.9589 -0.0718
20608SOL    HW263266   6.182   7.102   1.293  0.6997  1.4706 -1.0834
20609SOL     OW63267   0.928   5.287  12.070 -1.1583 -0.7594  0.2239
20609SOL    HW163268   0.875   5.236  12.132 -0.0333 -0.2649  1.6474
20609SOL    HW263269   1.006   5.234  12.056 -0.5889 -0.0550  0.6633
20610SOL     OW63270   0.212   6.015   9.854  0.0294 -0.3059 -0.4611
20610SOL    HW163271   0.173   6.029   9.940 -0.0349 -1.5293 -0.2843
20610SOL    HW263272   0.187   5.926   9.829  2.5768 -1.1220 -0.3827
20611SOL     OW63273   6.376   3.001   2.620  0.5021 -0.1696 -0.8355
20611SOL    HW163274   6.350   2.987   2.711 -0.5682  0.1262 -1.0853
20611SOL    HW263275   6.376   3.096   2.609  1.6941 -0.1492 -0.8650
20612SOL     OW63276   6.206   5.433  12.023 -0.5028 -1.0746  0.0561
20612SOL    HW163277   6.256   5.425  11.942  0.5423  2.6109  0.1809
20612SOL    HW263278   6.269   5.410  12.092  0.3849  1.1281  0.0581
20613SOL     OW63279   6.407   4.652   1.421 -0.2891  0.5411 -0.4798
20613SOL    HW163280   6.480   4.592   1.437  0.4959  1.1967 -1.4250
20613SOL    HW263281   6.358   4.612   1.350 -0.6341  0.2864 -0.0990
20614SOL     OW63282   6.513   3.661   1.982 -0.5876 -0.4667  0.2393
20614SOL    HW163283   6.529   3.585   1.926  0.6076 -1.0987  1.4039
20614SOL    HW263284   6.502   3.733   1.921 -0.2972 -1.3111 -0.8440
20615SOL     OW63285   5.970   3.453   2.674  0.5267 -0.8916  0.1451
20615SOL    HW163286   5.877   3.446   2.697  0.1886  1.2402 -0.3269
20615SOL    HW263287   6.016   3.408   2.745 -0.7027  1.2362  2.4725
20616SOL     OW63288   0.029   5.337  11.083  0.6978 -0.4694 -0.5615
20616SOL    HW163289   0.015   5.425  11.047  0.4895 -1.1744 -2.2873
20616SOL    HW263290   0.124   5.327  11.089  0.7150  0.0126  0.0243
20617SOL     OW63291   7.893   7.034   1.373  0.1301 -0.4539  0.6483
20617SOL    HW163292   7.850   6.952   1.350  1.6636 -1.0601 -0.2094
20617SOL    HW263293   7.853   7.099   1.314  1.8783 -1.4293 -1.7385
20618SOL     OW63294   7.359   3.584   0.355 -0.1212 -0.1244  0.1115
20618SOL    HW163295   7.296   3.656   0.364 -0.1607 -0.1505  0.0450
20618SOL    HW263296   7.335   3.541   0.273  1.2905  1.1442 -1.0243
20619SOL     OW63297   7.426   6.368   1.919 -0.0811  0.1276  0.2191
20619SOL    HW163298   7.481   6.301   1.879 -0.1690  1.5193 -2.4382
20619SOL    HW263299   7.482   6.407   1.986  0.3679 -1.7494  1.0246
20620SOL     OW63300   7.996   6.961  11.735 -0.0685  0.0975 -0.4346
20620SOL    HW163301   7.972   6.928  11.648  0.7891  0.6537 -0.8947
20620SOL    HW263302   7.996   6.883  11.791  0.2965 -0.4195 -1.1370
20621SOL     OW63303   5.170   3.125   1.926 -0.3748  0.3136 -0.0580
20621SOL    HW163304   5.184   3.054   1.990  2.8670 -0.3943 -1.3243
20621SOL    HW263305   5.221   3.198   1.962 -1.6456  1.1978 -0.0146
20622SOL     OW63306   7.094   5.895   0.222  0.3703 -0.1532  0.0517
20622SOL    HW163307   7.087   5.971   0.165 -1.6260 -0.9239 -0.7964
20622SOL    HW263308   7.107   5.932   0.309 -1.8514  1.2490 -0.1399
20623SOL     OW63309   0.252   6.469  11.586 -0.4564 -0.1386  0.4376
20623SOL    HW163310   0.256   6.377  11.614 -0.5784  0.0334  1.0390
20623SOL    HW263311   0.343   6.494  11.572 -0.3186  0.0064  1.4906
20624SOL     OW63312   6.379   4.008   0.109 -0.3213  0.0602 -0.3638
20624SOL    HW163313   6.455   4.025   0.164  1.1657  0.3945 -2.4079
20624SOL    HW263314   6.401   3.927   0.063 -0.6579  0.7720 -1.8296
20625SOL     OW63315   7.276   3.918   1.610 -0.7626 -0.0568  0.0036
20625SOL    HW163316   7.267   3.977   1.684  1.1701 -2.8090  2.6583
20625SOL    HW263317   7.320   3.971   1.543  1.0404  1.5400  2.2945
20626SOL     OW63318   0.740   5.708   2.035  0.3541  0.0572 -0.5186
20626SOL    HW163319   0.740   5.801   2.056 -1.1367  0.1509 -0.8232
20626SOL    HW263320   0.683   5.669   2.102 -2.1985 -0.0441 -2.6066
20627SOL     OW63321   6.367   2.618   0.608  1.0959 -0.6326  0.3971
20627SOL    HW163322   6.298   2.637   0.544  0.7385 -0.6528  0.7680
20627SOL    HW263323   6.319   2.600   0.689  1.5190 -1.1196  0.5435
20628SOL     OW63324   6.737   4.245  12.287  0.0240 -0.0702  0.5381
20628SOL    HW163325   6.797   4.272  12.218 -1.8868  2.8536 -0.1527
20628SOL    HW263326   6.749   4.309  12.356  0.1022 -1.4922  1.8991
20629SOL     OW63327   7.069   6.521   1.295 -0.4360  0.4971 -0.0804
20629SOL    HW163328   7.006   6.499   1.227 -1.0805  0.1752  0.6072
20629SOL    HW263329   7.145   6.464   1.277 -0.8598 -0.0563 -0.1457
20630SOL     OW63330   7.591   5.105   1.758 -0.2061  0.3175 -0.3083
20630SOL    HW163331   7.523   5.055   1.713  1.8695 -1.6556 -1.4499
20630SOL    HW263332   7.619   5.171   1.695  2.3607 -2.1374 -1.9779
20631SOL     OW63333   6.724   4.624   1.127 -0.5291 -0.3608  0.1472
20631SOL    HW163334   6.799   4.565   1.121 -0.0890  0.2772 -0.8133
20631SOL    HW263335   6.716   4.643   1.221 -0.5766 -1.7874  0.4490
20632SOL     OW63336   0.956   4.905   1.209 -0.3091 -0.6194 -0.0630
20632SOL    HW163337   1.033   4.919   1.154  0.6231 -0.1464  1.3348
20632SOL    HW263338   0.900   4.847   1.157  0.1539  0.4851 -1.8653
20633SOL     OW63339   7.502   6.257  11.872  0.0261  0.2230  0.2765
20633SOL    HW163340   7.472   6.189  11.812 -3.6270  2.5303 -0.8386
20633SOL    HW263341   7.545   6.321  11.816 -1.6664  1.4532  0.2974
20634SOL     OW63342   5.309   4.662   0.500  0.0874  0.2953  0.4793
20634SOL    HW163343   5.274   4.590   0.447 -1.5755 -0.1781  2.1485
20634SOL    HW263344   5.364   4.712   0.438  2.2109 -2.9312 -0.5111
20635SOL     OW63345   6.974   5.633  11.976  0.2296 -0.0312 -0.0263
20635SOL    HW163346   6.904   5.694  11.954 -0.4713 -1.1927 -1.1604
20635SOL    HW263347   7.051   5.667  11.929 -0.4829 -0.7235 -1.7709
20636SOL     OW63348   6.427   5.182   1.505 -0.0913  0.0432 -0.3857
20636SOL    HW163349   6.339   5.199   1.539 -0.4132  1.9010 -1.9432
20636SOL    HW263350   6.426   5.218   1.417  2.1832 -0.0679 -0.5283
20637SOL     OW63351   6.650   5.095  12.343  0.7217  0.1653 -0.1779
20637SOL    HW163352   6.614   5.040  12.273  0.6350 -0.7125  0.5293
20637SOL    HW263353   6.680   5.174  12.299  1.8198 -0.8816 -1.4019
20638SOL     OW63354   6.786   7.178   1.115  0.4983 -0.5171  0.1308
20638SOL    HW163355   6.857   7.241   1.103 -1.0553  1.1143 -1.2919
20638SOL    HW263356   6.735   7.213   1.188  0.6984 -1.2010  0.5959
20639SOL     OW63357   6.650   4.804  12.230  0.1339  0.1639  0.0941
20639SOL    HW163358   6.743   4.786  12.245 -0.0501 -0.5742  0.3733
20639SOL    HW263359   6.622   4.736  12.169 -0.6721 -0.8094  1.4936
20640SOL     OW63360   6.350   5.842   0.089  0.0359 -0.2923 -0.0498
20640SOL    HW163361   6.361   5.784   0.014 -2.7844 -1.7605  0.5110
20640SOL    HW263362   6.399   5.800   0.159 -0.3900 -0.9733 -0.1485
20641SOL     OW63363   5.281   5.641   1.021  0.6600  0.2672 -0.0713
20641SOL    HW163364   5.283   5.717   0.962  0.4317  0.2179 -0.1438
20641SOL    HW263365   5.238   5.674   1.100  0.0446  0.0718 -0.3112
20642SOL     OW63366   6.443   7.172   0.888 -0.0001  0.8197 -0.2446
20642SOL    HW163367   6.525   7.206   0.853  0.3268  0.7568  0.4402
20642SOL    HW263368   6.452   7.180   0.983 -0.5607  0.2947 -0.1383
20643SOL     OW63369   5.367   3.823   1.802  0.3502  0.0693 -0.2634
20643SOL    HW163370   5.433   3.891   1.816  0.2605  0.1719 -0.3386
20643SOL    HW263371   5.415   3.741   1.806  0.1207 -0.0335  2.3618
20644SOL     OW63372   0.296   6.527  11.315 -0.2096  0.1055 -0.1059
20644SOL    HW163373   0.236   6.487  11.378 -0.3778 -0.4751 -0.6345
20644SOL    HW263374   0.379   6.535  11.363 -0.5694  0.4600  0.4652
20645SOL     OW63375   7.378   6.637   0.475  0.1858 -0.6453 -0.1846
20645SOL    HW163376   7.349   6.711   0.423  0.4070 -0.0502  0.5143
20645SOL    HW263377   7.416   6.576   0.412  1.1550  0.3997 -0.6327
20646SOL     OW63378   7.124   5.157  11.653 -0.1336 -0.0925  0.0819
20646SOL    HW163379   7.146   5.180  11.744 -2.4126 -1.4596  1.0994
20646SOL    HW263380   7.204   5.118  11.618  0.5328 -0.4431  1.8608
20647SOL     OW63381   5.615   6.565   1.865 -0.0276  0.2799  0.0974
20647SOL    HW163382   5.624   6.647   1.817 -1.0835  0.6269  0.4720
20647SOL    HW263383   5.578   6.504   1.801  1.4068 -0.1318 -0.3874
20648SOL     OW63384   7.715   5.014  11.983 -0.1158 -0.6379  0.9297
20648SOL    HW163385   7.738   4.922  11.998  0.3607 -0.4731  1.1987
20648SOL    HW263386   7.653   5.035  12.053  0.3399 -0.5407  1.3052
20649SOL     OW63387   6.785   5.208   0.105  0.1578 -0.0475 -0.4033
20649SOL    HW163388   6.880   5.195   0.103  0.8321  3.8783 -1.6295
20649SOL    HW263389   6.752   5.152   0.035  1.8535  0.1599 -1.4162
20650SOL     OW63390   7.854   4.899   1.553 -0.0841 -0.2448  0.1870
20650SOL    HW163391   7.837   4.894   1.647 -3.1792 -1.2685 -0.3143
20650SOL    HW263392   7.853   4.807   1.524  0.6266  0.0652 -0.8824
20651SOL     OW63393   7.276   4.261  12.490 -0.4500  0.5418  0.4121
20651SOL    HW163394   7.332   4.183  12.492  1.8317  2.0575  2.5833
20651SOL    HW263395   7.307   4.311  12.414  1.0205  1.1839  1.3722
20652SOL     OW63396   6.781   4.722   0.518  0.2281  0.8271 -0.6744
20652SOL    HW163397   6.746   4.638   0.488 -0.2209  1.0338 -0.7331
20652SOL    HW263398   6.709   4.762   0.567  0.6495  0.9016 -0.1043
20653SOL     OW63399   6.914   7.226   0.565 -0.6619 -0.1795 -0.7897
20653SOL    HW163400   6.993   7.248   0.614 -2.4263  1.4532  1.5765
20653SOL    HW263401   6.901   7.298   0.504 -0.8570  0.0889 -0.4360
20654SOL     OW63402   7.042   3.565   2.284  0.0173  0.5458  0.2714
20654SOL    HW163403   7.073   3.491   2.336  0.5102  0.0591 -0.6995
20654SOL    HW263404   6.947   3.558   2.287  0.0622 -0.1823  0.1176
20655SOL     OW63405   7.405   5.623  12.368  0.2701  0.2211  0.1413
20655SOL    HW163406   7.356   5.595  12.290  0.8967 -2.1529  0.5355
20655SOL    HW263407   7.496   5.603  12.348  0.5871  0.7546  1.0046
20656SOL     OW63408   6.452   3.571  12.170  0.1791  0.8006  0.4131
20656SOL    HW163409   6.425   3.655  12.207  0.3337  0.6301  0.9291
20656SOL    HW263410   6.538   3.589  12.132  0.9743  0.5232  1.9701
20657SOL     OW63411   5.899   3.984   1.933 -0.1602 -0.3440  0.0396
20657SOL    HW163412   5.808   4.006   1.952 -1.1010 -2.7776 -1.2446
20657SOL    HW263413   5.935   3.957   2.017 -0.3400  1.4001  0.7147
20658SOL     OW63414   7.166   5.298  11.056 -0.2980  0.1688  0.5071
20658SOL    HW163415   7.256   5.265  11.062  0.2179  0.7232 -2.4584
20658SOL    HW263416   7.112   5.219  11.053  0.1829 -0.1945  1.0784
20659SOL     OW63417   5.590   3.179   0.153  0.4233 -0.4245  0.5887
20659SOL    HW163418   5.535   3.223   0.218 -1.5305  0.4799 -1.4902
20659SOL    HW263419   5.571   3.086   0.164 -0.1058 -0.2607  1.1326
20660SOL     OW63420   6.026   3.208  12.403  0.5768  0.0234  0.1170
20660SOL    HW163421   5.977   3.130  12.380  0.6902  0.0747 -0.3187
20660SOL    HW263422   5.965   3.262  12.453 -0.7536  1.2932 -2.6156
20661SOL     OW63423   7.083   4.206   2.004 -0.3200 -0.7815  0.0653
20661SOL    HW163424   7.086   4.290   2.050  0.5076 -1.1784  0.7674
20661SOL    HW263425   6.989   4.189   1.991 -0.4947  0.1597  0.0795
20662SOL     OW63426   6.981   5.307   0.339  0.1846  0.6401 -0.1734
20662SOL    HW163427   7.006   5.319   0.247  0.8496 -0.3104 -0.1385
20662SOL    HW263428   6.892   5.342   0.344  0.1349  0.7073 -1.1822
20663SOL     OW63429   6.896   5.432   1.544 -0.2003  0.2850 -0.1721
20663SOL    HW163430   6.891   5.337   1.530 -0.5518  0.3711 -0.6714
20663SOL    HW263431   6.806   5.457   1.564  0.2106  0.2253  1.9525
20664SOL     OW63432   1.521   7.098  11.376  0.2132 -0.3221  0.2383
20664SOL    HW163433   1.615   7.114  11.386  0.4928 -2.0310  0.6614
20664SOL    HW263434   1.490   7.074  11.463 -0.5684 -0.0353  0.0512
20665SOL     OW63435   4.051   5.821  11.722 -0.3659 -0.2851 -0.1049
20665SOL    HW163436   3.982   5.755  11.710 -1.3465  0.4491  1.2555
20665SOL    HW263437   4.118   5.776  11.773 -0.9491 -0.2885  0.6636
20666SOL     OW63438   6.421   3.452   0.715  0.3411  0.1922  0.2740
20666SOL    HW163439   6.428   3.485   0.625  2.6009  0.7306  0.5970
20666SOL    HW263440   6.451   3.362   0.711 -1.1315 -0.3353  0.2584
20667SOL     OW63441   5.712   4.232   0.092 -0.1889 -0.5584  0.1659
20667SOL    HW163442   5.726   4.138   0.093  0.7575 -0.4317  1.1962
20667SOL    HW263443   5.796   4.269   0.119 -1.3872  0.4275  2.9466
20668SOL     OW63444   4.678   2.924   2.289 -0.4353 -0.0592  0.4123
20668SOL    HW163445   4.612   2.961   2.347  1.8444  1.0154  2.5290
20668SOL    HW263446   4.691   2.991   2.221 -1.5385 -0.3226 -0.0705
20669SOL     OW63447   6.348   5.144  11.870  0.0792  0.3946 -0.2634
20669SOL    HW163448   6.344   5.238  11.853  0.3274  0.6073  0.7888
20669SOL    HW263449   6.259   5.120  11.897  0.2803  0.5671  0.5888
20670SOL     OW63450   0.173   5.276  12.357  0.6211  0.1037  0.2889
20670SOL    HW163451   0.259   5.247  12.390  1.2077  0.0469 -1.2210
20670SOL    HW263452   0.129   5.196  12.331  0.4243  0.1978  0.3342
20671SOL     OW63453   5.710   5.393  12.066  0.0021  0.4936  0.5971
20671SOL    HW163454   5.644   5.336  12.105 -1.0086  0.9198 -0.4396
20671SOL    HW263455   5.679   5.409  11.977  3.1528 -2.0260 -1.1962
20672SOL     OW63456   6.992   4.887  11.577 -0.2525 -0.0029 -0.3592
20672SOL    HW163457   7.005   4.936  11.658  0.6929 -0.8315  0.0033
20672SOL    HW263458   7.037   4.940  11.510 -0.5601  0.3974 -0.2541
20673SOL     OW63459   0.409   5.910   1.591  0.6842  0.1647 -0.0602
20673SOL    HW163460   0.500   5.922   1.561  0.3250  0.4014 -1.1156
20673SOL    HW263461   0.359   5.972   1.538 -0.4472 -1.8130 -1.4151
20674SOL     OW63462   0.335   3.832   0.949 -0.1188 -0.0003  0.1418
20674SOL    HW163463   0.277   3.781   1.006 -0.3942  0.0588 -0.0809
20674SOL    HW263464   0.277   3.896   0.907 -0.5017 -1.8398 -2.3832
20675SOL     OW63465   6.407   3.115  12.009  0.6422 -0.0905  0.1523
20675SOL    HW163466   6.373   3.204  12.015  0.8079 -0.0118 -0.0704
20675SOL    HW263467   6.481   3.113  12.069 -0.4608 -0.5984  1.5489
20676SOL     OW63468   0.213   5.553  11.601  0.3128 -0.0048 -0.0268
20676SOL    HW163469   0.152   5.573  11.530 -1.3586  0.3345  1.4611
20676SOL    HW263470   0.204   5.459  11.615 -0.5710  0.1863  0.7831
20677SOL     OW63471   7.054   4.913   1.066 -0.0355  0.1219  0.0187
20677SOL    HW163472   7.078   4.866   0.987 -2.6849  2.9453 -2.6999
20677SOL    HW263473   7.111   4.990   1.067 -1.0297  0.8807 -0.0202
20678SOL     OW63474   6.862   6.130   1.651  0.4982  0.2880 -0.0519
20678SOL    HW163475   6.899   6.126   1.563  0.3269 -3.4500 -0.1320
20678SOL    HW263476   6.937   6.113   1.709  0.1372 -0.2267  0.2797
20679SOL     OW63477   7.584   5.262   1.550 -0.0903 -0.1178 -0.4002
20679SOL    HW163478   7.627   5.277   1.466  0.7895 -2.1798 -0.3719
20679SOL    HW263479   7.493   5.242   1.528 -0.1799  0.6084 -0.7335
20680SOL     OW63480   6.354   4.332   0.302  0.9168  0.0505 -0.4049
20680SOL    HW163481   6.386   4.315   0.213  1.2903  1.4102 -0.5455
20680SOL    HW263482   6.260   4.349   0.290  0.7135 -0.9520 -0.3665
20681SOL     OW63483   7.544   5.998   1.532 -0.8964  0.5414 -0.0538
20681SOL    HW163484   7.538   5.997   1.437  0.2963 -2.7451 -0.2038
20681SOL    HW263485   7.612   6.062   1.552 -1.2064  1.3031 -1.3860
20682SOL     OW63486   7.483   3.686   3.244  1.2295  0.0754 -0.2129
20682SOL    HW163487   7.439   3.698   3.328 -1.4724  0.1368 -1.5365
20682SOL    HW263488   7.471   3.593   3.225  2.7045 -0.1528 -0.1155
20683SOL     OW63489   6.332   5.233   2.181 -0.1704 -0.4923  0.3700
20683SOL    HW163490   6.397   5.296   2.209 -0.1417  0.0853 -0.9348
20683SOL    HW263491   6.248   5.278   2.190 -0.0516  0.3160 -1.9207
20684SOL     OW63492   6.864   5.511  11.529 -0.3259 -0.1399 -0.1683
20684SOL    HW163493   6.874   5.499  11.623 -0.6273  0.7144 -0.0175
20684SOL    HW263494   6.903   5.596  11.511 -1.4006  0.2915 -0.5942
20685SOL     OW63495   7.956   4.242   2.529 -0.0484 -0.0018 -0.3847
20685SOL    HW163496   7.895   4.238   2.455 -0.7407  1.0221  0.1041
20685SOL    HW263497   7.949   4.333   2.560  1.2945 -0.0297  0.0477
20686SOL     OW63498   6.467   4.871   1.925  0.6413 -0.0635  0.4074
20686SOL    HW163499   6.445   4.830   1.842  1.2502  0.9166 -0.2617
20686SOL    HW263500   6.382   4.896   1.962  0.3479 -0.7835  0.2321
20687SOL     OW63501   6.234   4.981   0.023  0.1059  0.4758 -0.1715
20687SOL    HW163502   6.298   5.052   0.028 -0.2566  0.8096 -0.1399
20687SOL    HW263503   6.276   4.907   0.067  0.7638  0.4573 -0.8124
20688SOL     OW63504   6.060   3.348   0.967 -0.2214  0.6509 -0.6012
20688SOL    HW163505   6.089   3.284   0.901  1.5787 -0.1563  0.8819
20688SOL    HW263506   5.968   3.328   0.981  0.6976 -3.1389  1.2929
20689SOL     OW63507   5.726   4.627   1.112 -0.1413  0.6095  0.0974
20689SOL    HW163508   5.671   4.670   1.178 -0.3510  0.9196 -0.2745
20689SOL    HW263509   5.805   4.601   1.160 -0.3336  0.7504  0.4914
20690SOL     OW63510   6.145   3.677   1.516  0.2367 -0.1573  0.6161
20690SOL    HW163511   6.194   3.603   1.481  0.6058 -0.2782  1.3592
20690SOL    HW263512   6.127   3.653   1.607 -2.3207 -0.6741  0.0406
20691SOL     OW63513   5.328   5.675   2.811  0.4763  0.7959 -0.5127
20691SOL    HW163514   5.265   5.739   2.842 -0.2708 -0.8927  1.7252
20691SOL    HW263515   5.391   5.666   2.883  0.8287 -0.5830 -0.9502
20692SOL     OW63516   5.318   3.038  12.265 -0.5119  0.6095 -0.2449
20692SOL    HW163517   5.344   3.129  12.280  0.7073  0.3050 -0.4128
20692SOL    HW263518   5.271   3.013  12.344 -2.6468  1.9870 -0.9929
20693SOL     OW63519   7.355   4.293   0.440  0.9643 -0.2587  0.4969
20693SOL    HW163520   7.308   4.274   0.521  0.8600 -0.9613  0.2735
20693SOL    HW263521   7.286   4.298   0.373  1.1034 -0.2335  0.3562
20694SOL     OW63522   6.528   3.102   0.132  0.0298  0.0918  0.3249
20694SOL    HW163523   6.482   3.185   0.117  2.7263  1.4248 -1.3184
20694SOL    HW263524   6.488   3.041   0.070  0.2537  1.1528 -0.9172
20695SOL     OW63525   4.989   3.070   1.612  0.1209  0.3206 -0.4394
20695SOL    HW163526   5.048   3.145   1.603  1.6107 -0.8244 -0.5940
20695SOL    HW263527   4.992   3.049   1.706  0.9269 -0.4595 -0.6227
20696SOL     OW63528   7.911   4.598   1.486  0.4849 -0.0613 -0.1032
20696SOL    HW163529   8.001   4.570   1.468  0.4233 -0.9275  0.8424
20696SOL    HW263530   7.863   4.579   1.405  1.0888  0.1579 -0.5220
20697SOL     OW63531   7.042   6.202  12.192 -0.0080  0.1007 -0.3570
20697SOL    HW163532   6.988   6.186  12.269  0.2800  0.4881 -0.0703
20697SOL    HW263533   7.064   6.295  12.197 -2.0750  0.7738 -2.2428
20698SOL     OW63534   7.677   5.019   0.235  0.3424  0.6351  0.2619
20698SOL    HW163535   7.625   4.970   0.171 -0.3089  4.0879 -2.1751
20698SOL    HW263536   7.766   5.017   0.200  0.9675 -1.2647  1.8348
20699SOL     OW63537   6.224   4.912   1.576  0.1414 -0.4789  0.1484
20699SOL    HW163538   6.166   4.908   1.499 -0.3711 -0.6381  0.5396
20699SOL    HW263539   6.210   4.999   1.612  0.5088 -0.3431 -0.0275
20700SOL     OW63540   4.180   6.094   1.696 -0.3688  0.2240  0.2553
20700SOL    HW163541   4.272   6.069   1.688 -0.1301  1.2848 -0.6331
20700SOL    HW263542   4.171   6.171   1.639 -1.9002 -0.1014  0.0070
20701SOL     OW63543   6.258   5.047   1.048 -0.3343 -0.6003 -0.0309
20701SOL    HW163544   6.180   5.056   1.102 -0.4188  0.1250 -0.2687
20701SOL    HW263545   6.225   5.023   0.961 -0.4191  1.1548 -0.5199
20702SOL     OW63546   0.513   4.599   1.406  0.3170  0.1759  0.1013
20702SOL    HW163547   0.524   4.627   1.315 -1.9325 -0.6465 -0.4964
20702SOL    HW263548   0.512   4.504   1.402 -0.6919  0.1435  0.8414
20703SOL     OW63549   4.636   5.752   2.447 -0.1796  0.2348 -0.2431
20703SOL    HW163550   4.711   5.747   2.508  0.8332 -1.0590 -1.5152
20703SOL    HW263551   4.581   5.677   2.472 -0.4358  0.4705 -0.0952
20704SOL     OW63552   6.372   5.169  12.163 -0.0923 -0.3783  0.1175
20704SOL    HW163553   6.367   5.174  12.068 -2.2499  0.1230  0.2040
20704SOL    HW263554   6.325   5.089  12.186  0.4224 -0.5058  0.7481
20705SOL     OW63555   6.609   4.462   1.436 -0.0735 -0.0827 -1.1011
20705SOL    HW163556   6.626   4.438   1.527 -2.5973  0.9441 -0.2518
20705SOL    HW263557   6.599   4.378   1.390  2.0385 -0.6250 -0.6843
20706SOL     OW63558   6.917   7.196   2.647 -0.6995 -0.6675 -0.1586
20706SOL    HW163559   6.847   7.138   2.619  1.4202 -4.9777  2.2526
20706SOL    HW263560   6.880   7.246   2.720 -1.9332 -0.8922 -0.6133
20707SOL     OW63561   7.555   5.962   1.882 -0.0315 -0.2129 -0.4971
20707SOL    HW163562   7.641   5.922   1.873  0.5985  0.5402  1.5006
20707SOL    HW263563   7.567   6.052   1.850 -0.1516 -0.1955 -0.4939
20708SOL     OW63564   6.711   5.193   2.807 -0.5783  0.3702  0.1085
20708SOL    HW163565   6.642   5.156   2.752  0.5545  0.0052 -1.0899
20708SOL    HW263566   6.772   5.121   2.821 -1.3431  0.1169  2.7814
20709SOL     OW63567   0.462   5.204   1.386 -0.1856 -0.1086 -0.1053
20709SOL    HW163568   0.544   5.253   1.400 -1.2233  1.7034 -0.0249
20709SOL    HW263569   0.463   5.136   1.453  0.1411  1.4177  1.5093
20710SOL     OW63570   0.367   6.429  11.033 -0.2097  0.1359 -0.3693
20710SOL    HW163571   0.293   6.439  11.092 -0.5137  0.3488 -0.7807
20710SOL    HW263572   0.369   6.336  11.012 -0.6883  0.2071 -0.7647
20711SOL     OW63573   6.927   6.537   0.105 -0.2785  0.3857 -0.3613
20711SOL    HW163574   6.839   6.500   0.101 -1.4059  2.7696  0.2198
20711SOL    HW263575   6.941   6.559   0.197  0.9674 -0.0320 -0.4314
20712SOL     OW63576   7.211   3.476   1.467 -0.1696 -0.1283 -0.2351
20712SOL    HW163577   7.276   3.542   1.492  0.0219 -0.3338 -0.1852
20712SOL    HW263578   7.198   3.491   1.373  1.8082 -1.6503 -0.8336
20713SOL     OW63579   5.574   5.705   1.422  0.7611  0.1763  0.6930
20713SOL    HW163580   5.542   5.690   1.333 -1.5256  1.6486  1.1854
20713SOL    HW263581   5.599   5.618   1.454 -1.2285 -0.8334 -0.3687
20714SOL     OW63582   6.995   2.630   3.049 -0.1878  0.3807 -0.3720
20714SOL    HW163583   6.957   2.569   2.987 -0.6890 -1.1336  1.3189
20714SOL    HW263584   6.965   2.716   3.021 -0.5904 -0.2761 -2.0315
20715SOL     OW63585   7.357   5.102   0.378 -0.7949 -0.0027 -0.1926
20715SOL    HW163586   7.402   5.108   0.293 -0.0584  1.1526  0.2515
20715SOL    HW263587   7.305   5.182   0.382 -2.3208 -0.9446 -0.3439
20716SOL     OW63588   6.512   7.209   0.502  0.3012  0.1864  0.2722
20716SOL    HW163589   6.524   7.130   0.449 -0.4698 -0.4510  1.0040
20716SOL    HW263590   6.599   7.248   0.507  1.0106 -1.3773  1.0417
20717SOL     OW63591   7.367   5.437  11.727  0.2292  0.2526 -0.2876
20717SOL    HW163592   7.311   5.439  11.649  0.3369  0.2981 -0.3653
20717SOL    HW263593   7.332   5.366  11.780  0.9134 -0.6148 -0.9569
20718SOL     OW63594   0.065   3.978   2.248 -0.4283  0.2844 -0.3436
20718SOL    HW163595   0.040   3.933   2.329  2.2334 -1.5227 -0.3884
20718SOL    HW263596   0.028   4.065   2.257 -1.1907 -0.2153  2.3096
20719SOL     OW63597   5.848   5.158  12.441  0.0455 -0.2408 -0.0594
20719SOL    HW163598   5.877   5.067  12.439 -0.1896 -0.3089 -0.8503
20719SOL    HW263599   5.798   5.166  12.522 -0.7318 -1.0752 -0.4402
20720SOL     OW63600   6.756   3.604   0.469 -0.3166  0.7118  0.5857
20720SOL    HW163601   6.676   3.656   0.459  0.1641  1.0890 -2.0694
20720SOL    HW263602   6.741   3.527   0.414  0.6575  0.1152  1.1130
20721SOL     OW63603   7.267   4.652   1.094 -0.0308  0.2416 -0.0690
20721SOL    HW163604   7.302   4.583   1.038 -2.2181 -1.0297  0.0105
20721SOL    HW263605   7.201   4.696   1.040 -1.8099 -0.6620  1.2685
20722SOL     OW63606   5.950   5.091   2.175  0.1713 -0.1136  0.7148
20722SOL    HW163607   5.856   5.074   2.180  0.0655 -0.2215 -0.9396
20722SOL    HW263608   5.959   5.184   2.199 -0.4001 -0.0178  0.5721
20723SOL     OW63609   6.812   5.700   2.649 -0.3133  0.7527 -0.5475
20723SOL    HW163610   6.795   5.607   2.666  2.8061  0.0179 -0.7412
20723SOL    HW263611   6.776   5.745   2.725 -2.1635 -0.5258 -0.5823
20724SOL     OW63612   6.144   6.031   1.675  0.0845  0.0907 -0.1534
20724SOL    HW163613   6.113   6.059   1.588  1.4784  2.0292 -0.0926
20724SOL    HW263614   6.110   6.096   1.735  1.6147  0.4989  0.3212
20725SOL     OW63615   4.283   5.286   0.394  0.4554 -0.6322 -0.0926
20725SOL    HW163616   4.294   5.191   0.393  1.0536 -0.5775 -2.0271
20725SOL    HW263617   4.366   5.319   0.429  0.3673 -0.8149  0.2891
20726SOL     OW63618   6.910   4.371   1.644 -0.4004  0.3568  0.2759
20726SOL    HW163619   6.926   4.447   1.587  1.4508 -0.7602 -0.8099
20726SOL    HW263620   6.918   4.406   1.733  4.8166  0.8646 -0.0947
20727SOL     OW63621   6.876   3.402  11.462 -0.0663 -0.0064 -0.0194
20727SOL    HW163622   6.903   3.341  11.393 -2.1468  0.9357 -1.7649
20727SOL    HW263623   6.788   3.372  11.487 -0.5604  1.4710  0.0708
20728SOL     OW63624   7.037   6.346   2.166  0.3795  0.4272  0.4707
20728SOL    HW163625   7.009   6.401   2.093  0.8981 -1.2430 -1.0559
20728SOL    HW263626   6.956   6.326   2.213  0.1646  2.3212  0.9844
20729SOL     OW63627   7.435   5.890   2.124  0.3868 -0.5012  0.0497
20729SOL    HW163628   7.517   5.895   2.174  0.1191  2.2190  0.3577
20729SOL    HW263629   7.459   5.917   2.036 -0.0068 -0.6411 -0.1004
20730SOL     OW63630   0.624   6.869  10.530 -0.4716 -0.0974  0.2763
20730SOL    HW163631   0.581   6.841  10.449 -1.3971  1.9245  0.0201
20730SOL    HW263632   0.580   6.950  10.554  1.0457  0.3299  1.8062
20731SOL     OW63633   0.056   4.700   2.132  0.1088  0.0984  0.5019
20731SOL    HW163634  -0.033   4.732   2.141  0.0124 -0.0739  0.1761
20731SOL    HW263635   0.104   4.774   2.094 -0.1025 -0.1162 -0.1992
20732SOL     OW63636   6.958   4.955   2.498 -0.7866  0.3590  0.0236
20732SOL    HW163637   6.978   5.032   2.551  0.4712  0.4077 -0.4718
20732SOL    HW263638   6.915   4.990   2.420  0.0813  0.6322 -0.3573
20733SOL     OW63639   5.725   5.925   1.821  0.5640  0.3462  0.0211
20733SOL    HW163640   5.773   5.854   1.778 -0.8779 -1.1531  0.7847
20733SOL    HW263641   5.709   5.894   1.910  0.7280  2.0672  0.7017
20734SOL     OW63642   5.842   4.715   0.878  0.2701 -0.0808 -0.2605
20734SOL    HW163643   5.822   4.806   0.899 -1.2387 -0.1888 -1.0551
20734SOL    HW263644   5.817   4.665   0.956  1.1918  0.1790  0.2116
20735SOL     OW63645   0.428   3.722  12.439  0.5870 -0.3838 -0.4976
20735SOL    HW163646   0.378   3.725  12.358  0.0495 -0.9917 -0.2074
20735SOL    HW263647   0.475   3.805  12.442  0.4743 -0.2814 -1.3357
20736SOL     OW63648   5.790   4.342   0.937  0.2571  0.3607 -0.4846
20736SOL    HW163649   5.756   4.400   0.868 -1.6579 -0.3502 -0.2032
20736SOL    HW263650   5.854   4.286   0.892 -0.8249  0.0353 -1.6934
20737SOL     OW63651   0.446   5.798  11.002 -0.2020  0.4367 -0.1616
20737SOL    HW163652   0.415   5.884  11.032  0.6928  0.7785 -0.1984
20737SOL    HW263653   0.472   5.753  11.083 -0.2720  0.3623 -0.1812
20738SOL     OW63654   7.060   5.216   1.070  0.2751 -0.0696 -0.0782
20738SOL    HW163655   7.014   5.236   0.988 -0.6090 -0.1909  0.3749
20738SOL    HW263656   7.027   5.281   1.132 -0.6106 -1.2447  0.7117
20739SOL     OW63657   5.731   5.584   0.614 -0.0800  0.1553 -0.4874
20739SOL    HW163658   5.700   5.659   0.664  1.4502  0.3596  0.2227
20739SOL    HW263659   5.816   5.612   0.580  0.9252 -1.5140  0.5002
20740SOL     OW63660   5.348   4.665   1.711 -0.0747  0.1289 -0.4425
20740SOL    HW163661   5.408   4.730   1.747 -0.0695 -0.6347  0.9810
20740SOL    HW263662   5.261   4.706   1.717 -0.2102 -0.3363  1.4161
20741SOL     OW63663   6.732   5.755   0.431 -0.6672  0.2553  0.1758
20741SOL    HW163664   6.701   5.681   0.483 -0.4115  1.2536  1.7802
20741SOL    HW263665   6.809   5.787   0.477  0.9339 -0.1970 -2.0398
20742SOL     OW63666   7.662   5.559   0.702 -0.1719 -0.1557 -0.1632
20742SOL    HW163667   7.624   5.540   0.616  0.0541  0.7391 -0.4725
20742SOL    HW263668   7.751   5.588   0.683  0.4422 -1.5381  0.5104
20743SOL     OW63669   0.040   4.970   1.368  0.5138  0.3032 -0.3300
20743SOL    HW163670   0.119   4.928   1.402  1.3582  1.7145 -0.4285
20743SOL    HW263671  -0.031   4.938   1.424  1.3600 -0.0542  0.5650
20744SOL     OW63672   6.039   5.526   1.739  0.1364 -0.3511  0.1689
20744SOL    HW163673   6.002   5.447   1.779  0.2774  0.2765  1.6039
20744SOL    HW263674   6.005   5.597   1.793  0.5492  0.5200 -0.7096
20745SOL     OW63675   7.484   4.786   0.328  0.1448 -0.1115 -0.4351
20745SOL    HW163676   7.494   4.780   0.233 -0.7311  0.3269 -0.5615
20745SOL    HW263677   7.482   4.880   0.347 -0.5818 -0.1855 -0.0943
20746SOL     OW63678   6.900   4.852   0.143 -0.0910  0.3672 -0.2913
20746SOL    HW163679   6.960   4.896   0.203  2.0356 -1.4966 -0.8947
20746SOL    HW263680   6.813   4.867   0.181  0.9643  0.9743  2.0989
20747SOL     OW63681   4.786   3.984   1.384 -0.2072  0.2236  0.4408
20747SOL    HW163682   4.765   3.899   1.346 -1.9989 -0.2066  2.2269
20747SOL    HW263683   4.788   3.969   1.479 -0.2323  2.1073  0.7861
20748SOL     OW63684   7.369   5.207   0.127  0.6413  0.0743  0.5109
20748SOL    HW163685   7.349   5.122   0.090  1.7800 -0.2114  0.5045
20748SOL    HW263686   7.422   5.251   0.060  1.5726  0.0767  1.2186
20749SOL     OW63687   6.352   3.949   0.591  0.0191  0.0789  0.1813
20749SOL    HW163688   6.353   3.963   0.685 -0.3812  0.1587  0.1753
20749SOL    HW263689   6.272   3.899   0.575 -0.0222  0.2443 -0.1383
20750SOL     OW63690   7.975   5.114  11.874 -0.0069  0.2671 -0.1012
20750SOL    HW163691   7.890   5.105  11.916  0.0492 -0.8219 -0.2111
20750SOL    HW263692   7.956   5.110  11.780  0.2183 -0.4996 -0.1169
20751SOL     OW63693   6.939   4.770  12.332 -0.3705  0.2416  0.1165
20751SOL    HW163694   6.933   4.787  12.427 -0.1858  1.3547 -0.0473
20751SOL    HW263695   6.979   4.850  12.297  0.0335 -0.3689 -0.8420
20752SOL     OW63696   6.618   4.187   0.636  0.2844  0.0015  0.0772
20752SOL    HW163697   6.630   4.120   0.703 -1.9863  0.1619  0.7549
20752SOL    HW263698   6.594   4.139   0.557 -0.1655 -0.0657  0.2490
20753SOL     OW63699   7.281   6.310   1.208 -0.4146  0.0351 -0.1771
20753SOL    HW163700   7.370   6.334   1.231 -0.0436 -0.5012 -0.9938
20753SOL    HW263701   7.256   6.244   1.272 -1.1226  1.8459  1.5380
20754SOL     OW63702   0.548   3.132   3.421  0.4696 -0.3754 -0.0906
20754SOL    HW163703   0.474   3.191   3.407  0.4381 -0.2263  0.6468
20754SOL    HW263704   0.603   3.178   3.484 -0.3211 -1.7929  1.7030
20755SOL     OW63705   6.754   6.586  12.245  0.7252 -0.3218  1.1123
20755SOL    HW163706   6.817   6.643  12.289  2.0114 -1.2702  0.5651
20755SOL    HW263707   6.725   6.637  12.170  0.8602  0.1167  1.3523
20756SOL     OW63708   6.827   1.693   0.993 -0.4958 -0.1886 -0.1196
20756SOL    HW163709   6.835   1.741   0.910 -1.8180  1.9436  0.8865
20756SOL    HW263710   6.787   1.609   0.968  0.6420 -0.2827 -1.7974
20757SOL     OW63711   6.818   3.468   1.412  0.1594 -0.1113 -0.1364
20757SOL    HW163712   6.828   3.552   1.457  1.9155  0.3801 -1.3218
20757SOL    HW263713   6.760   3.487   1.338  0.2727 -0.0046 -0.1999
20758SOL     OW63714   6.519   4.727   0.383  0.3840 -0.3595  0.0822
20758SOL    HW163715   6.467   4.694   0.310  0.6356  0.7474 -0.6222
20758SOL    HW263716   6.467   4.705   0.461 -0.5825 -0.2945 -0.5222
20759SOL     OW63717   5.126   5.246   1.274  0.2246  0.0422 -0.0566
20759SOL    HW163718   5.172   5.183   1.218 -0.9572 -0.8178 -0.0999
20759SOL    HW263719   5.189   5.268   1.342  0.7032 -1.1136 -0.0985
20760SOL     OW63720   5.920   4.670  12.469 -0.4495  0.0853  0.2670
20760SOL    HW163721   6.007   4.629  12.470  0.1023  1.2045  1.3765
20760SOL    HW263722   5.874   4.627  12.397  1.0917 -0.3925 -0.4849
20761SOL     OW63723   6.347   5.475  11.314 -0.2401 -0.2748 -0.1334
20761SOL    HW163724   6.287   5.431  11.374  0.0254  0.3396  0.5974
20761SOL    HW263725   6.314   5.565  11.309 -1.5376 -0.8040 -2.6102
20762SOL     OW63726   1.015   6.089   0.670  0.3772  0.1474 -0.4502
20762SOL    HW163727   1.051   6.177   0.657  0.8384 -0.0308 -0.3854
20762SOL    HW263728   1.088   6.030   0.653  0.7857 -0.1489  1.9656
20763SOL     OW63729   6.341   3.473   1.429 -0.4169  0.0225  0.0105
20763SOL    HW163730   6.349   3.415   1.354 -0.6244  1.5713 -1.2745
20763SOL    HW263731   6.322   3.415   1.502  1.4720 -1.7241 -0.7674
20764SOL     OW63732   0.248   5.526  11.919  0.2601 -0.4444  0.0319
20764SOL    HW163733   0.243   5.529  11.823 -2.3549 -0.9731  0.0556
20764SOL    HW263734   0.217   5.438  11.942 -1.8158  0.5453  1.3701
20765SOL     OW63735   5.015   6.038   2.072 -0.4108  0.0539  0.1872
20765SOL    HW163736   5.067   6.054   2.151 -0.1163 -0.8765  0.1889
20765SOL    HW263737   4.978   5.951   2.084 -1.2688  0.3495 -0.2160
20766SOL     OW63738   6.570   5.706  11.030  0.2323 -0.2643 -0.3191
20766SOL    HW163739   6.512   5.694  10.955  1.0370  1.4505 -1.3019
20766SOL    HW263740   6.554   5.797  11.058 -1.2059 -1.3144  2.6716
20767SOL     OW63741   0.062   4.814   1.155  0.8497  0.0424  0.1240
20767SOL    HW163742   0.110   4.741   1.194  2.0778  0.2725 -0.9039
20767SOL    HW263743   0.051   4.877   1.226 -1.7555 -1.7981  1.5188
20768SOL     OW63744   7.662   3.087   2.619  0.3782 -0.2119  0.0993
20768SOL    HW163745   7.652   3.162   2.679 -1.1536 -2.6509  3.1795
20768SOL    HW263746   7.601   3.106   2.547  1.0425  2.0738  0.0665
20769SOL     OW63747   0.593   4.926  12.369 -0.4706  0.0911  0.5203
20769SOL    HW163748   0.523   4.861  12.366  2.3501 -3.2612 -2.7604
20769SOL    HW263749   0.642   4.907  12.449 -0.7362 -0.5950  0.5218
20770SOL     OW63750   6.130   7.156  12.337  0.0132  0.7412  0.3131
20770SOL    HW163751   6.106   7.189  12.423 -0.9963 -1.5708  0.9916
20770SOL    HW263752   6.144   7.062  12.350  0.9787  0.5211 -1.8248
20771SOL     OW63753   4.306   6.720   2.865 -0.2122  0.4633  0.1856
20771SOL    HW163754   4.359   6.730   2.785 -0.0164 -0.9065  0.1065
20771SOL    HW263755   4.334   6.791   2.922  1.0684  0.3044 -0.2154
20772SOL     OW63756   5.967   4.332   1.161 -0.2469  0.0031 -0.0427
20772SOL    HW163757   5.896   4.358   1.102 -1.0831  0.6344  1.2109
20772SOL    HW263758   5.934   4.253   1.204 -0.6622  0.8772  1.3104
20773SOL     OW63759   5.529   3.902   0.163  0.0868 -0.3004 -0.2722
20773SOL    HW163760   5.551   3.860   0.080  2.2515  0.0497  0.0658
20773SOL    HW263761   5.613   3.927   0.200 -0.8709  0.1022  1.7573
20774SOL     OW63762   6.586   4.882   0.674 -0.0164 -0.3836  0.0345
20774SOL    HW163763   6.606   4.815   0.739 -2.1251 -1.2228 -0.1135
20774SOL    HW263764   6.495   4.866   0.650  0.3230  0.7180 -2.1928
20775SOL     OW63765   4.599   5.654   1.966 -0.3461  0.0657  0.3101
20775SOL    HW163766   4.539   5.699   2.026 -2.4457 -1.2645 -0.6475
20775SOL    HW263767   4.608   5.566   2.004  0.0055 -0.1177 -0.2009
20776SOL     OW63768   5.413   4.008   3.180  0.0305  0.0579 -0.2071
20776SOL    HW163769   5.454   3.923   3.192  0.4856  0.2379 -0.4470
20776SOL    HW263770   5.444   4.038   3.095  1.2900  1.2274  0.6134
20777SOL     OW63771   6.663   3.044   2.433  0.1181 -0.0490 -0.3358
20777SOL    HW163772   6.570   3.035   2.414 -0.4218 -2.0074  2.5976
20777SOL    HW263773   6.705   3.053   2.348 -2.8333  2.5345 -1.6950
20778SOL     OW63774   5.974   3.351   0.564 -0.0647  0.0300  0.0642
20778SOL    HW163775   5.980   3.369   0.470 -1.1186  1.9792  0.3389
20778SOL    HW263776   6.032   3.416   0.605  0.1296 -0.5925  0.8088
20779SOL     OW63777   6.137   4.702   0.798 -0.5098 -0.0401  0.2978
20779SOL    HW163778   6.058   4.742   0.834 -1.2568 -2.0129  0.9681
20779SOL    HW263779   6.106   4.635   0.738  0.7026  0.4461 -0.9343
20780SOL     OW63780   6.895   7.519   3.267  0.3843  0.5299 -0.3861
20780SOL    HW163781   6.867   7.574   3.194 -2.6183 -0.6768 -0.2990
20780SOL    HW263782   6.842   7.548   3.341  1.4848  0.0028  0.6424
20781SOL     OW63783   4.649   5.965  11.840  0.1828  0.7066  0.2375
20781SOL    HW163784   4.722   5.952  11.779  0.2309  0.7045  0.2955
20781SOL    HW263785   4.625   5.876  11.868  0.7077  0.7556  0.8646
20782SOL     OW63786   7.855   6.088   0.068  0.0205 -0.2215  0.2509
20782SOL    HW163787   7.782   6.044   0.025 -0.3348 -0.5902  1.2069
20782SOL    HW263788   7.818   6.170   0.100  0.4133  0.2976 -0.5588
20783SOL     OW63789   6.417   2.568   1.869  0.3377 -0.3834 -0.2952
20783SOL    HW163790   6.471   2.536   1.941  0.4723 -0.5309 -0.4571
20783SOL    HW263791   6.481   2.591   1.801  0.1745 -1.1594 -0.7283
20784SOL     OW63792   0.662   5.723  11.899  0.0112  0.4582  0.0602
20784SOL    HW163793   0.730   5.665  11.933  1.8588  0.5572 -3.0538
20784SOL    HW263794   0.653   5.791  11.965  0.8514 -1.0825  1.8678
20785SOL     OW63795   6.329   6.372   2.297 -0.0533  0.0489  0.2122
20785SOL    HW163796   6.382   6.445   2.266 -0.8806  1.0746  1.1413
20785SOL    HW263797   6.389   6.319   2.349  0.9189 -0.7769 -1.6648
20786SOL     OW63798   4.793   4.655   1.389 -0.0812  0.5974  0.0350
20786SOL    HW163799   4.844   4.697   1.321  0.0337 -0.8332 -0.8115
20786SOL    HW263800   4.852   4.649   1.464  1.3663 -1.7487 -1.1739
20787SOL     OW63801   6.800   5.033   1.059 -0.5788  0.0240  0.3806
20787SOL    HW163802   6.800   5.020   0.964  0.4754  1.9704  0.0621
20787SOL    HW263803   6.889   5.011   1.086 -0.1449  1.7580  0.5054
20788SOL     OW63804   7.772   2.301  12.320 -0.1747 -0.8129  0.4216
20788SOL    HW163805   7.810   2.353  12.249  0.5549 -0.3569  1.1351
20788SOL    HW263806   7.778   2.357  12.397 -3.9656  0.0545  0.2867
20789SOL     OW63807   6.220   1.938   0.851 -0.8134 -0.1491  0.7752
20789SOL    HW163808   6.185   1.852   0.873 -1.1250 -0.3654 -0.4823
20789SOL    HW263809   6.144   1.988   0.823 -0.3666 -0.1105 -0.4335
20790SOL     OW63810   6.321   5.242   0.380 -0.1296  0.1213 -0.3059
20790SOL    HW163811   6.308   5.152   0.351  1.1213 -0.3353  0.4670
20790SOL    HW263812   6.409   5.264   0.351 -0.4831  1.1636 -0.6218
20791SOL     OW63813   6.271   6.313  11.318  0.5524 -0.0763 -0.0516
20791SOL    HW163814   6.221   6.356  11.249  0.2151 -0.1539  0.1428
20791SOL    HW263815   6.335   6.259  11.271 -0.8955 -1.6124 -0.3552
20792SOL     OW63816   5.749   5.016   0.879 -0.2611 -0.0051  0.2983
20792SOL    HW163817   5.722   5.005   0.788  0.6804 -0.2089  0.0400
20792SOL    HW263818   5.670   5.049   0.923 -1.0374 -0.9075 -0.3638
20793SOL     OW63819   6.568   4.808   2.735 -0.5292  0.3734  0.6194
20793SOL    HW163820   6.565   4.714   2.753  0.2341  0.2143 -0.0348
20793SOL    HW263821   6.607   4.846   2.813  0.4129 -0.0140  0.3431
20794SOL     OW63822   4.469   3.551   2.667 -0.5545 -0.1679 -0.3393
20794SOL    HW163823   4.507   3.526   2.752 -0.9632 -0.4175 -0.2267
20794SOL    HW263824   4.412   3.478   2.644 -1.5077  0.4955 -0.1676
20795SOL     OW63825   6.144   6.518   3.225  0.0966 -0.8858 -0.3400
20795SOL    HW163826   6.236   6.544   3.226 -0.2471  0.6820  2.8726
20795SOL    HW263827   6.110   6.551   3.141  1.8357  0.9401 -0.3894
20796SOL     OW63828   7.651   5.275   1.956 -0.4781 -0.6976 -0.1411
20796SOL    HW163829   7.646   5.210   2.026 -0.5305 -0.3113  0.2209
20796SOL    HW263830   7.640   5.225   1.876  0.5904 -1.2917  0.0616
20797SOL     OW63831   7.604   4.731   1.981 -0.3909  0.3446 -0.2753
20797SOL    HW163832   7.596   4.729   1.885  0.0777 -2.0569 -0.3432
20797SOL    HW263833   7.549   4.658   2.010  0.8151 -0.0424  1.1330
20798SOL     OW63834   7.956   5.687   1.506  0.3894  0.0666 -0.5143
20798SOL    HW163835   7.905   5.633   1.447 -2.3187  0.1187  1.6075
20798SOL    HW263836   8.014   5.626   1.552  0.1430 -0.4305 -0.8676
20799SOL     OW63837   6.813   4.206   2.005  0.3402  0.3537  0.3977
20799SOL    HW163838   6.755   4.130   2.008  0.5134  0.1966 -0.0809
20799SOL    HW263839   6.790   4.258   2.082  1.1452 -0.8549  1.4864
20800SOL     OW63840   6.836   5.506   4.126  0.7380  0.0840  0.0258
20800SOL    HW163841   6.815   5.536   4.037  0.5097  1.4225  0.5015
20800SOL    HW263842   6.765   5.541   4.180  1.6839  0.6213  0.9631
20801SOL     OW63843   7.299   6.646   1.639  0.5385  0.2848 -0.1002
20801SOL    HW163844   7.352   6.579   1.597 -0.0544  0.3539 -0.9909
20801SOL    HW263845   7.251   6.599   1.707 -0.9594 -0.5212 -1.6467
20802SOL     OW63846   6.842   6.083   4.266 -0.0344  0.0715  0.4972
20802SOL    HW163847   6.765   6.140   4.276 -0.4237 -0.6057  1.5484
20802SOL    HW263848   6.902   6.134   4.212 -2.1129 -0.2800 -2.3421
20803SOL     OW63849   6.573   4.518   2.721  0.0639  0.4061 -0.2670
20803SOL    HW163850   6.602   4.556   2.638 -1.1904  0.9324 -0.4977
20803SOL    HW263851   6.621   4.436   2.728  1.8717  1.3938 -0.4096
20804SOL     OW63852   7.946   5.162   4.257 -0.1409  0.2365  0.2520
20804SOL    HW163853   7.951   5.165   4.353  1.2453  2.8709  0.2010
20804SOL    HW263854   7.867   5.212   4.236  0.0650  0.4609  0.0094
20805SOL     OW63855   6.035   3.162   3.082 -0.3677  0.9190  0.8725
20805SOL    HW163856   5.980   3.103   3.030  1.9573  0.1274 -0.8141
20805SOL    HW263857   6.029   3.127   3.171  0.7328 -1.8054 -0.0235
20806SOL     OW63858   7.700   3.772   1.172 -0.8456 -0.4196 -0.2326
20806SOL    HW163859   7.616   3.804   1.205 -0.5186  0.0297  0.1811
20806SOL    HW263860   7.707   3.683   1.206 -1.3376 -0.6087 -0.6124
20807SOL     OW63861   5.358   5.504   1.549 -0.0001 -0.5186 -0.1956
20807SOL    HW163862   5.426   5.539   1.605 -1.2711  0.7762  0.5922
20807SOL    HW263863   5.352   5.411   1.572  2.4600 -1.0431 -1.3359
20808SOL     OW63864   6.750   4.619   3.270  0.5065  0.0252  0.0645
20808SOL    HW163865   6.736   4.693   3.211 -0.2418 -0.1061  0.0731
20808SOL    HW263866   6.698   4.548   3.233 -0.6905  0.1896  1.3430
20809SOL     OW63867   5.169   5.891   0.870  0.9676  0.6893 -0.0298
20809SOL    HW163868   5.107   5.960   0.849  1.8548  1.1772 -1.1498
20809SOL    HW263869   5.125   5.810   0.845  0.8529  1.0506 -1.0131
20810SOL     OW63870   3.864   5.223   0.224  0.0487 -0.2807  0.1175
20810SOL    HW163871   3.818   5.156   0.274 -1.1435  0.2548 -0.2153
20810SOL    HW263872   3.932   5.254   0.282  1.2996 -2.4612 -0.0733
20811SOL     OW63873   6.556   7.378   4.116 -0.3775  0.0293 -0.4929
20811SOL    HW163874   6.572   7.472   4.113 -3.8342  0.7344 -0.2653
20811SOL    HW263875   6.606   7.348   4.192  1.8839  1.3520 -1.3517
20812SOL     OW63876   7.874   3.982   1.171  0.1855 -0.1704 -0.0350
20812SOL    HW163877   7.795   3.928   1.170 -1.1960  1.6601  1.9473
20812SOL    HW263878   7.940   3.927   1.214 -0.6875 -0.8637  0.4454
20813SOL     OW63879   6.399   4.545   2.944  0.5863 -0.1064  0.0712
20813SOL    HW163880   6.456   4.550   2.868  0.8522  2.1164  0.3730
20813SOL    HW263881   6.313   4.569   2.912  0.4672 -0.2629  0.2651
20814SOL     OW63882   0.171   4.314   0.738  0.0549 -0.0207 -0.4664
20814SOL    HW163883   0.201   4.332   0.827  1.3020  1.2490 -1.0991
20814SOL    HW263884   0.202   4.389   0.688 -1.1507 -0.4223 -1.8659
20815SOL     OW63885   4.947   4.749   1.185  0.4819  0.4005  0.3224
20815SOL    HW163886   4.945   4.674   1.127 -0.4486  0.6684  0.0020
20815SOL    HW263887   5.010   4.809   1.144  2.1779 -0.6885  1.2235
20816SOL     OW63888   5.243   3.846   1.463 -0.3168 -0.2891  0.0729
20816SOL    HW163889   5.228   3.918   1.523 -1.9332  0.4664 -1.1621
20816SOL    HW263890   5.332   3.861   1.430 -1.1372  2.1058 -1.3149
20817SOL     OW63891   7.686   4.806   1.223  0.1988  0.1555 -0.0908
20817SOL    HW163892   7.706   4.713   1.212 -0.9793 -0.1654  0.3302
20817SOL    HW263893   7.713   4.846   1.140 -0.4213 -0.7671 -0.7577
20818SOL     OW63894   6.320   7.277   2.149  0.0795 -0.1200 -0.4312
20818SOL    HW163895   6.352   7.233   2.070 -3.3055 -1.3565 -1.3056
20818SOL    HW263896   6.305   7.367   2.123  0.8411 -0.0271 -0.5757
20819SOL     OW63897   5.734   4.513   3.134 -0.2535  0.3342 -0.3040
20819SOL    HW163898   5.805   4.448   3.138  0.3507  0.9631 -0.4881
20819SOL    HW263899   5.712   4.519   3.042  0.5561  1.2686 -0.4646
20820SOL     OW63900   0.069   5.773   2.180 -0.4672  0.1783  0.0724
20820SOL    HW163901   0.015   5.715   2.234 -2.4817  2.6060  0.8597
20820SOL    HW263902   0.006   5.835   2.142  1.2719  0.4012 -2.6909
20821SOL     OW63903   6.876   3.745   3.101  0.1024  0.1736  0.0016
20821SOL    HW163904   6.940   3.792   3.047  0.0979 -0.0478 -0.1955
20821SOL    HW263905   6.860   3.664   3.054  0.7676 -0.4245  0.7769
20822SOL     OW63906   4.177   2.308   4.891  0.2364 -0.4207  0.1658
20822SOL    HW163907   4.268   2.321   4.865  0.6036 -0.7566  1.2511
20822SOL    HW263908   4.181   2.247   4.964 -0.8418 -0.1908  0.4320
20823SOL     OW63909   7.075   5.858   1.447 -0.8820 -0.1105 -0.0382
20823SOL    HW163910   6.980   5.874   1.445 -0.8660 -0.0984 -1.4427
20823SOL    HW263911   7.087   5.783   1.389 -0.1999 -1.1597  1.4067
20824SOL     OW63912   6.921   3.606   5.042 -0.6121  0.0298  0.8316
20824SOL    HW163913   7.003   3.607   4.992 -0.6663  0.4856  0.7407
20824SOL    HW263914   6.853   3.613   4.975 -0.6372  3.3632  1.0039
20825SOL     OW63915   5.578   6.101   3.787 -0.4170  0.3799 -0.0172
20825SOL    HW163916   5.541   6.069   3.705 -0.7018 -0.2595  0.3538
20825SOL    HW263917   5.502   6.120   3.842 -0.2295  0.8611  0.0820
20826SOL     OW63918   5.062   5.010   1.104 -0.3309  0.6774  0.0520
20826SOL    HW163919   4.986   5.035   1.157 -0.6019  0.7495 -0.3639
20826SOL    HW263920   5.053   5.061   1.024  0.6286  1.3371  0.3515
20827SOL     OW63921   7.460   5.655   2.376 -0.5276 -0.1734 -0.3115
20827SOL    HW163922   7.450   5.691   2.464  0.0034  1.2784 -0.8167
20827SOL    HW263923   7.502   5.570   2.390  0.1024  0.2974  0.8081
20828SOL     OW63924   6.957   6.054   0.779 -0.2203  0.7306 -0.3206
20828SOL    HW163925   6.960   5.959   0.771 -0.2384  0.6554  0.5293
20828SOL    HW263926   7.035   6.077   0.829  0.3440  1.2711 -1.4052
20829SOL     OW63927   7.538   6.170   1.007 -0.4498 -0.1098  0.0802
20829SOL    HW163928   7.618   6.136   0.966 -0.7745  0.3335 -0.9736
20829SOL    HW263929   7.554   6.163   1.101  0.6747 -0.3816 -0.1128
20830SOL     OW63930   0.401   6.068   2.254 -0.5385  0.5744  0.2001
20830SOL    HW163931   0.462   6.093   2.323 -0.3752  3.0665 -0.7713
20830SOL    HW263932   0.323   6.120   2.272 -0.8902  0.4402 -0.9015
20831SOL     OW63933   4.991   3.565   3.875  0.4310  0.0301 -0.1914
20831SOL    HW163934   5.041   3.581   3.955  0.5868 -1.7230  0.1115
20831SOL    HW263935   5.010   3.473   3.853 -1.0204 -0.0626 -1.2338
20832SOL     OW63936   7.711   3.393   3.151 -0.3547  0.3851  0.1522
20832SOL    HW163937   7.619   3.366   3.155  0.4196 -3.1887 -1.7520
20832SOL    HW263938   7.716   3.448   3.073 -0.5091 -1.7291 -1.4372
20833SOL     OW63939   6.428   3.010   3.800  0.2062  0.4810  0.5474
20833SOL    HW163940   6.394   2.971   3.880  0.9353  1.2778  1.2738
20833SOL    HW263941   6.523   3.018   3.815  0.5047 -0.2363 -0.7832
20834SOL     OW63942   6.722   4.281   3.316 -0.2861 -0.6275  0.4190
20834SOL    HW163943   6.660   4.329   3.262  2.2214  0.2769 -1.8535
20834SOL    HW263944   6.691   4.191   3.314 -2.4408  0.0644  0.8172
20835SOL     OW63945   0.617   4.334   3.565 -0.3936  0.4669  0.3298
20835SOL    HW163946   0.613   4.246   3.604  1.8275 -0.9943 -2.3849
20835SOL    HW263947   0.525   4.359   3.555 -1.0857 -0.6910  2.8129
20836SOL     OW63948   6.976   5.665   3.643 -0.3290  0.7007  0.0581
20836SOL    HW163949   6.966   5.575   3.614  0.4267  0.8599 -0.7385
20836SOL    HW263950   6.890   5.705   3.629 -0.8515 -0.0595  1.0396
20837SOL     OW63951   5.135   5.036   2.690  0.2275 -0.0939 -0.1028
20837SOL    HW163952   5.088   5.079   2.761  1.6621  2.4326 -0.5369
20837SOL    HW263953   5.218   5.084   2.684  0.6345 -0.9569 -2.7134
20838SOL     OW63954   5.514   5.929   2.461 -0.3835 -0.0175 -0.1580
20838SOL    HW163955   5.439   5.877   2.432  0.8500 -4.2556  3.1212
20838SOL    HW263956   5.502   5.936   2.556  1.7258  2.2192  0.0478
20839SOL     OW63957   5.246   3.614   3.282 -0.2758 -0.2818 -0.0003
20839SOL    HW163958   5.171   3.556   3.292 -0.5266  0.2653  1.6952
20839SOL    HW263959   5.248   3.664   3.364  2.5471 -1.0119  0.4798
20840SOL     OW63960   7.399   5.441   5.481  0.1063  0.2609 -0.1661
20840SOL    HW163961   7.450   5.406   5.407  0.7318  3.4439 -1.3816
20840SOL    HW263962   7.448   5.412   5.559  1.6731  0.1182 -1.1598
20841SOL     OW63963   6.281   4.972   2.083 -0.4645 -0.5716 -0.0827
20841SOL    HW163964   6.222   5.013   2.020 -0.3606  0.8405  0.7120
20841SOL    HW263965   6.298   5.040   2.149  3.3526 -0.3223 -1.0967
20842SOL     OW63966   7.545   4.274   3.705 -0.1153 -0.4094  0.4873
20842SOL    HW163967   7.620   4.228   3.667 -0.3844 -0.0276 -0.5381
20842SOL    HW263968   7.470   4.248   3.651 -0.5247  0.0991  0.7940
20843SOL     OW63969   7.875   4.465   2.216 -0.1921 -0.2277 -0.6005
20843SOL    HW163970   7.780   4.453   2.216 -0.0068 -2.0402 -0.9754
20843SOL    HW263971   7.888   4.559   2.210 -1.9479  0.5725  4.1084
20844SOL     OW63972   6.491   6.231   2.451  0.2767  0.3829 -0.4842
20844SOL    HW163973   6.518   6.316   2.489 -1.1949  0.7604 -0.2314
20844SOL    HW263974   6.430   6.195   2.515 -1.2387  0.4079 -1.8564
20845SOL     OW63975   6.460   6.458   3.120  0.0204 -0.5766 -0.1898
20845SOL    HW163976   6.451   6.552   3.131  1.6780 -0.1195 -2.2139
20845SOL    HW263977   6.542   6.436   3.165  0.5817 -0.7121 -1.2456
20846SOL     OW63978   6.451   6.709   3.131  0.4964  0.2345  0.3906
20846SOL    HW163979   6.440   6.784   3.190  1.9360  1.3540 -0.6925
20846SOL    HW263980   6.437   6.745   3.044  0.3721 -0.9590 -0.1023
20847SOL     OW63981   5.090   4.776   2.793  0.4540  0.1077 -0.5216
20847SOL    HW163982   5.002   4.788   2.757 -1.4468  1.1967  3.7549
20847SOL    HW263983   5.129   4.863   2.790  1.1812 -0.2465 -1.8347
20848SOL     OW63984   6.386   3.773   3.168 -0.4203  0.4188  0.0725
20848SOL    HW163985   6.365   3.810   3.253  2.3086 -1.7163  1.8909
20848SOL    HW263986   6.470   3.814   3.144 -0.0479 -0.6082 -0.4487
20849SOL     OW63987   6.204   6.772   3.544  0.2949 -0.0206  0.3329
20849SOL    HW163988   6.158   6.691   3.568 -0.3358  0.5306  1.0255
20849SOL    HW263989   6.173   6.791   3.456 -0.8500  0.3629  0.8054
20850SOL     OW63990   5.996   7.255   1.594  0.4811 -0.3282  0.0557
20850SOL    HW163991   5.947   7.182   1.556  1.3163 -1.1034  0.4346
20850SOL    HW263992   5.928   7.317   1.622 -0.2155 -0.6826 -0.8049
20851SOL     OW63993   5.041   4.828   3.094  0.5218 -0.2138 -0.1298
20851SOL    HW163994   5.071   4.804   3.006 -1.7305  0.0271 -1.0209
20851SOL    HW263995   5.020   4.745   3.136 -0.8450 -0.2350 -0.7896
20852SOL     OW63996   1.397   5.760   4.061  1.0141  0.0778 -0.6046
20852SOL    HW163997   1.467   5.753   4.126  0.1080  1.7903  0.6353
20852SOL    HW263998   1.433   5.818   3.993  0.2727  2.4647  0.9196
20853SOL     OW63999   4.452   5.654   1.371  0.8136 -0.1817  0.2829
20853SOL    HW164000   4.478   5.583   1.430  1.1466 -0.1841  0.1385
20853SOL    HW264001   4.463   5.618   1.283  0.5114 -0.1130  0.2154
20854SOL     OW64002   7.780   5.536   3.610  0.0980  0.1977  0.6348
20854SOL    HW164003   7.759   5.563   3.699 -0.4833  1.8210  0.0607
20854SOL    HW264004   7.695   5.522   3.568  0.3194  0.6341  0.0184
20855SOL     OW64005   5.379   5.013   2.398 -0.2694  0.6267  0.5273
20855SOL    HW164006   5.304   4.956   2.386 -0.9725  1.6810 -0.1871
20855SOL    HW264007   5.447   4.956   2.434 -1.6729 -0.1532  2.0496
20856SOL     OW64008   6.849   7.574   4.020 -0.2608  0.1821  0.1887
20856SOL    HW164009   6.837   7.623   3.939 -1.7853 -0.0574  0.2459
20856SOL    HW264010   6.769   7.590   4.070 -0.2126 -1.2689  0.7854
20857SOL     OW64011   5.834   6.070   1.386 -0.3970 -0.3596 -0.1663
20857SOL    HW164012   5.923   6.100   1.405 -1.0865  2.1324 -0.4058
20857SOL    HW264013   5.824   6.082   1.292 -0.8844 -0.9436 -0.1914
20858SOL     OW64014   6.785   5.046   3.935  0.3932 -0.4635 -0.3639
20858SOL    HW164015   6.781   4.958   3.971  0.6190 -0.6943 -0.8919
20858SOL    HW264016   6.700   5.058   3.891 -0.2464  0.1559  0.9909
20859SOL     OW64017   6.713   2.727   2.242 -0.3251 -0.0341 -0.3176
20859SOL    HW164018   6.688   2.808   2.197 -2.0161  0.9548  2.1544
20859SOL    HW264019   6.631   2.696   2.281  0.6291 -2.0160  0.2365
20860SOL     OW64020   5.920   4.657   2.632  0.2856 -0.4986 -0.0725
20860SOL    HW164021   5.992   4.597   2.617  0.6636 -0.2411  0.6477
20860SOL    HW264022   5.936   4.693   2.720 -1.6369 -1.7330  0.8646
20861SOL     OW64023   6.501   5.363   2.367  0.7410  0.1661 -0.1908
20861SOL    HW164024   6.554   5.350   2.446 -0.4678  1.1062  0.8177
20861SOL    HW264025   6.447   5.439   2.387 -1.5687 -1.2230 -0.8377
20862SOL     OW64026   7.167   4.633   2.778 -0.1155  0.2655 -0.1248
20862SOL    HW164027   7.229   4.560   2.776  2.2477  2.1066 -2.1795
20862SOL    HW264028   7.083   4.595   2.752  0.5008 -2.0476  1.0544
20863SOL     OW64029   5.688   3.532   2.832  0.4171 -0.3051 -0.7913
20863SOL    HW164030   5.601   3.529   2.791  0.4624  0.1681 -0.9308
20863SOL    HW264031   5.678   3.594   2.904  1.1009  1.2199 -1.9508
20864SOL     OW64032   5.523   4.090   2.315 -0.4201 -0.5385  0.3687
20864SOL    HW164033   5.567   4.093   2.400  0.3077 -1.4193  0.0425
20864SOL    HW264034   5.457   4.159   2.319  1.4078  1.2508  0.6466
20865SOL     OW64035   6.058   3.250   3.483  0.1069 -0.0726 -0.0272
20865SOL    HW164036   6.102   3.334   3.480 -1.1369  0.5968 -0.4369
20865SOL    HW264037   6.090   3.208   3.563  0.3593  1.0149  0.4517
20866SOL     OW64038   7.732   4.312   1.987 -0.3489  0.0118  0.1342
20866SOL    HW164039   7.751   4.219   1.978  2.6004  0.5735 -0.5612
20866SOL    HW264040   7.772   4.352   1.909  2.5040  2.2639  2.4966
20867SOL     OW64041   6.642   6.033   1.467 -0.2611 -0.1065 -0.5594
20867SOL    HW164042   6.696   6.113   1.466 -1.2779  0.6013 -1.6863
20867SOL    HW264043   6.673   5.985   1.544  1.1176  0.8580 -0.4676
20868SOL     OW64044   6.844   3.470   2.016 -0.4788 -0.1069  0.1267
20868SOL    HW164045   6.813   3.558   1.995  0.9946  1.4105  3.4794
20868SOL    HW264046   6.938   3.473   2.001 -0.5039 -1.4076 -0.4595
20869SOL     OW64047   6.102   4.452   2.933 -0.0073  0.3490  0.3175
20869SOL    HW164048   6.158   4.423   2.861  0.9453  1.7115  0.4878
20869SOL    HW264049   6.045   4.377   2.950  1.6663 -1.0368  0.0506
20870SOL     OW64050   7.238   5.437   1.772  0.5868 -0.1748  0.2480
20870SOL    HW164051   7.284   5.356   1.750  1.8708  0.7628 -0.6886
20870SOL    HW264052   7.285   5.471   1.848  2.3984  1.4333 -1.4676
20871SOL     OW64053   6.385   3.595   2.466 -0.1404 -0.5958  0.7478
20871SOL    HW164054   6.412   3.553   2.384  0.1671 -0.5353  0.8176
20871SOL    HW264055   6.467   3.609   2.514 -0.0098  1.6924 -0.0153
20872SOL     OW64056   6.986   7.051   2.994  0.9644 -0.7419 -0.1810
20872SOL    HW164057   6.921   6.993   2.954  1.1231  0.4539 -2.4001
20872SOL    HW264058   6.936   7.127   3.023  0.9608 -1.2742  1.2800
20873SOL     OW64059   5.706   2.049   2.328  0.3373 -0.1567 -0.5529
20873SOL    HW164060   5.667   2.043   2.241 -0.7374 -0.9833 -0.0344
20873SOL    HW264061   5.666   1.978   2.378  0.1431  0.9310  0.9182
20874SOL     OW64062   6.131   5.407   2.238  0.0701 -0.1696 -0.0892
20874SOL    HW164063   6.036   5.412   2.248  0.0905 -0.3067  0.2017
20874SOL    HW264064   6.152   5.468   2.167 -0.2504 -0.2536 -0.2535
20875SOL     OW64065   6.705   4.122   4.704  0.6275  0.0330 -0.3673
20875SOL    HW164066   6.788   4.112   4.657  0.4376  2.1041 -1.2313
20875SOL    HW264067   6.697   4.041   4.755  0.8050 -2.5147 -3.9694
20876SOL     OW64068   5.716   2.294   2.456 -0.1588 -0.4508  0.5060
20876SOL    HW164069   5.670   2.291   2.540 -1.2774 -0.5150 -0.0865
20876SOL    HW264070   5.712   2.203   2.425  0.3179 -0.4400  0.4177
20877SOL     OW64071   7.220   4.581   0.375  0.4183  0.2671 -0.0621
20877SOL    HW164072   7.312   4.559   0.392  0.5223  0.7155 -0.0502
20877SOL    HW264073   7.186   4.504   0.329  0.8548  0.1879 -0.2644
20878SOL     OW64074   7.640   5.615   3.880  0.7293 -0.1211 -0.2523
20878SOL    HW164075   7.714   5.614   3.940  0.0084  1.3656  0.7042
20878SOL    HW264076   7.573   5.561   3.922 -0.1737  1.7849  0.8771
20879SOL     OW64077   7.208   6.541   1.903 -0.1117 -0.2066  0.0411
20879SOL    HW164078   7.220   6.561   1.996  0.1918 -0.4979  0.0675
20879SOL    HW264079   7.278   6.479   1.883 -1.5003 -1.8952  0.1613
20880SOL     OW64080   6.722   4.142   4.051  0.0496  0.2173  0.2818
20880SOL    HW164081   6.759   4.160   3.964 -2.4820  0.0450 -0.9282
20880SOL    HW264082   6.688   4.053   4.044 -0.2617  0.2399  1.4304
20881SOL     OW64083   5.052   6.005   2.648 -0.6670  0.1604 -0.1413
20881SOL    HW164084   5.128   6.061   2.664 -1.1095  0.0755  2.6393
20881SOL    HW264085   4.981   6.067   2.631 -0.3768  0.2871 -0.9536
20882SOL     OW64086   6.894   6.852   4.854 -0.4727  0.7711 -0.0454
20882SOL    HW164087   6.949   6.811   4.920  0.9890  2.7968  0.0972
20882SOL    HW264088   6.839   6.914   4.903 -1.1073  0.5487 -0.4660
20883SOL     OW64089   7.838   7.263   0.719  0.3489 -0.4338  0.4059
20883SOL    HW164090   7.897   7.291   0.649 -0.4330 -1.3931 -0.6797
20883SOL    HW264091   7.751   7.282   0.685 -0.0621 -1.3404  0.9189
20884SOL     OW64092   7.352   2.705   4.192  0.1268  0.2313  0.0169
20884SOL    HW164093   7.371   2.612   4.188 -0.6208  0.0603  0.3158
20884SOL    HW264094   7.410   2.738   4.262  0.3645 -0.0067 -0.0646
20885SOL     OW64095   7.523   3.313   6.412  0.2021  0.8924 -0.4989
20885SOL    HW164096   7.480   3.320   6.327 -0.0500 -0.4526 -0.5073
20885SOL    HW264097   7.616   3.328   6.393  0.2270  0.0581 -1.1297
20886SOL     OW64098   7.834   5.404   3.155 -0.1126  0.7627 -0.2783
20886SOL    HW164099   7.823   5.377   3.064  1.1145  0.7181 -0.4339
20886SOL    HW264100   7.758   5.368   3.201 -0.4411  0.2916 -1.1749
20887SOL     OW64101   7.508   7.788   2.348 -0.3920 -0.1683 -0.0518
20887SOL    HW164102   7.548   7.747   2.425  1.3879  2.6151  0.6682
20887SOL    HW264103   7.416   7.799   2.371  0.0516  0.3649  1.5990
20888SOL     OW64104   7.882   3.893   3.805  0.1103  0.2790 -0.1080
20888SOL    HW164105   7.799   3.845   3.802  0.4309 -0.2666 -0.5306
20888SOL    HW264106   7.861   3.975   3.850 -0.5543 -0.0529  0.2007
20889SOL     OW64107   7.861   5.084   2.766 -0.4841  0.2246 -0.0067
20889SOL    HW164108   7.822   5.163   2.805  2.5069  1.1298  1.5205
20889SOL    HW264109   7.862   5.021   2.838  0.1158 -0.0331 -0.2387
20890SOL     OW64110   7.360   3.870   2.773  0.4273  0.3254 -0.2210
20890SOL    HW164111   7.400   3.957   2.774  0.9421  0.0964 -0.4540
20890SOL    HW264112   7.265   3.886   2.773  0.5213  0.8990 -1.0236
20891SOL     OW64113   6.820   4.975   0.801 -0.4580 -0.5282 -0.0631
20891SOL    HW164114   6.733   4.940   0.786 -0.6037 -0.4300  0.5236
20891SOL    HW264115   6.879   4.908   0.766 -0.7775  0.1567 -2.0154
20892SOL     OW64116   6.542   3.268   1.003 -0.1501 -0.1451  0.2756
20892SOL    HW164117   6.636   3.248   1.008 -0.4740 -2.4256 -0.9766
20892SOL    HW264118   6.520   3.254   0.910 -1.8947 -0.6381  0.7303
20893SOL     OW64119   6.929   6.481   1.510  0.1364  0.4972  0.4028
20893SOL    HW164120   6.995   6.440   1.566  0.0785 -0.9362 -0.5230
20893SOL    HW264121   6.977   6.506   1.431 -0.4113 -0.7715 -0.3774
20894SOL     OW64122   5.744   3.247   2.818 -0.2990  0.0339  0.6630
20894SOL    HW164123   5.688   3.177   2.850 -1.3794  0.6612  0.2076
20894SOL    HW264124   5.721   3.322   2.873 -0.6874  0.5738 -0.2098
20895SOL     OW64125   6.632   5.698   1.985  0.0258  0.3002 -0.4269
20895SOL    HW164126   6.704   5.720   1.925  1.3465  0.7916  1.2546
20895SOL    HW264127   6.600   5.783   2.016 -0.4226  0.0506 -0.2026
20896SOL     OW64128   6.389   2.048   2.277 -0.5661  0.1085  0.2518
20896SOL    HW164129   6.473   2.095   2.279  0.6052 -1.8796  1.1187
20896SOL    HW264130   6.410   1.965   2.235 -2.0366 -0.5666  0.7956
20897SOL     OW64131   5.359   3.205   2.837  0.0393  0.7137 -0.1774
20897SOL    HW164132   5.279   3.221   2.787 -1.2774 -2.4961  0.6487
20897SOL    HW264133   5.396   3.126   2.797  0.3699 -0.3940  2.1604
20898SOL     OW64134   7.501   7.310   2.339 -0.3654  0.6811 -0.3352
20898SOL    HW164135   7.595   7.300   2.328 -0.0293  2.2986  0.7489
20898SOL    HW264136   7.463   7.233   2.296  1.4667 -0.2781 -0.3141
20899SOL     OW64137   6.689   0.294   2.077 -0.0151 -0.5005 -0.5356
20899SOL    HW164138   6.717   0.379   2.044 -0.5695 -0.7216 -1.6289
20899SOL    HW264139   6.752   0.232   2.041 -0.3496 -0.6912 -0.8034
20900SOL     OW64140   7.730   4.274   4.532  0.7345  0.2538 -0.3293
20900SOL    HW164141   7.819   4.283   4.568  1.0262 -0.8613 -0.7264
20900SOL    HW264142   7.736   4.314   4.445  0.9344 -0.0852 -0.4746
20901SOL     OW64143   6.300   0.072   2.716 -0.1260  0.1925  0.0195
20901SOL    HW164144   6.338   0.160   2.705 -0.8211  0.4413 -0.4245
20901SOL    HW264145   6.215   0.088   2.758 -0.7059 -0.1820 -0.9769
20902SOL     OW64146   6.500   5.135   2.575 -0.2698 -0.5381  0.2479
20902SOL    HW164147   6.408   5.130   2.549 -0.1365 -0.5369 -0.2332
20902SOL    HW264148   6.533   5.047   2.560  0.0004 -0.3420 -0.3135
20903SOL     OW64149   6.521   6.460   2.633  0.4261  0.1723  0.9183
20903SOL    HW164150   6.458   6.530   2.617  0.6981  0.8447  2.5654
20903SOL    HW264151   6.493   6.420   2.715 -0.2224 -2.2737 -0.4067
20904SOL     OW64152   5.919   4.206   2.970  0.4432  0.0098 -0.7905
20904SOL    HW164153   5.833   4.232   2.936 -0.1846 -1.2562 -0.2335
20904SOL    HW264154   5.950   4.140   2.908  0.2224 -0.8044 -0.0401
20905SOL     OW64155   6.347   6.022   3.693  0.6005 -0.0536 -0.7540
20905SOL    HW164156   6.336   5.937   3.734  0.3908 -1.4370 -3.4317
20905SOL    HW264157   6.365   6.002   3.601 -1.6233  2.7698 -1.9885
20906SOL     OW64158   4.829   4.442   0.551 -0.0545 -0.1185 -0.1225
20906SOL    HW164159   4.892   4.405   0.613  0.0527  1.9991  1.1356
20906SOL    HW264160   4.764   4.487   0.606 -1.2745 -0.1447 -1.4766
20907SOL     OW64161   6.897   4.106   1.715  0.0550 -0.3723  0.1779
20907SOL    HW164162   6.891   4.196   1.682 -0.5364  0.0186  1.3159
20907SOL    HW264163   6.886   4.114   1.810 -1.9110 -1.8364  0.1174
20908SOL     OW64164   0.715   5.384   3.478  0.1092 -0.3867  0.1393
20908SOL    HW164165   0.688   5.426   3.560  1.1323 -0.9943  0.8110
20908SOL    HW264166   0.729   5.292   3.502 -1.9796 -1.1411 -1.2747
20909SOL     OW64167   0.531   3.569   3.474  0.2367  0.3102  0.2713
20909SOL    HW164168   0.489   3.604   3.395  0.6839 -1.0850 -0.6334
20909SOL    HW264169   0.471   3.592   3.545 -1.0504  0.1279 -0.7155
20910SOL     OW64170   5.307   5.156   3.291  0.6661 -0.1001  0.3429
20910SOL    HW164171   5.362   5.099   3.345 -0.1019  0.1665  1.4327
20910SOL    HW264172   5.289   5.232   3.346 -0.2004  0.1513 -0.2633
20911SOL     OW64173   3.750   3.525   1.221  0.1149 -0.4939  0.4909
20911SOL    HW164174   3.776   3.499   1.133  0.1700  0.0315  0.3515
20911SOL    HW264175   3.826   3.506   1.276  0.4361  0.1053  0.2543
20912SOL     OW64176   5.331   4.398   2.064 -0.6421 -0.1688 -0.5361
20912SOL    HW164177   5.347   4.374   2.155  0.1707  0.0715 -0.6115
20912SOL    HW264178   5.246   4.442   2.065 -0.3063  0.4720  0.2153
20913SOL     OW64179   7.067   3.143   1.943  0.1587  0.5831  0.5293
20913SOL    HW164180   6.995   3.127   1.882  0.4153  1.8879 -0.1370
20913SOL    HW264181   7.095   3.056   1.970 -1.8491  0.0439  1.0225
20914SOL     OW64182   0.634   5.007   2.986  0.2231 -0.4434  0.1558
20914SOL    HW164183   0.669   5.070   3.049 -0.8836 -0.3570  0.7275
20914SOL    HW264184   0.603   5.061   2.913 -1.9061 -0.1303  1.2052
20915SOL     OW64185   5.749   4.096   1.560  0.2111 -0.6822 -0.0946
20915SOL    HW164186   5.688   4.023   1.554 -0.7359  0.1735 -1.2066
20915SOL    HW264187   5.720   4.146   1.637  0.4672 -1.0983  0.2816
20916SOL     OW64188   5.939   4.886   4.571  0.0506  0.4911 -0.6636
20916SOL    HW164189   5.855   4.912   4.532 -0.6823 -0.2403  0.3461
20916SOL    HW264190   5.916   4.865   4.662  1.8022  2.8993  0.4356
20917SOL     OW64191   6.817   6.804   3.871  0.7095 -0.2966 -0.5802
20917SOL    HW164192   6.900   6.760   3.889  1.4437  0.7755 -1.1778
20917SOL    HW264193   6.753   6.761   3.929  1.7696 -0.8378  0.2225
20918SOL     OW64194   6.707   5.717   3.556 -0.0029  0.1262 -0.3186
20918SOL    HW164195   6.707   5.632   3.600  2.0070 -0.5692 -1.5219
20918SOL    HW264196   6.675   5.698   3.468 -0.7468  0.8790 -0.2229
20919SOL     OW64197   0.158   3.739   1.274  0.0233 -0.6591 -0.0369
20919SOL    HW164198   0.069   3.715   1.247 -0.6692  0.8004  0.7957
20919SOL    HW264199   0.186   3.668   1.331 -0.2501 -1.5711 -1.0155
20920SOL     OW64200   6.260   6.501   1.481 -0.5281  0.3026 -0.4254
20920SOL    HW164201   6.213   6.465   1.405 -3.3407  1.8669  0.4044
20920SOL    HW264202   6.329   6.555   1.443  0.2646 -1.5357 -1.7475
20921SOL     OW64203   6.568   5.968   2.043  0.7495 -0.1626  0.1319
20921SOL    HW164204   6.642   6.026   2.060  0.0270  0.3958  1.4367
20921SOL    HW264205   6.497   6.026   2.017 -0.1170 -0.3885  1.9017
20922SOL     OW64206   6.899   4.207   2.337  0.6056  0.0929 -0.2338
20922SOL    HW164207   6.990   4.225   2.358  0.2341  0.0735  1.4929
20922SOL    HW264208   6.856   4.293   2.336  0.5369  0.0603 -0.6171
20923SOL     OW64209   6.866   4.282   4.413  0.2952 -0.1192 -0.4618
20923SOL    HW164210   6.887   4.249   4.501  1.3951 -3.5943 -1.8454
20923SOL    HW264211   6.939   4.338   4.390 -0.0689  0.9466  0.8313
20924SOL     OW64212   5.464   4.032   3.468 -0.0135 -0.3710  0.6905
20924SOL    HW164213   5.418   4.027   3.385  0.4782  1.4414  0.2723
20924SOL    HW264214   5.402   4.075   3.527 -0.2668 -1.4207  1.2081
20925SOL     OW64215   4.474   5.415   1.560 -0.1708 -0.1618  0.3950
20925SOL    HW164216   4.415   5.342   1.541  1.1194 -1.1448  0.0795
20925SOL    HW264217   4.531   5.382   1.630 -0.1097  0.8439  0.8360
20926SOL     OW64218   6.558   5.547   1.398  0.4413 -0.2715 -0.6108
20926SOL    HW164219   6.557   5.466   1.347 -1.2567 -0.7151  0.0665
20926SOL    HW264220   6.467   5.576   1.399 -0.0027 -1.1814  3.4501
20927SOL     OW64221   5.838   5.654   1.944 -0.2983  0.2568  0.3422
20927SOL    HW164222   5.778   5.589   1.983 -0.3564  0.6851  0.9912
20927SOL    HW264223   5.828   5.731   2.000  0.9984  0.2765  0.5704
20928SOL     OW64224   7.730   4.184   3.523 -0.4567 -0.3885  0.2075
20928SOL    HW164225   7.767   4.127   3.457 -0.2309  1.0836 -0.9900
20928SOL    HW264226   7.803   4.204   3.582 -0.2741 -0.4697  0.0092
20929SOL     OW64227   5.616   5.426   3.183  0.0007  0.0294 -0.3599
20929SOL    HW164228   5.602   5.341   3.142  1.8868 -1.3805  1.7032
20929SOL    HW264229   5.646   5.405   3.272  0.6781  2.8529  0.1615
20930SOL     OW64230   4.634   5.003   3.432 -0.0106  0.3461 -0.2310
20930SOL    HW164231   4.726   4.974   3.427 -0.4542 -1.2951  0.5895
20930SOL    HW264232   4.585   4.932   3.391 -1.0403  0.5669  0.6055
20931SOL     OW64233   5.305   3.307   1.363  0.4023 -0.1993  0.3990
20931SOL    HW164234   5.391   3.314   1.323 -0.0747  1.5958 -0.4333
20931SOL    HW264235   5.276   3.398   1.375 -1.3669 -0.7418  0.6481
20932SOL     OW64236   7.713   4.878   0.920 -0.3854  0.1360  0.1066
20932SOL    HW164237   7.733   4.972   0.926 -1.6681  0.3747  1.0274
20932SOL    HW264238   7.636   4.874   0.863  0.3463 -0.4760 -0.8650
20933SOL     OW64239   0.221   3.890   2.683  0.1281  0.1069 -0.1371
20933SOL    HW164240   0.252   3.921   2.768 -0.6806  0.2526  0.1192
20933SOL    HW264241   0.296   3.846   2.644  0.7414  0.7371  0.3122
20934SOL     OW64242   6.875   5.447   2.424  0.3252  0.1529  0.5909
20934SOL    HW164243   6.813   5.422   2.493 -0.1219  0.4932  0.3103
20934SOL    HW264244   6.824   5.499   2.363  1.2705  1.9113  1.2352
20935SOL     OW64245   4.949   4.066   0.765  0.0835 -0.7461 -0.1204
20935SOL    HW164246   4.876   4.069   0.704  1.5827 -0.3921 -1.9875
20935SOL    HW264247   4.982   3.976   0.760  0.2589 -0.6964  0.1000
20936SOL     OW64248   7.448   3.680   4.533  0.3370  0.0999 -0.3677
20936SOL    HW164249   7.513   3.708   4.469  1.3662 -0.0062  0.6108
20936SOL    HW264250   7.480   3.714   4.616 -0.2171 -1.0136  0.3159
20937SOL     OW64251   7.715   6.656   4.144  0.5879  0.1148 -0.1574
20937SOL    HW164252   7.718   6.747   4.174  0.6847  0.2518 -0.5865
20937SOL    HW264253   7.762   6.607   4.212 -3.3676 -0.3502  2.6490
20938SOL     OW64254   7.557   4.266   3.359 -0.0739  0.2351 -0.0522
20938SOL    HW164255   7.628   4.235   3.415  0.0703 -0.3116 -0.5420
20938SOL    HW264256   7.522   4.342   3.406  0.0629 -0.2006  0.7745
20939SOL     OW64257   6.889   4.504   3.712  0.0208 -0.1580 -0.2364
20939SOL    HW164258   6.983   4.521   3.715  0.2094  0.2409 -3.6383
20939SOL    HW264259   6.851   4.586   3.681 -1.1224 -0.9831 -1.1023
20940SOL     OW64260   7.548   3.880   1.764  0.1680 -0.0670  0.0991
20940SOL    HW164261   7.500   3.826   1.827  0.4651 -0.7025 -0.2119
20940SOL    HW264262   7.562   3.822   1.689 -0.3857  0.7410 -0.6593
20941SOL     OW64263   6.647   4.685   1.966  0.2342  0.1517  0.2256
20941SOL    HW164264   6.729   4.723   1.937 -0.6316  1.0599 -1.2021
20941SOL    HW264265   6.582   4.754   1.950 -1.0770 -1.2005 -0.5853
20942SOL     OW64266   0.819   5.074   3.848 -0.1662  0.0043 -0.2187
20942SOL    HW164267   0.788   5.075   3.938 -0.6829  2.3155 -0.3410
20942SOL    HW264268   0.896   5.131   3.849 -0.6003  0.6492 -1.3283
20943SOL     OW64269   7.999   7.351   2.433  0.2698 -0.0890 -0.2612
20943SOL    HW164270   7.999   7.427   2.491 -0.3466  0.2931 -0.7507
20943SOL    HW264271   8.066   7.294   2.468  0.4587  0.5047  0.3536
20944SOL     OW64272   6.227   4.677   2.197  0.4238 -0.3955 -0.1899
20944SOL    HW164273   6.259   4.764   2.172 -0.2380 -0.3167 -0.7974
20944SOL    HW264274   6.181   4.645   2.119 -0.7750 -0.5868  0.5657
20945SOL     OW64275   5.669   7.539   3.985  0.1749  0.3499 -0.6537
20945SOL    HW164276   5.730   7.468   4.005  1.3780  1.3623 -0.6238
20945SOL    HW264277   5.590   7.517   4.034  0.8813 -0.4485  0.1581
20946SOL     OW64278   0.551   3.308   3.875 -0.3375 -0.1551 -0.1934
20946SOL    HW164279   0.634   3.346   3.903 -0.4124  0.7567 -1.1309
20946SOL    HW264280   0.535   3.237   3.937  1.3481 -0.6250 -0.2418
20947SOL     OW64281   6.997   6.555   2.742  0.0792 -0.0927 -0.2849
20947SOL    HW164282   6.984   6.515   2.828  0.6781  1.1166  0.3792
20947SOL    HW264283   6.916   6.537   2.695  0.0298 -1.4135  0.2497
20948SOL     OW64284   4.736   6.520   2.926  0.0035 -0.0189  0.6709
20948SOL    HW164285   4.642   6.511   2.907 -0.0300  0.2507  0.7081
20948SOL    HW264286   4.779   6.465   2.860 -0.2475 -1.3309  1.5710
20949SOL     OW64287   7.260   4.593   1.518 -0.0999 -0.6924 -0.1913
20949SOL    HW164288   7.328   4.607   1.453  0.0954 -0.6275  0.0242
20949SOL    HW264289   7.179   4.615   1.473  0.0495 -0.4789 -0.3588
20950SOL     OW64290   5.844   2.964   1.741 -0.0522 -0.2880 -0.1071
20950SOL    HW164291   5.805   2.882   1.770 -1.6810  0.5375  0.1102
20950SOL    HW264292   5.864   3.011   1.822  1.6494 -0.7752 -0.2026
20951SOL     OW64293   6.787   4.833   3.033  0.2906 -0.1796 -0.1412
20951SOL    HW164294   6.709   4.887   3.044 -0.0475 -0.6089 -0.3976
20951SOL    HW264295   6.835   4.875   2.962 -0.3920 -0.6845 -0.9200
20952SOL     OW64296   6.515   5.031   3.797 -0.8558  0.8596 -0.7670
20952SOL    HW164297   6.507   4.949   3.846 -0.8507  1.9823  1.2286
20952SOL    HW264298   6.499   5.006   3.706  2.3748 -1.9492 -0.7745
20953SOL     OW64299   0.354   3.474   3.838 -0.0970 -0.0741  0.1636
20953SOL    HW164300   0.432   3.421   3.852 -0.9347 -0.7318  2.9215
20953SOL    HW264301   0.322   3.447   3.751  1.8327 -0.9260 -0.3365
20954SOL     OW64302   4.679   4.464   2.048 -0.2274  0.2365  0.4402
20954SOL    HW164303   4.694   4.419   2.131  0.2774 -1.8142 -0.7001
20954SOL    HW264304   4.766   4.473   2.009 -0.7662 -2.9388 -1.8441
20955SOL     OW64305   6.750   6.177   2.685 -0.0560 -0.1218  0.2617
20955SOL    HW164306   6.694   6.129   2.625 -0.4497  1.9840 -1.1366
20955SOL    HW264307   6.706   6.261   2.699  1.4329  0.5518  1.2415
20956SOL     OW64308   4.840   5.225   1.127  0.6524 -0.5017  0.5943
20956SOL    HW164309   4.893   5.301   1.103 -1.3417  1.1987  1.2485
20956SOL    HW264310   4.766   5.262   1.175  0.0068 -2.9646  1.6421
20957SOL     OW64311   7.935   5.415   1.422  0.1435 -0.0879 -0.1686
20957SOL    HW164312   8.003   5.414   1.355 -1.0310 -0.1726 -1.4174
20957SOL    HW264313   7.965   5.352   1.488  1.5075  0.2773 -0.4155
20958SOL     OW64314   6.999   6.831   2.686 -0.0544 -0.1611  0.4201
20958SOL    HW164315   6.934   6.853   2.753  0.4240 -0.9192  1.1567
20958SOL    HW264316   7.025   6.741   2.707  2.6740  0.7442  1.3501
20959SOL     OW64317   6.770   4.861   2.250 -0.1569  0.0267  0.1317
20959SOL    HW164318   6.773   4.954   2.228 -0.1959 -0.4484 -2.1795
20959SOL    HW264319   6.685   4.849   2.294  0.3490  1.2444  1.4976
20960SOL     OW64320   7.258   5.454   2.879  0.5982 -0.3243  0.6647
20960SOL    HW164321   7.259   5.390   2.950 -0.8125 -0.2883  0.7342
20960SOL    HW264322   7.271   5.538   2.922  0.8819 -0.4081  0.7460
20961SOL     OW64323   6.342   5.728   1.271  0.4069 -0.0074  0.5489
20961SOL    HW164324   6.399   5.762   1.202 -1.1004  0.2167 -0.6564
20961SOL    HW264325   6.330   5.801   1.331  0.5688  0.2561  0.2599
20962SOL     OW64326   7.203   4.060   3.834  0.1862  0.5605  0.1726
20962SOL    HW164327   7.145   4.037   3.906 -0.8090 -0.7405 -0.9869
20962SOL    HW264328   7.291   4.058   3.871 -0.3350  0.2596  1.4146
20963SOL     OW64329   6.263   2.941   1.937  0.1737  0.2599 -0.1078
20963SOL    HW164330   6.289   2.851   1.956 -0.3474  0.5192  2.0514
20963SOL    HW264331   6.325   2.969   1.870  0.6788 -1.5267 -0.4561
20964SOL     OW64332   0.034   2.543   4.228 -0.7550  0.1214 -0.2487
20964SOL    HW164333   0.093   2.531   4.154 -1.9205 -1.6297 -0.9624
20964SOL    HW264334   0.073   2.493   4.299  0.0704  1.3404  0.1904
20965SOL     OW64335   5.215   5.694   1.407 -0.5112 -0.6539 -0.4316
20965SOL    HW164336   5.222   5.775   1.458 -1.1579 -0.5201 -0.5466
20965SOL    HW264337   5.288   5.640   1.437  1.9027  1.1765 -2.5476
20966SOL     OW64338   5.335   5.383   3.467  0.2494 -0.3216  0.0559
20966SOL    HW164339   5.306   5.382   3.558  0.9025 -1.7704  0.2753
20966SOL    HW264340   5.431   5.383   3.472  0.2922  0.0578 -0.6349
20967SOL     OW64341   7.445   3.578   4.975  0.0902  0.1633 -0.3047
20967SOL    HW164342   7.483   3.605   5.059 -0.7591  0.3913  0.0174
20967SOL    HW264343   7.462   3.484   4.971 -0.8420 -0.0767  0.6793
20968SOL     OW64344   0.389   3.414   0.296  0.1702  0.1326 -0.2713
20968SOL    HW164345   0.362   3.425   0.205  0.9118 -1.4263 -0.7068
20968SOL    HW264346   0.401   3.320   0.307 -0.4914  0.2206  1.6227
20969SOL     OW64347   0.158   3.761   3.339 -0.3952 -0.2434 -0.0616
20969SOL    HW164348   0.107   3.718   3.270  0.3232 -2.9473  0.9709
20969SOL    HW264349   0.147   3.854   3.322 -3.6772 -0.7383 -1.3075
20970SOL     OW64350   5.497   4.364   3.193 -0.0087 -0.6582  0.0845
20970SOL    HW164351   5.546   4.301   3.246  0.6670 -3.6148 -3.5805
20970SOL    HW264352   5.559   4.435   3.177  0.8364 -1.2285  0.7250
20971SOL     OW64353   0.040   3.661   1.621  0.1309 -0.1877 -0.1890
20971SOL    HW164354  -0.045   3.646   1.663  0.2091 -0.3630 -0.0910
20971SOL    HW264355   0.026   3.736   1.564  0.3029  0.7518  0.9705
20972SOL     OW64356   6.352   4.198   3.813 -0.4449 -0.3287 -0.3375
20972SOL    HW164357   6.382   4.130   3.873  0.0163 -0.1479 -0.3549
20972SOL    HW264358   6.260   4.177   3.797  0.0446 -1.7568 -1.4428
20973SOL     OW64359   7.992   4.735   3.688 -0.0444  0.4870  0.0131
20973SOL    HW164360   7.899   4.717   3.671 -0.1278  0.3608  0.5970
20973SOL    HW264361   7.992   4.796   3.761  0.3311  0.7116 -0.1674
20974SOL     OW64362   5.640   4.431   2.268  0.1103  0.4918  0.0217
20974SOL    HW164363   5.560   4.471   2.301  0.4649  0.5522  0.8343
20974SOL    HW264364   5.707   4.500   2.276  0.4858  0.0868  0.4122
20975SOL     OW64365   6.902   4.558   3.987  0.6528 -0.3611  0.2701
20975SOL    HW164366   6.853   4.567   3.905  0.1439 -0.6325  0.5399
20975SOL    HW264367   6.835   4.551   4.055  1.0406  1.1418  0.8720
20976SOL     OW64368   6.129   6.259   2.859 -0.1460  0.0095 -0.6564
20976SOL    HW164369   6.040   6.292   2.870 -0.2385  1.0274 -3.4632
20976SOL    HW264370   6.119   6.184   2.801  0.8064  0.2423 -1.1381
20977SOL     OW64371   0.347   3.822   4.184 -0.5486  0.0824  0.3646
20977SOL    HW164372   0.344   3.798   4.277  0.4745  0.7800  0.6047
20977SOL    HW264373   0.329   3.741   4.137  1.3524 -0.8776  1.1567
20978SOL     OW64374   5.751   2.889   2.303  0.5884 -0.4717  0.5438
20978SOL    HW164375   5.731   2.911   2.394 -0.0413 -0.6721  0.4601
20978SOL    HW264376   5.666   2.893   2.258  0.7328 -1.3446  0.1745
20979SOL     OW64377   0.304   3.906   2.349  0.4976  0.0190  0.4455
20979SOL    HW164378   0.236   3.937   2.290  1.1324  1.7391  0.5680
20979SOL    HW264379   0.374   3.875   2.290 -0.2947 -1.6583  0.3218
20980SOL     OW64380   0.136   3.439   3.211  0.4405  1.0146  0.4083
20980SOL    HW164381   0.074   3.511   3.219  0.0986  1.5093 -4.2565
20980SOL    HW264382   0.082   3.361   3.201  0.6301  0.9791 -0.3984
20981SOL     OW64383   7.608   4.672   4.458 -0.1108  0.1906 -0.2228
20981SOL    HW164384   7.696   4.635   4.468  0.4594  1.0414 -1.7828
20981SOL    HW264385   7.608   4.749   4.515  0.6520  0.9577 -1.2150
20982SOL     OW64386   7.525   5.170   1.165 -0.7288  0.1530 -0.3541
20982SOL    HW164387   7.617   5.145   1.173 -1.0286 -0.8646  0.1224
20982SOL    HW264388   7.522   5.259   1.199  0.2542  0.6007 -1.3789
20983SOL     OW64389   6.482   4.053   3.552 -0.2550  0.1806  0.0007
20983SOL    HW164390   6.434   4.133   3.573 -1.3709 -1.1516  3.0584
20983SOL    HW264391   6.419   3.983   3.566  1.0153 -1.3634 -1.5178
20984SOL     OW64392   7.227   4.591   1.803 -0.0321 -0.4576  0.4166
20984SOL    HW164393   7.264   4.599   1.716 -0.3580  2.4421  0.4394
20984SOL    HW264394   7.301   4.568   1.859  1.1178  1.8035 -0.0570
20985SOL     OW64395   6.725   5.478   0.121  0.7372  0.1306 -0.0552
20985SOL    HW164396   6.772   5.395   0.109  1.2716  0.6174 -1.4807
20985SOL    HW264397   6.790   5.545   0.101 -0.2396  0.8388 -0.9186
20986SOL     OW64398   6.785   6.118   2.046 -0.3542  0.0580  0.1233
20986SOL    HW164399   6.796   6.212   2.029 -1.1397  0.1966  0.3132
20986SOL    HW264400   6.797   6.110   2.141  1.7873 -0.3654 -0.1495
20987SOL     OW64401   6.779   4.232   3.811  0.4580  0.0568 -0.1986
20987SOL    HW164402   6.871   4.235   3.785 -0.0768  0.1986 -2.2945
20987SOL    HW264403   6.737   4.298   3.756 -1.0259 -0.5781  0.1292
20988SOL     OW64404   5.953   2.904   2.590  0.2483 -0.2880  1.0061
20988SOL    HW164405   5.993   2.833   2.640 -0.0750 -0.5236  0.9374
20988SOL    HW264406   6.009   2.980   2.607  1.3374 -0.8475  0.0610
20989SOL     OW64407   6.711   3.279   1.618  0.5092  0.3559  0.3528
20989SOL    HW164408   6.743   3.332   1.545  0.6709 -0.5616 -0.2588
20989SOL    HW264409   6.625   3.247   1.590  0.4304  0.2637  0.6916
20990SOL     OW64410   0.089   5.405   2.756 -0.0140  0.2572 -0.1481
20990SOL    HW164411   0.116   5.475   2.697  1.1141 -0.9319 -1.1200
20990SOL    HW264412   0.014   5.365   2.712  1.0326 -0.8414 -1.0016
20991SOL     OW64413   7.204   7.449   2.491 -0.4175  0.3024 -0.5395
20991SOL    HW164414   7.154   7.369   2.472  1.1297 -0.6134 -0.9815
20991SOL    HW264415   7.184   7.469   2.582  0.0742 -1.3165 -0.0409
20992SOL     OW64416   4.887   2.085   1.647  0.2074  0.2012  0.2902
20992SOL    HW164417   4.917   2.157   1.592 -0.7886 -0.2746 -0.9365
20992SOL    HW264418   4.919   2.107   1.735 -0.0663  2.1299 -0.0391
20993SOL     OW64419   0.318   6.202   2.883  0.5567  0.6050 -0.1971
20993SOL    HW164420   0.298   6.281   2.933  0.6896  0.1214  0.6385
20993SOL    HW264421   0.243   6.144   2.898  1.7981 -0.6267  1.7282
20994SOL     OW64422   6.951   4.442   2.799  0.5955 -0.4379 -0.3408
20994SOL    HW164423   7.029   4.423   2.852  1.1256  0.8322 -0.6240
20994SOL    HW264424   6.892   4.487   2.860 -0.8910 -3.2797  0.4891
20995SOL     OW64425   5.852   3.776   1.670 -0.2982  0.5768  0.0050
20995SOL    HW164426   5.907   3.700   1.687 -0.3532  0.7715  1.1310
20995SOL    HW264427   5.899   3.849   1.711 -1.5006  0.6982  1.2306
20996SOL     OW64428   7.304   4.824   2.945  0.6697 -0.3505 -0.2145
20996SOL    HW164429   7.268   4.911   2.929  0.2053 -0.5916 -0.5231
20996SOL    HW264430   7.249   4.766   2.893  1.3562 -0.7605 -0.4962
20997SOL     OW64431   6.707   4.021   2.895  0.2623  0.0971 -0.4113
20997SOL    HW164432   6.676   3.978   2.975 -0.9972 -0.2949 -1.0844
20997SOL    HW264433   6.630   4.025   2.839  0.9296  1.1286 -1.2902
20998SOL     OW64434   7.056   3.808   0.771 -0.2410 -0.4668  0.1820
20998SOL    HW164435   7.045   3.752   0.694 -0.3560 -0.1343 -0.0464
20998SOL    HW264436   6.967   3.825   0.801 -0.1906 -0.6987  0.4633
20999SOL     OW64437   6.833   3.286   0.987  0.1353 -0.1881 -0.2196
20999SOL    HW164438   6.883   3.322   1.060  2.0352  0.5118 -1.7869
20999SOL    HW264439   6.859   3.194   0.983 -1.2503 -0.6827  0.9451
21000SOL     OW64440   1.275   1.995   4.503 -0.2063 -0.5093 -0.3292
21000SOL    HW164441   1.229   2.068   4.460  1.3422 -0.3622 -1.8491
21000SOL    HW264442   1.300   2.030   4.589  0.8563  0.9307 -1.1774
21001SOL     OW64443   0.483   5.938   3.141 -0.4554 -0.0323  0.2163
21001SOL    HW164444   0.407   5.943   3.199 -0.0449  1.0268  0.6886
21001SOL    HW264445   0.446   5.946   3.053 -0.9659 -0.4157  0.3895
21002SOL     OW64446   5.769   6.191   2.042 -0.1825 -0.1254  0.4435
21002SOL    HW164447   5.813   6.107   2.051  0.1448  0.0363  0.3827
21002SOL    HW264448   5.791   6.238   2.123 -0.5803 -0.1940  0.5972
21003SOL     OW64449   7.150   5.707   1.654  0.1315  0.0144 -0.2887
21003SOL    HW164450   7.245   5.702   1.649  0.2211 -0.6201  1.4178
21003SOL    HW264451   7.125   5.766   1.582  1.7628 -0.1072 -0.9910
21004SOL     OW64452   5.144   4.610   4.859 -0.0475 -0.0576 -0.2471
21004SOL    HW164453   5.146   4.692   4.909 -0.7169  0.4726 -1.0643
21004SOL    HW264454   5.062   4.568   4.886  1.1724 -1.4305  1.6146
21005SOL     OW64455   5.795   4.598   3.432 -0.1238  0.1770 -0.4146
21005SOL    HW164456   5.749   4.566   3.510  0.7098 -1.4738 -0.5553
21005SOL    HW264457   5.753   4.553   3.359  1.7364 -1.5277 -0.5322
21006SOL     OW64458   6.170   4.115   4.761  0.0609 -0.7115  0.2241
21006SOL    HW164459   6.249   4.137   4.811 -0.6164 -0.6826  1.3055
21006SOL    HW264460   6.097   4.145   4.816 -0.7032  0.0184 -1.1210
21007SOL     OW64461   1.300   5.396   4.246 -0.1587  0.3205  0.3323
21007SOL    HW164462   1.355   5.467   4.280  0.1119  0.6858 -0.7999
21007SOL    HW264463   1.250   5.366   4.321 -1.0597  2.4230  0.6448
21008SOL     OW64464   6.538   5.312   3.183 -0.1671  0.1580 -0.2145
21008SOL    HW164465   6.502   5.323   3.095 -1.3311  2.0389  0.4194
21008SOL    HW264466   6.461   5.307   3.239  0.5653  0.0141  0.8031
21009SOL     OW64467   0.801   4.058   4.722  0.6983  0.3738 -0.0652
21009SOL    HW164468   0.799   4.130   4.659  0.8738  0.4583  0.0269
21009SOL    HW264469   0.789   4.100   4.807  2.3047  0.4644  0.1414
21010SOL     OW64470   5.963   4.135   4.511  0.7298  0.5560  0.9105
21010SOL    HW164471   6.050   4.117   4.547  1.6647 -1.4578 -2.0339
21010SOL    HW264472   5.905   4.075   4.557  1.8239 -1.6612 -0.4362
21011SOL     OW64473   5.622   4.759   5.369 -0.1823  0.4970 -0.5602
21011SOL    HW164474   5.674   4.809   5.306 -1.1472 -0.1547 -1.9372
21011SOL    HW264475   5.681   4.692   5.403  0.2205  0.5500 -1.1464
21012SOL     OW64476   6.600   4.773   4.858  0.5756  0.3113  0.1970
21012SOL    HW164477   6.588   4.705   4.924  1.1148 -1.4942 -1.4745
21012SOL    HW264478   6.529   4.759   4.796  1.5823  0.2612 -0.9819
21013SOL     OW64479   7.512   4.194   5.188 -0.3847  0.2782  0.3448
21013SOL    HW164480   7.544   4.106   5.209 -1.9013 -0.2392  0.6495
21013SOL    HW264481   7.564   4.253   5.242  0.9363 -0.3780 -0.1618
21014SOL     OW64482   6.641   3.578   4.951  0.1401 -0.0475  0.2827
21014SOL    HW164483   6.562   3.632   4.958 -0.9351 -1.5795  0.5585
21014SOL    HW264484   6.625   3.504   5.010  0.6881 -1.6618 -1.4790
21015SOL     OW64485   7.979   6.231   5.960  0.2570 -0.0658  0.2708
21015SOL    HW164486   7.998   6.238   6.053 -0.4049  1.0354  0.3414
21015SOL    HW264487   8.014   6.312   5.922 -0.4796  0.0234 -0.2488
21016SOL     OW64488   5.270   3.330   5.135  0.2506  0.3170 -0.3849
21016SOL    HW164489   5.221   3.297   5.059 -1.2304 -3.1240  1.8185
21016SOL    HW264490   5.361   3.311   5.115 -0.3126 -2.8509 -0.4562
21017SOL     OW64491   0.540   2.837   4.462  0.4212 -0.1178 -0.3227
21017SOL    HW164492   0.626   2.869   4.435  0.3271  0.3377 -0.0792
21017SOL    HW264493   0.545   2.832   4.557 -0.1076  0.7177 -0.2497
21018SOL     OW64494   7.251   4.825   3.459  0.2129 -0.0804 -0.0948
21018SOL    HW164495   7.174   4.838   3.513 -0.4852  1.6665 -1.4127
21018SOL    HW264496   7.216   4.804   3.372  1.2277  0.0571 -0.5510
21019SOL     OW64497   0.297   4.885   5.735  0.3858 -0.3039 -0.4897
21019SOL    HW164498   0.359   4.856   5.668 -0.7707  1.4160 -2.4379
21019SOL    HW264499   0.238   4.811   5.748  0.3091 -0.5115 -1.8307
21020SOL     OW64500   6.607   4.991   3.264  0.6535  0.4732 -0.1735
21020SOL    HW164501   6.555   5.008   3.342  1.1816 -0.4688  0.4117
21020SOL    HW264502   6.695   5.021   3.287  0.9975 -0.5630 -0.0846
21021SOL     OW64503   5.111   4.371   3.361 -0.3036 -0.2488  0.1375
21021SOL    HW164504   5.058   4.293   3.345 -0.1150 -0.2915 -0.3048
21021SOL    HW264505   5.158   4.352   3.442 -0.5922 -0.4125  0.2679
21022SOL     OW64506   6.644   5.360   6.546  0.1769  0.1264  0.1907
21022SOL    HW164507   6.686   5.412   6.478 -1.1023 -0.2844 -0.9628
21022SOL    HW264508   6.633   5.273   6.507  0.0327 -0.3130  1.1738
21023SOL     OW64509   6.316   4.073   2.492  0.4240  0.1721  0.0533
21023SOL    HW164510   6.253   4.021   2.542  0.0821 -0.1616 -0.7134
21023SOL    HW264511   6.267   4.150   2.464  0.7167  0.5415  0.5248
21024SOL     OW64512   0.931   3.766   5.858  0.1085 -0.6852  0.3570
21024SOL    HW164513   0.907   3.843   5.806  1.6526 -0.4384 -0.0206
21024SOL    HW264514   0.915   3.793   5.948 -0.3001 -0.2789  0.1693
21025SOL     OW64515   5.830   4.896   4.833 -0.4280 -0.1374  0.1360
21025SOL    HW164516   5.765   4.962   4.858 -0.5316  1.0384 -2.7604
21025SOL    HW264517   5.910   4.921   4.879 -0.5694  1.8623 -0.6067
21026SOL     OW64518   6.754   4.363   4.174  0.3036 -0.2359  0.1833
21026SOL    HW164519   6.787   4.317   4.251 -1.2803  0.4464  1.3197
21026SOL    HW264520   6.742   4.294   4.109  1.3731 -0.8682  0.6137
21027SOL     OW64521   7.256   4.178   5.082 -0.5541 -0.0827  0.1169
21027SOL    HW164522   7.336   4.180   5.134 -0.6223  0.8388  0.2033
21027SOL    HW264523   7.195   4.124   5.133 -0.4280  0.3312  0.7097
21028SOL     OW64524   0.378   5.007   6.574  0.1257 -0.3885  0.2796
21028SOL    HW164525   0.437   4.985   6.501  0.3386 -1.6751  0.8115
21028SOL    HW264526   0.435   5.009   6.651 -0.5091 -1.7432  0.8188
21029SOL     OW64527   7.032   4.584   5.583 -0.1674 -0.3871 -0.4395
21029SOL    HW164528   6.970   4.575   5.510  0.0121 -0.6504 -0.5603
21029SOL    HW264529   7.113   4.612   5.541 -0.6040  1.5158 -0.1279
21030SOL     OW64530   6.173   5.844   3.127  0.2944 -0.1399  0.1200
21030SOL    HW164531   6.120   5.886   3.061  1.3761 -1.4298 -1.6678
21030SOL    HW264532   6.115   5.835   3.203 -1.1576  0.8842 -0.8284
21031SOL     OW64533   6.529   5.785   4.497  0.0307 -0.1901  0.1968
21031SOL    HW164534   6.500   5.716   4.557 -1.0779 -0.7680 -0.9525
21031SOL    HW264535   6.555   5.857   4.554 -3.7533  0.4054  1.3910
21032SOL     OW64536   6.189   3.166   4.206  0.1021  0.2402  0.2166
21032SOL    HW164537   6.155   3.175   4.295  1.9325 -1.4279  1.1417
21032SOL    HW264538   6.146   3.088   4.172  0.6771 -0.1014  0.2687
21033SOL     OW64539   7.345   5.676   4.959  0.4647  0.0553 -0.0098
21033SOL    HW164540   7.289   5.743   4.999  0.0056 -0.3937  0.0995
21033SOL    HW264541   7.399   5.644   5.031  1.0831  0.6889 -0.1696
21034SOL     OW64542   7.023   4.813   5.223 -0.4920 -0.2689  0.1405
21034SOL    HW164543   6.942   4.846   5.261  0.0524 -1.1451  2.2301
21034SOL    HW264544   7.011   4.718   5.220  0.4453 -0.4140  0.5565
21035SOL     OW64545   6.216   3.081   4.798 -0.0819 -0.1847 -0.1695
21035SOL    HW164546   6.272   3.012   4.762 -0.9760 -0.5695 -0.8728
21035SOL    HW264547   6.133   3.038   4.818 -0.7830  0.7324 -0.9523
21036SOL     OW64548   4.724   4.389   6.091 -0.4311  0.4298 -0.3819
21036SOL    HW164549   4.761   4.301   6.094 -1.6391 -0.0814  1.8989
21036SOL    HW264550   4.673   4.391   6.010 -1.7358 -1.6128  0.3082
21037SOL     OW64551   0.113   6.790   6.803 -0.0328  0.2769  0.0034
21037SOL    HW164552   0.067   6.769   6.722  1.0664  1.7291 -1.0626
21037SOL    HW264553   0.101   6.884   6.814 -0.2202  0.1039  1.6026
21038SOL     OW64554   6.842   4.557   5.363  0.4413  0.0510 -0.0863
21038SOL    HW164555   6.839   4.465   5.388  0.0493 -0.2525 -1.1921
21038SOL    HW264556   6.752   4.587   5.371  0.7153  0.6101  1.1740
21039SOL     OW64557   5.740   5.183   3.128  0.2090  1.3217  0.4569
21039SOL    HW164558   5.786   5.112   3.174 -0.0033  1.7745  1.3879
21039SOL    HW264559   5.677   5.138   3.072  1.1860  0.7249 -0.1876
21040SOL     OW64560   1.278   2.612   5.231  0.0157  0.0406 -0.0157
21040SOL    HW164561   1.309   2.657   5.153  2.1329 -0.5691  0.4270
21040SOL    HW264562   1.264   2.683   5.295  2.1479  0.2380  0.2898
21041SOL     OW64563   6.682   4.391   3.583  0.1708 -0.3413  0.3727
21041SOL    HW164564   6.766   4.430   3.610  0.6060 -0.1559 -1.1564
21041SOL    HW264565   6.695   4.369   3.490 -1.3033 -0.8067  0.2607
21042SOL     OW64566   5.477   3.993   7.397 -0.2551  0.0341  0.5065
21042SOL    HW164567   5.449   3.968   7.485 -1.1426  1.8890  0.8036
21042SOL    HW264568   5.560   3.947   7.384 -0.4419 -0.7943  2.0371
21043SOL     OW64569   7.859   3.139   7.215  0.0273  0.1633  0.1372
21043SOL    HW164570   7.891   3.118   7.127  1.7874 -0.6570  0.9061
21043SOL    HW264571   7.769   3.107   7.217  0.2944 -0.7217 -1.0463
21044SOL     OW64572   7.060   5.371   4.051 -0.0372 -0.2463  0.3093
21044SOL    HW164573   6.973   5.409   4.064 -0.0905  0.2352 -1.2798
21044SOL    HW264574   7.048   5.306   3.982  0.5492 -1.3908  1.2645
21045SOL     OW64575   6.397   5.179   5.874  0.1122 -0.0997 -0.3473
21045SOL    HW164576   6.433   5.133   5.950  2.1813  0.9544 -0.6050
21045SOL    HW264577   6.335   5.117   5.836  0.0304 -1.1784  1.4153
21046SOL     OW64578   5.471   5.925   2.724  0.9362 -0.6759  0.1428
21046SOL    HW164579   5.390   5.874   2.718  1.7445 -2.0339  0.4140
21046SOL    HW264580   5.441   6.015   2.742 -0.4965 -1.1622  0.3462
21047SOL     OW64581   5.838   3.498   4.261  0.2151  0.6262  0.1288
21047SOL    HW164582   5.745   3.516   4.265  0.2325  1.0258 -1.0466
21047SOL    HW264583   5.867   3.501   4.352 -1.1955 -1.0826  0.6898
21048SOL     OW64584   7.467   5.185   6.364 -0.0017 -0.2148  0.0181
21048SOL    HW164585   7.561   5.170   6.363 -0.1405 -1.2693 -1.9799
21048SOL    HW264586   7.428   5.101   6.337 -1.4988  0.2588  0.5837
21049SOL     OW64587   6.857   3.335   3.965  0.2634  0.1178  0.2243
21049SOL    HW164588   6.820   3.267   4.022 -0.6926  0.2045 -0.2733
21049SOL    HW264589   6.899   3.286   3.894  0.0598  0.0426  0.1567
21050SOL     OW64590   7.787   3.372   6.224 -0.1236 -0.0358  0.2573
21050SOL    HW164591   7.801   3.443   6.286  0.6522  0.3386 -0.3337
21050SOL    HW264592   7.710   3.399   6.174 -0.4951 -0.1377  0.7733
21051SOL     OW64593   0.291   4.395   5.428  0.4713  0.2117  0.4505
21051SOL    HW164594   0.236   4.395   5.349  0.3313 -0.2645  0.5491
21051SOL    HW264595   0.351   4.469   5.414 -0.8188  1.3714  0.7804
21052SOL     OW64596   7.323   3.571   5.399 -0.6946  0.2385  0.0041
21052SOL    HW164597   7.321   3.475   5.403  0.7583  0.1704 -0.3904
21052SOL    HW264598   7.243   3.594   5.353 -0.2298 -0.9118 -1.4899
21053SOL     OW64599   6.730   5.475   3.653  0.3997  0.2790  0.1387
21053SOL    HW164600   6.664   5.417   3.615  1.3418  0.3862 -1.8083
21053SOL    HW264601   6.794   5.416   3.692  0.5578  0.0511 -0.4510
21054SOL     OW64602   5.681   5.091   5.019 -0.1601  0.1311 -0.1531
21054SOL    HW164603   5.672   5.185   5.009 -0.4033  0.1230 -0.0257
21054SOL    HW264604   5.593   5.061   5.043  0.2094  0.0439  1.1603
21055SOL     OW64605   0.131   3.639   6.791  0.1234 -0.5612 -0.8594
21055SOL    HW164606   0.175   3.555   6.778 -1.1176 -1.2245 -0.9496
21055SOL    HW264607   0.123   3.646   6.886 -3.6075 -2.7268 -0.8011
21056SOL     OW64608   7.092   4.357   4.010  0.1168  0.2621 -0.8049
21056SOL    HW164609   7.045   4.285   4.052  1.9714 -0.9540 -0.6891
21056SOL    HW264610   7.039   4.434   4.029 -1.8866 -1.0319 -0.8356
21057SOL     OW64611   6.258   3.799   3.405 -0.2290 -0.4330  0.0607
21057SOL    HW164612   6.300   3.713   3.414 -0.3726 -0.5188 -0.0769
21057SOL    HW264613   6.249   3.831   3.494 -0.1244 -0.5369  0.1091
21058SOL     OW64614   5.682   4.894   3.510 -0.5383  0.1315 -0.0554
21058SOL    HW164615   5.679   4.828   3.579  1.1187 -2.3643 -2.1843
21058SOL    HW264616   5.643   4.851   3.434 -1.8701  2.6077 -0.9111
21059SOL     OW64617   7.879   6.885   5.207  0.3503  0.7396 -0.3197
21059SOL    HW164618   7.940   6.811   5.196  1.2001  1.4459 -0.4894
21059SOL    HW264619   7.842   6.898   5.120 -0.6080 -0.1533 -0.0606
21060SOL     OW64620   6.397   3.506   3.141 -0.1850  0.0441  0.2183
21060SOL    HW164621   6.424   3.469   3.225 -0.9752 -2.4864 -0.5346
21060SOL    HW264622   6.381   3.598   3.159  1.3210 -0.0617  2.4265
21061SOL     OW64623   6.760   3.436   4.522 -0.0471 -0.4858  0.0429
21061SOL    HW164624   6.685   3.416   4.578  2.0138  0.4384  3.4704
21061SOL    HW264625   6.738   3.520   4.482 -1.4293 -0.9627 -0.2385
21062SOL     OW64626   6.960   6.118   3.535  0.3289 -0.0376 -0.8536
21062SOL    HW164627   6.957   6.032   3.492  1.2397 -0.3849 -0.2552
21062SOL    HW264628   6.999   6.101   3.621 -0.8862  0.7417 -0.1201
21063SOL     OW64629   6.608   6.469   6.191  0.3581  0.4729  0.3227
21063SOL    HW164630   6.657   6.446   6.270 -0.0563 -0.6068  0.2717
21063SOL    HW264631   6.522   6.428   6.203  0.0563  0.8788 -0.3829
21064SOL     OW64632   1.098   4.432   3.682  0.3256  0.4832 -0.0103
21064SOL    HW164633   1.104   4.477   3.598 -1.7398  0.7559 -0.0586
21064SOL    HW264634   1.028   4.477   3.729  1.0087 -0.0742  1.6215
21065SOL     OW64635   6.554   4.773   6.490  0.2144  0.1652  0.6365
21065SOL    HW164636   6.553   4.761   6.395 -0.7276 -0.3389  0.6908
21065SOL    HW264637   6.486   4.713   6.522  1.0931 -0.2922  1.7043
21066SOL     OW64638   6.815   6.588   3.351  0.3134  0.1811  0.6248
21066SOL    HW164639   6.866   6.510   3.373  0.5229 -0.1800 -1.0092
21066SOL    HW264640   6.744   6.589   3.415  1.7516  0.1111  2.2975
21067SOL     OW64641   0.660   3.211   6.356 -0.4319  0.2866  0.5400
21067SOL    HW164642   0.740   3.202   6.407  0.1115  0.5355 -0.2479
21067SOL    HW264643   0.605   3.138   6.384 -0.0195  0.2412  1.2449
21068SOL     OW64644   0.322   3.284   5.604 -0.5277 -0.2074  0.1048
21068SOL    HW164645   0.241   3.282   5.654 -1.0315 -0.3963 -0.7072
21068SOL    HW264646   0.391   3.288   5.671 -1.1367 -1.3490  0.8318
21069SOL     OW64647   7.399   4.105   1.459 -0.6598  0.9432  0.1271
21069SOL    HW164648   7.494   4.106   1.470 -0.5475  0.3636 -0.7557
21069SOL    HW264649   7.369   4.184   1.505  0.2788  1.3239  0.1068
21070SOL     OW64650   6.563   3.636   5.593  0.1360 -0.0341  0.3232
21070SOL    HW164651   6.504   3.634   5.668 -0.0012 -0.0640  0.2166
21070SOL    HW264652   6.504   3.639   5.517  0.2856  1.3469  0.2457
21071SOL     OW64653   7.341   4.596   3.679 -0.4209 -0.6207 -0.4473
21071SOL    HW164654   7.361   4.564   3.591 -1.3076  1.2561 -1.3731
21071SOL    HW264655   7.332   4.691   3.669 -5.5496 -0.7323  0.6082
21072SOL     OW64656   7.808   2.768   6.202 -1.0015 -0.3547  0.1073
21072SOL    HW164657   7.756   2.848   6.197 -0.9299 -0.3271 -0.2200
21072SOL    HW264658   7.744   2.698   6.217 -1.1190 -0.3055 -0.1616
21073SOL     OW64659   5.054   5.684   3.445  0.1760  0.2111  0.2958
21073SOL    HW164660   5.135   5.672   3.395  0.3317  0.0940  0.5726
21073SOL    HW264661   4.987   5.640   3.393 -0.0190  1.7069 -0.7539
21074SOL     OW64662   6.611   2.441   5.074  0.3700 -0.1739 -0.2522
21074SOL    HW164663   6.616   2.515   5.014 -1.6668  1.3895  1.3647
21074SOL    HW264664   6.518   2.434   5.096  1.1334  0.3718  3.8973
21075SOL     OW64665   7.413   2.421   4.877  0.1651 -0.0928 -0.4689
21075SOL    HW164666   7.428   2.445   4.968 -0.0942  0.0864 -0.4701
21075SOL    HW264667   7.453   2.492   4.827 -0.5126  0.2953 -0.4748
21076SOL     OW64668   6.293   3.874   3.667  0.1921 -0.1324 -1.0557
21076SOL    HW164669   6.312   3.843   3.756 -0.1355 -0.8998 -1.2487
21076SOL    HW264670   6.213   3.926   3.676 -0.6943 -1.4225 -1.1135
21077SOL     OW64671   6.430   4.815   3.441  0.7160  0.6806 -0.1568
21077SOL    HW164672   6.447   4.802   3.348  0.9876 -1.5937  0.1519
21077SOL    HW264673   6.339   4.788   3.454  0.8887  0.3012  0.3305
21078SOL     OW64674   7.237   4.580   5.083 -0.2912  0.2013 -0.2574
21078SOL    HW164675   7.294   4.651   5.053 -1.0142  0.1348 -1.9170
21078SOL    HW264676   7.166   4.577   5.018  0.2918 -2.7683 -0.9154
21079SOL     OW64677   4.920   3.791   4.208  0.0283 -0.0086  0.4167
21079SOL    HW164678   4.862   3.793   4.284 -0.3699  0.5311  0.1072
21079SOL    HW264679   5.003   3.827   4.241  0.5885 -1.8513  1.1585
21080SOL     OW64680   6.352   5.274   3.879  0.0587 -0.1918  0.4077
21080SOL    HW164681   6.259   5.255   3.891  0.2065 -0.2050  1.7500
21080SOL    HW264682   6.391   5.190   3.855 -0.2699 -0.1798 -0.1934
21081SOL     OW64683   5.930   4.341   3.268 -0.4767  0.0912 -0.3605
21081SOL    HW164684   5.897   4.255   3.242  0.2930 -0.7202  1.1533
21081SOL    HW264685   5.952   4.330   3.361 -0.1158  1.8576 -0.2138
21082SOL     OW64686   7.235   5.670   3.971 -0.1357  0.5637  0.0721
21082SOL    HW164687   7.154   5.711   4.001 -0.9580 -1.6798  1.1862
21082SOL    HW264688   7.208   5.584   3.940  1.9311 -0.6870  1.4890
21083SOL     OW64689   6.688   3.304   2.901 -0.0959 -0.0387 -0.0253
21083SOL    HW164690   6.661   3.218   2.932 -2.8139  0.6010 -0.3108
21083SOL    HW264691   6.667   3.304   2.808  1.4556  0.3951 -0.4040
21084SOL     OW64692   7.356   3.298   5.465  0.0230 -0.2073  0.0128
21084SOL    HW164693   7.299   3.248   5.524 -2.9061  4.0658  1.3065
21084SOL    HW264694   7.445   3.283   5.498 -0.9019 -2.7897  1.5481
21085SOL     OW64695   6.805   5.033   5.104 -0.0798  0.2833 -0.0856
21085SOL    HW164696   6.785   4.944   5.077  2.2625 -0.4146  0.2670
21085SOL    HW264697   6.755   5.045   5.185 -0.1572 -0.8436  0.0539
21086SOL     OW64698   6.676   4.058   5.096  0.4393 -0.1069 -0.5184
21086SOL    HW164699   6.612   4.120   5.133  1.8331  0.3450  1.2920
21086SOL    HW264700   6.622   3.990   5.056 -1.1640  1.1090 -0.5492
21087SOL     OW64701   5.445   4.266   4.639 -0.2481  0.4419  0.5140
21087SOL    HW164702   5.491   4.294   4.560 -1.1580 -0.0127 -0.1949
21087SOL    HW264703   5.490   4.310   4.711  2.2708 -1.1105  0.0098
21088SOL     OW64704   7.460   3.772   5.539 -0.3510  0.0855  0.3298
21088SOL    HW164705   7.398   3.700   5.529 -0.1938 -0.1681  1.1025
21088SOL    HW264706   7.423   3.844   5.488  0.9207 -1.3890 -2.9893
21089SOL     OW64707   6.781   4.565   2.977 -0.0727 -0.0236  0.1444
21089SOL    HW164708   6.718   4.524   3.036  1.2538 -0.2899  1.4177
21089SOL    HW264709   6.770   4.659   2.991  0.3741 -0.0884  0.9988
21090SOL     OW64710   7.539   5.110   3.169 -0.1890 -0.2597  0.1031
21090SOL    HW164711   7.526   5.205   3.176  1.4854  0.5037 -4.0348
21090SOL    HW264712   7.460   5.078   3.127 -0.1888 -0.4444  0.2432
21091SOL     OW64713   6.046   3.891   3.253 -0.4487  0.0879  0.2016
21091SOL    HW164714   6.051   3.837   3.174 -1.4221  0.6380 -0.2530
21091SOL    HW264715   6.114   3.855   3.311  0.6998  0.0617 -1.1055
21092SOL     OW64716   6.001   4.857   4.099 -0.2755 -0.2306 -0.0097
21092SOL    HW164717   5.972   4.803   4.173  0.5379  0.2056  0.6345
21092SOL    HW264718   6.086   4.821   4.074  0.0508  0.4506  0.1121
21093SOL     OW64719   7.198   4.498   2.356 -0.3094 -0.2782  0.4055
21093SOL    HW164720   7.276   4.552   2.346 -1.4432  1.4265  0.4045
21093SOL    HW264721   7.141   4.548   2.413 -1.3019 -1.6331  0.6638
21094SOL     OW64722   6.032   5.821   3.739 -0.0295 -0.0402  0.6406
21094SOL    HW164723   6.125   5.799   3.748  0.2231  0.9469  0.5538
21094SOL    HW264724   6.010   5.863   3.821 -0.8180 -1.6361  1.2811
21095SOL     OW64725   0.647   5.752   4.764  0.5950  0.0561  0.6590
21095SOL    HW164726   0.567   5.785   4.803  0.7816  1.1359  0.1597
21095SOL    HW264727   0.634   5.657   4.757 -1.0581  0.3200 -0.3632
21096SOL     OW64728   5.174   4.224   4.050  0.0253 -0.3102 -0.8401
21096SOL    HW164729   5.227   4.200   3.974  1.2251  0.8702 -0.4050
21096SOL    HW264730   5.085   4.194   4.027  0.2487  0.4101 -2.9049
21097SOL     OW64731   6.762   0.128   4.883 -0.1296 -0.6512 -0.7198
21097SOL    HW164732   6.801   0.192   4.943 -1.3712  0.0976 -0.6952
21097SOL    HW264733   6.833   0.105   4.824  0.1388  1.3560 -1.2288
21098SOL     OW64734   6.813   5.804   6.581 -0.0898 -0.1369 -0.0504
21098SOL    HW164735   6.842   5.888   6.618 -1.6879  0.2028  0.5583
21098SOL    HW264736   6.730   5.826   6.537  0.2575 -1.1248 -1.2444
21099SOL     OW64737   0.927   5.621   4.674  0.0506 -0.5314 -0.5330
21099SOL    HW164738   0.942   5.715   4.669 -0.5872 -0.3792  0.1296
21099SOL    HW264739   0.841   5.608   4.634 -0.6454 -0.5812  0.9058
21100SOL     OW64740   7.103   3.973   4.430 -0.5523 -0.1534  0.3072
21100SOL    HW164741   7.147   3.985   4.346 -0.3100  1.5363  0.6457
21100SOL    HW264742   7.174   3.961   4.493 -0.6336  0.5469  0.5456
21101SOL     OW64743   7.978   4.597   6.029 -0.4940 -0.0365 -0.3280
21101SOL    HW164744   8.046   4.534   6.051  0.9106  0.7622 -2.1726
21101SOL    HW264745   7.924   4.603   6.109  1.0357 -1.3563  0.8655
21102SOL     OW64746   6.088   4.510   4.463  0.2241  0.0190  0.1607
21102SOL    HW164747   6.092   4.593   4.415  1.9071  0.1591  0.5004
21102SOL    HW264748   6.038   4.453   4.405 -0.8704  1.2223 -0.1313
21103SOL     OW64749   5.820   4.054   3.196  0.1144  0.3901  0.0781
21103SOL    HW164750   5.823   4.061   3.101  0.4902 -1.8508 -0.1267
21103SOL    HW264751   5.897   4.002   3.219 -0.4722  0.1009  1.5199
21104SOL     OW64752   0.213   4.242   7.356  0.4586  0.2300 -0.1288
21104SOL    HW164753   0.233   4.278   7.443 -0.7859  1.3073 -0.2518
21104SOL    HW264754   0.227   4.316   7.296 -0.2251 -0.0393 -0.6349
21105SOL     OW64755   5.390   4.669   3.071 -0.6596  0.0829  0.3952
21105SOL    HW164756   5.386   4.642   3.163  0.3262 -2.7938 -0.3144
21105SOL    HW264757   5.315   4.625   3.030 -0.2628  0.1668 -0.4323
21106SOL     OW64758   6.788   5.435   5.080 -0.4303 -0.0189 -0.2164
21106SOL    HW164759   6.828   5.522   5.075 -0.5874 -0.0049 -2.0313
21106SOL    HW264760   6.728   5.432   5.005  0.5795 -2.1584 -1.0223
21107SOL     OW64761   5.901   3.350   4.034  0.7559  0.3646  0.1051
21107SOL    HW164762   5.849   3.368   3.956  0.3087  0.3366  0.3948
21107SOL    HW264763   5.852   3.389   4.106 -0.2127 -1.8917  0.7475
21108SOL     OW64764   6.010   5.238   4.355  0.0021  0.0079  0.9332
21108SOL    HW164765   6.055   5.319   4.332 -0.7867 -0.1784 -1.6306
21108SOL    HW264766   6.080   5.180   4.384  0.9089  0.8845  0.5725
21109SOL     OW64767   7.855   6.045   5.236 -0.1664  0.2576 -0.0208
21109SOL    HW164768   7.874   5.964   5.283 -1.1413 -0.4753 -0.8504
21109SOL    HW264769   7.851   6.112   5.304  1.4622 -0.2214  0.5965
21110SOL     OW64770   6.207   4.051   4.324 -0.2620 -0.0469 -0.2295
21110SOL    HW164771   6.297   4.043   4.354  0.0102 -0.1672 -1.0576
21110SOL    HW264772   6.167   3.966   4.346  0.0964 -0.3481 -0.7326
21111SOL     OW64773   5.788   5.305   5.758 -0.1174 -0.2595  0.2016
21111SOL    HW164774   5.760   5.331   5.670  0.7237  0.6130  0.1746
21111SOL    HW264775   5.759   5.376   5.814  0.0848 -0.4204  0.5095
21112SOL     OW64776   7.087   4.604   4.528 -0.3689 -0.0378 -0.0421
21112SOL    HW164777   6.998   4.611   4.564 -1.1228  3.3545 -2.1165
21112SOL    HW264778   7.144   4.630   4.600 -1.3757  1.3316  0.2928
21113SOL     OW64779   0.653   5.213   4.358  0.1186 -0.0037 -0.0215
21113SOL    HW164780   0.618   5.125   4.369  1.1315 -0.4707 -0.3840
21113SOL    HW264781   0.694   5.234   4.442 -1.2123  0.6492  0.4927
21114SOL     OW64782   5.385   4.382   7.066  0.0674  0.1283 -0.4645
21114SOL    HW164783   5.403   4.378   6.972  0.8508 -1.3317 -0.2944
21114SOL    HW264784   5.450   4.323   7.105  0.8229  1.9119  1.1685
21115SOL     OW64785   6.154   3.672   4.049 -0.6439  0.0134  0.2675
21115SOL    HW164786   6.172   3.668   4.143 -0.2732 -0.2789  0.1879
21115SOL    HW264787   6.106   3.754   4.037  1.0097  1.0399  0.4245
21116SOL     OW64788   4.325   4.961   4.752  0.2604 -0.1584  0.1673
21116SOL    HW164789   4.272   4.971   4.831 -0.1034  2.4906 -0.3375
21116SOL    HW264790   4.281   4.892   4.702 -2.3483  1.4309  0.1042
21117SOL     OW64791   7.257   4.665   5.458 -0.2164 -0.3756 -0.8813
21117SOL    HW164792   7.280   4.704   5.373  3.3013 -0.7541 -0.2751
21117SOL    HW264793   7.284   4.731   5.522  0.0248 -1.2918 -0.0195
21118SOL     OW64794   7.049   4.762   3.893 -0.4558  0.2430 -0.2427
21118SOL    HW164795   7.124   4.747   3.951  0.7994 -0.8012 -2.0414
21118SOL    HW264796   6.983   4.698   3.921  0.4432 -0.7991 -0.4750
21119SOL     OW64797   5.747   4.004   4.596 -0.6366 -0.4032  0.0865
21119SOL    HW164798   5.670   4.053   4.567 -0.7335  0.2992  1.4637
21119SOL    HW264799   5.735   3.916   4.560 -2.2206 -0.3822  0.5067
21120SOL     OW64800   5.116   3.910   4.347  0.1685  0.2714  0.1701
21120SOL    HW164801   5.183   3.950   4.292  1.9091 -2.5914  0.0159
21120SOL    HW264802   5.147   3.924   4.437  0.3444  0.0352  0.1488
21121SOL     OW64803   7.767   5.338   2.884  0.3236  0.2235 -0.2168
21121SOL    HW164804   7.680   5.375   2.869  0.2959  0.8578  1.4029
21121SOL    HW264805   7.817   5.364   2.806 -0.7342  0.4274 -0.8498
21122SOL     OW64806   7.229   4.442   6.376  0.2181 -0.0184 -0.0489
21122SOL    HW164807   7.186   4.481   6.451 -3.8340 -0.9628 -1.6238
21122SOL    HW264808   7.235   4.349   6.397  1.3592  0.0476  0.0128
21123SOL     OW64809   6.679   4.380   4.784  0.3155 -0.1289  0.3301
21123SOL    HW164810   6.687   4.288   4.756  0.6799  0.0264 -0.0886
21123SOL    HW264811   6.767   4.416   4.772 -0.2780  0.8456 -1.5825
21124SOL     OW64812   7.470   4.473   4.918 -0.4777 -0.0330 -0.5546
21124SOL    HW164813   7.398   4.511   4.867 -0.5240  2.0485  0.9456
21124SOL    HW264814   7.429   4.440   4.998  0.0309 -0.2387 -0.3694
21125SOL     OW64815   6.957   4.724   5.795  0.2053  0.0740 -0.3284
21125SOL    HW164816   6.988   4.673   5.720  1.6304  2.3415 -1.3777
21125SOL    HW264817   7.032   4.726   5.856 -0.1801  0.0932  0.1553
21126SOL     OW64818   7.731   3.032   5.780  0.0970  0.5113 -0.1461
21126SOL    HW164819   7.713   2.945   5.745  0.2896  1.0886 -1.7747
21126SOL    HW264820   7.753   3.017   5.872 -1.2947 -0.9919 -0.0157
21127SOL     OW64821   0.543   5.450   5.947 -0.7157  0.2914 -0.2040
21127SOL    HW164822   0.529   5.424   5.856  0.9534  0.9113 -0.6695
21127SOL    HW264823   0.524   5.544   5.948  1.4690  0.7837 -0.4706
21128SOL     OW64824   7.034   3.857   4.827 -0.3327 -0.1747 -0.2835
21128SOL    HW164825   7.086   3.777   4.820 -0.9448 -0.5790 -0.3755
21128SOL    HW264826   7.076   3.908   4.896 -0.1508 -0.7510  0.0383
21129SOL     OW64827   7.965   5.525   3.391 -0.2922  0.1173  0.2298
21129SOL    HW164828   7.890   5.536   3.450 -0.0764 -0.3545  0.6004
21129SOL    HW264829   7.928   5.485   3.312 -0.5190  0.3959  0.1930
21130SOL     OW64830   6.308   4.452   3.988 -0.1467  0.4315  0.0852
21130SOL    HW164831   6.364   4.401   4.047 -0.3557 -1.1314 -1.0010
21130SOL    HW264832   6.346   4.439   3.901 -0.0026  2.4848 -0.2061
21131SOL     OW64833   6.113   6.166   4.178  0.5342  0.0807  0.5128
21131SOL    HW164834   6.160   6.154   4.096 -0.6941  0.8990 -0.3574
21131SOL    HW264835   6.060   6.087   4.187  1.0297 -0.2253  0.7785
21132SOL     OW64836   7.141   3.850   3.661  0.3476 -0.1091  0.3760
21132SOL    HW164837   7.062   3.833   3.713  1.1699 -1.1522  1.3242
21132SOL    HW264838   7.190   3.914   3.713  0.1899  0.4637 -0.1653
21133SOL     OW64839   5.299   3.284   5.919  0.0846 -0.2253 -0.0907
21133SOL    HW164840   5.334   3.264   5.832  0.8651 -0.8035  0.3439
21133SOL    HW264841   5.370   3.262   5.979 -0.6593 -0.4114  0.7413
21134SOL     OW64842   0.315   1.890   6.543  0.5486 -0.5532 -0.0657
21134SOL    HW164843   0.308   1.976   6.501  3.2853 -0.2946 -0.1484
21134SOL    HW264844   0.283   1.829   6.477 -0.9671  0.3252 -0.1920
21135SOL     OW64845   6.271   3.503   6.116 -0.0971  0.5253 -0.3614
21135SOL    HW164846   6.181   3.478   6.139 -0.5135  1.0003 -1.4027
21135SOL    HW264847   6.313   3.520   6.200 -0.7658 -0.4108  0.1844
21136SOL     OW64848   6.137   5.310   3.057 -0.5841 -0.0427  0.2203
21136SOL    HW164849   6.132   5.405   3.051  0.3232  0.0347  0.4204
21136SOL    HW264850   6.061   5.278   3.008 -1.4831  0.7937  1.0355
21137SOL     OW64851   7.238   6.388   3.028  0.2076 -0.5295 -0.0660
21137SOL    HW164852   7.150   6.355   3.048 -0.0625  0.1321 -0.1494
21137SOL    HW264853   7.261   6.346   2.945  0.0388 -0.8310  0.0378
21138SOL     OW64854   6.292   5.896   4.720  0.2491 -0.0610  0.1590
21138SOL    HW164855   6.380   5.929   4.741 -0.2795  1.9080 -0.5809
21138SOL    HW264856   6.271   5.838   4.794  2.1756 -0.6318  0.3242
21139SOL     OW64857   5.507   4.877   4.869 -0.0286 -0.0530  0.5231
21139SOL    HW164858   5.471   4.790   4.885 -0.4361 -0.0761 -0.4153
21139SOL    HW264859   5.455   4.935   4.924 -1.1668 -0.1625 -0.3907
21140SOL     OW64860   6.082   5.299   3.710 -0.1332  0.2451  0.3995
21140SOL    HW164861   6.019   5.235   3.743 -2.7697  2.2942 -0.3082
21140SOL    HW264862   6.060   5.380   3.757  0.9426  1.4101 -1.0393
21141SOL     OW64863   4.761   4.651   5.419  0.1766  0.4350  0.1906
21141SOL    HW164864   4.695   4.708   5.458  0.9954  1.5450  0.0157
21141SOL    HW264865   4.720   4.615   5.341 -0.7620 -0.1739  0.9343
21142SOL     OW64866   7.654   6.035   5.047 -0.4044  0.2094 -0.2389
21142SOL    HW164867   7.743   6.049   5.080 -0.3559  3.5674 -1.4219
21142SOL    HW264868   7.664   5.971   4.977  0.7845 -0.6849  0.6986
21143SOL     OW64869   0.609   3.119   4.101  0.0353 -0.3189 -0.1672
21143SOL    HW164870   0.690   3.169   4.092  0.1523 -0.3966  0.3758
21143SOL    HW264871   0.573   3.147   4.186  0.1764 -1.2598  0.2104
21144SOL     OW64872   6.639   5.956   3.685  0.2335 -0.0747  0.4715
21144SOL    HW164873   6.615   5.941   3.777  2.0614 -0.2482  0.9526
21144SOL    HW264874   6.614   5.874   3.641 -0.6886  0.0235  0.7805
21145SOL     OW64875   5.232   4.175   5.643 -0.1596 -0.1145  0.1279
21145SOL    HW164876   5.220   4.143   5.732 -1.1888 -1.9816 -0.6297
21145SOL    HW264877   5.190   4.262   5.643 -0.9113 -0.4530  1.2413
21146SOL     OW64878   4.705   4.660   4.442  0.0095  0.3742  0.6390
21146SOL    HW164879   4.640   4.707   4.493  1.2102  1.1317  1.5459
21146SOL    HW264880   4.773   4.637   4.505 -0.6203 -2.9171  0.3375
21147SOL     OW64881   6.187   6.342   3.582 -0.9137 -0.2584  0.0306
21147SOL    HW164882   6.273   6.360   3.618  0.0721  0.8324 -2.5751
21147SOL    HW264883   6.198   6.262   3.531 -1.5296 -0.3238 -0.0082
21148SOL     OW64884   7.493   5.387   4.008 -0.3846  0.4381 -0.2479
21148SOL    HW164885   7.428   5.396   4.078 -0.6938  1.7274 -0.6743
21148SOL    HW264886   7.445   5.411   3.929  0.3366  0.3584 -0.7150
21149SOL     OW64887   5.601   5.519   3.935 -0.6938  0.0727 -0.0889
21149SOL    HW164888   5.613   5.603   3.891 -1.1749  0.5846  0.7342
21149SOL    HW264889   5.506   5.512   3.950 -0.5979 -0.3405  0.3770
21150SOL     OW64890   7.046   4.472   4.304  0.0947  0.2406 -0.1095
21150SOL    HW164891   7.086   4.523   4.375 -0.1144  1.7817 -1.0575
21150SOL    HW264892   7.120   4.447   4.249  0.5467 -2.7052  1.6043
21151SOL     OW64893   7.670   6.717   2.923 -0.0133 -0.2941  0.6066
21151SOL    HW164894   7.604   6.649   2.933  0.3333 -1.0861 -1.7909
21151SOL    HW264895   7.736   6.697   2.989 -0.5221 -1.5763  0.7465
21152SOL     OW64896   1.079   4.751   5.828 -0.2776 -0.1168  0.1272
21152SOL    HW164897   1.138   4.816   5.867  1.6281 -2.1032  0.7927
21152SOL    HW264898   1.094   4.671   5.879 -2.0866 -1.2481 -1.0008
21153SOL     OW64899   5.109   5.299   4.008  0.4368  0.2224  0.4664
21153SOL    HW164900   5.138   5.334   4.093 -2.0810  3.5951  0.1447
21153SOL    HW264901   5.016   5.278   4.022  0.7315 -2.1631 -0.7087
21154SOL     OW64902   6.750   6.574   5.081  0.4095 -0.3972  0.4443
21154SOL    HW164903   6.751   6.501   5.018 -0.8890 -0.5485  0.5811
21154SOL    HW264904   6.691   6.638   5.042 -0.3163 -0.4378  1.4347
21155SOL     OW64905   5.967   3.262   4.889  0.3771  0.3297 -0.0407
21155SOL    HW164906   5.932   3.318   4.959 -0.0605 -0.2257  0.1954
21155SOL    HW264907   5.894   3.253   4.828  0.9724  1.3629 -0.9138
21156SOL     OW64908   4.853   2.883   3.305 -0.0862  0.1151  0.4113
21156SOL    HW164909   4.785   2.819   3.322  0.5698 -0.3820  1.2833
21156SOL    HW264910   4.935   2.835   3.318  0.4540  0.5629 -1.0994
21157SOL     OW64911   7.048   6.155   6.897 -0.0723  0.3054  0.4768
21157SOL    HW164912   7.047   6.213   6.974  0.1784 -0.1645  0.8396
21157SOL    HW264913   7.026   6.069   6.932 -0.0277  0.1009  0.0071
21158SOL     OW64914   4.913   4.761   4.664 -0.8111  0.4277  0.2067
21158SOL    HW164915   4.943   4.848   4.639 -1.6444  0.5234 -0.5021
21158SOL    HW264916   4.825   4.775   4.699 -0.4327  0.0347  1.3770
21159SOL     OW64917   7.778   3.517   5.047  0.0901  0.4309  0.5680
21159SOL    HW164918   7.866   3.506   5.085  0.0899  0.4117  0.5625
21159SOL    HW264919   7.719   3.514   5.123  0.0167 -0.4638  0.4845
21160SOL     OW64920   7.073   6.295   4.187 -0.7909 -0.1438  0.2676
21160SOL    HW164921   7.064   6.298   4.092 -2.7157  1.8316  0.4408
21160SOL    HW264922   7.156   6.250   4.202  0.7528  1.5792 -2.3997
21161SOL     OW64923   5.957   6.694   3.806  0.8341 -0.4489  0.5406
21161SOL    HW164924   5.921   6.607   3.789  1.2839 -0.4329 -0.5696
21161SOL    HW264925   5.936   6.745   3.728  1.7431  0.0493  0.6071
21162SOL     OW64926   7.941   6.305   6.752 -0.3693  0.0681  0.8851
21162SOL    HW164927   7.861   6.257   6.731 -0.0274  0.8702 -2.7988
21162SOL    HW264928   7.910   6.388   6.787 -1.2845  0.8230 -1.5254
21163SOL     OW64929   7.789   5.565   6.134  0.0877  0.0613  0.3623
21163SOL    HW164930   7.723   5.517   6.083 -1.4465  1.6746  0.7355
21163SOL    HW264931   7.813   5.505   6.204 -0.0299 -1.0275 -0.5010
21164SOL     OW64932   4.991   3.465   5.176  0.0397 -0.2709  0.1983
21164SOL    HW164933   4.924   3.531   5.195  0.7724  0.2264  1.1719
21164SOL    HW264934   4.960   3.422   5.096  0.4043  2.4718 -1.5879
21165SOL     OW64935   5.628   3.969   3.979  0.3626 -0.1638  0.0881
21165SOL    HW164936   5.618   3.905   4.049 -2.4073  0.2252  0.1804
21165SOL    HW264937   5.578   3.932   3.906 -0.7663  1.5393 -0.0589
21166SOL     OW64938   7.299   5.600   8.502 -0.0949  0.1034 -0.1605
21166SOL    HW164939   7.218   5.550   8.495 -2.0138  2.5862  2.0588
21166SOL    HW264940   7.301   5.654   8.423 -0.7651  0.1970 -0.1199
21167SOL     OW64941   5.672   5.746   2.345 -0.5822 -0.0550  0.8544
21167SOL    HW164942   5.758   5.749   2.387  0.0193  1.4164 -0.3880
21167SOL    HW264943   5.621   5.813   2.391 -0.5973  0.0985  0.6116
21168SOL     OW64944   7.962   5.787   3.865 -0.0153 -0.4805 -0.1448
21168SOL    HW164945   8.058   5.785   3.855  0.1550  0.1253  1.1047
21168SOL    HW264946   7.948   5.843   3.941 -1.3003 -1.8853  0.6898
21169SOL     OW64947   7.265   4.664   6.228  0.1883  0.0533 -0.3777
21169SOL    HW164948   7.273   4.579   6.270 -0.0470 -0.1076 -0.6521
21169SOL    HW264949   7.171   4.682   6.227  0.2489  0.3974 -0.1616
21170SOL     OW64950   7.818   5.167   5.995  0.0080 -0.5039  0.2710
21170SOL    HW164951   7.739   5.203   6.036  0.6264  1.9265 -0.4695
21170SOL    HW264952   7.852   5.104   6.059 -2.2888 -1.3208  0.7721
21171SOL     OW64953   0.861   3.792   4.724 -0.3673 -0.0570 -0.3056
21171SOL    HW164954   0.779   3.742   4.720 -0.1682 -0.3173 -1.3343
21171SOL    HW264955   0.834   3.881   4.747 -0.6092 -0.8874  3.3004
21172SOL     OW64956   6.503   2.639   5.520  0.4263 -0.4891 -0.3247
21172SOL    HW164957   6.481   2.575   5.587  0.7938 -0.7052 -0.4070
21172SOL    HW264958   6.465   2.603   5.439 -2.0658  0.8995  0.1406
21173SOL     OW64959   6.648   5.386   2.596 -0.2461 -0.1423  0.4481
21173SOL    HW164960   6.675   5.329   2.668  0.7052 -1.1484 -0.6526
21173SOL    HW264961   6.557   5.408   2.615  0.0443 -0.2144  2.0469
21174SOL     OW64962   6.158   3.787   4.400  0.6609 -0.3442 -0.5118
21174SOL    HW164963   6.147   3.801   4.494  0.0676  0.9921 -0.7598
21174SOL    HW264964   6.124   3.699   4.385 -0.8943  0.0997  0.2585
21175SOL     OW64965   5.316   4.325   5.054 -0.2592 -0.2456  0.1148
21175SOL    HW164966   5.325   4.378   5.133  1.2324 -0.1664 -0.0801
21175SOL    HW264967   5.221   4.319   5.039 -0.5250  3.1401 -0.3715
21176SOL     OW64968   6.135   4.962   3.033  0.2454 -0.1169 -0.2524
21176SOL    HW164969   6.151   5.032   2.969  0.4988  0.3644  0.3285
21176SOL    HW264970   6.073   5.001   3.095  0.1905 -0.4985 -0.0682
21177SOL     OW64971   7.783   5.641   5.710  0.2666  0.2306  0.3259
21177SOL    HW164972   7.704   5.692   5.728 -0.8200 -0.4502 -2.0930
21177SOL    HW264973   7.851   5.706   5.692  0.1558  0.8198  1.8876
21178SOL     OW64974   4.710   5.772   3.131 -0.0400  0.3924  0.1151
21178SOL    HW164975   4.681   5.858   3.161 -1.8634 -0.2729  0.3758
21178SOL    HW264976   4.801   5.785   3.105  0.0721  2.1305  1.2264
21179SOL     OW64977   5.417   3.968   4.717  0.1205 -0.5567 -0.4209
21179SOL    HW164978   5.420   4.063   4.700 -0.8229 -0.7441 -1.7924
21179SOL    HW264979   5.409   3.962   4.812 -2.6223  0.8769 -0.4444
21180SOL     OW64980   5.715   4.292   3.732 -0.3259  0.1518 -0.2313
21180SOL    HW164981   5.744   4.373   3.774 -0.0461 -1.3199  2.6470
21180SOL    HW264982   5.621   4.302   3.722 -0.1726  1.1882 -0.8757
21181SOL     OW64983   7.759   2.794   6.842 -0.0826  0.5884 -0.3343
21181SOL    HW164984   7.827   2.815   6.906 -0.2022  0.2803 -0.1041
21181SOL    HW264985   7.787   2.837   6.761 -0.1902  1.4117  0.0596
21182SOL     OW64986   0.352   5.442   6.146  0.1477 -0.1148 -0.0399
21182SOL    HW164987   0.422   5.427   6.082  1.0096  0.9728  0.6166
21182SOL    HW264988   0.294   5.505   6.104 -0.8097 -1.4440 -0.8206
21183SOL     OW64989   6.482   3.433   5.375  0.6226  0.2190  0.2651
21183SOL    HW164990   6.407   3.374   5.367 -0.6446  1.8953 -0.9982
21183SOL    HW264991   6.528   3.425   5.292 -0.2044  1.7718 -0.3844
21184SOL     OW64992   7.909   6.738   5.757 -0.1764 -0.3279 -0.4621
21184SOL    HW164993   7.823   6.778   5.774 -0.3056 -0.8604  0.1963
21184SOL    HW264994   7.948   6.793   5.690  0.0894  1.5361  1.1292
21185SOL     OW64995   5.127   4.396   5.816 -0.3614  0.2285 -0.2131
21185SOL    HW164996   5.069   4.320   5.820 -0.1913  0.1524  2.3465
21185SOL    HW264997   5.067   4.471   5.811 -0.5320  0.0309 -2.2655
21186SOL     OW64998   6.723   6.410   6.439  0.5385 -0.0785  0.1809
21186SOL    HW164999   6.664   6.452   6.502 -1.4869  0.3160 -1.8632
21186SOL    HW265000   6.810   6.419   6.479 -0.5104  1.0463  2.4119
21187SOL     OW65001   7.767   3.778   2.749  0.0852 -0.0270 -1.1505
21187SOL    HW165002   7.686   3.732   2.726 -0.1318  0.0635 -0.5801
21187SOL    HW265003   7.754   3.867   2.713 -0.8721  0.5553  0.5394
21188SOL     OW65004   6.546   4.958   2.980 -0.4933 -0.2031  0.1467
21188SOL    HW165005   6.482   5.024   2.953 -1.1720 -1.3644 -1.1884
21188SOL    HW265006   6.548   4.964   3.076 -2.5600 -0.0644  0.2197
21189SOL     OW65007   0.046   1.692   6.624 -0.1151  0.8105 -0.1464
21189SOL    HW165008   0.106   1.684   6.550 -1.3487 -0.0610 -1.0836
21189SOL    HW265009   0.083   1.634   6.691  0.5402  0.9377 -0.3866
21190SOL     OW65010   7.016   5.737   4.139  0.6646  0.2402 -0.1429
21190SOL    HW165011   6.943   5.675   4.140  1.2639 -0.4818  1.3752
21190SOL    HW265012   6.975   5.821   4.162  0.3759 -0.2820  1.3754
21191SOL     OW65013   6.027   5.866   4.937  0.1283 -0.2255  0.2949
21191SOL    HW165014   6.109   5.817   4.939  0.3660 -0.0288 -2.1599
21191SOL    HW265015   6.043   5.940   4.996  2.0460  0.2560 -0.7351
21192SOL     OW65016   6.473   4.354   4.179 -0.0961 -0.4831  0.1876
21192SOL    HW165017   6.567   4.336   4.179 -0.2000 -1.1351  1.6319
21192SOL    HW265018   6.448   4.353   4.271 -1.2761  1.1049 -0.0792
21193SOL     OW65019   7.237   4.699   5.904  0.0314 -0.3014 -0.5361
21193SOL    HW165020   7.260   4.657   5.987 -0.5850 -1.9727 -1.1691
21193SOL    HW265021   7.321   4.730   5.870  0.1914  1.2457  1.0978
21194SOL     OW65022   7.270   4.373   2.850 -0.4172 -0.1014 -0.6668
21194SOL    HW165023   7.356   4.408   2.874  0.3069 -1.5052 -1.0659
21194SOL    HW265024   7.228   4.352   2.934 -0.8387  1.5861 -0.4288
21195SOL     OW65025   6.916   5.707   5.467 -0.0197 -0.5172 -0.2219
21195SOL    HW165026   7.012   5.715   5.462 -0.0126 -0.5762 -0.1870
21195SOL    HW265027   6.893   5.747   5.551 -0.2265  1.2459 -1.0788
21196SOL     OW65028   6.743   4.810   4.079 -0.8858  0.1483 -0.2613
21196SOL    HW165029   6.806   4.751   4.119  1.1223  0.3725 -2.8157
21196SOL    HW265030   6.674   4.753   4.046 -0.9472 -0.3420  0.6877
21197SOL     OW65031   7.165   5.990   6.305 -0.7518 -0.3754 -0.3331
21197SOL    HW165032   7.103   5.937   6.355 -0.7982 -0.3181 -0.3301
21197SOL    HW265033   7.227   6.022   6.369  0.6787 -2.3391 -0.6265
21198SOL     OW65034   0.200   4.101   6.038  0.3426  0.2625  0.0788
21198SOL    HW165035   0.248   4.091   5.957 -1.9336  1.2253 -1.5097
21198SOL    HW265036   0.154   4.017   6.050  1.7251 -0.3810  1.1804
21199SOL     OW65037   7.620   2.826   4.957  0.3138 -0.0926  0.0725
21199SOL    HW165038   7.602   2.832   5.051  1.1665  0.2829  0.2228
21199SOL    HW265039   7.571   2.899   4.919 -0.0268 -0.2415  0.2247
21200SOL     OW65040   6.856   4.039   5.594  0.4084 -0.0590 -0.3695
21200SOL    HW165041   6.781   3.981   5.608 -0.0892  1.0175  1.9975
21200SOL    HW265042   6.930   3.979   5.582 -0.7180 -1.1337 -2.4413
21201SOL     OW65043   0.198   5.261   5.509  0.0221 -0.1443  0.2461
21201SOL    HW165044   0.106   5.247   5.487 -1.2105  2.6260  2.7818
21201SOL    HW265045   0.209   5.221   5.595  0.5094  1.3442  0.9244
21202SOL     OW65046   4.981   2.978   4.525  0.1853  0.2825  0.0234
21202SOL    HW165047   4.966   2.992   4.618  0.4531 -0.0638  0.1176
21202SOL    HW265048   4.929   3.047   4.482  0.5809  0.8543  0.4429
21203SOL     OW65049   0.515   7.150   4.881  0.1086 -0.0997  0.0109
21203SOL    HW165050   0.560   7.167   4.799 -0.3176 -0.7332 -0.3707
21203SOL    HW265051   0.423   7.139   4.856 -0.3106  1.3625  0.7916
21204SOL     OW65052   7.440   3.578   6.517 -0.1979 -0.0560 -0.1386
21204SOL    HW165053   7.404   3.545   6.599 -0.9877 -0.6518 -0.7178
21204SOL    HW265054   7.412   3.515   6.451  1.7747 -0.4881 -0.6512
21205SOL     OW65055   7.119   2.779   3.294  0.5984 -0.0700  0.1739
21205SOL    HW165056   7.190   2.792   3.231 -2.6069  0.9948 -3.6104
21205SOL    HW265057   7.068   2.706   3.259 -2.1442  1.4838  0.6293
21206SOL     OW65058   6.679   4.441   2.119 -0.1236  0.9049 -0.2442
21206SOL    HW165059   6.641   4.413   2.201  1.9750  1.5669  1.0402
21206SOL    HW265060   6.626   4.516   2.092 -1.3575  0.1488  0.0334
21207SOL     OW65061   5.520   5.131   4.525  0.1838 -0.1334 -0.5132
21207SOL    HW165062   5.561   5.055   4.567  0.0942  0.0418 -0.1036
21207SOL    HW265063   5.582   5.203   4.541  1.3416 -0.5474 -2.7548
21208SOL     OW65064   6.448   5.704   2.359 -0.9258 -0.0647 -0.3775
21208SOL    HW165065   6.408   5.791   2.358 -0.2991  0.2325 -0.6553
21208SOL    HW265066   6.391   5.651   2.414  0.0019  1.1821  1.9454
21209SOL     OW65067   0.383   5.572   3.868  0.3114  0.1330 -0.0314
21209SOL    HW165068   0.467   5.569   3.823  1.1015  0.3063  1.3674
21209SOL    HW265069   0.402   5.614   3.952 -0.9798 -0.6680  0.7010
21210SOL     OW65070   7.666   5.897   5.508  0.4911  0.2818  0.1893
21210SOL    HW165071   7.703   5.983   5.491  0.4291  0.0350 -1.3191
21210SOL    HW265072   7.736   5.849   5.553  0.1828  1.3922  1.9496
21211SOL     OW65073   5.516   3.183   4.118 -0.3733 -0.5090  0.1168
21211SOL    HW165074   5.484   3.269   4.145  1.4699  0.3480 -0.2622
21211SOL    HW265075   5.571   3.201   4.041  0.9380 -1.8659  0.6788
21212SOL     OW65076   6.293   7.272   4.270 -0.0037 -0.5267 -0.6103
21212SOL    HW165077   6.355   7.328   4.224  0.3305 -1.1403 -0.9072
21212SOL    HW265078   6.207   7.309   4.248  0.2809  1.5346  1.3531
21213SOL     OW65079   5.789   5.347   6.106  0.4340 -0.1430  0.3700
21213SOL    HW165080   5.867   5.294   6.121 -0.4097 -1.7930 -0.7065
21213SOL    HW265081   5.818   5.419   6.051  1.4234 -0.0284  1.0181
21214SOL     OW65082   6.124   5.043   5.305 -0.1380 -0.0566  0.7220
21214SOL    HW165083   6.149   4.964   5.258  0.6419  0.4440  0.2829
21214SOL    HW265084   6.050   5.016   5.360 -0.0244 -1.0278  0.4075
21215SOL     OW65085   6.628   4.657   8.069  0.1203 -0.4138  0.5847
21215SOL    HW165086   6.707   4.602   8.076  0.0197 -0.5922  0.3320
21215SOL    HW265087   6.623   4.702   8.154  2.2884  2.0578 -0.4471
21216SOL     OW65088   7.820   5.319   7.345  0.4687  0.2667  0.0410
21216SOL    HW165089   7.914   5.328   7.363  0.2392  1.4899  0.7014
21216SOL    HW265090   7.778   5.331   7.430 -0.3480  0.7420 -0.4213
21217SOL     OW65091   5.725   4.504   6.258 -0.5695 -0.0497 -0.4188
21217SOL    HW165092   5.764   4.509   6.171  1.1932  0.0495  0.3434
21217SOL    HW265093   5.643   4.456   6.245 -0.2535 -0.1881 -2.0913
21218SOL     OW65094   0.815   5.240   5.617 -0.3202 -0.3739  0.2343
21218SOL    HW165095   0.849   5.177   5.681 -2.2718 -1.3729  0.3460
21218SOL    HW265096   0.807   5.191   5.536  2.2721  0.9211 -0.9490
21219SOL     OW65097   6.404   4.189   4.888 -0.8775 -0.8895 -0.3759
21219SOL    HW165098   6.457   4.253   4.841 -1.8637 -0.3502 -0.7751
21219SOL    HW265099   6.418   4.210   4.981  1.8574 -2.5782 -0.2801
21220SOL     OW65100   0.332   4.804   7.366  0.0643 -0.3158 -0.2593
21220SOL    HW165101   0.298   4.889   7.395  2.4105  1.2939 -1.8178
21220SOL    HW265102   0.360   4.761   7.446 -0.5427  0.6705  0.5195
21221SOL     OW65103   6.586   3.323   6.341 -0.1788 -0.3117 -0.0969
21221SOL    HW165104   6.523   3.336   6.411  1.1426  0.1508  1.0589
21221SOL    HW265105   6.628   3.239   6.361 -0.2175 -0.4852 -0.6966
21222SOL     OW65106   5.454   6.170   6.322  0.1747  0.0893  0.5617
21222SOL    HW165107   5.519   6.101   6.311 -1.0927 -1.1973  0.7166
21222SOL    HW265108   5.423   6.189   6.234 -1.4077 -1.5648  0.6881
21223SOL     OW65109   7.500   5.074   6.748 -0.7765 -0.0254 -0.3572
21223SOL    HW165110   7.468   5.063   6.838 -1.6284  0.0965 -0.6337
21223SOL    HW265111   7.459   5.003   6.699 -1.9353  1.0796 -1.0402
21224SOL     OW65112   7.066   3.678   7.199 -0.2488  0.6663 -0.4809
21224SOL    HW165113   7.027   3.646   7.280 -0.0192  1.1707 -0.1675
21224SOL    HW265114   7.135   3.737   7.227  0.0362  0.6075 -1.0445
21225SOL     OW65115   7.727   3.012   6.087 -0.5516 -0.3036  0.2539
21225SOL    HW165116   7.638   3.042   6.072 -0.0619  2.0623  1.6465
21225SOL    HW265117   7.778   3.091   6.103  1.6720 -1.6276  0.2440
21226SOL     OW65118   6.276   3.526   5.822  0.2345 -0.6840 -0.2732
21226SOL    HW165119   6.270   3.494   5.912  1.4339 -0.4345 -0.0830
21226SOL    HW265120   6.335   3.464   5.778  2.5074  1.0651  0.0758
21227SOL     OW65121   6.643   3.496   7.149 -1.1341 -0.3086 -0.1572
21227SOL    HW165122   6.673   3.444   7.224  0.7863  0.6695 -0.1933
21227SOL    HW265123   6.549   3.479   7.145 -1.3098 -0.4019  2.4804
21228SOL     OW65124   5.453   5.147   5.771 -0.4184  0.5429 -0.4884
21228SOL    HW165125   5.456   5.058   5.736 -1.3774  1.2760 -2.7077
21228SOL    HW265126   5.361   5.160   5.794 -0.1343  0.7039  0.5656
21229SOL     OW65127   6.312   6.368   6.228  0.1597  0.1088 -0.4253
21229SOL    HW165128   6.307   6.367   6.324  1.2811 -0.1769 -0.3479
21229SOL    HW265129   6.223   6.385   6.199 -0.7725 -2.4748  0.6255
21230SOL     OW65130   5.654   5.929   6.787 -0.7112 -0.0206  0.3291
21230SOL    HW165131   5.595   6.003   6.800  0.6790  1.0656  0.6161
21230SOL    HW265132   5.665   5.892   6.875  0.4070  0.8836  0.5985
21231SOL     OW65133   7.160   3.584   5.995 -0.4408  0.2123 -0.7009
21231SOL    HW165134   7.207   3.584   6.078 -0.8643  0.7849 -0.4549
21231SOL    HW265135   7.099   3.511   6.001 -1.2416  0.9183 -0.0563
21232SOL     OW65136   7.840   3.137   7.627  0.1630 -0.0461  0.4555
21232SOL    HW165137   7.785   3.060   7.615  2.2877 -1.7246  0.9711
21232SOL    HW265138   7.911   3.126   7.563  0.2233  1.7961  0.1416
21233SOL     OW65139   6.954   4.001   6.002 -0.0984 -0.2773 -0.1939
21233SOL    HW165140   6.915   4.041   5.925 -1.7167  0.1679  0.7931
21233SOL    HW265141   7.047   4.019   5.995 -0.0683 -1.1246 -2.5239
21234SOL     OW65142   7.244   6.071   5.038 -0.4072 -0.1004 -0.0682
21234SOL    HW165143   7.254   6.040   4.949 -1.8996  0.6538 -0.5462
21234SOL    HW265144   7.297   6.151   5.042  0.7878 -0.8812  0.1732
21235SOL     OW65145   6.298   3.994   5.176  0.0566  0.0537 -0.0157
21235SOL    HW165146   6.321   4.085   5.195 -0.1038  0.0360  0.2618
21235SOL    HW265147   6.203   3.996   5.162  0.0566 -0.0670 -0.0344
21236SOL     OW65148   6.943   4.515   7.640 -0.8180 -0.0655 -0.4333
21236SOL    HW165149   6.914   4.587   7.583 -0.2314 -0.0723 -0.7471
21236SOL    HW265150   6.913   4.540   7.727 -0.8223  0.4508 -0.5803
21237SOL     OW65151   7.875   4.940   6.152 -0.0951 -0.2422  1.0606
21237SOL    HW165152   7.850   4.992   6.228 -3.9532 -1.9960  1.2313
21237SOL    HW265153   7.925   4.867   6.188  1.7399  1.0591  1.2962
21238SOL     OW65154   5.935   3.147   5.743  0.4322 -0.1587  0.2759
21238SOL    HW165155   5.988   3.167   5.821 -0.5054  0.0023  0.8865
21238SOL    HW265156   5.903   3.058   5.759 -2.6433  1.0958  1.7992
21239SOL     OW65157   7.558   4.199   7.381  0.1632  0.1077  0.2599
21239SOL    HW165158   7.601   4.261   7.440  1.1959 -0.7928  0.4765
21239SOL    HW265159   7.542   4.249   7.301 -0.0593  0.9682  0.8304
21240SOL     OW65160   0.394   3.681   7.890 -0.0443 -0.5532  0.3286
21240SOL    HW165161   0.322   3.739   7.864 -0.5157  0.1311  2.9549
21240SOL    HW265162   0.458   3.691   7.819 -1.0794  1.4162 -0.4216
21241SOL     OW65163   5.854   3.667   6.452  0.3879 -0.0049  0.2799
21241SOL    HW165164   5.776   3.668   6.508 -1.0871 -0.6323 -1.6479
21241SOL    HW265165   5.882   3.758   6.447  0.5404  0.0693  1.9652
21242SOL     OW65166   5.404   4.351   6.795 -0.3882  0.1388  0.1993
21242SOL    HW165167   5.361   4.417   6.740  0.7897 -0.0266 -0.9799
21242SOL    HW265168   5.344   4.277   6.795  0.0697 -0.3021 -1.8895
21243SOL     OW65169   7.374   4.031   6.221  0.1702  0.1095 -0.2939
21243SOL    HW165170   7.356   3.956   6.277 -0.1016  0.5749  0.2550
21243SOL    HW265171   7.371   4.107   6.280  0.7362  0.5238 -0.7814
21244SOL     OW65172   6.813   4.882   6.059  0.3413 -0.2583  1.1139
21244SOL    HW165173   6.786   4.805   6.008 -0.3763  1.3630 -1.1095
21244SOL    HW265174   6.771   4.956   6.015  1.7266  1.5294  2.6293
21245SOL     OW65175   5.605   3.746   6.635  0.4188  0.2438 -0.0566
21245SOL    HW165176   5.605   3.762   6.540  0.3538  0.0419 -0.0892
21245SOL    HW265177   5.532   3.798   6.668 -1.2996 -1.7918 -0.4586
21246SOL     OW65178   6.853   5.409   7.838  0.2081 -0.3684  0.1125
21246SOL    HW165179   6.837   5.422   7.931  0.5054 -0.5369  0.1874
21246SOL    HW265180   6.768   5.422   7.797 -0.1780 -1.4425  0.5296
21247SOL     OW65181   7.238   4.914   4.512  0.1141 -0.5472 -0.6044
21247SOL    HW165182   7.249   4.977   4.584  0.8057 -0.1006 -1.0883
21247SOL    HW265183   7.298   4.843   4.533 -1.2888 -1.4918  0.3908
21248SOL     OW65184   6.431   3.151   8.620 -0.3804  0.2668  0.5658
21248SOL    HW165185   6.436   3.063   8.583 -1.1801  0.4802 -0.0786
21248SOL    HW265186   6.515   3.163   8.663  0.2584 -0.3176 -0.4672
21249SOL     OW65187   6.492   3.915   6.761 -0.6916 -0.4014 -0.0567
21249SOL    HW165188   6.411   3.949   6.723 -0.2599 -0.2296 -0.8456
21249SOL    HW265189   6.558   3.928   6.693  1.0603  3.5954  2.0304
21250SOL     OW65190   0.084   3.546   6.499 -0.0394  0.4287 -0.2602
21250SOL    HW165191   0.129   3.516   6.578 -1.9078  0.5363  0.9095
21250SOL    HW265192   0.102   3.640   6.495  1.3109  0.1551 -0.8350
21251SOL     OW65193   5.933   4.222   6.852 -0.0385 -0.1035 -1.0348
21251SOL    HW165194   5.889   4.182   6.777 -1.4015 -1.8915  0.6171
21251SOL    HW265195   5.965   4.148   6.904  1.4131  1.0884 -0.1460
21252SOL     OW65196   7.251   6.685   7.483  0.4287  0.4756  0.0472
21252SOL    HW165197   7.200   6.632   7.544 -3.0565  3.1193 -0.2779
21252SOL    HW265198   7.300   6.746   7.539  1.4246 -0.5003  0.2777
21253SOL     OW65199   5.813   6.677   6.388 -0.0644 -0.2013  0.3112
21253SOL    HW165200   5.807   6.582   6.392  2.3776 -0.4863 -0.9970
21253SOL    HW265201   5.881   6.700   6.452 -2.4048  1.0106  2.5553
21254SOL     OW65202   5.382   2.893   8.143  0.1331 -0.3978  0.0370
21254SOL    HW165203   5.321   2.893   8.069  1.2181  0.3979 -0.8942
21254SOL    HW265204   5.384   2.984   8.172  1.0869 -0.3570 -0.1389
21255SOL     OW65205   0.386   2.920   5.782 -0.1911  0.4281 -0.3674
21255SOL    HW165206   0.389   2.827   5.805  2.6326  0.0002 -1.9033
21255SOL    HW265207   0.379   2.966   5.866 -0.5604 -1.1389  0.4965
21256SOL     OW65208   5.555   5.045   6.610 -0.6514  0.1133  0.3004
21256SOL    HW165209   5.483   5.088   6.564 -0.0799 -0.1141 -0.8450
21256SOL    HW265210   5.574   4.967   6.559 -1.2499 -1.2102  2.0078
21257SOL     OW65211   6.724   4.706   6.917  0.8774 -0.5302  0.0173
21257SOL    HW165212   6.706   4.774   6.852 -2.5559  0.2111  1.5313
21257SOL    HW265213   6.749   4.754   6.996  0.3779 -1.1057  0.5380
21258SOL     OW65214   0.098   4.532   6.596  0.9881  0.1197  0.0276
21258SOL    HW165215   0.013   4.511   6.557  1.6490  0.0673 -1.4607
21258SOL    HW265216   0.105   4.474   6.672 -0.4392  0.3763  0.3811
21259SOL     OW65217   7.131   4.367   7.754 -0.1495 -0.1560  0.2422
21259SOL    HW165218   7.192   4.425   7.798 -0.0430  0.1598 -0.3132
21259SOL    HW265219   7.074   4.425   7.703 -0.2019 -0.5173 -0.1182
21260SOL     OW65220   6.007   3.758   7.202 -0.0147  0.0649 -0.4788
21260SOL    HW165221   5.980   3.833   7.255  0.1704  0.0889 -0.4183
21260SOL    HW265222   6.043   3.696   7.265 -0.9989 -0.4556 -0.4222
21261SOL     OW65223   7.993   3.916   6.442 -0.1041  0.2181  0.4788
21261SOL    HW165224   8.051   3.853   6.399  0.8401  0.0527  1.9317
21261SOL    HW265225   7.909   3.907   6.396  0.2388 -1.5237  0.1269
21262SOL     OW65226   7.404   6.769   8.204 -0.3233  0.1924  0.0631
21262SOL    HW165227   7.411   6.675   8.183  0.3858 -0.0503  1.2748
21262SOL    HW265228   7.322   6.797   8.163 -0.3112 -0.8418 -0.7192
21263SOL     OW65229   5.668   6.990   5.368 -0.4566 -0.1867 -0.2480
21263SOL    HW165230   5.763   6.979   5.381 -0.5746 -0.0052  0.8763
21263SOL    HW265231   5.647   7.071   5.415 -0.9622  0.4971 -1.5982
21264SOL     OW65232   7.230   4.128   7.738  0.4972  0.0905 -0.3103
21264SOL    HW165233   7.193   4.216   7.742 -0.3532 -0.2111 -1.0338
21264SOL    HW265234   7.254   4.108   7.828 -1.8695  0.0174  0.3744
21265SOL     OW65235   7.493   0.482   5.850  0.3407  0.5131  0.0277
21265SOL    HW165236   7.575   0.506   5.894 -0.1145  0.1054  1.1610
21265SOL    HW265237   7.434   0.460   5.922 -2.4965  5.7107 -0.2230
21266SOL     OW65238   4.388   4.122   5.880  0.2167 -0.1107 -0.3184
21266SOL    HW165239   4.466   4.081   5.918  1.6040  1.5392 -1.2302
21266SOL    HW265240   4.369   4.196   5.938 -0.7186 -0.5181 -0.0857
21267SOL     OW65241   7.586   4.282   6.097  0.3577 -0.2406  0.3371
21267SOL    HW165242   7.499   4.293   6.058  0.6779  0.5340 -0.1827
21267SOL    HW265243   7.570   4.286   6.192  0.0024  1.5032  0.2350
21268SOL     OW65244   5.233   5.853   6.902 -0.1572  0.5099 -0.5365
21268SOL    HW165245   5.166   5.787   6.919 -0.8301  0.9098 -1.4908
21268SOL    HW265246   5.312   5.820   6.944 -0.7816 -0.3149  0.0111
21269SOL     OW65247   6.667   5.786   5.673  0.5284 -0.1870 -0.5659
21269SOL    HW165248   6.675   5.691   5.676 -1.5252 -0.3684  1.6868
21269SOL    HW265249   6.702   5.816   5.756  2.2697  1.2175 -1.7287
21270SOL     OW65250   5.464   5.214   5.475  0.4350 -0.3698  0.0083
21270SOL    HW165251   5.538   5.164   5.511  0.7652  0.0839 -0.0278
21270SOL    HW265252   5.493   5.239   5.387  0.0419 -0.6015 -0.1903
21271SOL     OW65253   7.839   4.619   6.253  0.2083  0.1269  0.0399
21271SOL    HW165254   7.833   4.571   6.336 -0.3932  0.4551  0.1901
21271SOL    HW265255   7.753   4.661   6.243  0.6311  0.9505 -0.2200
21272SOL     OW65256   6.171   6.557   6.689 -0.1182 -0.3339 -0.0929
21272SOL    HW165257   6.156   6.540   6.782 -0.4673  2.1369  0.3557
21272SOL    HW265258   6.112   6.496   6.644 -0.9600 -0.6205  1.3341
21273SOL     OW65259   6.486   2.162   4.863  0.2314  0.1104  0.4221
21273SOL    HW165260   6.415   2.097   4.867  1.1354 -1.1025 -1.5525
21273SOL    HW265261   6.565   2.113   4.886  0.6996  0.9233  0.5716
21274SOL     OW65262   5.192   5.142   6.809 -0.4439  0.2789  0.3503
21274SOL    HW165263   5.194   5.053   6.844 -0.5183  0.6229  1.2616
21274SOL    HW265264   5.169   5.132   6.717  1.8868 -0.8324 -0.1800
21275SOL     OW65265   5.919   3.535   7.087 -0.4966 -0.0783 -0.5313
21275SOL    HW165266   5.875   3.491   7.160  0.5634 -1.2606 -0.5575
21275SOL    HW265267   5.938   3.623   7.120 -0.1969 -0.5343  0.5764
21276SOL     OW65268   7.984   3.170   6.136  0.8874 -0.1338 -0.1852
21276SOL    HW165269   7.960   3.237   6.073  1.2894  0.0010 -0.2004
21276SOL    HW265270   8.025   3.218   6.208  2.3516 -0.4525 -0.7607
21277SOL     OW65271   7.509   3.443   6.159  0.7534  0.2901 -0.3236
21277SOL    HW165272   7.556   3.446   6.076  0.9805  1.0977 -0.1781
21277SOL    HW265273   7.444   3.513   6.152 -1.4970 -1.7204 -1.1233
21278SOL     OW65274   5.512   4.362   4.389  0.2517  0.5388 -0.1385
21278SOL    HW165275   5.419   4.384   4.388  0.0682 -0.2190 -0.7980
21278SOL    HW265276   5.542   4.384   4.301  0.2932 -0.8549 -0.4826
21279SOL     OW65277   5.653   4.474   6.779 -0.1848  0.2550  0.2101
21279SOL    HW165278   5.694   4.428   6.852  1.8583  0.9275 -0.4450
21279SOL    HW265279   5.560   4.451   6.785  0.2645 -1.3756  1.7525
21280SOL     OW65280   7.153   5.650   6.210  0.2101 -0.0544 -0.5634
21280SOL    HW165281   7.090   5.608   6.151 -0.6525 -0.8025  0.8527
21280SOL    HW265282   7.101   5.676   6.286  1.2362  1.2195 -0.2715
21281SOL     OW65283   5.534   5.474   7.692 -0.2304 -0.4967 -0.2643
21281SOL    HW165284   5.448   5.435   7.708  0.8304 -1.7111  3.4371
21281SOL    HW265285   5.592   5.398   7.678  0.6080  0.2013 -0.6736
21282SOL     OW65286   6.032   4.233   6.538 -0.0968  0.3250 -0.0134
21282SOL    HW165287   6.028   4.224   6.443  0.4713  1.1229 -0.1240
21282SOL    HW265288   5.947   4.202   6.568  0.4094 -1.7693 -0.6098
21283SOL     OW65289   7.175   4.521   6.680  0.6818 -0.5026  0.2678
21283SOL    HW165290   7.269   4.532   6.693  1.5572 -3.4345 -2.3413
21283SOL    HW265291   7.151   4.589   6.618  0.9222  0.5170  1.2518
21284SOL     OW65292   5.632   4.698   5.748 -0.7198  0.4757  0.0064
21284SOL    HW165293   5.625   4.631   5.680 -2.2302  0.6857 -0.0716
21284SOL    HW265294   5.577   4.770   5.718 -1.2113  0.6871  1.3206
21285SOL     OW65295   7.689   4.945   5.858  0.4620 -0.2273 -0.0600
21285SOL    HW165296   7.763   4.889   5.880  1.5590  0.6917 -1.2671
21285SOL    HW265297   7.722   5.034   5.866 -0.3931  0.1949 -0.9693
21286SOL     OW65298   6.423   3.686   3.919 -0.0132 -0.3612 -0.0407
21286SOL    HW165299   6.444   3.594   3.902 -0.2454 -0.6681  1.2470
21286SOL    HW265300   6.350   3.682   3.981 -0.2653  0.6962 -0.2632
21287SOL     OW65301   7.221   5.148   7.750  0.0265 -0.0538 -0.0039
21287SOL    HW165302   7.162   5.219   7.723  1.6694  1.5727  0.4923
21287SOL    HW265303   7.216   5.147   7.846 -0.9925 -1.5638 -0.0332
21288SOL     OW65304   6.827   4.788   6.530 -0.2838 -0.5042 -0.0443
21288SOL    HW165305   6.739   4.770   6.495  0.6533 -0.4706 -2.6459
21288SOL    HW265306   6.857   4.863   6.479  1.5385 -0.9957  0.2592
21289SOL     OW65307   7.996   4.841   5.918  0.4070 -0.5441 -0.0748
21289SOL    HW165308   7.965   4.900   5.986 -0.9462  0.2784 -1.3576
21289SOL    HW265309   7.995   4.754   5.960  1.1534  0.1174  1.4148
21290SOL     OW65310   4.807   5.360   7.463  0.2382 -0.5554 -0.1920
21290SOL    HW165311   4.828   5.285   7.519 -0.4012  0.4848  1.5146
21290SOL    HW265312   4.735   5.403   7.507  0.2920  0.8116 -1.3892
21291SOL     OW65313   0.313   6.174   6.646 -0.0002  0.1404  0.2074
21291SOL    HW165314   0.253   6.191   6.718  0.5566  0.4208  0.6076
21291SOL    HW265315   0.292   6.085   6.617 -0.7654  0.3222  0.1871
21292SOL     OW65316   0.101   3.849   6.001  0.0430  0.1775  0.1632
21292SOL    HW165317   0.141   3.883   5.921  0.3968 -1.6613 -0.4741
21292SOL    HW265318   0.019   3.808   5.972  0.6088 -1.2956  0.5882
21293SOL     OW65319   6.487   4.406   5.964  0.0971  0.5712  0.2172
21293SOL    HW165320   6.459   4.486   5.919 -0.0470  1.4165  1.7351
21293SOL    HW265321   6.435   4.336   5.923  1.6799  0.8647 -2.5622
21294SOL     OW65322   6.726   4.770   5.537  0.8108  0.5594 -0.2333
21294SOL    HW165323   6.816   4.758   5.569  0.2308  0.8563  1.6386
21294SOL    HW265324   6.732   4.845   5.478  1.5690  1.5558  1.0435
21295SOL     OW65325   7.563   3.257   7.146 -0.3029 -0.2459  0.2652
21295SOL    HW165326   7.609   3.318   7.203  0.3971  0.7508 -1.2955
21295SOL    HW265327   7.568   3.297   7.059 -0.7713 -2.0045 -0.6186
21296SOL     OW65328   6.285   3.789   5.449  0.0740  0.2702 -0.0026
21296SOL    HW165329   6.278   3.780   5.544 -1.1938 -0.2755 -0.1222
21296SOL    HW265330   6.229   3.720   5.414 -0.3021  1.0998 -1.1313
21297SOL     OW65331   7.386   3.694   5.887 -0.5718 -0.4388 -0.0564
21297SOL    HW165332   7.305   3.658   5.924 -0.0921 -0.7841  0.6762
21297SOL    HW265333   7.409   3.634   5.816 -0.2484 -1.0942  0.5907
21298SOL     OW65334   5.699   3.068   6.155 -0.1267  0.2563  0.6820
21298SOL    HW165335   5.726   3.074   6.247 -1.3773 -1.0806  1.1796
21298SOL    HW265336   5.623   3.126   6.149  0.0999  0.5273  0.4288
21299SOL     OW65337   0.834   5.007   6.708  0.0363 -0.0974  0.5884
21299SOL    HW165338   0.753   4.982   6.663  0.9430 -1.0899 -0.5540
21299SOL    HW265339   0.861   5.088   6.666  0.7098 -0.8524 -0.4589
21300SOL     OW65340   4.985   6.247   5.192  0.1192 -0.0982 -0.0222
21300SOL    HW165341   5.045   6.320   5.200  0.7466 -0.5336 -0.6403
21300SOL    HW265342   5.029   6.174   5.235  0.8175 -0.8564 -1.8870
21301SOL     OW65343   0.030   4.120   4.415  0.0606  0.3805  0.0133
21301SOL    HW165344  -0.053   4.072   4.414 -0.1491  0.7125 -1.6171
21301SOL    HW265345   0.007   4.207   4.448  0.0061  0.1101  0.7127
21302SOL     OW65346   0.935   3.634   4.078  0.3774 -0.1702  0.6580
21302SOL    HW165347   0.912   3.542   4.070 -0.1203 -0.4265  3.8347
21302SOL    HW265348   0.859   3.680   4.042  1.1718 -0.8720 -2.1897
21303SOL     OW65349   7.010   1.951   4.549  0.3048 -0.0625 -0.3078
21303SOL    HW165350   7.081   1.914   4.601  1.0650  1.5420 -0.1461
21303SOL    HW265351   7.025   2.046   4.551 -2.3110  0.4120  0.4129
21304SOL     OW65352   6.868   6.647   5.556  0.0432  0.1853 -0.0176
21304SOL    HW165353   6.824   6.673   5.637 -0.2208  0.4582 -0.2471
21304SOL    HW265354   6.942   6.594   5.585 -1.0923 -1.2784  0.3322
21305SOL     OW65355   0.680   5.799   7.988  0.1796  0.5909  0.5065
21305SOL    HW165356   0.712   5.889   7.980 -0.8293  0.9552  0.4572
21305SOL    HW265357   0.608   5.804   8.052 -2.4904  0.5511 -2.2821
21306SOL     OW65358   0.275   5.635   7.514 -0.2435  0.2270 -0.4352
21306SOL    HW165359   0.316   5.708   7.561  0.2495 -0.0226 -0.4639
21306SOL    HW265360   0.243   5.576   7.582  0.9711 -0.4129 -0.3784
21307SOL     OW65361   6.170   5.185   8.146  0.0312 -0.3029  0.5024
21307SOL    HW165362   6.108   5.122   8.183 -1.3130  0.4259 -0.4198
21307SOL    HW265363   6.154   5.182   8.052  1.0228  0.3293  0.2970
21308SOL     OW65364   0.301   2.992   8.863 -0.2243  0.2315 -0.4077
21308SOL    HW165365   0.242   2.979   8.937  0.8807 -1.2324  0.2605
21308SOL    HW265366   0.356   3.065   8.889 -0.8052  0.6913 -0.4405
21309SOL     OW65367   5.856   4.561   6.022  0.2092  0.4180  0.3842
21309SOL    HW165368   5.923   4.493   6.010 -0.0254  0.3350 -0.6002
21309SOL    HW265369   5.786   4.536   5.962  0.1837  1.5986 -0.1194
21310SOL     OW65370   4.351   5.530   8.452  0.3405  0.0625  0.1877
21310SOL    HW165371   4.417   5.477   8.407 -0.3887 -0.4031 -0.3627
21310SOL    HW265372   4.298   5.467   8.500 -1.3428  0.0986 -1.5107
21311SOL     OW65373   7.479   3.773   6.875 -0.0981 -0.3332 -0.6490
21311SOL    HW165374   7.390   3.747   6.850  0.0689 -0.7352 -0.8230
21311SOL    HW265375   7.500   3.846   6.816 -0.2378 -0.3644 -0.7386
21312SOL     OW65376   6.847   4.722   7.456 -0.2822 -0.1824  0.7639
21312SOL    HW165377   6.791   4.717   7.379  1.1670  1.3615 -0.4885
21312SOL    HW265378   6.837   4.812   7.487  1.2187  0.0554  0.6578
21313SOL     OW65379   0.507   4.377   7.491  0.2771 -0.3427 -0.0606
21313SOL    HW165380   0.581   4.323   7.518 -0.1029 -1.5881 -1.3551
21313SOL    HW265381   0.501   4.364   7.396 -0.6760  0.9139 -0.2021
21314SOL     OW65382   5.687   5.645   5.634 -0.1751  0.3741 -0.1117
21314SOL    HW165383   5.700   5.571   5.575  1.8198  0.9002 -0.3916
21314SOL    HW265384   5.599   5.633   5.668  0.2204 -2.3147  0.1197
21315SOL     OW65385   7.922   4.339   6.330  0.5312  0.0796 -0.7363
21315SOL    HW165386   7.870   4.369   6.255 -0.5210  0.7239  0.2214
21315SOL    HW265387   7.883   4.383   6.405  0.9744 -1.2700  0.3211
21316SOL     OW65388   7.070   2.960   5.743 -0.0951 -0.3823  0.5488
21316SOL    HW165389   6.993   2.957   5.800 -0.5989 -0.0888 -0.1075
21316SOL    HW265390   7.054   2.893   5.677 -0.7990  1.0947 -0.8345
21317SOL     OW65391   7.681   5.751   6.554  0.2974 -0.0892 -0.1446
21317SOL    HW165392   7.630   5.740   6.474  1.6508 -0.7314 -0.9508
21317SOL    HW265393   7.616   5.770   6.621 -0.8531  0.5780 -1.4086
21318SOL     OW65394   7.039   2.307   5.614  0.6144  0.3603 -0.6717
21318SOL    HW165395   7.000   2.232   5.659  1.3834 -0.1613 -0.8570
21318SOL    HW265396   6.965   2.363   5.591  0.2244  1.0717  1.9501
21319SOL     OW65397   6.546   7.385   7.621  0.1379  0.3358  0.4213
21319SOL    HW165398   6.471   7.325   7.618  0.7795 -0.5182  0.8773
21319SOL    HW265399   6.551   7.411   7.713  1.5576 -1.1611  0.8116
21320SOL     OW65400   6.625   3.348   5.878  0.2601 -0.2475  0.3347
21320SOL    HW165401   6.669   3.428   5.907 -0.1782 -0.3743  1.3719
21320SOL    HW265402   6.573   3.375   5.802  0.6165  0.3030  0.2795
21321SOL     OW65403   7.289   3.628   6.232  0.2803 -0.2747 -0.3546
21321SOL    HW165404   7.301   3.713   6.274  0.8727  0.0104 -1.0814
21321SOL    HW265405   7.208   3.594   6.269 -1.0887  1.4989 -1.5535
21322SOL     OW65406   6.661   5.445   8.070  0.3822  0.1168 -0.2931
21322SOL    HW165407   6.684   5.419   8.159  1.5563 -1.0972 -0.9215
21322SOL    HW265408   6.597   5.515   8.082  0.7854  0.2353  1.5022
21323SOL     OW65409   6.892   2.817   9.352 -0.3780 -0.2166 -0.3214
21323SOL    HW165410   6.843   2.799   9.432 -0.6645  0.5233 -0.3194
21323SOL    HW265411   6.983   2.827   9.381 -0.1757 -1.7184 -0.3405
21324SOL     OW65412   4.984   5.118   8.149  0.0712 -0.4543 -0.5282
21324SOL    HW165413   4.981   5.064   8.228  0.2105  0.8687  0.4244
21324SOL    HW265414   5.064   5.171   8.159 -0.5827  0.6408 -0.9240
21325SOL     OW65415   6.696   4.609   7.210  0.3307 -0.5247  0.2765
21325SOL    HW165416   6.621   4.556   7.239  0.2295  0.5166  2.0757
21325SOL    HW265417   6.660   4.696   7.196  1.1890  0.0085  1.2340
21326SOL     OW65418   6.337   4.599   5.906 -0.1478  0.1638  0.3340
21326SOL    HW165419   6.309   4.634   5.822 -3.0312 -1.9302  0.2572
21326SOL    HW265420   6.313   4.666   5.970 -4.1266 -0.7794  0.0593
21327SOL     OW65421   5.422   4.125   8.423  0.1143 -0.0324  0.0234
21327SOL    HW165422   5.418   4.173   8.339  0.8427  1.0002  0.5466
21327SOL    HW265423   5.446   4.036   8.398  2.3355  0.6949 -0.7963
21328SOL     OW65424   6.724   4.658   5.948  0.2690 -0.0584 -0.4954
21328SOL    HW165425   6.718   4.564   5.965 -1.4685  0.0792 -0.2316
21328SOL    HW265426   6.795   4.665   5.884  1.3627 -1.3971  0.5063
21329SOL     OW65427   7.687   4.541   7.182  0.1895  0.2001  0.1963
21329SOL    HW165428   7.709   4.457   7.222  0.4453  0.4497  0.5866
21329SOL    HW265429   7.769   4.591   7.185  0.0142  0.4969  0.0489
21330SOL     OW65430   7.508   4.303   7.678 -0.0928 -0.2277 -0.1526
21330SOL    HW165431   7.465   4.221   7.653 -1.8598  0.6693 -0.2635
21330SOL    HW265432   7.487   4.363   7.606  1.2092  0.3262 -0.0946
21331SOL     OW65433   5.563   4.818   7.396 -0.4170  0.2154 -0.0085
21331SOL    HW165434   5.564   4.756   7.469  0.5577  0.8733  0.5615
21331SOL    HW265435   5.490   4.877   7.416 -1.2297 -0.6165 -0.4567
21332SOL     OW65436   6.251   3.819   6.143 -0.3682 -0.3110 -0.6532
21332SOL    HW165437   6.250   3.893   6.203  0.2948 -1.0803  0.3359
21332SOL    HW265438   6.180   3.837   6.081 -2.0009 -0.1433  1.1632
21333SOL     OW65439   5.995   3.418   8.024 -0.0285  0.0306 -0.2285
21333SOL    HW165440   6.046   3.443   8.101 -1.0404  0.3753  0.3539
21333SOL    HW265441   6.042   3.456   7.950  0.2740  0.7788  0.3341
21334SOL     OW65442   6.235   4.890   9.001 -0.3804  0.0751 -0.0749
21334SOL    HW165443   6.206   4.809   9.042 -0.1784  0.2360  0.3962
21334SOL    HW265444   6.276   4.939   9.072 -1.3538  1.0083 -0.1402
21335SOL     OW65445   6.830   5.485   6.354 -0.4783  0.2289 -0.1786
21335SOL    HW165446   6.895   5.552   6.376 -1.0372  0.4734  0.7685
21335SOL    HW265447   6.880   5.404   6.349  0.3141  0.7781 -1.9198
21336SOL     OW65448   5.816   5.651   6.607  0.4291 -0.0316  0.3769
21336SOL    HW165449   5.794   5.598   6.530  0.9430 -0.0309  0.2203
21336SOL    HW265450   5.858   5.589   6.667  1.7907  0.3307 -0.1455
21337SOL     OW65451   6.620   4.025   6.985  0.1681  0.5144 -0.1489
21337SOL    HW165452   6.668   4.083   6.926  0.9946  0.9290  0.8907
21337SOL    HW265453   6.559   3.977   6.929 -0.1035  1.9515 -1.1125
21338SOL     OW65454   6.436   4.497   5.578 -0.1784  0.0514 -0.5150
21338SOL    HW165455   6.441   4.418   5.631 -1.1200 -0.3812 -1.0517
21338SOL    HW265456   6.465   4.567   5.636 -0.4992 -0.5140  0.3386
21339SOL     OW65457   7.471   6.425   9.136 -0.1882 -0.7393  0.5492
21339SOL    HW165458   7.429   6.378   9.208 -0.2382 -0.8040  0.4786
21339SOL    HW265459   7.469   6.517   9.162  2.1593 -0.9692  1.8735
21340SOL     OW65460   7.452   2.600   6.715 -0.3718  0.2138  0.1999
21340SOL    HW165461   7.451   2.545   6.637  0.4783 -0.7937  0.8745
21340SOL    HW265462   7.524   2.565   6.768  0.0372  1.8248  0.7633
21341SOL     OW65463   6.251   3.113   5.134  0.6493  0.2883  0.3701
21341SOL    HW165464   6.230   3.164   5.056 -0.2805 -0.1673  0.3064
21341SOL    HW265465   6.185   3.044   5.136 -0.4713  1.3042  2.5088
21342SOL     OW65466   6.116   3.661   7.439 -0.9225 -0.1161 -0.0739
21342SOL    HW165467   6.188   3.715   7.472 -1.7924  0.4939  0.9088
21342SOL    HW265468   6.075   3.625   7.518 -0.7220 -1.7861 -0.6785
21343SOL     OW65469   7.181   4.893   8.091 -0.1884  0.4978 -0.0095
21343SOL    HW165470   7.179   4.833   8.166 -1.3497  1.4029  0.7275
21343SOL    HW265471   7.274   4.909   8.075  0.1383 -1.3466 -0.1235
21344SOL     OW65472   5.244   4.787   5.502  0.7139  0.5251 -0.1005
21344SOL    HW165473   5.253   4.693   5.515  0.1904  0.4713 -0.1108
21344SOL    HW265474   5.151   4.800   5.487  0.5960  1.1990  1.1162
21345SOL     OW65475   5.727   5.165   5.351  0.5816  0.4296  0.4414
21345SOL    HW165476   5.801   5.149   5.410 -0.2175 -0.0559  1.3493
21345SOL    HW265477   5.740   5.103   5.279  1.2765  0.6382  0.3881
21346SOL     OW65478   6.536   3.809   8.638 -0.6190 -0.3898 -0.3833
21346SOL    HW165479   6.485   3.879   8.679 -0.5807  0.1495 -1.2438
21346SOL    HW265480   6.470   3.749   8.603 -0.6663 -0.0834 -0.8286
21347SOL     OW65481   7.861   5.246   7.887  0.2710  0.3998 -0.4866
21347SOL    HW165482   7.878   5.275   7.977 -1.2959 -1.3304  0.4228
21347SOL    HW265483   7.947   5.220   7.853  0.8402  0.8068  0.5962
21348SOL     OW65484   4.806   4.386   5.644  0.6653 -0.4366  0.7074
21348SOL    HW165485   4.739   4.418   5.584 -0.4678 -1.8751  1.1230
21348SOL    HW265486   4.757   4.362   5.724  1.8414 -0.4264  1.4521
21349SOL     OW65487   5.215   4.182   6.823  0.5977  0.1561 -0.1321
21349SOL    HW165488   5.167   4.099   6.817  0.1281  0.2809  1.3977
21349SOL    HW265489   5.162   4.236   6.882  0.6987  1.7052 -1.3861
21350SOL     OW65490   6.535   4.488   7.610  0.0103 -0.4552 -0.3072
21350SOL    HW165491   6.497   4.403   7.629 -1.7778  0.1841 -0.8053
21350SOL    HW265492   6.533   4.494   7.514 -0.1270  0.2342 -0.2684
21351SOL     OW65493   6.463   3.967   7.813  0.5341 -0.2720 -0.0359
21351SOL    HW165494   6.425   3.914   7.882  0.4689  0.5024  0.5311
21351SOL    HW265495   6.387   4.004   7.767  0.5255 -1.8195 -1.3925
21352SOL     OW65496   5.980   2.099   8.336  0.2915  0.0724  0.2042
21352SOL    HW165497   6.015   2.167   8.277 -0.7000  0.7662  0.3909
21352SOL    HW265498   5.893   2.131   8.360  0.1001 -0.9252  0.8824
21353SOL     OW65499   6.147   4.705   5.696 -0.3148  0.1714  0.2926
21353SOL    HW165500   6.056   4.732   5.687 -0.6728 -1.2111 -0.4346
21353SOL    HW265501   6.143   4.613   5.720  0.8930  0.2694  0.9566
21354SOL     OW65502   5.570   4.252   6.213 -0.5444 -0.1340 -0.2006
21354SOL    HW165503   5.515   4.330   6.224  1.0283  0.7484  2.0081
21354SOL    HW265504   5.508   4.179   6.213 -2.0566  1.0301 -2.2787
21355SOL     OW65505   6.505   4.472   7.330 -0.3546 -0.2296  0.6132
21355SOL    HW165506   6.411   4.487   7.339 -0.7856 -2.4443  0.5139
21355SOL    HW265507   6.514   4.417   7.252  1.4252  2.6422 -1.4017
21356SOL     OW65508   7.419   2.565   7.025  0.3337 -0.0609  0.3705
21356SOL    HW165509   7.395   2.574   7.117 -0.3774  0.4390  0.1514
21356SOL    HW265510   7.350   2.510   6.987 -0.3757  1.1682 -0.2139
21357SOL     OW65511   5.967   6.117   6.659 -0.0503  0.1109 -0.3541
21357SOL    HW165512   5.888   6.072   6.629 -2.3403  1.1339  3.4404
21357SOL    HW265513   6.006   6.058   6.724  1.7091  0.1280 -1.3390
21358SOL     OW65514   0.310   5.770   7.815 -0.0892  0.1947  0.5338
21358SOL    HW165515   0.393   5.727   7.797 -0.1453 -0.1698  1.0882
21358SOL    HW265516   0.244   5.706   7.788 -0.1882  0.4717  0.1196
21359SOL     OW65517   0.426   3.294   5.062  0.1512  0.2712 -0.4393
21359SOL    HW165518   0.361   3.294   4.992  0.4048  0.7891 -0.6770
21359SOL    HW265519   0.376   3.282   5.142 -0.1505 -0.2309 -0.6985
21360SOL     OW65520   1.149   4.754   7.294 -0.2989  0.2442 -0.0059
21360SOL    HW165521   1.176   4.740   7.203  1.6169 -0.9251  0.6769
21360SOL    HW265522   1.230   4.781   7.338 -0.7114 -1.2102  1.7465
21361SOL     OW65523   5.130   5.176   5.785  0.7971  0.4160  0.4347
21361SOL    HW165524   5.044   5.205   5.816 -0.0734 -1.5815 -0.0009
21361SOL    HW265525   5.142   5.090   5.825  1.3136 -0.5809 -1.7438
21362SOL     OW65526   7.529   5.367   8.131  0.5837  0.1032  0.0869
21362SOL    HW165527   7.564   5.287   8.093 -0.7773 -0.2702 -0.4475
21362SOL    HW265528   7.563   5.368   8.220  0.4308 -1.1944  0.1743
21363SOL     OW65529   6.485   3.101   4.931  0.4548 -0.6434 -0.1001
21363SOL    HW165530   6.468   3.186   4.891  1.5931 -0.0852  0.5447
21363SOL    HW265531   6.406   3.081   4.981 -0.4908 -0.7762 -1.5932
21364SOL     OW65532   7.579   5.964   7.210 -0.5965  0.0595 -0.4817
21364SOL    HW165533   7.511   5.977   7.144 -0.4837  1.6020 -0.3421
21364SOL    HW265534   7.631   5.890   7.178  1.5310  2.7238 -3.9718
21365SOL     OW65535   4.859   5.339   6.940 -0.5846 -0.1738  0.4532
21365SOL    HW165536   4.922   5.350   7.012  0.4571  0.6571 -0.5413
21365SOL    HW265537   4.901   5.277   6.881 -0.0858  1.2984 -0.8221
21366SOL     OW65538   7.935   4.862   7.940 -0.0883  0.4916 -0.0117
21366SOL    HW165539   7.875   4.874   7.866 -0.8067  0.3440  0.5366
21366SOL    HW265540   8.017   4.831   7.900 -0.5253  0.2368 -0.7267
21367SOL     OW65541   7.117   6.013   6.031 -0.1137 -0.3626 -0.4822
21367SOL    HW165542   7.141   5.994   6.122 -2.0527  0.5371  0.2626
21367SOL    HW265543   7.127   5.930   5.986 -1.6791 -1.5249  1.1702
21368SOL     OW65544   6.138   5.437   6.523  0.0879 -0.1547  0.9816
21368SOL    HW165545   6.128   5.347   6.492  1.0631  0.8767 -2.8150
21368SOL    HW265546   6.223   5.439   6.566  0.6720 -0.8026 -0.1006
21369SOL     OW65547   7.733   6.073   6.761 -0.0374  0.1910 -0.3706
21369SOL    HW165548   7.721   6.123   6.842  0.6300 -0.9057  0.4290
21369SOL    HW265549   7.681   5.993   6.775 -0.5106  0.3109 -1.3378
21370SOL     OW65550   5.953   3.245   6.703  0.6721 -0.1628 -0.6330
21370SOL    HW165551   5.981   3.199   6.782 -0.4073 -1.9803 -1.2566
21370SOL    HW265552   5.888   3.309   6.734  2.7747  1.6191  0.3453
21371SOL     OW65553   6.014   5.080   6.115  0.0244 -0.0285  0.0671
21371SOL    HW165554   5.998   5.058   6.023 -0.6786 -1.0036  0.4036
21371SOL    HW265555   5.946   5.032   6.163  0.4599  0.3695  1.1084
21372SOL     OW65556   6.174   5.476   7.663  0.4488  0.0248  0.1771
21372SOL    HW165557   6.222   5.559   7.658  1.7302 -0.6496  0.8697
21372SOL    HW265558   6.238   5.413   7.696 -1.2562 -0.6104  2.5407
21373SOL     OW65559   6.809   3.378   6.646  0.1735  0.3522  0.4666
21373SOL    HW165560   6.753   3.397   6.721 -1.2610 -1.2910 -0.1351
21373SOL    HW265561   6.809   3.460   6.596  2.8733  2.2218  3.1889
21374SOL     OW65562   6.798   4.326   5.981 -0.1703 -0.5156  0.1687
21374SOL    HW165563   6.718   4.319   5.930 -0.7202  1.3133  0.7217
21374SOL    HW265564   6.864   4.356   5.918 -0.6308  0.8299  0.2957
21375SOL     OW65565   6.713   5.958   7.470  0.0896 -0.4640 -0.0502
21375SOL    HW165566   6.687   5.992   7.385  0.9105 -1.4683 -0.7290
21375SOL    HW265567   6.807   5.978   7.476 -0.0562  0.0301  0.8467
21376SOL     OW65568   6.202   4.275   5.579 -0.5828  0.5444 -0.2830
21376SOL    HW165569   6.296   4.266   5.595 -0.6007 -0.3535 -0.6485
21376SOL    HW265570   6.172   4.339   5.644  0.4248  1.4691 -0.6983
21377SOL     OW65571   7.543   4.293   6.356  0.5041  0.1396  0.6510
21377SOL    HW165572   7.482   4.365   6.364  1.1255  0.8623 -0.6804
21377SOL    HW265573   7.617   4.317   6.412  0.6173  0.4628  0.3710
21378SOL     OW65574   6.279   4.745   6.772 -0.1225  0.1282  0.2874
21378SOL    HW165575   6.192   4.753   6.733 -0.1932 -0.7276  0.2527
21378SOL    HW265576   6.327   4.686   6.713 -0.0455 -0.7185  1.1752
21379SOL     OW65577   7.606   4.007   6.099  0.1316  0.4404  0.3145
21379SOL    HW165578   7.537   4.015   6.165  0.6248 -0.2173  0.9168
21379SOL    HW265579   7.606   4.092   6.054 -1.5505  0.2242 -0.1754
21380SOL     OW65580   7.306   3.207   6.681  0.6113  0.0737  0.5399
21380SOL    HW165581   7.242   3.159   6.733  1.6701 -1.7113  0.2854
21380SOL    HW265582   7.391   3.181   6.718  1.2771  0.6324 -0.5551
21381SOL     OW65583   0.395   3.001   6.026  0.0759 -0.0275  0.3604
21381SOL    HW165584   0.490   2.998   6.034 -0.0175 -1.6473  1.3567
21381SOL    HW265585   0.363   2.987   6.115 -1.1636  4.0621  0.7523
21382SOL     OW65586   4.583   4.658   5.747  0.5125 -0.5532  0.4045
21382SOL    HW165587   4.601   4.704   5.665  1.2162 -1.4847  0.0229
21382SOL    HW265588   4.503   4.699   5.780  0.2192 -0.1567 -0.7462
21383SOL     OW65589   6.557   5.259   5.665 -0.3452  0.3806 -0.2300
21383SOL    HW165590   6.519   5.241   5.751 -1.6848  1.6683 -0.5048
21383SOL    HW265591   6.491   5.228   5.603  1.4940 -2.4709 -0.9250
21384SOL     OW65592   7.405   4.954   6.988  0.3215  0.7111 -0.1950
21384SOL    HW165593   7.445   4.867   6.988  1.7958  1.3474 -1.4769
21384SOL    HW265594   7.451   5.001   7.057  0.5133  0.8852 -0.4395
21385SOL     OW65595   5.357   4.839   5.269 -0.4841  0.6334  0.5959
21385SOL    HW165596   5.325   4.830   5.359  1.9796  1.7334  1.6829
21385SOL    HW265597   5.445   4.802   5.271 -1.0984 -1.2343 -1.9360
21386SOL     OW65598   6.335   4.155   7.230 -0.2922  0.5012  0.8688
21386SOL    HW165599   6.296   4.071   7.205 -0.1433  0.3686  1.0782
21386SOL    HW265600   6.321   4.212   7.155 -1.8912  0.7959  1.3459
21387SOL     OW65601   5.230   4.382   6.171  0.1302 -0.2400  0.1433
21387SOL    HW165602   5.156   4.442   6.170  0.2313 -0.1051 -1.2973
21387SOL    HW265603   5.191   4.295   6.181 -0.3438 -0.2794 -1.7114
21388SOL     OW65604   6.535   5.376   5.244  0.2432 -0.3273  0.4137
21388SOL    HW165605   6.611   5.325   5.271  0.1757  0.0110  1.2686
21388SOL    HW265606   6.570   5.444   5.185  0.6679  0.0897  1.1422
21389SOL     OW65607   7.967   4.485   7.839  0.0953  0.0269 -0.3821
21389SOL    HW165608   8.054   4.464   7.875 -0.0593 -0.6896 -0.4102
21389SOL    HW265609   7.986   4.529   7.756  0.4361  0.4343 -0.0951
21390SOL     OW65610   0.958   4.673   7.723  0.5802  1.2192 -0.0689
21390SOL    HW165611   0.968   4.693   7.630 -0.7812 -0.6889 -0.6767
21390SOL    HW265612   0.888   4.732   7.752 -2.1925 -1.1362 -1.4313
21391SOL     OW65613   6.925   3.852   6.826 -0.3553  0.4305  0.6815
21391SOL    HW165614   6.899   3.841   6.917  0.5112  0.9045  0.9973
21391SOL    HW265615   6.852   3.898   6.785 -1.0851 -0.4752  0.9362
21392SOL     OW65616   0.815   5.254   6.960 -0.5893  0.1076 -0.3838
21392SOL    HW165617   0.766   5.208   7.029  0.6888  0.0490  0.5169
21392SOL    HW265618   0.749   5.274   6.893 -1.4857 -1.6421 -0.0840
21393SOL     OW65619   6.681   5.750   9.135  0.3147  0.3897 -0.0305
21393SOL    HW165620   6.603   5.767   9.082 -0.8013 -0.5781  1.2197
21393SOL    HW265621   6.650   5.692   9.205  2.4640 -1.1991 -0.2895
21394SOL     OW65622   6.882   4.649   7.883 -0.6494  0.0668  0.2400
21394SOL    HW165623   6.931   4.609   7.955 -0.3725 -1.4461 -0.7551
21394SOL    HW265624   6.930   4.730   7.864  0.9252 -0.8915 -0.0527
21395SOL     OW65625   5.248   3.580   5.394  0.2953 -0.3372 -0.4509
21395SOL    HW165626   5.243   3.650   5.459  0.6231  0.2426 -1.0395
21395SOL    HW265627   5.219   3.502   5.441  0.0967  0.1557  0.2648
21396SOL     OW65628   7.329   3.487   6.746  0.0780 -0.3557 -0.0853
21396SOL    HW165629   7.334   3.402   6.788  0.2974 -0.0271  0.5749
21396SOL    HW265630   7.268   3.538   6.800  0.1696 -0.0046 -0.3038
21397SOL     OW65631   6.902   5.520   7.356 -0.3297  0.2393  0.4014
21397SOL    HW165632   6.821   5.553   7.395 -0.5698  0.5237 -0.3155
21397SOL    HW265633   6.968   5.532   7.423 -0.7350  0.7243  0.7173
21398SOL     OW65634   6.228   4.811   6.046  0.0420  0.8654  0.0409
21398SOL    HW165635   6.192   4.809   6.135 -2.1138  0.1568 -0.8011
21398SOL    HW265636   6.155   4.837   5.991  1.0495  0.2277 -1.6665
21399SOL     OW65637   6.682   5.722   4.279 -0.2733  0.0791  0.4146
21399SOL    HW165638   6.641   5.759   4.358  0.4121 -0.2007  0.9089
21399SOL    HW265639   6.690   5.796   4.219  0.9104  0.7068  1.3243
21400SOL     OW65640   6.449   4.484   6.227  0.4636 -0.7144 -0.1097
21400SOL    HW165641   6.476   4.448   6.143  2.3031 -0.2854  0.2579
21400SOL    HW265642   6.476   4.575   6.224 -0.4747 -0.3999  0.5328
21401SOL     OW65643   6.370   5.314   6.630 -0.4615  0.4991  0.9548
21401SOL    HW165644   6.462   5.336   6.613 -0.6788  0.8088  0.1528
21401SOL    HW265645   6.375   5.239   6.690  0.3517 -0.8071 -0.6559
21402SOL     OW65646   6.906   5.136   4.668  0.0644  0.4729  0.3626
21402SOL    HW165647   6.827   5.186   4.647  0.3333  0.6126 -0.3595
21402SOL    HW265648   6.881   5.081   4.742 -0.1401  1.9124  1.4103
21403SOL     OW65649   6.867   4.225   6.536  0.0545  0.0737  0.1152
21403SOL    HW165650   6.815   4.294   6.494  1.8619  1.2799 -0.2302
21403SOL    HW265651   6.910   4.180   6.463  0.6915  0.0992  0.4682
21404SOL     OW65652   5.239   5.567   6.712 -0.1707  0.0912 -0.3102
21404SOL    HW165653   5.313   5.623   6.736  0.3577 -0.2209 -1.1648
21404SOL    HW265654   5.240   5.496   6.777 -0.4421  0.7081  0.3771
21405SOL     OW65655   5.064   4.785   6.613 -0.0071 -0.2988 -0.2557
21405SOL    HW165656   5.031   4.772   6.524  0.5754 -0.2554 -0.4862
21405SOL    HW265657   4.995   4.751   6.670  0.7236 -2.9008 -0.7744
21406SOL     OW65658   6.283   6.007   5.742 -0.5019 -0.0278  0.3205
21406SOL    HW165659   6.361   6.061   5.728 -0.8474  0.3241 -0.2958
21406SOL    HW265660   6.317   5.920   5.759  0.0167 -0.4172 -2.2455
21407SOL     OW65661   1.951   5.542   7.324 -0.0593  0.3415  0.8567
21407SOL    HW165662   2.013   5.609   7.296  1.3607 -1.3460 -0.2690
21407SOL    HW265663   1.886   5.538   7.254 -1.0320  1.5556  1.6553
21408SOL     OW65664   5.407   3.842   5.274 -0.0549 -0.7232  0.6385
21408SOL    HW165665   5.385   3.935   5.283  0.6668 -0.2567 -1.7505
21408SOL    HW265666   5.342   3.807   5.214 -0.6539 -1.9478  1.9330
21409SOL     OW65667   7.285   4.525   7.083  0.1600 -0.3802  0.1933
21409SOL    HW165668   7.216   4.564   7.029  0.3883  1.3301  1.0741
21409SOL    HW265669   7.246   4.519   7.171  1.0720  0.5289  0.6797
21410SOL     OW65670   6.513   4.342   6.684  0.5765 -0.3262  0.1232
21410SOL    HW165671   6.572   4.329   6.759 -0.0499  1.1487  0.9127
21410SOL    HW265672   6.431   4.301   6.711  0.8420 -1.2731 -0.4651
21411SOL     OW65673   7.814   1.252   6.317 -0.0751  0.1943  0.3754
21411SOL    HW165674   7.815   1.172   6.265 -0.7615  0.1626  0.4053
21411SOL    HW265675   7.904   1.285   6.312  0.2855 -0.7354  0.6147
21412SOL     OW65676   5.327   3.743   6.669  0.8874  0.6269  0.8639
21412SOL    HW165677   5.232   3.748   6.654  0.8897  2.1581  1.1662
21412SOL    HW265678   5.356   3.673   6.611 -0.5470 -0.5400  1.4672
21413SOL     OW65679   6.640   4.353   6.411 -0.2167 -0.6197 -0.2257
21413SOL    HW165680   6.565   4.402   6.376 -0.7125 -0.7252  0.6642
21413SOL    HW265681   6.626   4.353   6.505  0.2366 -1.7434 -0.1539
21414SOL     OW65682   6.268   5.425   5.998  0.1519 -0.0485  0.0410
21414SOL    HW165683   6.362   5.412   5.995  0.4271  1.8229 -1.0631
21414SOL    HW265684   6.236   5.360   6.061  2.3869  0.5417  1.9095
21415SOL     OW65685   6.237   6.364   5.875 -0.1636  0.6964 -0.1496
21415SOL    HW165686   6.207   6.404   5.794  1.1616 -1.0575 -1.6012
21415SOL    HW265687   6.321   6.406   5.893  0.2978 -0.0250 -0.5874
21416SOL     OW65688   6.622   2.695   5.868 -0.4341  0.0880  0.0831
21416SOL    HW165689   6.607   2.600   5.861 -0.3918 -0.0313  1.4162
21416SOL    HW265690   6.651   2.708   5.958 -1.0998  1.4608  0.1172
21417SOL     OW65691   6.451   4.239   5.703  0.1795  0.6423  0.1024
21417SOL    HW165692   6.402   4.163   5.733  0.3703  0.8348  0.9425
21417SOL    HW265693   6.519   4.203   5.646  0.1640  0.1976  0.3626
21418SOL     OW65694   7.961   1.279   5.980 -0.2756  0.0912  0.1218
21418SOL    HW165695   7.872   1.271   6.015 -0.7963 -0.0926 -1.1820
21418SOL    HW265696   7.969   1.372   5.958 -0.6229 -0.1195 -0.9368
21419SOL     OW65697   5.431   4.342   3.687 -0.5384 -0.1672 -0.0597
21419SOL    HW165698   5.336   4.352   3.674 -0.5236  0.7405  0.4700
21419SOL    HW265699   5.441   4.320   3.779 -0.2655 -0.9289 -0.2621
21420SOL     OW65700   6.229   4.320   6.266  0.1579  0.4749  0.0155
21420SOL    HW165701   6.310   4.362   6.237 -0.9593  1.8743 -1.2439
21420SOL    HW265702   6.226   4.337   6.360  1.5403 -0.0064  0.1645
21421SOL     OW65703   5.481   4.047   7.899 -0.5337 -0.2274  0.6070
21421SOL    HW165704   5.388   4.025   7.901 -0.9381  1.1055 -0.7917
21421SOL    HW265705   5.511   4.038   7.989 -2.0197 -0.6761  1.0778
21422SOL     OW65706   5.877   3.757   7.869  0.5690 -0.4181 -0.1098
21422SOL    HW165707   5.930   3.830   7.903  2.2649 -1.7481  0.2528
21422SOL    HW265708   5.803   3.751   7.930  0.7580  0.5793  0.2382
21423SOL     OW65709   5.973   3.993   8.262  0.2126  0.0260  0.7729
21423SOL    HW165710   6.037   4.064   8.269 -1.7515  1.7940  1.8646
21423SOL    HW265711   5.902   4.019   8.321 -1.4520 -1.9193 -0.2702
21424SOL     OW65712   5.736   3.939   7.685  0.2136  0.0600  0.0370
21424SOL    HW165713   5.781   3.878   7.744  0.1681 -1.7004 -1.6657
21424SOL    HW265714   5.667   3.978   7.740 -0.0582 -1.7827  1.1034
21425SOL     OW65715   7.899   5.104   8.725 -0.4290 -0.2243 -0.1254
21425SOL    HW165716   7.905   5.195   8.698  2.5836 -0.3597 -0.2370
21425SOL    HW265717   7.851   5.107   8.808 -2.3849  1.1361 -1.2206
21426SOL     OW65718   7.258   3.366   9.202  0.4781 -0.1895  0.3855
21426SOL    HW165719   7.281   3.275   9.187 -2.3998 -0.8468 -0.7501
21426SOL    HW265720   7.249   3.373   9.297  0.5400 -1.1599  0.4676
21427SOL     OW65721   5.676   4.952   8.347  0.0036  0.0008 -0.5573
21427SOL    HW165722   5.674   5.041   8.311 -2.0704 -0.3423 -1.4370
21427SOL    HW265723   5.636   4.898   8.279 -3.0353 -0.8910  1.7154
21428SOL     OW65724   5.176   5.344   7.498 -0.5280  0.2854 -0.0673
21428SOL    HW165725   5.093   5.370   7.538 -0.1159  0.2505  0.8352
21428SOL    HW265726   5.237   5.335   7.572  0.1274 -0.2615 -0.6552
21429SOL     OW65727   6.486   6.215  10.695  0.2039 -0.5153  0.7500
21429SOL    HW165728   6.551   6.246  10.633 -0.8883  1.2519  0.4329
21429SOL    HW265729   6.405   6.209  10.645 -0.9940  2.1398  2.1887
21430SOL     OW65730   5.142   5.401   6.954  0.1706  0.8426  0.2906
21430SOL    HW165731   5.189   5.395   7.037 -0.1545 -0.0648  0.4231
21430SOL    HW265732   5.155   5.315   6.913 -0.7648  0.8261  0.0079
21431SOL     OW65733   3.452   6.428  11.140  0.3242 -0.4728  0.3076
21431SOL    HW165734   3.479   6.412  11.050 -0.6116 -1.5797  0.2095
21431SOL    HW265735   3.485   6.352  11.189 -0.2781 -0.5100  0.6622
21432SOL     OW65736   6.017   5.534   8.987 -0.3465 -0.3362  0.4270
21432SOL    HW165737   5.977   5.475   8.924 -1.0200 -0.0443  0.5680
21432SOL    HW265738   6.014   5.620   8.945 -2.6066  0.2390  1.5765
21433SOL     OW65739   7.596   6.387   8.916 -0.1660  0.1620 -0.2186
21433SOL    HW165740   7.589   6.465   8.861 -0.6339  0.9938  0.9745
21433SOL    HW265741   7.547   6.409   8.995  0.6612 -0.9138  0.6317
21434SOL     OW65742   5.271   3.089   9.262  0.0747  0.0313  0.3712
21434SOL    HW165743   5.262   3.179   9.293  0.8768 -0.0807  0.9470
21434SOL    HW265744   5.238   3.036   9.335 -1.4093 -0.1254 -0.3720
21435SOL     OW65745   7.791   4.297   7.746 -0.3074  0.6850  0.2091
21435SOL    HW165746   7.696   4.305   7.761 -0.3310 -0.6530  0.9468
21435SOL    HW265747   7.829   4.366   7.800 -0.8538  1.3136 -0.1849
21436SOL     OW65748   6.932   4.977   7.169 -0.1456  0.4442  0.0622
21436SOL    HW165749   6.991   4.941   7.103  0.4326  0.0785  0.7718
21436SOL    HW265750   6.850   4.993   7.121  0.2162  0.0567 -0.7097
21437SOL     OW65751   7.945   6.443   8.605  0.0429  0.4760 -0.1257
21437SOL    HW165752   7.988   6.417   8.686 -0.0533  1.0032  0.0952
21437SOL    HW265753   7.857   6.405   8.611  1.1453 -2.6189 -1.6065
21438SOL     OW65754   5.902   5.402   6.664 -0.1541  0.8103 -0.0370
21438SOL    HW165755   5.865   5.327   6.618 -1.5776 -0.3739  2.8043
21438SOL    HW265756   5.983   5.422   6.616 -0.7982 -1.1573 -2.1204
21439SOL     OW65757   7.283   6.751   9.954  0.8173 -0.6133 -0.1378
21439SOL    HW165758   7.345   6.725  10.022  2.5979  0.7023 -1.1777
21439SOL    HW265759   7.325   6.825   9.910 -1.4727  0.3168 -0.9461
21440SOL     OW65760   7.287   5.524  10.143 -0.7936 -0.4050  0.1520
21440SOL    HW165761   7.320   5.461  10.079  2.5892  0.8556  0.4310
21440SOL    HW265762   7.337   5.505  10.223 -1.3968  1.1293  0.9376
21441SOL     OW65763   6.133   5.736   6.587  0.2784 -0.0502 -0.0134
21441SOL    HW165764   6.082   5.655   6.588  0.6104 -0.2558  0.0948
21441SOL    HW265765   6.133   5.763   6.496  0.9066 -0.6376 -0.1926
21442SOL     OW65766   0.954   3.794   9.372  0.8182  1.0609  0.2015
21442SOL    HW165767   0.989   3.879   9.346  1.2554  0.8911  0.2228
21442SOL    HW265768   1.029   3.747   9.408  0.3542  1.0640  1.2030
21443SOL     OW65769   6.884   4.277   7.507 -0.3040 -0.3589 -0.2699
21443SOL    HW165770   6.890   4.362   7.552  2.8491 -0.6669  0.1166
21443SOL    HW265771   6.932   4.290   7.425 -1.2123 -1.3362 -0.9702
21444SOL     OW65772   7.636   7.301   8.263 -0.1579  1.1516 -0.1906
21444SOL    HW165773   7.681   7.235   8.317 -0.2825 -0.7420 -2.2234
21444SOL    HW265774   7.545   7.295   8.289 -0.3866 -0.4793 -1.1880
21445SOL     OW65775   5.142   6.069   6.171 -0.1280  0.1097  0.4399
21445SOL    HW165776   5.160   5.975   6.172 -1.1022 -0.0954 -0.1822
21445SOL    HW265777   5.120   6.088   6.080 -0.1768  0.8937  0.6096
21446SOL     OW65778   4.918   5.850  10.348  0.1891 -0.4729 -0.1336
21446SOL    HW165779   4.963   5.850  10.432 -1.1251 -1.5009  0.6080
21446SOL    HW265780   4.827   5.872  10.369 -0.1863 -0.8413 -1.2694
21447SOL     OW65781   1.143   5.389   8.110 -0.5572 -0.0773  0.2344
21447SOL    HW165782   1.152   5.427   8.023 -1.1363  1.5130  0.8314
21447SOL    HW265783   1.111   5.300   8.094 -3.4456  1.0799 -1.1411
21448SOL     OW65784   4.729   5.196   8.213 -1.3329 -0.0590  0.4886
21448SOL    HW165785   4.812   5.164   8.177 -1.8142 -0.0853 -0.6593
21448SOL    HW265786   4.705   5.133   8.280 -0.7573 -0.4260  0.3484
21449SOL     OW65787   6.703   4.995   7.029  0.3737 -0.3804 -0.0529
21449SOL    HW165788   6.683   5.056   6.958  0.6629  2.1445  1.8882
21449SOL    HW265789   6.618   4.959   7.054  0.3308 -1.6830 -1.9473
21450SOL     OW65790   6.038   4.023   9.299 -0.1384 -0.2262 -0.0305
21450SOL    HW165791   6.020   3.943   9.349 -1.2710  1.5030  2.5335
21450SOL    HW265792   5.965   4.030   9.238 -0.5177 -0.6581  0.3657
21451SOL     OW65793   6.286   2.220   6.186  0.1971 -0.3094 -0.6490
21451SOL    HW165794   6.353   2.200   6.121 -0.1745  2.3970 -2.0149
21451SOL    HW265795   6.228   2.283   6.142 -1.2610  0.0411  1.6205
21452SOL     OW65796   5.714   4.216   7.533  0.2682  0.3862 -0.4514
21452SOL    HW165797   5.698   4.126   7.562  1.6785  0.6354  1.2752
21452SOL    HW265798   5.638   4.264   7.563  0.8541  0.2794  1.3217
21453SOL     OW65799   5.958   3.588   7.647 -0.3881  0.9028  0.8229
21453SOL    HW165800   5.921   3.615   7.731 -0.7053  0.9440  0.6699
21453SOL    HW265801   5.884   3.586   7.587 -0.0948  1.2813  0.4428
21454SOL     OW65802   6.407   7.326   9.726  0.2378 -0.0310 -0.3270
21454SOL    HW165803   6.348   7.382   9.777 -0.6976 -0.7180 -0.6473
21454SOL    HW265804   6.361   7.242   9.719  0.2230  0.1182 -2.5158
21455SOL     OW65805   5.175   3.313   8.650 -0.2663  0.1121  0.1061
21455SOL    HW165806   5.129   3.363   8.718 -0.6033 -0.6722  0.4765
21455SOL    HW265807   5.110   3.302   8.581 -0.1490  0.3020 -0.0344
21456SOL     OW65808   7.448   6.772  10.165  0.3599  0.0568  0.4900
21456SOL    HW165809   7.457   6.864  10.143  0.3096  0.1092  0.6822
21456SOL    HW265810   7.538   6.737  10.161  0.3640  0.0881  0.3101
21457SOL     OW65811   6.861   5.782   8.923 -0.3095  0.5042 -0.0287
21457SOL    HW165812   6.797   5.788   8.994 -0.2295  1.1258 -0.0018
21457SOL    HW265813   6.934   5.837   8.952  1.1745 -1.8267  0.8673
21458SOL     OW65814   5.456   4.485   6.265 -0.4145 -0.1107 -0.4594
21458SOL    HW165815   5.437   4.518   6.353 -1.7681 -0.2465 -0.6705
21458SOL    HW265816   5.370   4.465   6.228  0.1389 -0.2260 -1.7536
21459SOL     OW65817   7.149   6.103   9.166 -0.3103 -0.1997 -0.1802
21459SOL    HW165818   7.060   6.090   9.196 -0.7849  0.9838 -0.9749
21459SOL    HW265819   7.159   6.042   9.093  0.0481 -1.3757  0.8184
21460SOL     OW65820   7.992   7.006   6.954  0.1798  0.1999 -0.1280
21460SOL    HW165821   7.965   6.999   7.045  0.8108 -1.7755 -0.0698
21460SOL    HW265822   8.052   7.080   6.952 -0.2713  0.6105  0.9325
21461SOL     OW65823   6.262   3.663   7.004 -0.7337  0.2563  0.1326
21461SOL    HW165824   6.285   3.596   7.068 -0.5365 -0.9455 -1.1488
21461SOL    HW265825   6.297   3.744   7.040  1.0391 -0.6979  0.6523
21462SOL     OW65826   7.804   6.658   8.431 -0.0944 -0.6300 -0.5239
21462SOL    HW165827   7.843   6.579   8.393  0.2962  0.2543 -2.0499
21462SOL    HW265828   7.837   6.730   8.376  0.3408  0.7135  1.3973
21463SOL     OW65829   6.694   5.800  10.442  0.0946 -0.1909  0.7305
21463SOL    HW165830   6.648   5.872  10.398  1.2281  0.4878  0.6150
21463SOL    HW265831   6.625   5.752  10.488 -0.7674  0.5967  0.2950
21464SOL     OW65832   5.979   3.399   8.658 -0.3048 -0.1526 -0.9812
21464SOL    HW165833   5.929   3.318   8.673  0.0324 -0.2759 -0.4832
21464SOL    HW265834   5.925   3.449   8.597 -1.2418 -0.0993 -0.1361
21465SOL     OW65835   6.416   5.079   6.756  0.0353 -0.1327 -0.2874
21465SOL    HW165836   6.480   5.009   6.744  2.0262  1.5949 -0.2619
21465SOL    HW265837   6.445   5.125   6.835 -1.2640  0.6818 -0.2523
21466SOL     OW65838   4.686   5.812   7.563 -0.1632 -0.3928  0.3637
21466SOL    HW165839   4.606   5.864   7.566  0.0344 -0.1056  1.0754
21466SOL    HW265840   4.678   5.758   7.484 -0.5215  0.4905 -0.2221
21467SOL     OW65841   4.849   5.941   8.458 -0.3514 -0.2003  0.0773
21467SOL    HW165842   4.760   5.968   8.436  0.0305 -0.4460 -1.9302
21467SOL    HW265843   4.882   5.898   8.379  1.7169  0.3241  0.5856
21468SOL     OW65844   6.109   3.342   7.031  0.2555 -0.3349  0.3411
21468SOL    HW165845   6.103   3.344   6.936 -3.3468 -0.9166  0.4152
21468SOL    HW265846   6.050   3.412   7.061  1.3535 -0.1151  2.1499
21469SOL     OW65847   6.412   6.852  10.045 -0.3259  0.4125 -0.0191
21469SOL    HW165848   6.455   6.849   9.960 -1.0134  1.4596 -0.4153
21469SOL    HW265849   6.453   6.925  10.091  1.3171 -1.2134  1.3011
21470SOL     OW65850   6.867   5.880   8.206  0.4070  0.0004  0.1991
21470SOL    HW165851   6.943   5.852   8.257  0.0306 -1.5148 -0.0263
21470SOL    HW265852   6.905   5.923   8.129  1.2174 -2.8785 -1.1795
21471SOL     OW65853   5.063   3.193   8.363 -0.0677 -0.6046 -0.1735
21471SOL    HW165854   5.021   3.156   8.285 -0.3253  2.0052 -1.4004
21471SOL    HW265855   4.992   3.240   8.407  0.5999 -0.0062  0.2771
21472SOL     OW65856   7.498   5.584   9.261  0.5243 -0.3413  0.4104
21472SOL    HW165857   7.559   5.606   9.191  0.5649 -1.3844  0.0987
21472SOL    HW265858   7.552   5.544   9.329  0.2756 -0.7161  0.3914
21473SOL     OW65859   5.371   5.140   6.407  0.1711 -0.4300 -0.1706
21473SOL    HW165860   5.318   5.065   6.380 -0.6048 -0.4633  1.2910
21473SOL    HW265861   5.372   5.198   6.331 -1.2204 -0.8544 -0.5457
21474SOL     OW65862   7.078   5.980  10.291  0.0324 -0.6873 -0.1373
21474SOL    HW165863   7.032   6.062  10.312 -0.8021 -1.1857  0.0516
21474SOL    HW265864   7.032   5.914  10.343 -0.1677 -1.4882 -1.2904
21475SOL     OW65865   5.734   4.778   8.577 -0.2418  0.5795  0.2100
21475SOL    HW165866   5.642   4.764   8.600 -0.4200 -0.0314 -0.8353
21475SOL    HW265867   5.733   4.848   8.512 -0.2388 -1.1801 -1.7597
21476SOL     OW65868   6.962   4.188   7.932  0.3244  0.2086  0.0946
21476SOL    HW165869   7.025   4.256   7.907  2.2930 -2.4681 -3.0838
21476SOL    HW265870   6.881   4.213   7.887  1.1875  0.1981 -1.5248
21477SOL     OW65871   7.332   4.775   8.532  0.5186  0.1016  0.1870
21477SOL    HW165872   7.380   4.852   8.503  2.1511 -1.0049 -0.1659
21477SOL    HW265873   7.362   4.761   8.622 -1.0152  0.7923  0.8498
21478SOL     OW65874   5.874   5.012   9.468 -0.1234 -0.4752  0.0621
21478SOL    HW165875   5.950   4.984   9.417 -0.4672 -1.7906  0.2316
21478SOL    HW265876   5.864   5.105   9.446  1.3371 -0.3487 -0.1857
21479SOL     OW65877   0.041   5.942   7.311 -0.1305 -0.2851 -0.3760
21479SOL    HW165878   0.005   5.966   7.225  0.2735  1.1213 -0.1813
21479SOL    HW265879   0.136   5.942   7.298  0.4418  5.4027  1.1793
21480SOL     OW65880   6.002   3.872   8.921 -0.5599  0.2778 -0.4061
21480SOL    HW165881   5.941   3.831   8.983  0.1576 -0.2696 -0.0426
21480SOL    HW265882   5.954   3.947   8.886 -1.9425 -0.8965 -1.1303
21481SOL     OW65883   7.399   6.630   7.003 -0.7737 -0.3740  0.4454
21481SOL    HW165884   7.327   6.640   6.941 -0.4952  3.8567  0.5326
21481SOL    HW265885   7.358   6.638   7.089 -0.3420  1.1782  0.5225
21482SOL     OW65886   6.389   5.046   7.489  0.2708 -0.2864  0.1604
21482SOL    HW165887   6.438   4.996   7.555 -1.0987 -2.1091 -0.1209
21482SOL    HW265888   6.298   5.022   7.504 -0.1443 -0.2348 -1.9649
21483SOL     OW65889   5.689   4.312   6.980 -0.5350 -0.0227 -0.4675
21483SOL    HW165890   5.636   4.239   7.013 -0.3906  0.1182  0.0781
21483SOL    HW265891   5.767   4.270   6.943 -1.5389 -0.3373 -2.3802
21484SOL     OW65892   6.298   6.636   8.168  0.1409 -0.0195 -0.2466
21484SOL    HW165893   6.315   6.544   8.149  0.4943 -0.1368  0.5666
21484SOL    HW265894   6.321   6.645   8.261  0.0679  0.8760 -0.3110
21485SOL     OW65895   6.909   5.914   7.213  0.4354 -0.3355 -0.2224
21485SOL    HW165896   6.825   5.883   7.178 -0.3695  0.6775  0.7193
21485SOL    HW265897   6.941   5.841   7.265 -2.1983  0.7121  3.2663
21486SOL     OW65898   6.622   3.728   8.143  0.2763 -0.4543 -0.2111
21486SOL    HW165899   6.582   3.724   8.056 -0.9224  0.1638  0.2925
21486SOL    HW265900   6.549   3.746   8.203  1.1428 -0.4260  0.8787
21487SOL     OW65901   6.287   3.988   9.956 -0.4545 -0.4756 -0.3765
21487SOL    HW165902   6.304   3.893   9.951 -1.0889 -0.5671 -1.0499
21487SOL    HW265903   6.338   4.025   9.884  0.8862 -0.1236  0.7307
21488SOL     OW65904   5.601   5.449   8.955  0.2495 -0.7072  0.2667
21488SOL    HW165905   5.543   5.376   8.932  0.9013 -1.2988  0.4433
21488SOL    HW265906   5.665   5.410   9.015  0.5807  0.0267  0.3952
21489SOL     OW65907   7.137   1.829   8.717  0.1786 -0.1872  0.0410
21489SOL    HW165908   7.070   1.763   8.701 -1.0368  0.5645  1.8112
21489SOL    HW265909   7.091   1.913   8.711  0.5779  0.3011  2.6891
21490SOL     OW65910   0.591   5.873   8.411 -0.2255  0.1130 -0.0228
21490SOL    HW165911   0.503   5.870   8.373 -0.6220  0.3455  0.8674
21490SOL    HW265912   0.637   5.940   8.360 -0.6782  0.2556 -0.2443
21491SOL     OW65913   5.914   3.120   8.773 -0.4733  0.7527 -0.2305
21491SOL    HW165914   5.850   3.172   8.822  1.3752  1.8388  1.1503
21491SOL    HW265915   5.905   3.032   8.808 -1.2166  0.8833 -0.0701
21492SOL     OW65916   6.643   6.211   8.329  0.9178 -0.2409 -0.2045
21492SOL    HW165917   6.563   6.256   8.356  1.3337  0.0360  0.5990
21492SOL    HW265918   6.612   6.128   8.293  0.2834 -0.3421  0.5290
21493SOL     OW65919   7.083   5.377   7.693 -0.1698 -0.9349 -0.4312
21493SOL    HW165920   7.050   5.441   7.630  0.5169 -2.2430 -2.1806
21493SOL    HW265921   7.009   5.361   7.751 -0.3007  1.5810  0.2413
21494SOL     OW65922   6.256   4.225   6.731 -0.0985  0.7508 -0.7926
21494SOL    HW165923   6.186   4.279   6.695  1.1830  1.4474 -2.3334
21494SOL    HW265924   6.237   4.136   6.701 -0.9649  0.7063 -0.1586
21495SOL     OW65925   6.071   4.459   8.303 -0.1176 -0.4171  0.3725
21495SOL    HW165926   6.099   4.461   8.394 -1.9890  0.4638  0.9747
21495SOL    HW265927   6.130   4.520   8.258  1.0534 -1.1400  0.9003
21496SOL     OW65928   6.158   2.663   5.973  0.1807  0.5624  0.1695
21496SOL    HW165929   6.209   2.585   5.992 -1.9468 -0.8952  0.3086
21496SOL    HW265930   6.098   2.671   6.047 -0.1661  1.8585 -0.2300
21497SOL     OW65931   6.332   3.395   7.643  0.2389  0.0671  0.6062
21497SOL    HW165932   6.310   3.362   7.556 -0.6502  2.0112  0.0535
21497SOL    HW265933   6.402   3.336   7.673  2.1186  0.5921 -2.2886
21498SOL     OW65934   6.920   4.628   9.054  0.4895 -0.4749  0.3906
21498SOL    HW165935   6.868   4.549   9.070 -0.5028 -0.2488 -1.3897
21498SOL    HW265936   7.001   4.596   9.016  0.0076 -0.6630 -0.5120
21499SOL     OW65937   7.626   6.755   8.592 -0.3991 -0.4969 -0.0300
21499SOL    HW165938   7.666   6.836   8.625  0.6752 -0.6061 -1.0134
21499SOL    HW265939   7.689   6.720   8.530 -1.2275 -1.6655 -0.2572
21500SOL     OW65940   7.657   3.967   7.885 -0.0527 -0.5856 -0.0039
21500SOL    HW165941   7.722   3.936   7.821  0.2168 -0.9280  0.4264
21500SOL    HW265942   7.582   3.910   7.872  0.8536 -2.2686  1.5678
21501SOL     OW65943   5.535   5.693   8.845  0.3340 -0.2522  0.8452
21501SOL    HW165944   5.529   5.619   8.906 -2.3728 -0.9940 -0.2050
21501SOL    HW265945   5.551   5.769   8.902  1.0150 -1.3162  2.1368
21502SOL     OW65946   6.672   2.995   8.064 -0.0039 -0.1792 -0.0455
21502SOL    HW165947   6.615   3.002   7.987 -0.2238 -1.4492 -0.0264
21502SOL    HW265948   6.720   2.913   8.050  0.3026 -0.1785  0.9405
21503SOL     OW65949   4.356   6.148  10.059 -0.6806 -0.5112  0.6855
21503SOL    HW165950   4.406   6.067  10.069 -0.8646 -0.8465 -0.9004
21503SOL    HW265951   4.297   6.149  10.135 -1.3416 -2.3524  0.2428
21504SOL     OW65952   5.205   4.973   8.268 -0.1551 -0.1897  0.0612
21504SOL    HW165953   5.199   4.882   8.238  0.3138 -0.4752  0.8104
21504SOL    HW265954   5.158   4.975   8.351 -0.2716  0.2862 -0.0125
21505SOL     OW65955   6.958   3.668   8.176 -0.3208 -0.0081  0.2201
21505SOL    HW165956   6.967   3.646   8.083 -0.3249 -0.0024  0.2188
21505SOL    HW265957   7.036   3.632   8.217 -0.9603 -1.2002  0.4323
21506SOL     OW65958   0.188   3.238   9.453  0.4580 -0.1474 -0.2404
21506SOL    HW165959   0.262   3.246   9.513  0.9840 -1.6974 -0.6457
21506SOL    HW265960   0.221   3.274   9.370  0.6112 -0.4390 -0.3056
21507SOL     OW65961   0.757   4.888   7.770  0.3901 -0.5591  0.5944
21507SOL    HW165962   0.736   4.928   7.854 -2.0621 -0.7485  0.1456
21507SOL    HW265963   0.787   4.960   7.716  0.6343 -0.1928  1.2022
21508SOL     OW65964   6.245   4.645   7.596 -0.3103 -0.3985 -0.5664
21508SOL    HW165965   6.250   4.604   7.510 -0.7461 -1.9348  0.1106
21508SOL    HW265966   6.337   4.652   7.624 -0.2216 -0.8084 -0.7483
21509SOL     OW65967   6.446   4.828   6.976  0.3077  0.4201 -0.1083
21509SOL    HW165968   6.373   4.800   6.921  0.9031 -0.4917 -0.4577
21509SOL    HW265969   6.519   4.841   6.915  1.1455 -1.1691  0.4813
21510SOL     OW65970   6.232   5.027   6.541  0.4834  0.0474 -0.0916
21510SOL    HW165971   6.262   5.063   6.624  0.6010  0.4295 -0.2973
21510SOL    HW265972   6.158   4.971   6.564  1.0715 -0.5433  0.3665
21511SOL     OW65973   6.534   5.174   9.711 -0.5939  0.0363  0.0001
21511SOL    HW165974   6.462   5.227   9.745 -0.3293  0.7737 -0.5464
21511SOL    HW265975   6.611   5.231   9.719 -0.8081  1.0596 -3.5659
21512SOL     OW65976   7.583   4.733   9.412  0.0425  0.0828 -0.9534
21512SOL    HW165977   7.569   4.659   9.354  2.3551 -1.0780 -0.1625
21512SOL    HW265978   7.668   4.769   9.386  0.7013  0.1030  1.0260
21513SOL     OW65979   6.237   4.848   7.203  0.3868  0.4192 -0.2759
21513SOL    HW165980   6.331   4.849   7.184  0.3023  0.9781 -0.6684
21513SOL    HW265981   6.197   4.897   7.131 -0.2044  0.2125 -0.0950
21514SOL     OW65982   6.954   6.319   8.723  0.2911  0.4020  0.5168
21514SOL    HW165983   7.012   6.248   8.696 -1.4797 -0.4707 -1.2486
21514SOL    HW265984   6.894   6.330   8.649  0.6246  3.9092  0.6416
21515SOL     OW65985   6.851   4.670  10.128  0.2621 -0.1626 -0.5061
21515SOL    HW165986   6.918   4.729  10.163 -0.7420  1.0366 -0.5498
21515SOL    HW265987   6.889   4.583  10.138  1.5486  0.4351  0.0893
21516SOL     OW65988   6.263   6.009   8.944 -0.2491  0.0068  0.1039
21516SOL    HW165989   6.278   6.042   8.855 -2.1258  0.2765 -0.1557
21516SOL    HW265990   6.276   6.085   9.001  0.1279  0.0307 -0.0102
21517SOL     OW65991   6.634   6.439   7.979  0.0311  0.1606 -0.9366
21517SOL    HW165992   6.595   6.472   7.898 -1.8264  0.0081 -0.1527
21517SOL    HW265993   6.611   6.506   8.044  2.8709  1.0990 -0.7870
21518SOL     OW65994   5.872   4.888   8.875 -0.2379 -0.2860 -0.2371
21518SOL    HW165995   5.818   4.822   8.832 -0.5427  1.1723 -2.2182
21518SOL    HW265996   5.961   4.868   8.847  0.0831 -1.5275  1.4905
21519SOL     OW65997   6.083   2.863   9.369 -0.0482 -0.0264  0.3071
21519SOL    HW165998   6.048   2.776   9.353 -1.0892 -0.0506  2.3729
21519SOL    HW265999   6.114   2.893   9.283 -0.3062 -2.1171 -0.5705
21520SOL     OW66000   5.178   5.213   9.963 -0.8546 -0.7266  0.0968
21520SOL    HW166001   5.135   5.285   9.916 -2.3515 -1.1156  0.8293
21520SOL    HW266002   5.188   5.245  10.052 -1.0674 -1.2390  0.3073
21521SOL     OW66003   6.652   4.137   7.534  0.0736  0.2665 -0.4641
21521SOL    HW166004   6.638   4.105   7.446  0.3129  1.2295 -0.8665
21521SOL    HW266005   6.742   4.171   7.533  1.5360 -3.1133  1.2161
21522SOL     OW66006   7.502   3.812   8.101  0.2781 -0.3662  0.0301
21522SOL    HW166007   7.456   3.732   8.075  1.4222 -1.7590  2.0389
21522SOL    HW266008   7.590   3.803   8.065 -0.5633  1.8319 -2.9415
21523SOL     OW66009   5.945   5.412   8.112  0.3125  0.0030  0.1072
21523SOL    HW166010   5.978   5.448   8.030 -1.5158  0.2844 -0.5444
21523SOL    HW266011   6.024   5.384   8.159  1.4406  0.4247 -1.4505
21524SOL     OW66012   6.917   5.254   8.735  0.4680  0.3709  0.1444
21524SOL    HW166013   6.972   5.176   8.730 -0.6031 -0.3919 -0.1840
21524SOL    HW266014   6.836   5.229   8.689 -0.1218  1.4703  0.5527
21525SOL     OW66015   7.280   3.668   8.834 -0.4550  0.6342  0.7872
21525SOL    HW166016   7.345   3.670   8.903 -0.0480 -0.7572  0.4586
21525SOL    HW266017   7.196   3.671   8.880 -0.2017 -0.9511  1.3966
21526SOL     OW66018   7.094   5.368   8.499 -0.3643 -0.1115 -0.1233
21526SOL    HW166019   7.031   5.422   8.452 -1.2648 -1.1516 -0.1699
21526SOL    HW266020   7.049   5.342   8.579  0.0510 -0.7337 -0.0790
21527SOL     OW66021   7.230   5.112   9.340  0.0270  0.5020 -0.1560
21527SOL    HW166022   7.265   5.200   9.324  2.1748 -0.3680 -0.4482
21527SOL    HW266023   7.303   5.053   9.324 -0.4624 -1.1632  2.9769
21528SOL     OW66024   7.142   3.120   7.563  0.4569 -0.1411 -0.3947
21528SOL    HW166025   7.222   3.093   7.608  0.0398 -1.0365 -0.1431
21528SOL    HW266026   7.075   3.118   7.632  0.2357  0.7008 -0.5766
21529SOL     OW66027   5.669   4.028   8.754  0.2053 -0.3015 -0.3225
21529SOL    HW166028   5.757   3.999   8.727  0.9340  2.3641 -1.1561
21529SOL    HW266029   5.686   4.100   8.815 -1.4137  0.1460 -0.3749
21530SOL     OW66030   5.155   5.091   9.052  0.0458  1.0189 -0.4400
21530SOL    HW166031   5.086   5.028   9.030 -0.2111  1.5075 -1.0698
21530SOL    HW266032   5.107   5.166   9.087  0.4755 -0.1314  2.9363
21531SOL     OW66033   5.365   3.416   9.578  0.1303 -0.0567 -0.2618
21531SOL    HW166034   5.375   3.362   9.499 -0.3009 -0.0365 -0.3293
21531SOL    HW266035   5.330   3.355   9.644  0.5604 -0.0922 -0.0627
21532SOL     OW66036   5.097   2.024   9.791  0.3748 -0.2395  0.3377
21532SOL    HW166037   5.037   2.018   9.717  0.8578  0.8588 -0.1649
21532SOL    HW266038   5.053   2.083   9.853  1.7714  2.3019 -0.9389
21533SOL     OW66039   6.137   3.710   8.739 -0.8862  0.3321  0.0989
21533SOL    HW166040   6.112   3.744   8.653  1.5442  1.9685 -0.0444
21533SOL    HW266041   6.096   3.770   8.802  1.6870  2.5159 -0.1194
21534SOL     OW66042   6.650   4.985  10.006  0.2154  0.0813  0.4443
21534SOL    HW166043   6.556   4.985   9.986  0.2666 -0.4391  0.2145
21534SOL    HW266044   6.660   4.922  10.078  0.5837 -0.9039 -0.4511
21535SOL     OW66045   0.014   4.455   8.285  0.2232 -1.1765  0.1869
21535SOL    HW166046   0.052   4.389   8.342  0.3232 -0.3456  1.1035
21535SOL    HW266047   0.084   4.520   8.273 -0.8861  0.4796  2.0506
21536SOL     OW66048   6.432   3.431   6.591 -0.3530 -0.0080 -0.2629
21536SOL    HW166049   6.425   3.502   6.654  0.5045  0.8699 -1.1116
21536SOL    HW266050   6.393   3.465   6.511 -0.5091 -0.7279 -0.5045
21537SOL     OW66051   5.346   4.938   8.865 -0.0643 -0.2813 -0.0690
21537SOL    HW166052   5.413   5.004   8.846  0.1000 -0.0122  1.3228
21537SOL    HW266053   5.289   4.980   8.930 -0.0635 -1.4404  0.6957
21538SOL     OW66054   6.431   4.240   7.658  0.7086 -0.0770  0.7656
21538SOL    HW166055   6.352   4.196   7.628 -0.0354 -0.5887  3.2632
21538SOL    HW266056   6.502   4.185   7.628 -0.0232 -1.0266  0.7324
21539SOL     OW66057   5.656   5.715   8.239 -0.2798  0.0050 -0.1822
21539SOL    HW166058   5.569   5.755   8.243  0.2109  1.0226  0.5321
21539SOL    HW266059   5.687   5.714   8.329  0.9568  0.7970 -0.5830
21540SOL     OW66060   5.765   3.437   7.283 -0.1555  0.2816 -0.2168
21540SOL    HW166061   5.694   3.422   7.220 -1.4870 -0.9000  1.4860
21540SOL    HW266062   5.721   3.450   7.367  1.5929  1.2414  0.5985
21541SOL     OW66063   7.432   4.922   9.263  0.2580 -0.0306 -0.2069
21541SOL    HW166064   7.468   4.859   9.326 -2.3044 -1.6062 -0.1744
21541SOL    HW266065   7.449   4.882   9.177 -1.3745 -0.8536 -0.1856
21542SOL     OW66066   5.252   4.094   9.641  0.3752  0.6281 -0.0943
21542SOL    HW166067   5.222   4.176   9.603  0.1802 -0.0029 -1.3460
21542SOL    HW266068   5.195   4.081   9.717 -0.4851  0.9868 -0.6561
21543SOL     OW66069   5.055   5.190  10.262 -0.1715  0.6696  0.1002
21543SOL    HW166070   5.000   5.262  10.293  0.2472  0.5387  1.1949
21543SOL    HW266071   4.993   5.123  10.232 -0.5603  1.5347 -1.1035
21544SOL     OW66072   0.321   5.754   8.380  0.4592 -0.3234 -0.2899
21544SOL    HW166073   0.306   5.840   8.341  1.0903 -0.2071 -0.2847
21544SOL    HW266074   0.325   5.770   8.474  0.8418 -0.3165 -0.3055
21545SOL     OW66075   5.696   4.006   8.124 -0.1387  0.2288  0.4646
21545SOL    HW166076   5.771   4.064   8.138 -0.3895  0.2467  1.9361
21545SOL    HW266077   5.663   3.988   8.213 -1.0704 -0.8351 -0.0746
21546SOL     OW66078   6.613   5.615   7.820  0.4123 -0.4246  0.0929
21546SOL    HW166079   6.699   5.613   7.860  1.3012  0.5159 -1.6630
21546SOL    HW266080   6.552   5.621   7.894  1.8233 -1.2374  1.3600
21547SOL     OW66081   7.038   6.549  10.253 -0.4344 -0.0943  1.0152
21547SOL    HW166082   6.971   6.617  10.243  0.3621  0.6125  0.2478
21547SOL    HW266083   7.117   6.598  10.279 -0.6499 -1.1002  3.8719
21548SOL     OW66084   7.149   6.325   7.840 -0.1196 -0.0849 -0.2173
21548SOL    HW166085   7.154   6.276   7.923 -0.0841 -0.2324 -0.3062
21548SOL    HW266086   7.132   6.415   7.867 -2.1655 -0.4489 -0.1034
21549SOL     OW66087   4.750   4.408   8.962  0.2645 -0.6141  0.2014
21549SOL    HW166088   4.725   4.342   8.898  0.4797 -1.7175  1.2241
21549SOL    HW266089   4.699   4.485   8.938  0.1726 -1.0708 -1.1466
21550SOL     OW66090   6.918   3.381   7.265  0.3413 -0.1597  0.3681
21550SOL    HW166091   6.866   3.315   7.310  1.7193 -1.1390  0.5875
21550SOL    HW266092   6.901   3.462   7.314  0.0199 -0.7230  1.2213
21551SOL     OW66093   5.097   6.054  10.138  0.3951  0.8446 -0.3569
21551SOL    HW166094   5.167   5.990  10.131 -0.2205  0.1044  0.0573
21551SOL    HW266095   5.099   6.082  10.230 -0.0226  0.6107 -0.2728
21552SOL     OW66096   6.762   5.863  10.118 -0.2003 -0.0356 -0.0761
21552SOL    HW166097   6.688   5.921  10.137  0.6197  0.4537  1.8420
21552SOL    HW266098   6.839   5.911  10.148  1.1683  0.1088 -3.3718
21553SOL     OW66099   6.144   4.999   7.587 -0.2128  0.2804  0.2053
21553SOL    HW166100   6.110   5.088   7.575 -0.8526  0.1103  0.6856
21553SOL    HW266101   6.095   4.946   7.524  0.5322  0.3457 -0.4389
21554SOL     OW66102   4.483   4.899  10.029 -0.0535  0.0067 -0.1191
21554SOL    HW166103   4.475   4.834   9.959 -0.1126  0.0930 -0.1925
21554SOL    HW266104   4.397   4.942  10.033 -0.0636 -0.0260  0.0350
21555SOL     OW66105   7.802   5.354   8.637 -0.2321 -0.0275 -0.1064
21555SOL    HW166106   7.725   5.404   8.609 -0.6432 -0.1986  0.6911
21555SOL    HW266107   7.875   5.415   8.625 -0.3414 -0.1960 -1.8075
21556SOL     OW66108   7.051   3.998   8.846  0.0309 -0.3370 -0.4050
21556SOL    HW166109   7.098   3.968   8.924 -0.2988 -3.1488 -1.1818
21556SOL    HW266110   6.981   3.934   8.834 -2.1206  1.9832 -1.0849
21557SOL     OW66111   5.451   4.628   8.447 -0.3414  0.2996  0.0640
21557SOL    HW166112   5.429   4.702   8.504  0.1739  1.1165 -0.7720
21557SOL    HW266113   5.370   4.608   8.401 -0.2296  1.0213 -0.4558
21558SOL     OW66114   5.222   4.730   8.577 -0.3111 -0.5815  0.5925
21558SOL    HW166115   5.157   4.738   8.506  0.0534 -1.9180  0.0740
21558SOL    HW266116   5.192   4.655   8.628 -0.1944 -0.0406  1.4732
21559SOL     OW66117   5.602   3.971   9.856 -0.4314  0.0631  0.0371
21559SOL    HW166118   5.586   4.065   9.849 -1.2670 -0.0983 -0.3829
21559SOL    HW266119   5.657   3.961   9.933  0.2150  0.9557 -0.2936
21560SOL     OW66120   7.042   3.731   9.232  0.0155  0.0499 -0.2496
21560SOL    HW166121   7.059   3.749   9.324  2.3340 -1.0390 -0.4074
21560SOL    HW266122   6.985   3.654   9.233  2.7844 -2.1472  0.3694
21561SOL     OW66123   6.432   5.809   8.999  0.5996  0.2626 -0.0720
21561SOL    HW166124   6.366   5.878   9.000  1.0491  0.6983 -0.0801
21561SOL    HW266125   6.394   5.741   8.944 -0.2695  0.0729  0.7340
21562SOL     OW66126   4.794   6.092   9.818 -0.2250 -0.8123 -0.2129
21562SOL    HW166127   4.834   6.064   9.900  0.3336  1.1857  0.2576
21562SOL    HW266128   4.864   6.086   9.753  0.1752  0.3275  0.0904
21563SOL     OW66129   6.270   5.221   9.063 -0.1613 -0.8621  0.4809
21563SOL    HW166130   6.307   5.154   9.121 -0.3961 -0.5848  0.9556
21563SOL    HW266131   6.312   5.303   9.091 -1.5981 -0.4210  1.4900
21564SOL     OW66132   6.824   4.878   9.170 -0.2164  1.1656  0.1379
21564SOL    HW166133   6.856   4.799   9.126  1.2399  1.5245  0.4871
21564SOL    HW266134   6.789   4.847   9.253 -0.8001  0.7495 -0.2595
21565SOL     OW66135   5.351   5.833   7.897 -0.3607 -0.5626 -0.6679
21565SOL    HW166136   5.382   5.875   7.978 -0.1722 -0.5045 -0.7693
21565SOL    HW266137   5.278   5.778   7.925 -0.5149 -0.2820 -0.5093
21566SOL     OW66138   5.272   4.101   7.243 -0.1498 -0.0916  0.0509
21566SOL    HW166139   5.316   4.020   7.271  0.1936 -0.7404 -2.1345
21566SOL    HW266140   5.303   4.168   7.304 -0.1506 -1.5228  1.6885
21567SOL     OW66141   6.850   5.989  10.676  0.5225  0.0286 -0.3012
21567SOL    HW166142   6.861   6.077  10.643 -1.8368 -0.6152 -3.1628
21567SOL    HW266143   6.805   5.941  10.606 -1.0950 -2.6315  2.2797
21568SOL     OW66144   5.896   5.312   8.814 -0.2896 -0.5236 -0.1664
21568SOL    HW166145   5.821   5.253   8.823 -0.5020 -0.4318 -1.2166
21568SOL    HW266146   5.969   5.263   8.851 -0.7584 -0.8287  0.3789
21569SOL     OW66147   5.956   6.084  11.268 -0.2492 -0.6244  0.2348
21569SOL    HW166148   5.945   6.161  11.324  0.1093 -0.5675  0.2262
21569SOL    HW266149   5.973   6.120  11.181  1.8550 -0.6765  0.5693
21570SOL     OW66150   7.550   6.563   7.903 -0.1787 -0.5080 -0.0578
21570SOL    HW166151   7.492   6.628   7.944  1.2920 -0.0080  1.3300
21570SOL    HW266152   7.526   6.481   7.945  0.3411 -0.2404  0.7891
21571SOL     OW66153   4.875   6.627   9.124 -0.3289 -0.0696 -0.6561
21571SOL    HW166154   4.865   6.536   9.099 -0.9788 -0.8181  2.0065
21571SOL    HW266155   4.955   6.656   9.080 -0.9769 -1.3821 -2.8358
21572SOL     OW66156   5.709   4.520   8.431  0.4502  0.5033 -0.3498
21572SOL    HW166157   5.737   4.609   8.451  1.0117  0.0435  1.0345
21572SOL    HW266158   5.613   4.523   8.438  0.5640  0.5339  1.9194
21573SOL     OW66159   7.660   3.537   9.584 -0.6190  0.0334 -0.2377
21573SOL    HW166160   7.751   3.506   9.582 -1.1349 -1.7263  1.0524
21573SOL    HW266161   7.649   3.572   9.673 -1.1859  0.2752 -0.3987
21574SOL     OW66162   5.073   5.659   7.016 -0.0873 -0.4939  0.4516
21574SOL    HW166163   5.097   5.581   6.966  1.8525 -0.5828  1.4134
21574SOL    HW266164   4.987   5.684   6.983 -0.8037 -3.0785  0.1586
21575SOL     OW66165   4.475   6.062  10.421  0.1949 -0.2661 -0.0776
21575SOL    HW166166   4.528   6.140  10.407 -0.0507 -0.0946 -0.0425
21575SOL    HW266167   4.407   6.089  10.483 -0.1382 -0.3963 -0.3822
21576SOL     OW66168   5.579   5.049   7.926 -0.1259 -0.0916  0.1656
21576SOL    HW166169   5.612   4.959   7.927  1.1047  0.3326 -0.2240
21576SOL    HW266170   5.653   5.102   7.955 -0.8205  0.8086  0.3356
21577SOL     OW66171   6.000   5.045   8.276 -0.8899  0.2640 -0.0083
21577SOL    HW166172   5.960   4.959   8.271 -0.9947  0.2749  0.6152
21577SOL    HW266173   6.004   5.065   8.369 -1.3064  1.1368 -0.1635
21578SOL     OW66174   5.719   6.404   7.112  0.0363 -0.3248  0.0425
21578SOL    HW166175   5.813   6.420   7.098 -0.1906  0.5696 -0.5171
21578SOL    HW266176   5.676   6.482   7.078 -0.8036  0.2317  2.2377
21579SOL     OW66177   7.072   3.783   9.509  0.8837  1.2035  0.5569
21579SOL    HW166178   7.163   3.780   9.482  1.2515  2.8702  1.4160
21579SOL    HW266179   7.068   3.730   9.589  0.8100  0.1324 -0.1394
21580SOL     OW66180   7.456   3.800   7.746 -0.1499 -0.3021 -0.7358
21580SOL    HW166181   7.379   3.848   7.717 -0.2462  0.1251  0.1910
21580SOL    HW266182   7.429   3.709   7.750 -0.9179 -0.0332  0.5593
21581SOL     OW66183   5.603   3.369   8.181 -0.4255  0.1335  0.2177
21581SOL    HW166184   5.656   3.289   8.179 -1.3110 -0.4458 -0.1576
21581SOL    HW266185   5.643   3.425   8.116  2.7066  1.6535  3.1146
21582SOL     OW66186   7.822   4.928   8.536 -0.1172 -0.3149  0.5008
21582SOL    HW166187   7.901   4.889   8.499  0.6267  0.9070  0.7328
21582SOL    HW266188   7.854   4.985   8.607 -0.7958  2.8492 -1.5113
21583SOL     OW66189   6.940   5.027   7.632  0.1792 -0.1088  0.6372
21583SOL    HW166190   7.018   5.039   7.686  1.0910 -3.0751  0.1889
21583SOL    HW266191   6.967   5.055   7.545  0.2464  0.2971  0.7875
21584SOL     OW66192   6.225   5.842   7.864 -0.3972  0.7462  0.8027
21584SOL    HW166193   6.174   5.917   7.894  2.1962  3.5308 -1.1482
21584SOL    HW266194   6.214   5.841   7.769  1.5488  0.2562  0.5226
21585SOL     OW66195   7.452   6.095   7.781 -0.0400 -0.3992  0.1445
21585SOL    HW166196   7.523   6.122   7.724 -0.7093 -1.5564 -1.3145
21585SOL    HW266197   7.494   6.075   7.865  0.7406  2.9645  0.6765
21586SOL     OW66198   6.247   4.101   7.514  0.2040 -0.2430 -0.0802
21586SOL    HW166199   6.263   4.124   7.423 -0.0254 -0.1011 -0.0852
21586SOL    HW266200   6.163   4.141   7.535  0.9667  1.0621  0.6479
21587SOL     OW66201   1.113   5.939   8.483 -0.0353  0.2492 -0.4841
21587SOL    HW166202   1.189   5.995   8.472 -0.6025  1.0233 -0.5440
21587SOL    HW266203   1.042   5.999   8.509 -0.3817 -0.5838  0.6004
21588SOL     OW66204   0.100   6.249   7.877  0.7014 -0.2708  0.3116
21588SOL    HW166205   0.125   6.278   7.965 -0.8449 -0.1602  0.7440
21588SOL    HW266206   0.031   6.310   7.851  1.9901  0.5054 -1.5320
21589SOL     OW66207   5.811   5.185   8.039  0.4325 -0.1296  0.4976
21589SOL    HW166208   5.832   5.269   8.078 -0.0743 -0.5822  1.7808
21589SOL    HW266209   5.877   5.174   7.969  0.6663  1.1817  0.4969
21590SOL     OW66210   7.662   6.984   7.131 -0.5546  0.5983  0.4622
21590SOL    HW166211   7.687   6.955   7.043 -0.4607  0.1703  0.6286
21590SOL    HW266212   7.566   6.990   7.127 -0.6381 -0.3971  0.6176
21591SOL     OW66213   7.887   3.880   8.958  0.3442  0.1387 -0.5650
21591SOL    HW166214   7.906   3.789   8.935  0.8112  0.2433 -0.6032
21591SOL    HW266215   7.892   3.927   8.875 -4.1116 -0.4155 -1.3976
21592SOL     OW66216   7.038   7.868   6.580  0.2703 -0.0846  0.1901
21592SOL    HW166217   7.017   7.778   6.554 -1.4464  0.7643 -1.6005
21592SOL    HW266218   6.970   7.892   6.643 -0.3763  0.5220 -0.7081
21593SOL     OW66219   4.434   5.343   8.760  0.1376  0.0681 -0.3826
21593SOL    HW166220   4.452   5.249   8.751 -0.5432 -0.5008  2.8674
21593SOL    HW266221   4.519   5.385   8.744  0.6432 -1.1580 -1.0447
21594SOL     OW66222   5.921   3.090   8.022 -0.1296 -0.8242  0.2916
21594SOL    HW166223   5.961   3.177   8.023 -2.8847  0.6147 -1.5900
21594SOL    HW266224   5.848   3.096   8.084 -1.1564 -1.3204 -0.8196
21595SOL     OW66225   5.080   3.593   8.547 -0.2269  0.1493  0.4625
21595SOL    HW166226   5.016   3.663   8.544  0.8996  1.2005  0.0092
21595SOL    HW266227   5.079   3.562   8.637 -1.2791  0.2182  0.4831
21596SOL     OW66228   5.509   5.574   9.272 -0.4486  0.1498 -0.1930
21596SOL    HW166229   5.530   5.492   9.318  0.4252 -0.7085 -2.0138
21596SOL    HW266230   5.423   5.558   9.234  0.0532 -0.2569 -1.1972
21597SOL     OW66231   5.708   2.884   7.038 -0.2016 -0.7568 -0.2231
21597SOL    HW166232   5.774   2.830   7.082 -0.2722  0.1403  1.0319
21597SOL    HW266233   5.756   2.960   7.006 -0.5322 -0.3159  0.3051
21598SOL     OW66234   0.374   5.710   7.137 -0.1791  0.0880 -0.6910
21598SOL    HW166235   0.353   5.766   7.211 -0.0424 -0.1078 -0.5038
21598SOL    HW266236   0.345   5.760   7.060 -2.0186 -0.4868 -0.4097
21599SOL     OW66237   7.098   6.119   9.485  0.2841 -0.1508 -0.2231
21599SOL    HW166238   7.166   6.111   9.553 -0.6019  0.0433  0.7186
21599SOL    HW266239   7.084   6.030   9.455 -0.2892 -0.4326  0.8491
21600SOL     OW66240   6.128   5.371  10.082  0.4168  0.2064 -0.8460
21600SOL    HW166241   6.187   5.304  10.116  0.4067  0.4871 -0.2718
21600SOL    HW266242   6.081   5.404  10.158 -0.6505 -0.1622 -1.3222
21601SOL     OW66243   6.725   3.741   8.435  0.2611  0.1770 -0.5834
21601SOL    HW166244   6.720   3.652   8.470  0.8444  1.0844  1.9765
21601SOL    HW266245   6.654   3.788   8.479  0.8994  1.3524 -0.7810
21602SOL     OW66246   5.918   4.793   8.244 -0.2257 -0.1870 -0.0974
21602SOL    HW166247   5.835   4.818   8.285 -0.2963 -0.6793  0.0713
21602SOL    HW266248   5.902   4.704   8.212  0.6994 -0.8578  1.2319
21603SOL     OW66249   5.700   5.693   9.922 -0.7786  0.1732  0.6575
21603SOL    HW166250   5.655   5.712   9.840 -0.2886 -1.4515 -0.0224
21603SOL    HW266251   5.767   5.628   9.899  0.1859  0.5939  2.1213
21604SOL     OW66252   7.316   3.527   7.792  0.3455 -0.6661 -0.1487
21604SOL    HW166253   7.397   3.477   7.794 -0.0327 -1.4996 -2.2708
21604SOL    HW266254   7.253   3.469   7.749 -0.7611  0.7612 -0.5532
21605SOL     OW66255   5.816   4.492   6.504 -0.3641  0.5452  0.2174
21605SOL    HW166256   5.811   4.397   6.511 -0.6530  0.4359 -1.1894
21605SOL    HW266257   5.785   4.511   6.416 -2.3040  2.1129  1.1385
21606SOL     OW66258   6.791   3.891   8.830  0.4855  0.3794  0.4430
21606SOL    HW166259   6.743   3.836   8.769 -0.2088  0.8260  0.5677
21606SOL    HW266260   6.729   3.907   8.901  0.9698  0.6179  0.8195
21607SOL     OW66261   6.701   5.740   9.891 -0.8408 -0.4814  0.3282
21607SOL    HW166262   6.750   5.797   9.832 -2.3880  0.9024  0.3107
21607SOL    HW266263   6.732   5.762   9.978 -0.2153 -0.8707  0.2125
21608SOL     OW66264   6.171   5.944   9.353  0.5641  0.6332  0.0887
21608SOL    HW166265   6.260   5.909   9.349 -0.4014 -2.3280  1.2957
21608SOL    HW266266   6.119   5.885   9.297 -0.8229  1.5952  0.2977
21609SOL     OW66267   6.808   3.251   8.097  0.0012 -0.0718 -0.1862
21609SOL    HW166268   6.782   3.162   8.117 -3.2695  0.2793 -2.0641
21609SOL    HW266269   6.781   3.303   8.173  0.3405 -0.4274  0.1803
21610SOL     OW66270   4.906   6.299   8.551 -0.4131 -0.4959 -0.4580
21610SOL    HW166271   4.816   6.300   8.583 -0.9286  2.2770 -1.6893
21610SOL    HW266272   4.898   6.291   8.456  0.8299 -2.6449 -0.4682
21611SOL     OW66273   6.696   3.554   6.429 -0.0421 -0.2999 -0.1688
21611SOL    HW166274   6.640   3.484   6.394 -0.3718 -0.5047  0.7624
21611SOL    HW266275   6.654   3.634   6.399 -0.7076 -0.4578  0.3245
21612SOL     OW66276   5.206   5.648   7.620 -0.1332  0.5895  0.9571
21612SOL    HW166277   5.237   5.629   7.531 -0.3473  2.4840  0.4286
21612SOL    HW266278   5.122   5.603   7.626 -0.1108  0.4291  0.1953
21613SOL     OW66279   5.074   5.759   7.951  0.3213  0.1973  0.1511
21613SOL    HW166280   5.055   5.692   8.017 -1.9750  1.5756  1.0224
21613SOL    HW266281   5.035   5.726   7.871  2.5133 -1.1633 -0.4503
21614SOL     OW66282   5.783   4.356   9.132 -0.0319  0.2257  0.4555
21614SOL    HW166283   5.734   4.425   9.087  0.3369 -0.7914 -1.6194
21614SOL    HW266284   5.868   4.354   9.087 -0.8138 -3.0271 -1.1542
21615SOL     OW66285   6.999   6.680   7.653 -0.3389  0.1926 -0.1664
21615SOL    HW166286   7.008   6.769   7.617 -0.3179  0.0556 -0.4999
21615SOL    HW266287   6.908   6.656   7.636 -0.3515  0.1591 -0.0524
21616SOL     OW66288   6.639   6.860   9.362 -0.5259 -0.2056 -0.5621
21616SOL    HW166289   6.628   6.861   9.267 -0.6193 -0.2816 -0.5534
21616SOL    HW266290   6.676   6.774   9.381 -0.2371 -0.0800 -0.5573
21617SOL     OW66291   7.027   4.198   8.669  0.2905  0.3228  0.0959
21617SOL    HW166292   7.026   4.127   8.733 -1.2842  1.2489  1.1695
21617SOL    HW266293   7.120   4.210   8.647  0.8461 -0.1599  2.0467
21618SOL     OW66294   5.720   3.284   8.857  0.3484  0.3756  0.0008
21618SOL    HW166295   5.706   3.287   8.762 -1.9462 -0.7807  0.2280
21618SOL    HW266296   5.674   3.360   8.890  0.3840  0.2861  0.2539
21619SOL     OW66297   7.926   5.638   9.241 -0.1773  0.3664  0.0150
21619SOL    HW166298   7.855   5.667   9.183 -0.2029  0.4272  0.0765
21619SOL    HW266299   7.988   5.594   9.182  0.3949  1.5096 -0.2553
21620SOL     OW66300   5.560   3.171   7.111 -0.1346 -0.0062  0.0089
21620SOL    HW166301   5.573   3.095   7.167 -0.9782 -1.1003 -1.2027
21620SOL    HW266302   5.540   3.134   7.025  0.0201  1.5993 -0.7568
21621SOL     OW66303   5.082   6.088   8.542 -0.0111 -0.7649 -0.1536
21621SOL    HW166304   5.004   6.032   8.533  0.6043 -1.7576  0.4854
21621SOL    HW266305   5.049   6.177   8.527 -1.6609 -0.9561  1.8253
21622SOL     OW66306   6.149   3.500   7.791 -0.7492  0.6322  0.0739
21622SOL    HW166307   6.213   3.448   7.743  1.1917  2.6753  0.2616
21622SOL    HW266308   6.091   3.535   7.724 -0.0674  0.8210 -0.4324
21623SOL     OW66309   7.747   3.703   8.064 -0.3900 -0.2448  0.1227
21623SOL    HW166310   7.762   3.614   8.094  1.1697  0.9103  3.1404
21623SOL    HW266311   7.815   3.719   7.998  2.3442  0.0221  2.7843
21624SOL     OW66312   7.101   6.216   8.099  0.2378  0.0908  0.7814
21624SOL    HW166313   7.007   6.233   8.105  0.2808  0.7314 -0.0795
21624SOL    HW266314   7.134   6.229   8.188 -0.6514 -1.2500  1.3324
21625SOL     OW66315   4.760   6.333   9.495  0.2107 -0.6289 -0.5016
21625SOL    HW166316   4.704   6.386   9.553  1.5884  1.3429 -0.8658
21625SOL    HW266317   4.700   6.299   9.429 -1.0496 -1.2246  0.8856
21626SOL     OW66318   7.312   3.170   7.242  0.2398 -0.2525 -0.2667
21626SOL    HW166319   7.310   3.076   7.228 -0.3769 -0.1134 -1.1965
21626SOL    HW266320   7.390   3.200   7.195  0.4334 -0.2980  0.0255
21627SOL     OW66321   7.051   5.348   9.896 -0.0178 -0.0210  0.0635
21627SOL    HW166322   6.994   5.424   9.913 -0.5621 -0.1380 -1.0887
21627SOL    HW266323   6.995   5.272   9.912 -0.1546 -0.1391 -0.8900
21628SOL     OW66324   7.063   4.497  10.015  0.6398 -0.1526  0.2120
21628SOL    HW166325   7.139   4.545  10.048  0.1456  0.6369  0.2442
21628SOL    HW266326   7.075   4.408  10.047  0.1896  0.5585  2.5663
21629SOL     OW66327   7.404   4.453   8.522  0.1559 -0.5040  0.1085
21629SOL    HW166328   7.428   4.527   8.579 -1.6117 -0.1414  0.4273
21629SOL    HW266329   7.364   4.390   8.581  0.6338 -1.2494 -0.3513
21630SOL     OW66330   5.605   5.914   8.997 -0.5468  0.2232 -0.5830
21630SOL    HW166331   5.686   5.965   8.990 -0.6389  0.1676 -2.6237
21630SOL    HW266332   5.629   5.839   9.052  0.6031  0.5365 -0.6215
21631SOL     OW66333   5.308   2.190   9.404 -0.0950 -0.1345  0.1518
21631SOL    HW166334   5.369   2.195   9.331 -1.2690  1.4671 -0.7783
21631SOL    HW266335   5.336   2.260   9.463 -2.6502  2.7010 -1.6968
21632SOL     OW66336   5.035   4.041   9.438  0.2073 -0.5733  0.0948
21632SOL    HW166337   5.048   4.010   9.348  0.5846 -1.2573  0.3743
21632SOL    HW266338   5.087   4.120   9.445  1.4031 -1.3415  0.1475
21633SOL     OW66339   4.825   3.768   8.316 -0.1078 -0.0434  0.0512
21633SOL    HW166340   4.742   3.740   8.356  0.2945  0.7569  1.5519
21633SOL    HW266341   4.804   3.853   8.278 -0.4087 -0.6587 -1.1889
21634SOL     OW66342   6.520   6.282  10.268  0.6667 -0.1904 -0.4836
21634SOL    HW166343   6.545   6.365  10.227 -0.9849  0.4678 -0.2179
21634SOL    HW266344   6.557   6.288  10.357 -1.3959  1.3324  0.3386
21635SOL     OW66345   5.402   4.052   8.743  0.2991 -0.0068 -0.0079
21635SOL    HW166346   5.391   4.104   8.664 -0.5448 -1.1572 -0.6871
21635SOL    HW266347   5.496   4.036   8.749  0.2494 -1.3588 -1.8003
21636SOL     OW66348   6.102   5.345   8.343  0.2175  0.2165  0.0881
21636SOL    HW166349   6.011   5.322   8.361  0.0634  1.3184  0.7863
21636SOL    HW266350   6.138   5.268   8.299 -1.2205  0.0134 -0.7706
21637SOL     OW66351   5.103   5.282   0.270  0.0788  0.0718 -0.7712
21637SOL    HW166352   5.041   5.355   0.265 -0.0729 -0.0522 -0.7225
21637SOL    HW266353   5.056   5.208   0.232 -1.0641 -0.8719  2.1409
21638SOL     OW66354   6.276   5.421  10.411 -0.8986  0.1588 -0.4787
21638SOL    HW166355   6.190   5.450  10.381 -1.4002 -1.5354 -0.7741
21638SOL    HW266356   6.259   5.378  10.494 -0.2558  0.1961 -0.3189
21639SOL     OW66357   5.998   4.236   7.536 -0.4180  0.4665 -0.2604
21639SOL    HW166358   5.923   4.276   7.493  0.8580  1.2891 -1.8389
21639SOL    HW266359   5.974   4.144   7.546 -1.7084  0.7546 -0.5147
21640SOL     OW66360   6.009   4.069  11.833  0.1790 -0.4636 -0.2776
21640SOL    HW166361   6.050   4.133  11.890 -1.7330  0.9499 -0.3761
21640SOL    HW266362   6.041   3.984  11.865  0.7937  0.3902  1.5197
21641SOL     OW66363   6.176   3.211  11.537 -0.6024 -0.2065 -0.1470
21641SOL    HW166364   6.166   3.306  11.542 -0.4207 -0.2005  0.1156
21641SOL    HW266365   6.104   3.177  11.591 -0.0810 -0.1937  0.5709
21642SOL     OW66366   6.672   4.728   8.903  0.3775 -0.6558  0.0329
21642SOL    HW166367   6.740   4.746   8.967  0.2397 -0.5818  0.1593
21642SOL    HW266368   6.702   4.650   8.857  0.9660 -0.1277 -0.4973
21643SOL     OW66369   5.853   3.718  11.203 -0.9287  0.2662  0.2289
21643SOL    HW166370   5.832   3.711  11.110  1.0508  1.2235 -0.3526
21643SOL    HW266371   5.807   3.796  11.232 -0.6208  0.6523 -0.2809
21644SOL     OW66372   5.071   3.524  10.971  0.0550  0.0002 -0.2062
21644SOL    HW166373   5.156   3.502  11.010 -0.1588  0.2980  0.4307
21644SOL    HW266374   5.007   3.477  11.023 -0.0908 -1.4243 -1.5947
21645SOL     OW66375   5.867   5.563  10.551 -0.3379  0.3421  0.1917
21645SOL    HW166376   5.895   5.472  10.543  1.6578  0.9355 -0.4540
21645SOL    HW266377   5.773   5.559  10.567 -0.6819 -1.7702 -1.8155
21646SOL     OW66378   5.746   3.394  12.301  0.2764 -0.3470 -0.2320
21646SOL    HW166379   5.777   3.317  12.348  0.7631 -0.1341 -0.1938
21646SOL    HW266380   5.661   3.415  12.341  0.3072 -0.6526 -0.0074
21647SOL     OW66381   5.522   6.669   9.220 -0.0709 -0.1323  0.2402
21647SOL    HW166382   5.524   6.657   9.315  0.5939  0.9298  0.3824
21647SOL    HW266383   5.554   6.586   9.184  1.3582  0.0481  1.0186
21648SOL     OW66384   4.503   3.935  10.824 -0.4672  0.3383  0.4542
21648SOL    HW166385   4.477   3.988  10.748 -0.9735 -2.2731 -1.3241
21648SOL    HW266386   4.490   3.845  10.796  0.1237 -0.7795  3.4192
21649SOL     OW66387   7.763   5.781  11.295 -0.1268  0.0772  0.4694
21649SOL    HW166388   7.722   5.852  11.246  0.6184  0.3895  0.2786
21649SOL    HW266389   7.816   5.735  11.230  1.2555  0.7937  1.0525
21650SOL     OW66390   4.819   5.981  10.097 -0.0544 -0.3685  0.3836
21650SOL    HW166391   4.726   5.962  10.113 -0.3376  1.5044  1.2428
21650SOL    HW266392   4.862   5.960  10.179  0.1786 -0.6201  0.1975
21651SOL     OW66393   6.677   4.194   0.060 -0.5170 -0.1836 -0.5579
21651SOL    HW166394   6.586   4.211   0.037 -0.5819  0.0816 -0.1132
21651SOL    HW266395   6.703   4.268   0.115 -0.1554 -0.4576 -0.3502
21652SOL     OW66396   4.009   4.028   9.702  0.3747  0.2251 -0.1403
21652SOL    HW166397   3.977   4.022   9.611  0.7272 -0.5666 -0.2227
21652SOL    HW266398   4.087   4.083   9.697  0.8969 -0.5265 -0.4676
21653SOL     OW66399   6.068   6.245   8.856  0.2487 -0.6692 -0.0694
21653SOL    HW166400   6.089   6.330   8.816 -0.6392 -0.4972 -0.1924
21653SOL    HW266401   6.052   6.266   8.948  0.4505 -0.7723 -0.0113
21654SOL     OW66402   7.010   4.879  10.254 -0.6934 -0.6726 -0.6172
21654SOL    HW166403   6.942   4.947  10.249 -0.7921 -0.8640 -2.4764
21654SOL    HW266404   7.032   4.874  10.347 -1.0341  1.5546 -0.3714
21655SOL     OW66405   0.101   4.947   9.499 -0.4659 -0.0566 -0.2863
21655SOL    HW166406   0.151   4.905   9.569 -1.6446 -1.1125 -0.0403
21655SOL    HW266407   0.049   5.014   9.544  0.3971  0.7719 -0.4881
21656SOL     OW66408   7.276   6.524  10.934  0.0591 -0.6894 -0.3475
21656SOL    HW166409   7.199   6.558  10.887 -0.5668  1.8383  2.2042
21656SOL    HW266410   7.301   6.446  10.885 -2.3537 -0.0020 -2.9939
21657SOL     OW66411   5.144   6.613  10.582  0.2919 -0.1385  0.6517
21657SOL    HW166412   5.192   6.540  10.621  0.5625 -1.1715 -1.4386
21657SOL    HW266413   5.079   6.571  10.525  1.4971  1.1607 -1.8409
21658SOL     OW66414   5.404   5.023   9.979 -0.1386  0.5196 -0.0235
21658SOL    HW166415   5.497   5.013   9.957 -0.1448 -1.2236  0.5706
21658SOL    HW266416   5.394   5.116   9.999  2.0622  0.3499  2.3916
21659SOL     OW66417   6.365   3.192   9.163 -0.3321  0.6402  0.9309
21659SOL    HW166418   6.371   3.222   9.254 -2.0771  0.9879  0.9746
21659SOL    HW266419   6.274   3.208   9.139 -0.9901 -2.9593  0.3717
21660SOL     OW66420   6.294   4.237   9.266 -0.6060  0.0835  0.4523
21660SOL    HW166421   6.213   4.212   9.222 -1.3466  0.0995  1.7725
21660SOL    HW266422   6.344   4.156   9.272 -1.1687 -0.2325  0.9532
21661SOL     OW66423   5.017   3.903  10.224  0.1232 -0.7852  0.5879
21661SOL    HW166424   4.979   3.841  10.161 -0.2295  0.2111 -0.2123
21661SOL    HW266425   4.962   3.895  10.302 -0.7099 -0.5631  0.0365
21662SOL     OW66426   6.645   6.223   9.904  0.1675 -0.0478  0.6205
21662SOL    HW166427   6.606   6.309   9.890 -0.8682 -0.5379  0.4154
21662SOL    HW266428   6.670   6.192   9.817  0.9656  0.2330  0.7436
21663SOL     OW66429   6.135   6.727  10.909 -0.2646 -0.1068  0.3856
21663SOL    HW166430   6.142   6.793  10.839 -0.8449  0.1672  0.5841
21663SOL    HW266431   6.045   6.697  10.905  0.3098 -1.8564 -0.5530
21664SOL     OW66432   6.869   4.172  11.458 -0.5647  0.0687 -0.2177
21664SOL    HW166433   6.823   4.101  11.413  1.0129  0.1136 -2.0650
21664SOL    HW266434   6.918   4.216  11.388  0.3228  1.5159  1.2600
21665SOL     OW66435   7.730   5.010  10.761 -0.0299 -0.2948  0.5658
21665SOL    HW166436   7.754   4.980  10.673 -0.6980  0.2726  0.1776
21665SOL    HW266437   7.812   5.037  10.800  0.1201  0.7321 -0.3986
21666SOL     OW66438   1.287   6.132   9.777  0.1140 -0.7970  0.6583
21666SOL    HW166439   1.322   6.068   9.715 -1.4257 -0.6669 -0.4130
21666SOL    HW266440   1.362   6.183   9.805  0.6427  0.4457 -2.6356
21667SOL     OW66441   5.251   4.511   9.122  0.4261  0.2588 -0.3183
21667SOL    HW166442   5.216   4.443   9.180  0.4089 -0.9279 -1.6593
21667SOL    HW266443   5.289   4.462   9.048  3.3240  1.5654  0.1718
21668SOL     OW66444   7.707   3.951  11.210  0.0186  0.2136 -0.3752
21668SOL    HW166445   7.762   3.884  11.170  0.3925 -1.0303  2.0205
21668SOL    HW266446   7.636   3.902  11.252  1.1655  1.0195  2.8084
21669SOL     OW66447   5.471   4.834   8.634  0.4597  0.5656 -0.1245
21669SOL    HW166448   5.396   4.869   8.587  1.6285 -1.2328 -3.7761
21669SOL    HW266449   5.434   4.775   8.700 -1.3910 -0.1953 -1.7487
21670SOL     OW66450   5.769   4.834  11.751  0.3377  0.2119  0.3150
21670SOL    HW166451   5.718   4.887  11.689  0.2731  0.2926  0.4354
21670SOL    HW266452   5.728   4.747  11.747  1.5698 -0.3365 -1.2138
21671SOL     OW66453   4.941   4.595   9.086  0.1755  0.0862 -0.0601
21671SOL    HW166454   5.017   4.538   9.092  0.1257  0.0364  0.0884
21671SOL    HW266455   4.880   4.548   9.029  0.3033  0.1799 -0.2764
21672SOL     OW66456   6.943   5.454  10.593  0.0187 -0.0911  0.4038
21672SOL    HW166457   7.020   5.409  10.627  0.2811 -0.2242 -0.3398
21672SOL    HW266458   6.937   5.535  10.644 -0.1835 -0.7409  1.4322
21673SOL     OW66459   5.418   3.994   9.422  0.1564 -0.2488 -0.5724
21673SOL    HW166460   5.368   4.035   9.492 -0.8943 -1.1217 -0.7655
21673SOL    HW266461   5.377   4.026   9.342  1.5268  0.9564 -0.8093
21674SOL     OW66462   4.775   5.712  10.690 -0.1919 -0.0890  0.7784
21674SOL    HW166463   4.698   5.701  10.634  0.3639  0.5853 -0.1601
21674SOL    HW266464   4.740   5.725  10.778 -1.1302 -0.1684  0.4269
21675SOL     OW66465   6.242   4.040  10.215 -0.4196  0.6369 -0.0971
21675SOL    HW166466   6.252   4.134  10.234  0.7693  0.1944  1.6651
21675SOL    HW266467   6.262   4.033  10.122 -1.6237  2.2634 -0.5417
21676SOL     OW66468   5.931   5.515   9.904  0.0240 -0.3683  0.0676
21676SOL    HW166469   5.997   5.489   9.969  0.2615 -1.7366 -0.6829
21676SOL    HW266470   5.927   5.441   9.843 -0.5821  0.6524 -1.1784
21677SOL     OW66471   6.350   5.033   8.458 -0.0791 -0.3244 -0.5949
21677SOL    HW166472   6.367   5.000   8.370  0.2199 -0.8137 -0.3550
21677SOL    HW266473   6.375   5.125   8.454  0.6758 -0.5291 -0.8101
21678SOL     OW66474   7.986   2.326  10.048  0.2220  0.4791  0.4313
21678SOL    HW166475   7.987   2.283  10.133  1.1393  1.6086  1.0297
21678SOL    HW266476   7.898   2.361  10.040  0.6532  2.0408  1.8522
21679SOL     OW66477   5.769   4.174  11.273 -0.7870  0.2344  0.2627
21679SOL    HW166478   5.757   4.080  11.286 -0.4745  0.4640  2.7129
21679SOL    HW266479   5.722   4.215  11.346  1.6071  1.8060  1.0704
21680SOL     OW66480   5.270   4.307  10.291 -0.0789 -0.2570 -0.3856
21680SOL    HW166481   5.347   4.338  10.338  0.1468 -0.8867 -0.3398
21680SOL    HW266482   5.301   4.291  10.202 -0.1160 -0.6571 -0.3289
21681SOL     OW66483   6.033   4.360   9.014 -0.0854  0.2791  0.2671
21681SOL    HW166484   5.989   4.325   8.937  0.6959  0.9660 -0.5148
21681SOL    HW266485   6.091   4.428   8.980 -1.2274  2.0737  1.6668
21682SOL     OW66486   4.975   4.867   9.863 -0.1051  0.2093 -0.3770
21682SOL    HW166487   4.898   4.851   9.917  0.3554 -1.1532 -0.0688
21682SOL    HW266488   4.989   4.784   9.817  0.7903  0.6521 -0.9321
21683SOL     OW66489   0.013   3.861   9.313  0.0522 -0.1308  0.2134
21683SOL    HW166490  -0.005   3.917   9.237  1.8193 -0.1929 -0.2941
21683SOL    HW266491  -0.026   3.776   9.290 -0.9613  0.3305  0.1635
21684SOL     OW66492   5.468   4.970  10.247 -0.2808  0.5134  0.4449
21684SOL    HW166493   5.421   4.959  10.165  0.8180 -0.7900 -0.0431
21684SOL    HW266494   5.399   4.971  10.314 -1.1467  1.0464 -0.4408
21685SOL     OW66495   5.658   4.860   9.506  0.2301 -0.3575 -0.7802
21685SOL    HW166496   5.605   4.905   9.440  1.3383  1.2067 -0.6695
21685SOL    HW266497   5.741   4.907   9.505  0.5568 -0.8328  1.1588
21686SOL     OW66498   5.981   4.384  10.163 -0.1265 -0.0475 -0.2549
21686SOL    HW166499   5.914   4.348  10.220  0.9041  0.4817  1.3722
21686SOL    HW266500   6.049   4.317  10.159 -0.5149 -0.4042 -1.5372
21687SOL     OW66501   5.888   5.219  11.752  0.9669  0.0757 -0.1340
21687SOL    HW166502   5.848   5.161  11.816  1.1622  0.7538  0.6183
21687SOL    HW266503   5.908   5.299  11.801 -1.2203  1.6225 -1.5882
21688SOL     OW66504   6.616   6.332   9.081  0.0292 -0.5036  0.3041
21688SOL    HW166505   6.684   6.364   9.140  0.7310  0.2733 -0.8796
21688SOL    HW266506   6.550   6.295   9.138  0.1714  1.1984  1.6362
21689SOL     OW66507   7.411   5.901  10.883 -0.2017 -0.4152  0.0061
21689SOL    HW166508   7.328   5.865  10.915  0.9956 -2.1399  1.3335
21689SOL    HW266509   7.402   5.899  10.787 -1.0200 -2.3830  0.0600
21690SOL     OW66510   7.538   6.166  10.499 -0.2475 -0.4899 -0.2207
21690SOL    HW166511   7.465   6.131  10.450  0.3394 -0.9804 -0.7625
21690SOL    HW266512   7.614   6.155  10.442  0.0099  1.4637 -0.3306
21691SOL     OW66513   6.108   4.669   9.132 -0.1930  0.1382  0.1106
21691SOL    HW166514   6.115   4.579   9.164  0.2442  0.5103  1.1018
21691SOL    HW266515   6.091   4.721   9.211 -1.4628  0.8149 -0.5687
21692SOL     OW66516   6.563   4.642   9.935  0.1032  0.0115 -0.0561
21692SOL    HW166517   6.551   4.714   9.873  0.5997 -1.5387 -2.0993
21692SOL    HW266518   6.650   4.608   9.915 -0.5780 -1.8853 -0.0399
21693SOL     OW66519   5.787   6.551  10.691  0.0635 -0.1416  0.7579
21693SOL    HW166520   5.828   6.624  10.645 -1.0277 -0.1775 -0.3269
21693SOL    HW266521   5.814   6.561  10.782  2.7536 -0.3864  0.0565
21694SOL     OW66522   5.288   4.844   9.749 -0.2323  0.6766 -1.2538
21694SOL    HW166523   5.295   4.805   9.662 -1.2155 -2.1062 -0.2258
21694SOL    HW266524   5.308   4.771   9.809 -0.9994  2.1082  0.8546
21695SOL     OW66525   6.534   4.915   9.668 -0.1120 -0.1524  0.0339
21695SOL    HW166526   6.525   5.009   9.684 -0.6008 -0.4758  1.8573
21695SOL    HW266527   6.615   4.891   9.714  0.3361 -0.5410 -0.9274
21696SOL     OW66528   6.267   4.846  11.311  0.3941 -0.1610 -0.4759
21696SOL    HW166529   6.245   4.890  11.393 -2.5398 -0.0577 -1.1996
21696SOL    HW266530   6.304   4.762  11.338  0.1875  0.1778  0.9501
21697SOL     OW66531   6.545   6.497   7.383  0.4117  0.3674  0.0872
21697SOL    HW166532   6.515   6.449   7.306  1.0834  0.6079 -0.3370
21697SOL    HW266533   6.492   6.464   7.455 -0.8751  0.8068 -0.6394
21698SOL     OW66534   6.738   3.449   8.254  0.2192 -0.2303 -0.6486
21698SOL    HW166535   6.764   3.464   8.345 -4.1777 -1.0435  1.0047
21698SOL    HW266536   6.747   3.535   8.212 -0.1733  0.8454  1.3434
21699SOL     OW66537   7.409   4.627  10.572  0.7971  0.3212 -0.2278
21699SOL    HW166538   7.459   4.689  10.626  1.2498 -0.2312 -0.0007
21699SOL    HW266539   7.453   4.543  10.585 -0.5807 -0.3263  0.4997
21700SOL     OW66540   6.209   4.184  11.971 -0.6883  0.0668  0.1342
21700SOL    HW166541   6.209   4.244  11.897 -1.3765 -1.1988 -0.9370
21700SOL    HW266542   6.295   4.196  12.012 -0.9187  1.9574  0.1426
21701SOL     OW66543   5.980   6.370  11.413 -0.3785  0.0914 -0.2095
21701SOL    HW166544   5.937   6.456  11.411  2.8503  1.8792  0.4493
21701SOL    HW266545   6.068   6.387  11.381 -0.0455 -3.3537 -1.5137
21702SOL     OW66546   6.603   3.073  10.009  0.1676  0.0705 -0.7262
21702SOL    HW166547   6.578   3.166  10.014 -0.8239 -0.2282  0.3732
21702SOL    HW266548   6.678   3.066  10.068 -1.7379 -0.3824  1.8382
21703SOL     OW66549   6.342   3.475   7.184 -0.1979 -0.0110 -0.5927
21703SOL    HW166550   6.337   3.400   7.126  2.7666  0.2188 -1.2918
21703SOL    HW266551   6.342   3.438   7.272  2.5367 -1.0474 -0.9456
21704SOL     OW66552   6.503   5.406   8.977  0.0068 -0.0420 -0.1947
21704SOL    HW166553   6.515   5.317   8.943  1.6054 -0.9004  2.3025
21704SOL    HW266554   6.591   5.433   9.003 -0.6862  1.6651  0.5219
21705SOL     OW66555   6.167   4.176   8.744 -0.3744  0.4169  0.2872
21705SOL    HW166556   6.179   4.173   8.649  1.2888 -0.0235  0.4849
21705SOL    HW266557   6.084   4.223   8.756 -1.5731 -1.1146 -1.4276
21706SOL     OW66558   6.470   3.441  10.940  0.2333 -0.6856  0.1232
21706SOL    HW166559   6.456   3.425  10.846 -0.8094 -0.6756  0.2700
21706SOL    HW266560   6.433   3.528  10.955  1.7808 -0.0227  0.2493
21707SOL     OW66561   6.367   5.001   9.210  0.5446  0.7319 -0.4735
21707SOL    HW166562   6.351   5.044   9.294 -1.6915  2.0297 -1.4474
21707SOL    HW266563   6.412   4.920   9.232 -2.4091 -0.3855  2.3293
21708SOL     OW66564   5.008   5.276  11.358  0.3941  0.7906  0.2414
21708SOL    HW166565   5.026   5.310  11.270  1.0667  1.1986  0.5295
21708SOL    HW266566   4.921   5.236  11.350  0.2748  1.1625 -0.5117
21709SOL     OW66567   5.238   6.348  10.003  0.5396  0.4117  0.1378
21709SOL    HW166568   5.304   6.325   9.937  0.0809  0.5465 -0.3851
21709SOL    HW266569   5.170   6.281   9.992  0.9866 -0.2430  1.2690
21710SOL     OW66570   6.972   6.473  10.564  0.5624  0.7557  0.4830
21710SOL    HW166571   6.907   6.534  10.530  0.1691  0.8467  1.3842
21710SOL    HW266572   7.018   6.441  10.486 -0.3085  0.9685 -0.1287
21711SOL     OW66573   6.541   4.766   9.138  0.1317 -0.0018  0.1567
21711SOL    HW166574   6.537   4.674   9.165 -1.4617 -0.2183 -0.7397
21711SOL    HW266575   6.580   4.764   9.051  3.2567  0.5257  1.3808
21712SOL     OW66576   4.616   4.775   9.639  0.7016  0.1592  0.4474
21712SOL    HW166577   4.571   4.706   9.591  0.1585  1.0103 -0.2962
21712SOL    HW266578   4.692   4.797   9.584  0.4144  0.7167  0.2615
21713SOL     OW66579   6.452   3.810  11.947 -0.6580  0.4886 -0.1133
21713SOL    HW166580   6.523   3.771  11.897  1.0373  1.1304  1.6440
21713SOL    HW266581   6.466   3.904  11.940 -1.4903  0.6324  0.0562
21714SOL     OW66582   5.313   6.052   8.281  0.0653 -0.5581 -0.4973
21714SOL    HW166583   5.235   6.088   8.239  0.6910 -0.5475 -1.6929
21714SOL    HW266584   5.332   6.112   8.353  0.1805  0.6442 -1.4958
21715SOL     OW66585   5.751   3.619   9.869  0.0934  0.1868  0.4857
21715SOL    HW166586   5.786   3.646   9.784  0.8902  0.8845  1.0229
21715SOL    HW266587   5.656   3.625   9.859  0.1587 -0.2049 -0.5022
21716SOL     OW66588   5.224   5.576   9.867  0.0481 -0.7070 -0.3890
21716SOL    HW166589   5.224   5.592   9.961  0.0992  0.9126 -0.6427
21716SOL    HW266590   5.150   5.516   9.853 -0.5099 -0.2689  0.5810
21717SOL     OW66591   5.631   5.204  10.859  0.2654  0.0385 -0.0916
21717SOL    HW166592   5.616   5.111  10.875  1.5017  0.0119  1.1383
21717SOL    HW266593   5.570   5.227  10.789 -1.9188 -1.0681  1.3617
21718SOL     OW66594   0.890   3.268   9.400 -0.2985 -0.5159 -0.3188
21718SOL    HW166595   0.863   3.192   9.348 -0.6232 -0.6993  0.1171
21718SOL    HW266596   0.809   3.316   9.417 -0.0992 -0.0858 -0.5617
21719SOL     OW66597   0.108   6.535   9.838  0.6808 -0.0205 -0.2703
21719SOL    HW166598   0.018   6.565   9.828  0.6440 -0.0389 -0.0065
21719SOL    HW266599   0.114   6.457   9.784  0.3589 -0.3809  0.2000
21720SOL     OW66600   0.382   5.604   9.281 -0.4145  0.5834 -0.2253
21720SOL    HW166601   0.387   5.696   9.306 -0.3744 -0.1548  2.8299
21720SOL    HW266602   0.466   5.587   9.237  0.6794  1.4437  1.4310
21721SOL     OW66603   5.266   4.723   8.218 -0.1193  0.0679 -0.3812
21721SOL    HW166604   5.198   4.656   8.217  0.5698 -0.6844  0.6739
21721SOL    HW266605   5.321   4.703   8.142 -0.8239  0.4163 -0.9867
21722SOL     OW66606   6.558   3.733   7.673 -0.5869  0.3205  0.3885
21722SOL    HW166607   6.544   3.816   7.719 -1.5495  0.7550 -0.6522
21722SOL    HW266608   6.510   3.668   7.725 -2.3497  0.9432 -0.3868
21723SOL     OW66609   7.874   4.729   8.172 -0.4565  0.2331  0.6970
21723SOL    HW166610   7.889   4.775   8.090  0.9650  0.6787  1.1671
21723SOL    HW266611   7.955   4.680   8.188 -1.2304 -0.9695  1.1471
21724SOL     OW66612   4.779   4.403  10.398 -0.2348 -0.1190 -1.0656
21724SOL    HW166613   4.865   4.374  10.428  0.1593 -0.8401 -2.7898
21724SOL    HW266614   4.761   4.481  10.450 -0.3776 -2.1649  2.1922
21725SOL     OW66615   6.540   4.221  10.242  0.8048  0.1509 -0.2288
21725SOL    HW166616   6.562   4.216  10.149  1.8758  0.5947 -0.0164
21725SOL    HW266617   6.601   4.162  10.285  0.5243  0.1808  0.2251
21726SOL     OW66618   5.413   4.566  11.259  0.0063  0.0050  0.4627
21726SOL    HW166619   5.339   4.589  11.203  1.1440  0.7259 -0.8057
21726SOL    HW266620   5.385   4.591  11.347 -1.1853  0.4232 -0.0085
21727SOL     OW66621   6.029   6.530  10.213 -0.5930  0.1143  0.1148
21727SOL    HW166622   5.970   6.458  10.230 -0.8937  0.1223 -0.8085
21727SOL    HW266623   6.117   6.493  10.223 -0.7318  0.1135  1.5325
21728SOL     OW66624   7.577   5.101  12.228  0.1607 -0.0169 -0.2509
21728SOL    HW166625   7.490   5.080  12.259  0.3543  1.6774  1.6366
21728SOL    HW266626   7.634   5.090  12.304  1.6044 -0.9166 -1.3905
21729SOL     OW66627   5.876   5.915  10.195  0.3699 -0.2230 -0.2364
21729SOL    HW166628   5.842   5.875  10.275  0.5492  2.0356  1.0591
21729SOL    HW266629   5.944   5.855  10.165 -0.8809 -1.9704  0.3135
21730SOL     OW66630   5.726   6.560   9.698 -0.1866 -0.4565 -0.4263
21730SOL    HW166631   5.778   6.479   9.700 -1.7361 -1.5170 -0.9008
21730SOL    HW266632   5.696   6.571   9.788  0.4459 -0.1076 -0.2521
21731SOL     OW66633   5.017   4.752  10.284  0.5122 -0.4635  0.1899
21731SOL    HW166634   4.928   4.718  10.274  0.7261 -0.9826  0.0219
21731SOL    HW266635   5.072   4.689  10.237  0.9760 -0.1789  0.3482
21732SOL     OW66636   6.046   3.939  10.404 -0.2737 -0.0554 -0.1720
21732SOL    HW166637   6.102   3.959  10.329 -0.5958  0.9563 -0.1658
21732SOL    HW266638   6.007   4.024  10.427 -2.7628 -0.9220 -0.9215
21733SOL     OW66639   4.590   6.418  10.531  0.2569 -0.0885 -0.2307
21733SOL    HW166640   4.631   6.394  10.614 -1.1581  0.1792  0.5798
21733SOL    HW266641   4.645   6.377  10.464  0.4246 -1.8131  0.9071
21734SOL     OW66642   7.683   5.104   8.941  0.0306 -0.4302  0.3466
21734SOL    HW166643   7.640   5.022   8.919  0.7500 -1.0712  1.2217
21734SOL    HW266644   7.669   5.114   9.035 -3.9699  2.7989 -0.3093
21735SOL     OW66645   5.627   3.618   8.871  0.1142  0.5115 -0.1235
21735SOL    HW166646   5.562   3.591   8.806 -0.1116 -0.5928  0.5284
21735SOL    HW266647   5.595   3.702   8.903 -1.2701 -0.1949  0.4828
21736SOL     OW66648   7.546   6.065  10.212 -0.1306 -0.5783 -0.2568
21736SOL    HW166649   7.500   5.988  10.245  1.0050 -1.1188  0.1091
21736SOL    HW266650   7.639   6.047  10.227  0.2361  0.3953 -1.1523
21737SOL     OW66651   6.717   4.873  10.990 -0.3829  0.4489 -0.1023
21737SOL    HW166652   6.726   4.799  10.931 -0.6174  0.4559 -0.1481
21737SOL    HW266653   6.664   4.937  10.942 -1.2690  0.1271  0.4074
21738SOL     OW66654   6.798   5.444   8.957 -0.1113  0.1047 -0.6187
21738SOL    HW166655   6.832   5.364   8.996  0.3895 -0.1745 -1.5936
21738SOL    HW266656   6.843   5.451   8.873 -1.8961  0.1309 -1.6300
21739SOL     OW66657   5.536   5.427  11.372 -0.3138 -0.9954 -0.5685
21739SOL    HW166658   5.597   5.430  11.445  0.5583 -0.8947 -1.2887
21739SOL    HW266659   5.471   5.362  11.398  0.5069 -1.6475 -0.0949
21740SOL     OW66660   6.422   4.734  12.405 -0.0267  0.4381  0.2118
21740SOL    HW166661   6.475   4.669  12.450  0.1453  1.5335  1.6562
21740SOL    HW266662   6.477   4.764  12.332 -0.0006 -0.7956 -0.2935
21741SOL     OW66663   4.840   4.485  10.798 -0.0030 -0.1102 -0.4007
21741SOL    HW166664   4.805   4.447  10.879 -0.0925 -0.2344 -0.4986
21741SOL    HW266665   4.775   4.464  10.731  1.2009 -2.1624 -1.0218
21742SOL     OW66666   7.989   5.218   0.419 -0.1498  0.0264 -0.0776
21742SOL    HW166667   7.913   5.268   0.391 -0.8116 -0.3559  0.9781
21742SOL    HW266668   7.955   5.129   0.435  0.6122 -0.2707 -0.0670
21743SOL     OW66669   5.909   3.541  10.853 -0.4200 -0.1776  0.2963
21743SOL    HW166670   5.859   3.622  10.848 -0.9823 -0.5565 -0.3320
21743SOL    HW266671   6.000   3.568  10.842 -0.5628  0.4153  0.5344
21744SOL     OW66672   6.486   4.979  10.586  0.5997  0.0476  0.1392
21744SOL    HW166673   6.415   4.991  10.523  1.8523  0.2113 -1.2852
21744SOL    HW266674   6.565   5.006  10.539  1.8389 -1.6460  1.1291
21745SOL     OW66675   5.710   4.759  10.025  0.2117 -0.2804 -0.0595
21745SOL    HW166676   5.643   4.753   9.956  0.0958  0.7745 -0.0628
21745SOL    HW266677   5.791   4.779   9.977  0.2383 -0.0951  0.0624
21746SOL     OW66678   5.710   2.808  10.825  0.7695 -0.3393  0.4299
21746SOL    HW166679   5.780   2.872  10.810 -0.5365  1.2177  0.6764
21746SOL    HW266680   5.712   2.752  10.748  0.6261  1.3169 -0.8458
21747SOL     OW66681   6.076   5.787  11.658  0.3440 -0.5810  0.0253
21747SOL    HW166682   6.002   5.736  11.690 -0.0638 -0.1374 -0.1935
21747SOL    HW266683   6.114   5.733  11.588 -0.6128 -0.2273 -0.8040
21748SOL     OW66684   6.013   3.938   9.915  0.2424  0.0572  0.1676
21748SOL    HW166685   6.027   3.844   9.914  1.7543  0.2588 -0.0141
21748SOL    HW266686   6.099   3.975   9.934 -0.7073  1.3465  2.3871
21749SOL     OW66687   5.243   4.447   0.284 -0.0732 -0.9128 -0.7417
21749SOL    HW166688   5.306   4.404   0.227  1.6620  1.1309 -0.4927
21749SOL    HW266689   5.180   4.488   0.224  1.0130  0.1565 -1.1959
21750SOL     OW66690   4.747   2.977  11.001 -0.0942 -0.1845 -0.1558
21750SOL    HW166691   4.832   3.001  10.963 -0.9609  1.4382 -1.2070
21750SOL    HW266692   4.745   3.023  11.085  0.0795 -0.2426 -0.1198
21751SOL     OW66693   7.153   3.844   7.932 -0.0136  0.0559 -0.4084
21751SOL    HW166694   7.110   3.900   7.867  0.7504  1.5969  0.3491
21751SOL    HW266695   7.081   3.807   7.984 -0.5552  0.0153 -1.1809
21752SOL     OW66696   6.280   4.472   9.443  0.0046  0.0272  0.5923
21752SOL    HW166697   6.273   4.429   9.528 -1.9611  0.8964  0.9262
21752SOL    HW266698   6.265   4.403   9.379 -1.4503 -0.1161  1.0670
21753SOL     OW66699   6.003   6.081  11.668  0.0727  0.4951 -0.5920
21753SOL    HW166700   6.033   5.996  11.635  1.1137  1.1236 -1.3101
21753SOL    HW266701   6.010   6.073  11.763  0.5006 -0.0939 -0.6650
21754SOL     OW66702   7.412   5.042  10.485 -0.8607 -0.0332  0.1954
21754SOL    HW166703   7.451   5.128  10.473  2.1655 -1.3116 -0.2409
21754SOL    HW266704   7.349   5.033  10.414 -0.3551  1.3722 -0.4571
21755SOL     OW66705   5.301   4.156   0.604  0.4360 -0.2190  0.2114
21755SOL    HW166706   5.381   4.187   0.561  0.3731 -1.4540 -0.8570
21755SOL    HW266707   5.263   4.235   0.644  1.9824  0.4509  0.4331
21756SOL     OW66708   6.919   4.809   9.592 -0.5767 -0.1093 -0.1012
21756SOL    HW166709   6.984   4.870   9.558 -0.8454 -0.5545 -1.4445
21756SOL    HW266710   6.852   4.803   9.525 -1.1153 -1.0331  0.4837
21757SOL     OW66711   4.702   3.976   9.030 -0.1437  0.1983 -0.6190
21757SOL    HW166712   4.670   4.018   9.110 -0.8461 -0.9165 -0.3020
21757SOL    HW266713   4.645   4.009   8.961 -0.0497  0.5349 -0.5380
21758SOL     OW66714   4.879   5.651  10.152  0.3293  0.3052  0.5928
21758SOL    HW166715   4.816   5.586  10.183  0.3522 -0.8384 -1.6052
21758SOL    HW266716   4.877   5.720  10.219 -1.3938 -0.8711  1.8293
21759SOL     OW66717   5.872   3.539   8.461 -0.1225  0.0872 -0.0658
21759SOL    HW166718   5.799   3.601   8.462 -0.6085 -0.4682  0.2710
21759SOL    HW266719   5.938   3.579   8.404 -2.3813 -1.3126 -4.0892
21760SOL     OW66720   5.292   4.528  10.697  0.7056  0.3215  0.4007
21760SOL    HW166721   5.338   4.575  10.627 -1.2815  3.0479  0.7546
21760SOL    HW266722   5.304   4.583  10.774  0.1247 -0.9438  1.4266
21761SOL     OW66723   0.375   2.667  11.632  0.5528  0.2419  0.3233
21761SOL    HW166724   0.291   2.649  11.590  0.7726  0.2579 -0.1261
21761SOL    HW266725   0.421   2.724  11.571  0.7439  0.5366  0.7364
21762SOL     OW66726   6.972   5.785  10.424 -0.1799 -0.5135  0.1036
21762SOL    HW166727   6.982   5.762  10.517 -2.9555  0.9181  0.8577
21762SOL    HW266728   6.881   5.813  10.416  0.1301 -0.0672 -2.9772
21763SOL     OW66729   6.103   4.835   9.351 -0.2309 -0.0198 -0.0787
21763SOL    HW166730   6.181   4.853   9.404 -0.5116 -0.3675  0.4694
21763SOL    HW266731   6.094   4.911   9.295 -0.6327  0.9498  1.2487
21764SOL     OW66732   6.040   4.256  11.348 -0.0043 -0.4428 -0.3708
21764SOL    HW166733   6.061   4.347  11.326 -3.6072  0.0908 -2.5572
21764SOL    HW266734   5.953   4.242  11.311 -1.5109 -3.5345  3.5279
21765SOL     OW66735   6.396   5.678  10.844  0.0983  0.5113 -0.4040
21765SOL    HW166736   6.350   5.758  10.821  0.5529  0.8018 -0.3075
21765SOL    HW266737   6.328   5.610  10.844 -0.3491  0.9564 -0.1208
21766SOL     OW66738   5.067   6.559   0.750 -0.0874 -0.1927 -0.2173
21766SOL    HW166739   5.079   6.465   0.759 -0.1977 -0.4932 -2.5062
21766SOL    HW266740   5.136   6.586   0.689  2.4340  1.9528  3.2121
21767SOL     OW66741   3.993   6.717   9.824 -0.7285  0.5963  0.1357
21767SOL    HW166742   4.062   6.780   9.802  1.1076 -1.0551  0.7999
21767SOL    HW266743   3.971   6.737   9.915 -2.7473  2.4843 -0.6922
21768SOL     OW66744   5.305   6.943   9.895 -0.4314  0.8111  0.0233
21768SOL    HW166745   5.260   6.905   9.970 -0.9343  2.7528  0.7802
21768SOL    HW266746   5.371   6.878   9.870 -0.5523 -0.0691  1.8678
21769SOL     OW66747   6.113   5.763  10.554 -0.7470 -0.6183 -0.3393
21769SOL    HW166748   6.083   5.818  10.481 -1.3546  0.0712  0.4047
21769SOL    HW266749   6.033   5.725  10.590 -0.8107  1.1673  1.6187
21770SOL     OW66750   6.332   3.624   8.552 -0.2638  0.5587  0.2757
21770SOL    HW166751   6.365   3.540   8.582 -2.5584 -0.2498  0.7632
21770SOL    HW266752   6.256   3.641   8.608 -0.0939  2.7740 -0.0782
21771SOL     OW66753   7.390   3.156   9.752 -0.4258 -0.5852 -0.4484
21771SOL    HW166754   7.431   3.205   9.681  0.4955  0.2905  0.6533
21771SOL    HW266755   7.306   3.200   9.766 -0.8276 -1.0699 -1.3165
21772SOL     OW66756   5.838   3.734  10.230  0.1376 -0.1922 -0.2546
21772SOL    HW166757   5.814   3.741  10.322 -0.1783  0.3378 -0.3682
21772SOL    HW266758   5.904   3.665  10.227 -0.0948 -0.4464  0.3182
21773SOL     OW66759   7.133   6.141  10.605 -0.5591 -0.3290 -0.2461
21773SOL    HW166760   7.042   6.168  10.619 -0.1665  1.1079 -0.3486
21773SOL    HW266761   7.153   6.084  10.680 -0.4162  2.3154  1.8800
21774SOL     OW66762   5.452   5.743   8.575 -0.2417  0.2341 -0.0749
21774SOL    HW166763   5.537   5.725   8.535 -0.8273 -1.6882 -0.5416
21774SOL    HW266764   5.466   5.728   8.669 -0.1173 -0.3209 -0.1795
21775SOL     OW66765   4.878   4.297  12.232  0.3719 -0.4740 -0.6112
21775SOL    HW166766   4.955   4.245  12.211  0.3091  0.3985 -3.5817
21775SOL    HW266767   4.809   4.260  12.177 -0.9795 -0.3372  0.9298
21776SOL     OW66768   6.214   6.741  11.873  0.4012 -0.3184 -0.1193
21776SOL    HW166769   6.278   6.746  11.944 -0.2167 -0.6002  0.4677
21776SOL    HW266770   6.161   6.664  11.894 -2.5234  1.9190  1.4701
21777SOL     OW66771   7.108   5.308  10.209  0.1108  0.2598 -0.2755
21777SOL    HW166772   7.030   5.343  10.251  2.1407  0.4583  3.8437
21777SOL    HW266773   7.137   5.378  10.150 -1.0547  1.4941  0.5583
21778SOL     OW66774   7.021   6.896   9.974  0.1482 -0.0013 -0.3141
21778SOL    HW166775   7.068   6.812   9.979  0.9418  0.3249 -1.7132
21778SOL    HW266776   7.090   6.962   9.978 -0.3308  0.5420 -0.9203
21779SOL     OW66777   0.232   5.928  11.372  0.1872 -0.1963 -0.0192
21779SOL    HW166778   0.303   5.898  11.429 -0.2544  0.0727  0.6856
21779SOL    HW266779   0.209   6.015  11.405 -0.5022 -0.2999 -0.2028
21780SOL     OW66780   4.796   4.645   9.419  0.4646  0.0546  0.0428
21780SOL    HW166781   4.714   4.621   9.462  0.9300 -1.5265  0.1096
21780SOL    HW266782   4.769   4.693   9.341 -0.4861  0.4102  0.5764
21781SOL     OW66783   6.019   5.500  10.300  0.7795 -0.2000 -0.2684
21781SOL    HW166784   6.014   5.591  10.270 -0.7793  0.1873  1.0142
21781SOL    HW266785   5.928   5.474  10.313  1.2133 -1.9044 -0.4632
21782SOL     OW66786   5.706   5.468   8.685  0.2709  0.1633 -0.4387
21782SOL    HW166787   5.778   5.420   8.726  0.5553 -0.0426 -1.1494
21782SOL    HW266788   5.644   5.484   8.755  1.0786  0.4741  0.2200
21783SOL     OW66789   6.247   6.161  11.547  0.6126  0.1330 -0.3291
21783SOL    HW166790   6.255   6.189  11.455  0.5314 -2.6685 -1.2792
21783SOL    HW266791   6.154   6.137  11.556  0.8095 -0.4359  0.2200
21784SOL     OW66792   7.014   3.742  10.786 -0.1506  0.0017 -0.6186
21784SOL    HW166793   6.971   3.827  10.772 -0.8439 -0.1591  0.4599
21784SOL    HW266794   7.108   3.763  10.786 -0.2811  0.6465 -1.0736
21785SOL     OW66795   6.240   5.896  10.755 -0.1193  0.6363  0.1042
21785SOL    HW166796   6.175   5.929  10.816 -0.6862 -0.0868 -0.0897
21785SOL    HW266797   6.189   5.851  10.687  0.5105  1.1875 -0.7564
21786SOL     OW66798   5.819   4.124  11.649  0.2842 -0.0789 -0.8604
21786SOL    HW166799   5.879   4.099  11.719  0.8197  1.2217 -0.8319
21786SOL    HW266800   5.847   4.072  11.573  1.7133  0.7764 -0.9548
21787SOL     OW66801   6.054   5.639   7.333 -0.1227 -0.1409  0.0615
21787SOL    HW166802   5.970   5.606   7.367  1.0044 -0.7519  2.4715
21787SOL    HW266803   6.087   5.568   7.277 -0.9071 -0.1424 -0.4199
21788SOL     OW66804   6.546   6.534  11.877 -0.0964 -0.0032  0.3709
21788SOL    HW166805   6.611   6.519  11.809 -0.9290  1.9840 -0.9688
21788SOL    HW266806   6.534   6.449  11.918  2.9017 -0.5625  0.3252
21789SOL     OW66807   7.366   3.117   9.133 -0.4069 -0.0313  0.0426
21789SOL    HW166808   7.461   3.105   9.133 -0.1198  1.7830 -1.2131
21789SOL    HW266809   7.337   3.078   9.051 -0.5321  0.6250 -0.2337
21790SOL     OW66810   5.740   3.486   7.987  0.2419  0.4660 -0.3001
21790SOL    HW166811   5.833   3.463   7.998  0.7712  2.5843  0.1202
21790SOL    HW266812   5.734   3.576   8.020 -2.3153 -0.1729  1.2344
21791SOL     OW66813   5.770   5.963   9.949  0.3323 -0.4749 -0.4268
21791SOL    HW166814   5.723   5.880   9.940 -0.2764 -0.1952  0.0950
21791SOL    HW266815   5.805   5.961  10.038  0.8512 -0.4459 -0.6311
21792SOL     OW66816   6.209   5.064  10.481  0.5648  0.1945 -0.0753
21792SOL    HW166817   6.195   5.043  10.389 -0.7959 -1.3895  0.4478
21792SOL    HW266818   6.151   5.005  10.529  0.5441  1.6065  1.7787
21793SOL     OW66819   5.503   5.283   9.343 -0.0859 -0.1883  0.6162
21793SOL    HW166820   5.464   5.228   9.274 -0.4052  0.1376  0.5371
21793SOL    HW266821   5.565   5.225   9.387  0.3912 -0.2981 -0.1810
21794SOL     OW66822   5.953   5.291  10.602  0.2109  0.0546  0.3779
21794SOL    HW166823   5.942   5.249  10.687 -0.7718 -2.6104 -0.9473
21794SOL    HW266824   6.041   5.265  10.574 -0.1002 -0.4905 -0.1137
21795SOL     OW66825   4.216   5.562  10.791  0.4108  0.4096 -0.4243
21795SOL    HW166826   4.153   5.602  10.731  0.4719 -2.4350 -2.5841
21795SOL    HW266827   4.253   5.489  10.742  2.6363 -0.3385  2.1243
21796SOL     OW66828   6.421   5.401   9.821 -0.3750  0.6276 -0.0469
21796SOL    HW166829   6.405   5.495   9.827 -1.8018  0.3455  0.9671
21796SOL    HW266830   6.506   5.388   9.864 -0.6796  1.3158  0.7764
21797SOL     OW66831   7.469   5.432  10.341  0.1416 -0.3666 -0.6471
21797SOL    HW166832   7.548   5.473  10.375  0.8723 -0.4047 -2.2023
21797SOL    HW266833   7.406   5.437  10.413  1.3530  0.2306  0.4049
21798SOL     OW66834   5.169   4.083   9.921  0.5724  0.2134  0.3601
21798SOL    HW166835   5.087   4.119   9.955  1.3869  0.7136  1.8959
21798SOL    HW266836   5.236   4.118   9.979  2.0198  0.7619 -1.5725
21799SOL     OW66837   5.348   5.036   7.776 -0.0051 -0.2604  0.6127
21799SOL    HW166838   5.314   4.950   7.802 -0.7616  0.2204  1.2765
21799SOL    HW266839   5.419   5.054   7.838  0.1366 -0.3908  0.4893
21800SOL     OW66840   5.484   4.348   0.140 -0.8723 -0.2097 -0.1805
21800SOL    HW166841   5.437   4.282   0.191  0.7655  0.6573  2.6240
21800SOL    HW266842   5.572   4.312   0.129 -0.1984  1.0834  0.6883
21801SOL     OW66843   5.357   5.463   9.540 -0.1684 -0.4587 -0.1468
21801SOL    HW166844   5.365   5.408   9.462  1.4182  0.2046 -0.4998
21801SOL    HW266845   5.363   5.402   9.613 -0.5778 -0.9727 -0.5364
21802SOL     OW66846   5.192   5.279  11.542  0.0006  0.3807 -0.5361
21802SOL    HW166847   5.132   5.302  11.471  0.5560 -0.9541 -1.4666
21802SOL    HW266848   5.150   5.206  11.586 -0.0277  0.7821  0.1122
21803SOL     OW66849   5.986   4.647   0.375 -0.0569  0.5236  0.1060
21803SOL    HW166850   5.915   4.660   0.312  0.0429  2.0702  0.2719
21803SOL    HW266851   6.039   4.577   0.337 -0.1761  1.1980 -1.3905
21804SOL     OW66852   4.683   2.589  10.034  0.1221  0.0843 -0.0265
21804SOL    HW166853   4.659   2.568   9.944  0.8326 -3.3057  0.4358
21804SOL    HW266854   4.775   2.616  10.029  0.3365 -0.6596 -0.3059
21805SOL     OW66855   6.043   6.002  10.906  0.0204  0.1170 -0.2855
21805SOL    HW166856   6.029   6.090  10.941  0.4188  0.5668 -1.2060
21805SOL    HW266857   6.034   5.944  10.981  0.2994  0.9924  0.4412
21806SOL     OW66858   5.238   3.426   8.376 -0.2226  0.3436  0.2241
21806SOL    HW166859   5.173   3.484   8.415 -0.7594 -0.8536  1.1764
21806SOL    HW266860   5.194   3.341   8.371  0.5505 -0.0095 -1.1041
21807SOL     OW66861   6.588   6.607   8.987  0.1400  0.4775  0.0385
21807SOL    HW166862   6.567   6.516   9.008 -0.4931  0.1055 -2.0330
21807SOL    HW266863   6.670   6.602   8.937 -1.5998  0.6148 -3.0525
21808SOL     OW66864   6.118   5.402  11.458  0.0402  0.1135 -0.1104
21808SOL    HW166865   6.139   5.348  11.534 -0.7413  0.2419  0.2072
21808SOL    HW266866   6.043   5.359  11.418 -0.1305  0.5533 -0.2760
21809SOL     OW66867   6.128   6.139   8.609  0.0457 -0.4534 -0.2316
21809SOL    HW166868   6.050   6.091   8.583  0.1881 -0.7551 -0.1103
21809SOL    HW266869   6.110   6.165   8.700 -0.0548 -0.2266 -0.3164
21810SOL     OW66870   5.728   4.585  10.604 -0.4421 -0.6986  0.1564
21810SOL    HW166871   5.678   4.622  10.531  0.1300  1.1435  0.6376
21810SOL    HW266872   5.663   4.565  10.670 -0.7635 -0.4344 -0.0770
21811SOL     OW66873   7.353   4.981  11.234 -0.0396  0.4899  0.5573
21811SOL    HW166874   7.398   5.046  11.179  0.4221  0.3098  0.7190
21811SOL    HW266875   7.423   4.928  11.270 -0.2174  1.3628  2.3034
21812SOL     OW66876   4.896   6.426  11.473 -0.0191  0.3417 -0.2081
21812SOL    HW166877   4.815   6.437  11.523 -0.3472 -1.5723 -0.2233
21812SOL    HW266878   4.962   6.404  11.539  0.0778  0.1556 -0.3654
21813SOL     OW66879   6.456   4.015  10.591  0.6911  0.3168  0.3600
21813SOL    HW166880   6.470   4.081  10.523  0.2156 -0.9779 -1.0167
21813SOL    HW266881   6.470   4.064  10.673  1.0799  1.9502 -0.6200
21814SOL     OW66882   6.572   4.977  11.197 -0.1756  0.5547 -0.2373
21814SOL    HW166883   6.542   4.909  11.258  1.1329  0.3511  0.2105
21814SOL    HW266884   6.631   4.931  11.138 -0.5823  0.9790 -0.9832
21815SOL     OW66885   4.351   6.151  10.675  0.5601  0.5450 -0.0372
21815SOL    HW166886   4.413   6.192  10.736  0.4047  0.0412  0.4683
21815SOL    HW266887   4.355   6.058  10.696  0.0486  0.4435 -0.3829
21816SOL     OW66888   7.914   4.737   0.282  0.0800  0.2957 -0.3946
21816SOL    HW166889   7.920   4.807   0.216  0.4129 -0.4538 -1.1824
21816SOL    HW266890   7.954   4.775   0.360  1.0499  0.7181 -1.0645
21817SOL     OW66891   7.942   4.441  11.639 -0.6313 -0.0115  0.1405
21817SOL    HW166892   8.001   4.515  11.625 -0.2333 -0.5082 -0.8962
21817SOL    HW266893   7.964   4.409  11.727 -0.5127  0.8156  0.4261
21818SOL     OW66894   5.332   4.896   0.699  0.4636  0.1624 -0.2445
21818SOL    HW166895   5.345   4.815   0.650  3.3302 -0.0696  0.7319
21818SOL    HW266896   5.318   4.868   0.790  0.3371  0.7431 -0.0754
21819SOL     OW66897   5.493   6.474  11.587 -0.0141 -0.0546 -0.0963
21819SOL    HW166898   5.440   6.410  11.539  0.2758 -0.6608  0.3772
21819SOL    HW266899   5.473   6.557  11.545 -1.8080 -0.1687  0.4275
21820SOL     OW66900   6.190   4.486   8.555  0.5443 -0.2564  0.2504
21820SOL    HW166901   6.252   4.535   8.608  0.8732 -0.0916 -0.2780
21820SOL    HW266902   6.242   4.452   8.482  0.1138 -0.5308  0.0621
21821SOL     OW66903   6.302   5.148   9.451  0.5811 -0.4188  0.2428
21821SOL    HW166904   6.285   5.219   9.513 -1.4709  1.0661 -1.8598
21821SOL    HW266905   6.280   5.068   9.500  1.7626  0.4191  2.2663
21822SOL     OW66906   6.660   5.551  10.249  0.1534 -0.1047 -0.2653
21822SOL    HW166907   6.577   5.588  10.220  0.2667 -0.2405 -0.7748
21822SOL    HW266908   6.723   5.623  10.244  0.3480 -0.3233 -1.1422
21823SOL     OW66909   6.118   3.976  12.224  0.1644 -0.0380 -0.1382
21823SOL    HW166910   6.032   3.941  12.201  0.4287  0.1710 -1.5412
21823SOL    HW266911   6.102   4.068  12.245  0.0369 -0.0178 -0.3285
21824SOL     OW66912   5.777   5.393  10.227 -0.3878 -0.6724  0.6787
21824SOL    HW166913   5.700   5.397  10.171  1.0510  2.0066 -1.3619
21824SOL    HW266914   5.820   5.311  10.202  0.7364  0.8377 -3.2319
21825SOL     OW66915   5.191   4.653  11.110  0.1818 -0.2257  0.2466
21825SOL    HW166916   5.116   4.657  11.170  1.0871 -0.4612  1.4330
21825SOL    HW266917   5.159   4.694  11.030 -2.4114 -3.5409 -0.6397
21826SOL     OW66918   0.259   4.561  10.077  0.7563  0.1884 -0.3012
21826SOL    HW166919   0.236   4.469  10.084  1.2984  0.0741 -0.0000
21826SOL    HW266920   0.279   4.574   9.984  0.0321  0.1645 -0.4713
21827SOL     OW66921   6.187   4.230  10.662  0.2346 -0.1301  0.5005
21827SOL    HW166922   6.199   4.171  10.737  2.4820  0.0178  0.3266
21827SOL    HW266923   6.092   4.232  10.648 -0.2588 -0.2832  3.2349
21828SOL     OW66924   0.535   4.258   9.555  0.1456 -0.0952  0.0358
21828SOL    HW166925   0.503   4.177   9.595  0.5427  0.0117  0.5710
21828SOL    HW266926   0.468   4.280   9.491 -0.9217  0.1743  1.2052
21829SOL     OW66927   6.102   3.274   9.151  0.0494  0.7308  0.3344
21829SOL    HW166928   6.118   3.259   9.058  1.3523  1.0609  0.4759
21829SOL    HW266929   6.024   3.328   9.155  0.0782  0.8403 -0.5786
21830SOL     OW66930   0.791   5.768  11.315  0.2865  0.3689  0.2012
21830SOL    HW166931   0.884   5.769  11.339  0.7493  0.2452 -1.4457
21830SOL    HW266932   0.775   5.855  11.279 -0.1202  0.2394  0.0698
21831SOL     OW66933   1.969   4.522  11.954  0.5436  0.1503  0.3805
21831SOL    HW166934   1.890   4.473  11.931  0.7956 -0.8938  1.6347
21831SOL    HW266935   1.983   4.580  11.879 -0.4507 -0.8346 -0.6167
21832SOL     OW66936   6.126   4.600   9.999 -0.0771 -0.3892  0.1446
21832SOL    HW166937   6.218   4.572  10.001 -0.4352 -1.5494  1.3812
21832SOL    HW266938   6.077   4.524  10.030 -1.6178 -0.3092 -1.9062
21833SOL     OW66939   5.536   4.667   7.618  0.2930  0.5258 -0.5767
21833SOL    HW166940   5.441   4.665   7.632  0.4720  0.8734  0.8247
21833SOL    HW266941   5.571   4.603   7.679  1.0258  1.0251 -0.4625
21834SOL     OW66942   5.417   6.468   9.709  0.5934 -0.3306 -0.1990
21834SOL    HW166943   5.321   6.473   9.707  0.4558 -0.7513  1.9762
21834SOL    HW266944   5.435   6.379   9.740  1.6244  0.1718  0.6945
21835SOL     OW66945   6.290   4.580  10.698 -0.3468  0.1978  0.0737
21835SOL    HW166946   6.269   4.494  10.660  1.9654 -0.8029  0.8276
21835SOL    HW266947   6.374   4.604  10.658  1.1586  0.0660  2.8588
21836SOL     OW66948   6.376   2.096  12.247 -0.1475 -0.4589 -0.2509
21836SOL    HW166949   6.386   2.164  12.180 -1.0792 -0.0193  0.0251
21836SOL    HW266950   6.357   2.016  12.198 -0.0359 -0.3102 -0.5404
21837SOL     OW66951   6.801   6.495   9.930 -0.3190  0.5914  0.1189
21837SOL    HW166952   6.755   6.564   9.884  1.1375  0.1735 -2.1439
21837SOL    HW266953   6.892   6.503   9.901  0.4597 -0.5126  2.0104
21838SOL     OW66954   5.285   4.167   9.229 -0.3705 -0.0626  0.0304
21838SOL    HW166955   5.277   4.175   9.134  0.1335 -2.2343 -0.2421
21838SOL    HW266956   5.208   4.214   9.264 -1.6933 -0.9867 -1.5303
21839SOL     OW66957   6.637   6.641  11.366  0.3549 -0.2868 -0.1792
21839SOL    HW166958   6.567   6.580  11.387  0.0025  0.0763 -0.2770
21839SOL    HW266959   6.599   6.727  11.385  0.9564 -0.1211  0.2859
21840SOL     OW66960   6.038   4.254   0.835 -0.1738 -0.4855  0.0170
21840SOL    HW166961   6.108   4.305   0.875 -0.3364  0.4515 -0.8655
21840SOL    HW266962   6.078   4.168   0.820  1.0721  0.2454 -1.1766
21841SOL     OW66963   6.194   4.599  12.471 -0.0824 -0.2881  0.2733
21841SOL    HW166964   6.206   4.531  12.404 -0.2649  0.7742 -0.8638
21841SOL    HW266965   6.265   4.661  12.456 -0.2223  0.0521  0.9756
21842SOL     OW66966   5.631   5.361   0.745 -0.4934 -0.2406 -0.5252
21842SOL    HW166967   5.708   5.339   0.796 -1.0664  0.3714  0.6334
21842SOL    HW266968   5.662   5.429   0.684 -0.2866  0.5631  0.4562
21843SOL     OW66969   4.414   4.631  12.334 -0.9110 -0.0477 -0.3833
21843SOL    HW166970   4.457   4.709  12.369 -1.4649 -0.7356  1.9704
21843SOL    HW266971   4.321   4.654  12.331 -1.4270 -1.2615  2.5703
21844SOL     OW66972   5.953   5.421  11.930 -0.6012 -0.4316  0.1760
21844SOL    HW166973   5.891   5.427  12.002 -0.1482 -0.0524  0.5417
21844SOL    HW266974   6.039   5.415  11.972 -0.2999  0.1824 -0.3254
21845SOL     OW66975   5.325   3.414  11.085 -0.0992  0.2503  0.1070
21845SOL    HW166976   5.271   3.335  11.088  1.1208 -0.6678 -0.7726
21845SOL    HW266977   5.413   3.384  11.111  0.1692  1.5447  0.8115
21846SOL     OW66978   6.810   3.965  11.258  0.5438  0.4656 -0.3903
21846SOL    HW166979   6.733   3.911  11.238  0.6522  0.6524 -1.3762
21846SOL    HW266980   6.883   3.904  11.261  0.8629  0.6259 -2.6640
21847SOL     OW66981   5.969   6.502  12.141 -0.0052 -0.3433  0.1937
21847SOL    HW166982   5.943   6.592  12.160  0.6515  0.0623 -0.7518
21847SOL    HW266983   6.008   6.471  12.222 -1.0649 -0.1027  0.8211
21848SOL     OW66984   6.996   5.004  11.101 -0.2872  0.0611  0.2064
21848SOL    HW166985   7.029   4.950  11.030  1.1926  1.6716 -0.3829
21848SOL    HW266986   6.925   5.055  11.061  1.5752  2.1303 -0.6360
21849SOL     OW66987   6.696   6.091  12.203 -0.0564 -0.3482  0.2193
21849SOL    HW166988   6.679   6.156  12.271 -0.6268 -0.7836  0.5001
21849SOL    HW266989   6.770   6.040  12.236  0.9725  0.6997 -0.3996
21850SOL     OW66990   0.803   6.470  11.698 -0.6133  0.4149  0.4284
21850SOL    HW166991   0.810   6.537  11.630 -1.2649  0.6855  0.6211
21850SOL    HW266992   0.889   6.430  11.700 -0.9424 -0.5346 -1.5177
21851SOL     OW66993   6.259   4.417  12.250  0.3770  0.1608 -0.2600
21851SOL    HW166994   6.183   4.383  12.203  1.7468 -0.1981 -2.3592
21851SOL    HW266995   6.334   4.384  12.200  2.0820 -1.8426  3.2145
21852SOL     OW66996   7.102   5.936  10.819  0.4829 -0.5354 -0.2451
21852SOL    HW166997   7.104   5.974  10.907  2.1837  0.5120 -0.6845
21852SOL    HW266998   7.009   5.925  10.800 -0.2194  3.5408 -0.0924
21853SOL     OW66999   5.468   5.921  10.978 -0.0170 -0.1439  0.4851
21853SOL    HW167000   5.400   5.867  11.019 -0.2759 -0.8016 -0.7701
21853SOL    HW267001   5.527   5.945  11.050 -2.0068  1.1704  1.7845
21854SOL     OW67002   3.659   5.437  12.438 -0.1594 -0.4238  0.4960
21854SOL    HW167003   3.622   5.503  12.496 -0.4030  0.2762 -0.4334
21854SOL    HW267004   3.597   5.430  12.366  0.5258 -0.6822 -0.0870
21855SOL     OW67005   6.167   3.706  11.718  0.1167  0.0154  0.1336
21855SOL    HW167006   6.229   3.775  11.692  0.2495 -0.0354  0.3129
21855SOL    HW267007   6.159   3.716  11.813  1.2140 -1.0915  0.3738
21856SOL     OW67008   6.403   5.683   9.837 -0.2356 -0.0765 -0.2227
21856SOL    HW167009   6.359   5.764   9.812  0.4223  0.1467 -0.6850
21856SOL    HW267010   6.496   5.706   9.841  0.0932 -1.0819 -1.5052
21857SOL     OW67011   5.874   2.776   0.194  0.4865 -0.0180  0.1703
21857SOL    HW167012   5.831   2.769   0.280  0.7098  0.0666  0.2903
21857SOL    HW267013   5.963   2.807   0.215  0.4649  0.2317 -0.1103
21858SOL     OW67014   6.261   2.534   9.995 -0.4411 -0.3062  0.1840
21858SOL    HW167015   6.309   2.599  10.046  1.2868 -0.2902 -1.3377
21858SOL    HW267016   6.203   2.586   9.939  1.9115  0.1744 -2.0233
21859SOL     OW67017   6.062   5.707  12.025  0.3929 -0.0088  0.1963
21859SOL    HW167018   6.046   5.672  12.113  0.8913  0.0126  0.2951
21859SOL    HW267019   6.116   5.641  11.983 -0.5539 -0.4265 -0.3915
21860SOL     OW67020   5.587   6.044  10.571 -0.7493 -0.2621 -0.0052
21860SOL    HW167021   5.513   5.997  10.610 -0.1703 -0.8038  0.4809
21860SOL    HW267022   5.638   6.074  10.646 -0.0732 -0.5713 -0.3309
21861SOL     OW67023   6.265   4.723   0.206  0.4157 -0.3879 -0.0468
21861SOL    HW167024   6.173   4.743   0.218 -0.4596 -3.7393  0.0088
21861SOL    HW267025   6.266   4.652   0.142  2.8849 -0.8960  0.4252
21862SOL     OW67026   6.452   4.255   0.879 -0.4894 -0.4295  0.6902
21862SOL    HW167027   6.498   4.225   0.800  0.1025  0.1574  0.8060
21862SOL    HW267028   6.401   4.179   0.907  0.2244 -1.0251  0.4136
21863SOL     OW67029   6.589   7.101  12.466  0.1155  0.1136 -0.7838
21863SOL    HW167030   6.534   7.146  12.402 -0.5438 -0.5327 -0.6945
21863SOL    HW267031   6.641   7.170  12.507 -0.3617  0.6911 -1.1397
21864SOL     OW67032   0.405   5.905  12.208  0.8537 -0.4523 -0.3782
21864SOL    HW167033   0.356   5.843  12.263  0.5839  0.4470  0.4286
21864SOL    HW267034   0.397   5.870  12.120  0.2390 -1.2727 -0.0131
21865SOL     OW67035   7.791   5.338   0.100 -0.0900  0.8975 -0.6159
21865SOL    HW167036   7.842   5.371   0.025  0.0283  0.9839 -0.4970
21865SOL    HW267037   7.825   5.250   0.114 -0.1024  0.8863 -0.6554
21866SOL     OW67038   4.760   6.064  10.671 -0.2133 -0.0922  0.1935
21866SOL    HW167039   4.793   6.114  10.596  2.6638 -1.0786  0.6572
21866SOL    HW267040   4.734   5.980  10.634  0.0707 -0.1542  0.1316
21867SOL     OW67041   7.578   4.796  11.244  0.3491  0.2307  0.2980
21867SOL    HW167042   7.611   4.747  11.169 -1.0986  0.7563 -0.7365
21867SOL    HW267043   7.635   4.771  11.317  0.1428 -2.3774 -0.3405
21868SOL     OW67044   0.487   6.171  11.367 -0.5303  0.4068  0.0483
21868SOL    HW167045   0.395   6.186  11.389  0.0328  2.1111  1.5148
21868SOL    HW267046   0.523   6.129  11.446 -0.3955 -1.9932 -1.1977
21869SOL     OW67047   6.492   4.590  10.192 -0.3742  0.4100 -0.2345
21869SOL    HW167048   6.515   4.600  10.100  1.3845 -0.5575  0.0482
21869SOL    HW267049   6.536   4.663  10.236 -1.0561  0.7638 -0.1221
21870SOL     OW67050   6.301   5.234  10.660  0.1307 -0.0937  0.2652
21870SOL    HW167051   6.292   5.215  10.754 -1.6631 -0.9404 -0.0440
21870SOL    HW267052   6.266   5.156  10.616  1.0908  0.2218 -1.1283
21871SOL     OW67053   6.238   3.111   1.133  0.1669 -0.5332 -0.1879
21871SOL    HW167054   6.172   3.168   1.094  0.7636  1.9294  2.1347
21871SOL    HW267055   6.304   3.170   1.169  2.0712 -2.7943  0.3237
21872SOL     OW67056   7.318   5.004  12.010 -0.3600 -0.1355  0.3745
21872SOL    HW167057   7.306   5.007  12.105  0.5862  0.8387  0.4825
21872SOL    HW267058   7.381   4.934  11.995 -2.4283 -2.0576  0.2073
21873SOL     OW67059   6.601   4.463  11.180  0.4749  0.3954 -0.1897
21873SOL    HW167060   6.521   4.475  11.127 -1.1403  1.1899  2.2622
21873SOL    HW267061   6.647   4.390  11.137 -1.4679  0.0182 -1.8015
21874SOL     OW67062   7.200   4.508  12.256  0.0785 -0.2766  0.2263
21874SOL    HW167063   7.257   4.479  12.185  1.3667 -1.6582  1.7570
21874SOL    HW267064   7.117   4.464  12.239  0.8420 -1.8439  0.3846
21875SOL     OW67065   7.042   5.430  11.284 -1.1349 -0.1948  0.3387
21875SOL    HW167066   7.004   5.515  11.259 -1.6123 -0.0867  1.3867
21875SOL    HW267067   7.073   5.393  11.201  0.3948  1.6213  0.0026
21876SOL     OW67068   6.161   5.363   0.553 -0.2112 -0.2793  0.4809
21876SOL    HW167069   6.225   5.327   0.493 -1.4356 -0.1479 -0.9468
21876SOL    HW267070   6.157   5.300   0.625  1.5522 -0.2383  0.6515
21877SOL     OW67071   6.553   4.682  10.603  0.0522 -1.0552  0.7780
21877SOL    HW167072   6.645   4.703  10.585 -0.6184 -0.4820 -2.6730
21877SOL    HW267073   6.511   4.767  10.611 -0.3392 -1.3115  1.4711
21878SOL     OW67074   5.899   4.366  11.908 -0.1757 -0.2298 -0.0139
21878SOL    HW167075   5.883   4.315  11.828 -0.8036  2.0772 -1.4497
21878SOL    HW267076   5.835   4.332  11.971 -0.4875 -1.2769 -0.8653
21879SOL     OW67077   7.025   4.150  11.037  0.2558 -0.8725  0.3740
21879SOL    HW167078   7.018   4.172  11.130  1.4755 -0.8636  0.4903
21879SOL    HW267079   7.110   4.106  11.029 -0.9626 -3.2563 -0.3160
21880SOL     OW67080   7.085   5.028  12.360  0.2819  0.0701 -0.3279
21880SOL    HW167081   7.085   5.046  12.454  1.1320  1.0468 -0.4967
21880SOL    HW267082   7.049   5.107  12.320  1.0362  0.1413 -0.8925
21881SOL     OW67083   6.320   7.401  12.468 -0.2081  0.2427 -0.1342
21881SOL    HW167084   6.321   7.491  12.500 -1.3056  0.0688  0.4557
21881SOL    HW267085   6.247   7.360  12.515  0.4823 -1.0467 -0.1353
21882SOL     OW67086   7.570   6.134  10.762  0.2983 -0.1469 -0.2181
21882SOL    HW167087   7.577   6.138  10.667  2.5969  3.0005 -0.0770
21882SOL    HW267088   7.628   6.062  10.788  1.8832  0.7423 -1.1403
21883SOL     OW67089   7.186   3.648  11.716 -0.2824  0.3141  0.3547
21883SOL    HW167090   7.122   3.606  11.773  0.8443 -4.5157 -1.4452
21883SOL    HW267091   7.153   3.631  11.627  1.5332  1.1760 -0.5331
21884SOL     OW67092   5.461   4.831   0.133 -0.4267 -0.8388  0.0055
21884SOL    HW167093   5.525   4.776   0.088  0.4434  0.2204 -0.0603
21884SOL    HW267094   5.476   4.812   0.226 -0.1000 -0.6787 -0.0139
21885SOL     OW67095   5.342   4.124   0.222  0.3605 -0.2714  0.2048
21885SOL    HW167096   5.290   4.084   0.291 -0.6819  0.2601 -0.2548
21885SOL    HW267097   5.399   4.053   0.191 -2.2232 -1.8272 -1.3808
21886SOL     OW67098   5.918   6.173   1.134 -0.5085  0.0382 -0.0309
21886SOL    HW167099   5.867   6.123   1.070 -0.0139 -0.5186  0.0082
21886SOL    HW267100   5.998   6.123   1.146  0.5890  1.5071 -0.9644
21887SOL     OW67101   6.531   4.363  11.441  0.1536  0.5701 -0.0206
21887SOL    HW167102   6.607   4.401  11.485  0.6908 -0.2818 -0.1810
21887SOL    HW267103   6.549   4.376  11.348 -0.2429  0.9971 -0.0401
21888SOL     OW67104   6.229   7.230  11.794  0.2425  0.2595 -0.2250
21888SOL    HW167105   6.178   7.232  11.874  0.2449  2.0027 -0.2367
21888SOL    HW267106   6.228   7.138  11.767 -1.0783 -0.0841  0.9083
21889SOL     OW67107   7.345   3.984  11.345  0.1991 -0.4178 -0.4324
21889SOL    HW167108   7.283   4.034  11.398 -0.3900 -0.3293 -1.2000
21889SOL    HW267109   7.418   4.044  11.331 -0.7731  0.4843 -1.8752
21890SOL     OW67110   6.077   2.023  12.094  0.4635 -0.4773 -0.1968
21890SOL    HW167111   6.132   1.956  12.134  0.0919 -0.1066  0.9900
21890SOL    HW267112   6.115   2.106  12.123  0.0077 -0.2028 -0.3723
21891SOL     OW67113   5.246   4.843  10.458 -0.1688  0.3334  0.4793
21891SOL    HW167114   5.181   4.810  10.396 -1.9875 -0.7658  2.8271
21891SOL    HW267115   5.204   4.919  10.498  1.2049  1.3607  0.0333
21892SOL     OW67116   5.946   4.760   9.882  0.1511  0.4944 -0.2664
21892SOL    HW167117   5.973   4.737   9.793 -0.8584  2.1618 -1.0466
21892SOL    HW267118   6.013   4.721   9.938  0.4694 -1.1370 -1.6877
21893SOL     OW67119   7.096   4.696   0.897  0.7983  0.0150  0.1027
21893SOL    HW167120   7.094   4.719   0.804  1.5311  0.5366  0.2081
21893SOL    HW267121   7.085   4.601   0.899 -1.7249  0.2363 -0.3735
21894SOL     OW67122   1.228   5.049  11.364  0.5497 -0.1339 -0.1572
21894SOL    HW167123   1.274   4.968  11.344  0.5969 -0.7801  2.2666
21894SOL    HW267124   1.296   5.108  11.396  0.1349 -0.1304  0.7568
21895SOL     OW67125   6.135   5.232  11.674 -0.5623  0.2561  0.1399
21895SOL    HW167126   6.173   5.152  11.711  0.9097  1.2125  0.7558
21895SOL    HW267127   6.043   5.230  11.703 -1.0786 -2.0898 -1.3840
21896SOL     OW67128   7.085   6.112  11.038 -0.0110  0.4768  0.2901
21896SOL    HW167129   7.027   6.118  11.113 -0.0637  0.6557  0.2349
21896SOL    HW267130   7.173   6.120  11.074 -0.0910  2.7494  0.1198
21897SOL     OW67131   7.730   3.109  11.393  0.2623 -0.1902  0.3201
21897SOL    HW167132   7.695   3.104  11.482  0.8469  0.4293  0.5997
21897SOL    HW267133   7.763   3.199  11.386  1.2976 -0.5863 -0.1041
21898SOL     OW67134   6.910   4.034  12.225  0.3880  0.5166 -0.1126
21898SOL    HW167135   6.981   3.970  12.213  2.4311  2.7194 -0.6955
21898SOL    HW267136   6.855   4.023  12.148  1.3937  0.2569 -0.8219
21899SOL     OW67137   6.783   4.016   9.989  0.2436 -0.3360 -0.7267
21899SOL    HW167138   6.870   4.047  10.017 -0.1642 -0.9101  1.2995
21899SOL    HW267139   6.791   3.921   9.985 -0.0961 -0.3478 -1.3143
21900SOL     OW67140   6.795   3.317  10.853 -0.7067 -0.0614 -0.4562
21900SOL    HW167141   6.830   3.386  10.796 -1.9079  0.8317 -0.1504
21900SOL    HW267142   6.808   3.351  10.942 -0.6988 -0.5302 -0.2765
21901SOL     OW67143   4.699   5.083  11.087 -0.1763  0.1823 -0.1220
21901SOL    HW167144   4.694   5.133  11.006  1.0547 -0.2226 -0.4564
21901SOL    HW267145   4.754   5.007  11.066 -2.7162 -1.8699  0.1070
21902SOL     OW67146   6.283   6.284  11.789  0.6731 -0.3866 -0.7909
21902SOL    HW167147   6.229   6.362  11.776  2.3847  1.1319  0.7133
21902SOL    HW267148   6.269   6.232  11.709  0.3768  1.9932 -2.3924
21903SOL     OW67149   0.203   5.000  12.075  0.0164  0.5822 -0.2790
21903SOL    HW167150   0.118   4.999  12.032 -1.2377  1.7202  1.9749
21903SOL    HW267151   0.183   5.000  12.169  2.5453 -0.5500  0.3522
21904SOL     OW67152   7.580   5.187  10.879 -0.0088 -0.2184  0.2872
21904SOL    HW167153   7.657   5.241  10.893  0.2141 -0.0915 -1.2175
21904SOL    HW267154   7.613   5.108  10.836 -0.4887 -1.0063  1.3303
21905SOL     OW67155   0.388   7.065  12.472  1.0023  0.5849  0.2385
21905SOL    HW167156   0.421   7.117  12.545 -0.5696 -1.5317  2.6693
21905SOL    HW267157   0.293   7.073  12.478  0.7318 -1.6904  0.1368
21906SOL     OW67158   6.923   3.912  10.506  0.1024  0.1324  0.0159
21906SOL    HW167159   6.851   3.870  10.553  1.0902 -1.1081  0.4563
21906SOL    HW267160   6.888   3.998  10.481 -2.1255 -1.0790 -1.3003
21907SOL     OW67161   6.822   3.485  11.117  0.0594  0.0091 -0.3748
21907SOL    HW167162   6.881   3.465  11.190 -1.7655  0.1618  1.2287
21907SOL    HW267163   6.814   3.580  11.118  0.2169  0.0296 -0.9309
21908SOL     OW67164   6.860   5.806  10.943 -0.4758  0.0110 -0.1551
21908SOL    HW167165   6.939   5.808  10.998  0.0431 -0.5870 -0.8582
21908SOL    HW267166   6.812   5.730  10.974 -1.4786  1.1386  1.1879
21909SOL     OW67167   0.472   5.387   1.946  0.5638 -0.2755 -0.1535
21909SOL    HW167168   0.563   5.370   1.968  0.1694 -1.9212  0.3923
21909SOL    HW267169   0.426   5.305   1.968 -1.4397  1.2577  1.8455
21910SOL     OW67170   6.056   4.557  10.497 -0.9455  0.4762 -0.0867
21910SOL    HW167171   6.020   4.645  10.486 -0.1909  0.9302  0.9315
21910SOL    HW267172   6.118   4.547  10.424  0.6099  1.6669  1.0122
21911SOL     OW67173   0.371   6.298  12.310  0.1344  0.3971  0.6008
21911SOL    HW167174   0.374   6.276  12.217  3.5676  1.3221  0.3440
21911SOL    HW267175   0.396   6.218  12.354  3.3730  1.0945  0.2796
21912SOL     OW67176   6.769   5.179  11.798 -0.0466 -0.2411 -0.0471
21912SOL    HW167177   6.714   5.185  11.719 -0.2885  0.4356  0.1663
21912SOL    HW267178   6.794   5.270  11.817 -0.4979 -0.3250  1.0073
21913SOL     OW67179   5.821   3.766   0.678 -0.6791 -0.1388  0.2986
21913SOL    HW167180   5.906   3.733   0.649 -0.0198  1.1638  0.6499
21913SOL    HW267181   5.759   3.698   0.653  0.5346 -1.4015  0.5771
21914SOL     OW67182   5.958   5.430  11.003  0.2397  0.5779 -0.0523
21914SOL    HW167183   5.879   5.460  11.048  1.3072  2.1228  0.8893
21914SOL    HW267184   6.013   5.395  11.072 -0.3198 -2.2783 -0.9403
21915SOL     OW67185   7.080   7.551  11.218  0.1423  0.6313 -0.1209
21915SOL    HW167186   7.100   7.579  11.308 -0.3953 -3.0591  1.3421
21915SOL    HW267187   7.007   7.606  11.192 -0.0052  1.5048  1.9058
21916SOL     OW67188   6.403   4.903  11.736 -0.6646  0.2346 -0.5600
21916SOL    HW167189   6.451   4.973  11.691  1.9924 -0.5985  0.7985
21916SOL    HW267190   6.374   4.942  11.818 -0.2715  0.1257 -0.3637
21917SOL     OW67191   6.691   3.798   1.177 -0.5040 -0.0011 -0.0920
21917SOL    HW167192   6.765   3.833   1.226 -1.1055  1.3280 -0.0928
21917SOL    HW267193   6.684   3.855   1.100  0.4062 -2.0231 -1.7521
21918SOL     OW67194   7.677   4.512  11.650  0.0225 -0.1118  0.5688
21918SOL    HW167195   7.764   4.481  11.625  0.8116  1.5586  1.0828
21918SOL    HW267196   7.650   4.453  11.720  1.3144  0.0965  1.2848
21919SOL     OW67197   7.247   5.347   0.417  0.1165  0.4389 -0.2417
21919SOL    HW167198   7.153   5.327   0.416  0.2213 -0.1188  0.3074
21919SOL    HW267199   7.252   5.441   0.402 -0.5180  0.4208 -0.6001
21920SOL     OW67200   4.956   3.770   0.721  0.2362  0.5283 -0.3386
21920SOL    HW167201   4.863   3.758   0.706  0.4762 -1.3722 -0.5675
21920SOL    HW267202   4.996   3.761   0.635  0.7942 -0.8114  0.0366
21921SOL     OW67203   6.651   4.956   1.668 -0.6275 -0.1935 -0.2616
21921SOL    HW167204   6.621   4.995   1.750  0.2915 -2.6174  1.3594
21921SOL    HW267205   6.611   4.868   1.668 -0.4203 -0.3256 -2.3091
21922SOL     OW67206   6.059   6.023  12.395  0.0852  0.3729 -0.0093
21922SOL    HW167207   6.021   6.104  12.361 -0.0473  0.6196  0.7092
21922SOL    HW267208   5.984   5.965  12.411  0.2749 -0.4938 -1.9814
21923SOL     OW67209   6.256   4.411  11.545 -0.2343  0.1154 -0.3808
21923SOL    HW167210   6.258   4.317  11.525  1.8230 -0.2042  1.0919
21923SOL    HW267211   6.301   4.452  11.470  0.3142 -0.2530 -0.2600
21924SOL     OW67212   7.672   4.631  11.048  0.3085  0.1192 -0.1914
21924SOL    HW167213   7.764   4.623  11.072  0.3945 -0.9203 -0.7973
21924SOL    HW267214   7.671   4.626  10.953 -0.2982  1.0765 -0.2482
21925SOL     OW67215   7.496   3.903   0.592 -0.0565  0.5365 -0.3206
21925SOL    HW167216   7.437   3.978   0.603  0.8013  0.9992  1.5632
21925SOL    HW267217   7.552   3.927   0.518 -2.3053 -0.0342 -2.3445
21926SOL     OW67218   5.936   5.216  11.326 -0.8250 -0.0603 -0.0933
21926SOL    HW167219   5.852   5.232  11.283 -0.5398 -1.1563 -1.1144
21926SOL    HW267220   5.916   5.153  11.395 -0.9542  0.1392  0.0480
21927SOL     OW67221   5.735   5.156  10.481  0.2376  0.0540  0.0750
21927SOL    HW167222   5.767   5.195  10.400  0.5815  1.4729  0.8562
21927SOL    HW267223   5.797   5.186  10.548 -1.3649  0.8608  1.2393
21928SOL     OW67224   5.052   5.790   0.172 -0.1691 -0.4022  0.6438
21928SOL    HW167225   4.994   5.735   0.225  0.2620 -0.0554  1.4943
21928SOL    HW267226   5.072   5.865   0.228 -0.1875  0.2762 -0.2473
21929SOL     OW67227   6.337   5.296   0.932 -1.1097  0.4250  0.2526
21929SOL    HW167228   6.382   5.288   1.016 -1.2094 -0.5386  0.2267
21929SOL    HW267229   6.246   5.316   0.955 -1.0275  0.6803  0.3571
21930SOL     OW67230   3.553   2.902   0.807 -0.3058  0.4500 -0.2108
21930SOL    HW167231   3.542   2.827   0.749  2.9144 -2.0845  2.0809
21930SOL    HW267232   3.481   2.895   0.869  0.2498 -1.1373  0.2884
21931SOL     OW67233   7.132   4.847   0.351  0.4547 -0.2875 -1.3328
21931SOL    HW167234   7.203   4.797   0.391  1.7420  2.1510 -0.4032
21931SOL    HW267235   7.056   4.788   0.356  1.5965 -1.7181  0.7664
21932SOL     OW67236   5.531   5.658  11.250 -0.0281  0.3659  0.3324
21932SOL    HW167237   5.530   5.581  11.307 -0.7922 -0.2639 -0.4928
21932SOL    HW267238   5.438   5.679  11.238 -0.2086 -1.6512 -3.3895
21933SOL     OW67239   5.876   5.811  12.437  0.6064  0.6041  0.1400
21933SOL    HW167240   5.901   5.738  12.493  0.5560  1.3333  1.1434
21933SOL    HW267241   5.786   5.832  12.464  0.6573  1.0972 -0.0609
21934SOL     OW67242   6.570   7.010  11.763  0.4426  0.6427 -0.0970
21934SOL    HW167243   6.606   7.095  11.739  0.1804  1.3291  1.7775
21934SOL    HW267244   6.646   6.952  11.765  1.1528  1.5704  1.6411
21935SOL     OW67245   7.967   4.793  11.766  0.1062 -0.4157 -0.2098
21935SOL    HW167246   7.970   4.779  11.671  1.3008  0.8184 -0.3798
21935SOL    HW267247   7.873   4.801  11.786 -0.1382 -0.1358 -1.3725
21936SOL     OW67248   5.351   5.445   0.717  0.1440 -0.3388  0.6034
21936SOL    HW167249   5.305   5.413   0.639 -0.6282 -0.7086  1.1940
21936SOL    HW267250   5.442   5.419   0.703 -0.3844 -2.5813  0.9011
21937SOL     OW67251   6.982   5.309  12.346 -0.2150 -0.2450 -0.5228
21937SOL    HW167252   6.915   5.297  12.278  2.6333 -1.8435 -3.3487
21937SOL    HW267253   7.013   5.399  12.332  0.2370 -0.5083 -1.2704
21938SOL     OW67254   1.529   5.467  12.419  0.1708 -0.0114  0.0734
21938SOL    HW167255   1.438   5.460  12.446  0.1452  0.3368  0.0802
21938SOL    HW267256   1.537   5.554  12.381  0.4997 -0.0403  0.0660
21939SOL     OW67257   6.394   3.539  11.761 -0.1448  0.4803 -0.4997
21939SOL    HW167258   6.327   3.597  11.725 -1.3101 -0.2932  0.3318
21939SOL    HW267259   6.476   3.587  11.751 -0.9658  1.9249 -0.5572
21940SOL     OW67260   7.723   5.981  11.559 -0.4056 -0.0179  0.6160
21940SOL    HW167261   7.754   5.890  11.554  0.5286  0.1908  2.2327
21940SOL    HW267262   7.722   6.010  11.468  0.5233 -1.2379  0.1853
21941SOL     OW67263   6.629   3.768  11.181  0.5138 -0.2837 -0.2419
21941SOL    HW167264   6.537   3.752  11.160 -0.1614 -1.5064  2.9664
21941SOL    HW267265   6.671   3.783  11.097 -2.3026 -1.3522 -1.9809
21942SOL     OW67266   7.506   6.273   0.309 -0.6929  0.3800 -0.7210
21942SOL    HW167267   7.489   6.252   0.401  0.6960 -1.3515 -0.7991
21942SOL    HW267268   7.472   6.198   0.261  1.8232 -0.5113 -1.2713
21943SOL     OW67269   5.655   6.825  10.948 -0.0050 -0.0303 -0.0209
21943SOL    HW167270   5.732   6.773  10.928 -0.3257 -0.3947 -0.3100
21943SOL    HW267271   5.581   6.768  10.926 -0.3696 -0.2634  1.6655
21944SOL     OW67272   7.494   6.198  11.328  0.4370  0.7530 -0.1760
21944SOL    HW167273   7.401   6.214  11.346  0.4731  1.3821 -0.5189
21944SOL    HW267274   7.525   6.280  11.289  0.8049  0.0744 -1.3586
21945SOL     OW67275   5.576   7.329   1.527  0.4008  0.1203 -0.7483
21945SOL    HW167276   5.505   7.330   1.462 -0.4508 -1.2754  0.0980
21945SOL    HW267277   5.574   7.240   1.562  1.0351  0.7460  0.9607
21946SOL     OW67278   5.534   6.211  11.996 -0.2112  0.6078 -0.6449
21946SOL    HW167279   5.590   6.149  12.043 -0.4130  0.7436 -0.2216
21946SOL    HW267280   5.594   6.256  11.936  0.3665  1.5688  0.6248
21947SOL     OW67281   7.063   4.527  11.071  0.4240 -0.9286 -0.0834
21947SOL    HW167282   7.052   4.619  11.092  1.7476 -0.9537  0.8927
21947SOL    HW267283   7.135   4.526  11.008  0.0742 -1.2630 -0.4826
21948SOL     OW67284   5.957   4.910  10.399  0.2795  0.4328 -0.4401
21948SOL    HW167285   5.876   4.937  10.356 -0.3042  1.7105  1.3205
21948SOL    HW267286   5.947   4.941  10.489  1.5959 -1.7625  0.5353
21949SOL     OW67287   7.655   4.750  11.797 -0.9893  0.2611  0.0155
21949SOL    HW167288   7.634   4.658  11.777 -0.8834 -0.1085  1.5208
21949SOL    HW267289   7.574   4.797  11.779 -1.1098 -0.1503 -0.5691
21950SOL     OW67290   6.862   5.114  10.239 -0.1104  0.5566 -0.2858
21950SOL    HW167291   6.871   5.143  10.148  0.6602  1.0715 -0.0528
21950SOL    HW267292   6.877   5.193  10.291  2.2893 -0.2643  0.3888
21951SOL     OW67293   6.351   6.534  12.340  0.2831 -0.3225 -0.1756
21951SOL    HW167294   6.376   6.445  12.315 -1.4666 -0.9067  0.0231
21951SOL    HW267295   6.347   6.582  12.257  2.5607  0.0023 -0.1783
21952SOL     OW67296   7.693   4.577   0.341  0.4890 -0.1726 -0.1949
21952SOL    HW167297   7.736   4.635   0.277 -0.1994  0.2278 -0.2981
21952SOL    HW267298   7.609   4.618   0.358  0.7991 -0.0951  1.2364
21953SOL     OW67299   4.525   4.875  12.408 -0.1769  0.0752 -0.2018
21953SOL    HW167300   4.468   4.948  12.382  0.7415  0.7754 -0.2968
21953SOL    HW267301   4.571   4.908  12.486 -0.1020 -0.5844  0.0362
21954SOL     OW67302   7.209   5.389  11.498 -0.0402 -0.2568 -0.1531
21954SOL    HW167303   7.170   5.308  11.531 -0.3358 -0.0847 -0.0812
21954SOL    HW267304   7.162   5.406  11.417  0.9999 -0.9326 -0.9236
21955SOL     OW67305   6.745   5.614   0.729 -0.5097 -0.5654  0.2603
21955SOL    HW167306   6.783   5.603   0.815 -1.2201 -0.8066  0.5539
21955SOL    HW267307   6.681   5.543   0.722 -0.4079 -0.5909 -0.4877
21956SOL     OW67308   3.740   4.432  10.825 -0.0945  0.3846  0.0029
21956SOL    HW167309   3.792   4.376  10.766 -0.9490 -0.5338  0.0958
21956SOL    HW267310   3.687   4.486  10.766 -0.6319 -0.2294 -0.0921
21957SOL     OW67311   7.938   6.188  11.879  0.1707  1.0067 -0.5417
21957SOL    HW167312   7.933   6.092  11.879  0.3347  0.9981 -1.2441
21957SOL    HW267313   7.887   6.215  11.803 -1.7643  1.5955  0.8751
21958SOL     OW67314   6.975   4.741  11.229  0.2065 -0.2546 -0.3597
21958SOL    HW167315   7.008   4.761  11.316 -0.0278 -2.4145  0.2929
21958SOL    HW267316   6.997   4.818  11.176 -0.7691  1.6843  1.8599
21959SOL     OW67317   7.245   5.236  11.882  0.0582 -0.3904  0.3475
21959SOL    HW167318   7.322   5.182  11.900 -0.4780 -1.1785  0.3806
21959SOL    HW267319   7.207   5.252  11.968 -0.2190 -0.6408  0.2747
21960SOL     OW67320   6.109   4.033   0.153  0.0351 -0.0981  0.2326
21960SOL    HW167321   6.201   4.014   0.135  0.8241  1.6187  2.0206
21960SOL    HW267322   6.105   4.042   0.249 -1.9690 -0.0049  0.1800
21961SOL     OW67323   0.300   5.303  11.091  0.1125 -0.2868 -0.0585
21961SOL    HW167324   0.380   5.342  11.057 -0.5760  1.4344  0.1887
21961SOL    HW267325   0.330   5.244  11.160  1.2066 -0.3314 -0.5435
21962SOL     OW67326   6.334   5.394  11.784 -0.0334 -0.4434  0.0528
21962SOL    HW167327   6.366   5.466  11.730  1.4598 -0.8352  0.3904
21962SOL    HW267328   6.258   5.360  11.736 -1.3507  1.8809  0.3155
21963SOL     OW67329   6.128   5.084  10.187 -0.4119 -0.0849 -0.2836
21963SOL    HW167330   6.186   5.135  10.130 -0.0713  0.3032  0.4044
21963SOL    HW267331   6.165   4.996  10.185 -0.7295 -0.2140 -1.1015
21964SOL     OW67332   4.903   4.729   0.082  0.3020  0.0249  0.1519
21964SOL    HW167333   4.996   4.743   0.100  0.3275 -0.5588  0.5173
21964SOL    HW267334   4.871   4.682   0.160 -0.3713  0.5121  0.1755
21965SOL     OW67335   6.657   4.816  10.229  0.1322  0.4211  0.0234
21965SOL    HW167336   6.684   4.826  10.321  0.7552  0.5394 -0.1692
21965SOL    HW267337   6.721   4.756  10.192 -0.5316 -0.1761 -0.1620
21966SOL     OW67338   7.157   6.050  12.014 -0.3201 -0.1692  0.3246
21966SOL    HW167339   7.224   5.993  12.053  0.8701  0.3773 -0.8318
21966SOL    HW267340   7.121   6.098  12.088  0.8908 -0.1479  0.9394
21967SOL     OW67341   0.816   5.668   0.339  0.2898 -0.4031  0.6309
21967SOL    HW167342   0.738   5.614   0.339 -0.2331  0.3219 -0.2779
21967SOL    HW267343   0.889   5.606   0.347 -0.2804 -1.2597 -0.5533
21968SOL     OW67344   6.619   4.927   0.072 -1.0462 -0.4938 -0.0613
21968SOL    HW167345   6.599   4.834   0.074 -1.7280 -0.3407  0.2051
21968SOL    HW267346   6.647   4.944  -0.018 -3.0545 -0.5203 -0.7303
21969SOL     OW67347   7.427   5.223  11.103  0.2608  0.6894  0.3530
21969SOL    HW167348   7.476   5.196  11.026  0.6669  1.1896  0.4271
21969SOL    HW267349   7.487   5.281  11.150  0.6543 -0.8858  1.9074
21970SOL     OW67350   6.582   5.511   0.469  0.2686  0.0361  0.2354
21970SOL    HW167351   6.610   5.444   0.407  0.0972  0.3736 -0.2109
21970SOL    HW267352   6.539   5.462   0.539 -0.7836 -0.2485 -0.5853
21971SOL     OW67353   6.427   5.881  11.403  0.4428 -0.0469  0.4432
21971SOL    HW167354   6.500   5.838  11.447  0.2533 -0.6843  0.1346
21971SOL    HW267355   6.391   5.940  11.470  1.8937  1.0839  0.2856
21972SOL     OW67356   6.930   7.906  12.024  0.5925 -0.1018  0.0611
21972SOL    HW167357   7.001   7.969  12.012 -0.7367  1.2425 -1.0320
21972SOL    HW267358   6.944   7.840  11.956  0.9983 -0.0684  0.1090
21973SOL     OW67359   4.942   5.414  12.385 -0.0390  0.1003 -0.3651
21973SOL    HW167360   4.943   5.415  12.480  0.4682 -3.0225 -0.2574
21973SOL    HW267361   4.895   5.494  12.361  0.5081  1.3954  2.4336
21974SOL     OW67362   6.359   3.370   1.188 -0.1064  0.0638 -0.0229
21974SOL    HW167363   6.313   3.449   1.159  0.5196  1.0875  1.6535
21974SOL    HW267364   6.431   3.359   1.126 -0.6325  0.3549 -0.6999
21975SOL     OW67365   6.311   3.918  11.606 -0.3820  0.2017  0.2660
21975SOL    HW167366   6.400   3.953  11.607  0.0446 -0.8267 -0.0676
21975SOL    HW267367   6.255   3.994  11.594  0.4707  0.8335  0.2054
21976SOL     OW67368   5.560   4.434  12.065 -0.3748  0.1612 -0.5952
21976SOL    HW167369   5.483   4.407  12.116 -0.9512  1.0389 -0.9754
21976SOL    HW267370   5.523   4.476  11.987  0.4948 -0.3415 -1.2931
21977SOL     OW67371   7.515   3.801  11.339  0.1594 -0.0098  0.0680
21977SOL    HW167372   7.540   3.774  11.427  1.2788 -1.5529 -0.6783
21977SOL    HW267373   7.435   3.852  11.351 -0.2185 -0.9610  1.8723
21978SOL     OW67374   6.017   5.808  11.231 -0.9677 -0.3474  0.0784
21978SOL    HW167375   6.010   5.882  11.291 -0.3807 -1.9933  2.3133
21978SOL    HW267376   5.930   5.800  11.191 -1.3609  0.8373  0.6737
21979SOL     OW67377   6.034   5.021   0.207  0.5546 -0.1684  0.0655
21979SOL    HW167378   6.098   5.040   0.138  1.4681 -1.4670  0.5230
21979SOL    HW267379   5.949   5.041   0.167  0.9616 -2.0573 -1.8916
21980SOL     OW67380   6.299   6.287  10.931  0.1145  0.2205 -0.3029
21980SOL    HW167381   6.272   6.353  10.867  0.7484  1.4867  0.6797
21980SOL    HW267382   6.220   6.269  10.982  0.1512  0.9541  0.0281
21981SOL     OW67383   7.180   5.314  12.128 -0.0256 -0.6438 -0.1414
21981SOL    HW167384   7.104   5.367  12.104 -0.7081 -2.4432 -2.2737
21981SOL    HW267385   7.246   5.378  12.155 -0.8579  1.3420 -2.4272
21982SOL     OW67386   6.565   5.042  11.505 -0.3004 -0.2947  0.1808
21982SOL    HW167387   6.593   5.088  11.426 -0.1848 -1.5781 -0.5695
21982SOL    HW267388   6.622   4.965  11.509 -0.1824 -0.1584  1.6351
21983SOL     OW67389   5.300   6.318  12.065 -1.0934 -0.2725 -0.0619
21983SOL    HW167390   5.390   6.292  12.045 -0.5881  0.5414  1.0882
21983SOL    HW267391   5.278   6.271  12.145 -2.0148 -1.1128 -0.7674
21984SOL     OW67392   0.238   3.406  11.479  0.0678  0.0680 -0.0963
21984SOL    HW167393   0.252   3.501  11.482  2.5996 -0.2522 -0.4052
21984SOL    HW267394   0.234   3.385  11.386 -0.9419 -0.0970 -0.0282
21985SOL     OW67395   6.435   5.163  12.496 -0.1134  0.0576  0.3573
21985SOL    HW167396   6.490   5.117  12.559  0.4669  0.7536  0.3714
21985SOL    HW267397   6.486   5.164  12.415 -1.5101 -2.2461 -0.6442
21986SOL     OW67398   6.465   4.504  11.888  0.4590  0.5138  0.0018
21986SOL    HW167399   6.481   4.556  11.809 -0.4223 -0.2784 -0.7205
21986SOL    HW267400   6.377   4.469  11.876  0.1120  0.7496  1.5625
21987SOL     OW67401   5.147   3.727  11.294 -0.5149  0.3448 -1.0793
21987SOL    HW167402   5.065   3.768  11.264 -0.3934  1.3304 -0.1353
21987SOL    HW267403   5.121   3.639  11.320 -1.1695  0.4513 -1.3357
21988SOL     OW67404   7.019   4.928  10.521  0.1101 -0.1846  0.1137
21988SOL    HW167405   6.975   5.011  10.543  0.4545 -0.2754  1.2393
21988SOL    HW267406   7.094   4.925  10.581  0.9073 -0.6588 -0.8726
21989SOL     OW67407   4.259   5.490  11.998 -0.3197 -0.0082  0.2632
21989SOL    HW167408   4.254   5.416  11.939  0.3671  0.3981 -0.3148
21989SOL    HW267409   4.192   5.472  12.065 -1.0763 -0.4884 -0.5985
21990SOL     OW67410   4.618   5.800   1.729  0.0680 -0.1183 -0.2703
21990SOL    HW167411   4.693   5.760   1.684 -0.0891 -0.2479 -0.4174
21990SOL    HW267412   4.600   5.742   1.802  0.4755  0.2179  0.1082
21991SOL     OW67413   6.977   7.836   1.645  0.1077 -0.4517  0.0873
21991SOL    HW167414   6.887   7.830   1.613 -0.0641  0.9578  0.2612
21991SOL    HW267415   7.027   7.780   1.585 -0.5849  0.2457 -1.1880
21992SOL     OW67416   7.673   7.668   0.065  0.3801  0.3228  0.3794
21992SOL    HW167417   7.599   7.636   0.013  1.2438  0.2896 -0.8676
21992SOL    HW267418   7.640   7.748   0.107 -0.9530 -0.7166  1.3950
21993SOL     OW67419   6.380   7.002   2.661 -0.0125  0.0135  0.5813
21993SOL    HW167420   6.421   7.000   2.575 -1.5396 -1.8898 -0.1904
21993SOL    HW267421   6.290   7.030   2.644 -0.6525 -1.4649  1.3582
21994SOL     OW67422   7.976   0.151   0.915  0.1649  0.0506 -0.0419
21994SOL    HW167423   7.883   0.149   0.891 -0.0229  2.3377  0.3228
21994SOL    HW267424   7.982   0.091   0.990 -1.5085  1.5399  1.3775
21995SOL     OW67425   6.251   7.330   2.668 -0.3470  0.0351 -0.1393
21995SOL    HW167426   6.193   7.257   2.646 -0.9650  0.6080 -0.4413
21995SOL    HW267427   6.307   7.341   2.591 -1.4971  1.0639 -0.8580
21996SOL     OW67428   5.969   4.367   2.056 -0.5393  0.1720  0.5041
21996SOL    HW167429   5.967   4.381   1.962 -0.0922 -0.6729  0.3554
21996SOL    HW267430   5.998   4.450   2.093 -0.9695  0.5857 -0.0793
21997SOL     OW67431   0.808   6.587  12.414  0.3011  0.3155  1.3077
21997SOL    HW167432   0.804   6.670  12.462 -1.3685  0.9111  0.2092
21997SOL    HW267433   0.891   6.591  12.367  0.0761  1.5558  0.9660
21998SOL     OW67434   6.745   5.197   1.262  0.5593  0.3533  0.2599
21998SOL    HW167435   6.651   5.180   1.266  0.2635  1.3893 -1.2207
21998SOL    HW267436   6.773   5.157   1.179  1.5873 -0.5865  1.0371
21999SOL     OW67437   5.972   6.856   2.531 -0.1628  0.1275  0.1674
21999SOL    HW167438   6.014   6.777   2.565 -1.4251 -1.2567 -1.3314
21999SOL    HW267439   5.929   6.828   2.450 -1.9186  2.0030  0.3535
22000SOL     OW67440   7.067   0.113   0.731  0.6689  0.2999  0.3855
22000SOL    HW167441   7.079   0.165   0.652  0.8374  0.3624  0.4531
22000SOL    HW267442   7.031   0.175   0.795  1.6336  0.5358  0.7169
22001SOL     OW67443   5.386   7.167   1.724 -0.5920 -0.4651 -0.0275
22001SOL    HW167444   5.451   7.227   1.761 -1.4738  0.6854 -0.3002
22001SOL    HW267445   5.347   7.125   1.801  0.3436 -1.0571  0.1457
22002SOL     OW67446   6.567   6.564   0.382 -0.3123 -0.2580  0.4194
22002SOL    HW167447   6.538   6.534   0.468 -1.5310 -0.7335 -0.1219
22002SOL    HW267448   6.597   6.484   0.338 -1.4178 -0.3498 -0.2185
22003SOL     OW67449   5.642   0.144   0.154  0.0802  0.1376  0.7937
22003SOL    HW167450   5.731   0.159   0.184  0.1366 -0.3099  0.8469
22003SOL    HW267451   5.601   0.093   0.224 -0.2618  0.4675  0.8365
22004SOL     OW67452   6.004   5.694   1.337 -0.4845 -0.2423  0.2111
22004SOL    HW167453   6.008   5.741   1.420 -1.7636 -0.0128  0.1592
22004SOL    HW267454   6.032   5.758   1.272 -0.9058  0.0351  0.2983
22005SOL     OW67455   7.534   7.797   0.742 -0.2403 -0.0325  0.2988
22005SOL    HW167456   7.614   7.749   0.721  0.3841  0.4266  1.5274
22005SOL    HW267457   7.466   7.753   0.690  0.9561  0.2561 -1.6325
22006SOL     OW67458   4.393   5.886   1.503 -0.2127  0.0063 -0.0608
22006SOL    HW167459   4.482   5.895   1.537 -0.1492 -0.4916 -0.0776
22006SOL    HW267460   4.393   5.799   1.461 -0.5032  0.2904 -0.6628
22007SOL     OW67461   5.613   6.924   3.611 -0.3600 -0.4195  0.4208
22007SOL    HW167462   5.570   6.882   3.536  2.2795 -1.2419 -0.7719
22007SOL    HW267463   5.595   7.017   3.599 -0.1973 -0.5515 -1.1507
22008SOL     OW67464   7.052   7.232   2.393  0.3608 -0.0534  0.3413
22008SOL    HW167465   6.999   7.239   2.473  2.3323  0.9396  1.6270
22008SOL    HW267466   6.994   7.264   2.324 -1.1537 -0.2489  1.4562
22009SOL     OW67467   0.310   6.748   2.899  0.8030 -0.8118 -0.1211
22009SOL    HW167468   0.292   6.830   2.853  2.1581 -0.6066 -0.3244
22009SOL    HW267469   0.224   6.705   2.905  0.1672  0.3446 -0.5207
22010SOL     OW67470   5.983   6.497   0.694  0.2981 -0.3936  0.5667
22010SOL    HW167471   5.899   6.460   0.720  0.2702 -0.9441 -0.2838
22010SOL    HW267472   6.027   6.426   0.646  1.0271  0.0612  0.5460
22011SOL     OW67473   5.877   7.662   1.069  0.2775 -0.2483  0.5832
22011SOL    HW167474   5.847   7.676   1.159  0.1507 -2.1613  0.8659
22011SOL    HW267475   5.958   7.612   1.077  0.7756  0.3607 -0.3648
22012SOL     OW67476   4.826   5.658  12.320 -0.2972 -0.3097 -0.4131
22012SOL    HW167477   4.775   5.679  12.242  0.0733  2.6203  0.0291
22012SOL    HW267478   4.763   5.661  12.391 -0.2589 -0.9366 -0.3488
22013SOL     OW67479   0.315   6.847   0.244  0.5254  0.0765  1.0216
22013SOL    HW167480   0.406   6.870   0.263  0.7112  0.4395 -0.1960
22013SOL    HW267481   0.320   6.769   0.190  0.1148  0.1263  0.9063
22014SOL     OW67482   5.704   7.626   0.640  0.8576 -0.4864  0.1124
22014SOL    HW167483   5.716   7.532   0.629  0.3204 -0.7431  1.5232
22014SOL    HW267484   5.741   7.645   0.726  0.4172  0.4880  0.1018
22015SOL     OW67485   6.072   5.606   1.053  0.2054 -0.4077 -0.1383
22015SOL    HW167486   6.054   5.696   1.080  0.1107 -0.5290  0.2151
22015SOL    HW267487   6.153   5.583   1.099 -0.0001 -0.6447  0.1080
22016SOL     OW67488   6.548   0.021   1.623 -0.1765  0.4797  0.2361
22016SOL    HW167489   6.587   0.109   1.617 -2.5932  1.5602 -1.1391
22016SOL    HW267490   6.454   0.036   1.609 -0.5435 -2.4500 -1.1020
22017SOL     OW67491   7.220   6.361   0.330 -0.3172 -0.3478 -0.3660
22017SOL    HW167492   7.150   6.424   0.350  0.4955  1.8114 -3.4914
22017SOL    HW267493   7.290   6.383   0.391 -0.0165  1.9986 -1.4424
22018SOL     OW67494   6.064   7.449   0.310  0.1497 -0.3484 -0.4931
22018SOL    HW167495   6.029   7.521   0.363 -1.7657 -0.5169 -1.4557
22018SOL    HW267496   6.156   7.473   0.296 -0.1298  1.3143  0.1941
22019SOL     OW67497   6.258   6.220   0.819 -0.0338  0.0302  0.8412
22019SOL    HW167498   6.274   6.258   0.733 -0.8038  1.1087  1.1523
22019SOL    HW267499   6.177   6.169   0.808 -1.9250  2.6435  1.5803
22020SOL     OW67500   7.573   7.124  11.048  0.1999 -0.0628  0.0116
22020SOL    HW167501   7.503   7.158  10.992  0.6909  0.9888  0.0064
22020SOL    HW267502   7.600   7.043  11.006  1.3829  1.2905 -1.9930
22021SOL     OW67503   6.789   0.176   1.324 -0.4221  0.4600 -0.1968
22021SOL    HW167504   6.865   0.230   1.347 -1.1267  1.0249  0.8591
22021SOL    HW267505   6.722   0.200   1.388 -1.4512 -0.1415 -1.0216
22022SOL     OW67506   5.282   4.744  11.572  0.1018  0.0813 -0.3997
22022SOL    HW167507   5.327   4.671  11.614  1.6990  0.1511 -1.8820
22022SOL    HW267508   5.291   4.817  11.633 -1.3041 -0.8471  0.9854
22023SOL     OW67509   7.374   7.251   1.951 -0.0014  0.2258 -0.4291
22023SOL    HW167510   7.404   7.306   1.879 -0.0289  0.0316 -0.5903
22023SOL    HW267511   7.347   7.313   2.019  0.8555  0.4018 -0.2403
22024SOL     OW67512   6.164   7.901   0.618 -0.5131  0.2496 -0.4064
22024SOL    HW167513   6.148   7.807   0.621 -1.0993  0.3664  0.8188
22024SOL    HW267514   6.256   7.910   0.640 -0.9011  0.0403  1.4833
22025SOL     OW67515   0.112   7.136  12.358  0.2439 -0.1256  0.7492
22025SOL    HW167516   0.170   7.174  12.292  0.0600 -0.1033  0.5982
22025SOL    HW267517   0.051   7.206  12.380  0.9459  0.2029  1.7174
22026SOL     OW67518   5.694   5.056   2.233  0.1674 -0.0697 -0.3708
22026SOL    HW167519   5.664   4.970   2.261 -1.2565  0.8535  1.1152
22026SOL    HW267520   5.636   5.118   2.278  2.1809  1.7325 -0.0928
22027SOL     OW67521   7.492   7.903   0.992  0.0136  0.2906 -0.1652
22027SOL    HW167522   7.544   7.847   1.050  1.6236  1.8018 -0.0626
22027SOL    HW267523   7.490   7.856   0.909 -2.0106 -1.7309  0.9006
22028SOL     OW67524   5.096   7.315   1.877 -0.0970 -0.3526 -0.0065
22028SOL    HW167525   5.032   7.295   1.945 -0.8433  0.3303 -0.4885
22028SOL    HW267526   5.137   7.231   1.857  0.8905 -0.4040  2.0129
22029SOL     OW67527   7.918   5.050   0.099 -0.2327 -0.2626  0.3781
22029SOL    HW167528   7.947   5.053   0.008  0.5613  1.3542  0.6502
22029SOL    HW267529   7.996   5.024   0.149 -0.0928  0.8299  0.7715
22030SOL     OW67530   7.364   6.651   3.011  0.3257  0.2539 -0.0303
22030SOL    HW167531   7.341   6.560   3.030 -0.8678  0.6293  0.3885
22030SOL    HW267532   7.281   6.699   3.014  1.0656  1.5506  0.7824
22031SOL     OW67533   6.823   6.335  12.057 -0.6712  0.3670 -0.1110
22031SOL    HW167534   6.859   6.247  12.066 -4.1810 -1.1664  0.6660
22031SOL    HW267535   6.868   6.387  12.123 -0.5485 -1.6445  1.4676
22032SOL     OW67536   5.554   6.051   0.084 -0.1488  0.0314  0.2503
22032SOL    HW167537   5.602   6.120   0.132  0.5513 -0.6268  0.5158
22032SOL    HW267538   5.471   6.045   0.130  0.1421  0.0748  0.7969
22033SOL     OW67539   7.077   5.981   0.471 -0.1236  0.2669  0.3526
22033SOL    HW167540   7.034   5.908   0.515  1.5220 -0.5053  0.7617
22033SOL    HW267541   7.023   6.057   0.492 -3.2176 -1.0916 -2.0134
22034SOL     OW67542   5.490   6.255   1.970  0.0441 -0.4020  0.1911
22034SOL    HW167543   5.473   6.182   1.910  2.2771  1.2347 -2.6586
22034SOL    HW267544   5.574   6.233   2.012  1.1763  0.8202 -1.3314
22035SOL     OW67545   1.343   6.019  11.271 -0.0775  0.0475 -0.5985
22035SOL    HW167546   1.250   6.037  11.286 -0.1732 -1.1984  0.5151
22035SOL    HW267547   1.375   5.993  11.357  1.5524  1.4156 -0.7442
22036SOL     OW67548   1.100   5.861   1.448 -0.2055 -0.0030  0.3424
22036SOL    HW167549   1.185   5.889   1.482 -0.3232 -1.0139  1.5131
22036SOL    HW267550   1.104   5.766   1.449 -1.9153 -0.1085  1.9428
22037SOL     OW67551   1.071   7.246  12.122  0.1115  0.0910  0.0462
22037SOL    HW167552   1.144   7.305  12.103 -0.0194  0.3204  0.2470
22037SOL    HW267553   1.028   7.234  12.038  1.0997 -1.0376 -0.3320
22038SOL     OW67554   4.936   5.079   1.398  0.0184 -0.5230  0.0050
22038SOL    HW167555   4.980   4.999   1.429  0.5935 -0.5439 -0.8087
22038SOL    HW267556   5.005   5.127   1.353 -0.5313  0.0293 -0.2552
22039SOL     OW67557   7.160   0.967   1.054  0.5576 -0.0740 -0.3059
22039SOL    HW167558   7.183   0.918   0.975  1.3784 -0.1650 -0.0257
22039SOL    HW267559   7.097   0.912   1.100  1.2973 -0.7714 -0.1070
22040SOL     OW67560   4.519   5.626   0.585 -0.2139  0.5192  0.1064
22040SOL    HW167561   4.435   5.590   0.612  0.8974 -0.5355  2.4408
22040SOL    HW267562   4.555   5.667   0.664  1.2679  1.3784 -0.9538
22041SOL     OW67563   7.330   6.911   0.360 -0.4053 -0.5643  0.1690
22041SOL    HW167564   7.325   6.949   0.272 -1.4843 -2.0076 -0.4278
22041SOL    HW267565   7.422   6.921   0.385 -0.0309 -0.3010 -1.2086
22042SOL     OW67566   5.784   5.959   0.995  0.2684  0.4888 -0.0801
22042SOL    HW167567   5.764   5.915   0.913  2.0803 -1.1980  0.3113
22042SOL    HW267568   5.700   5.961   1.042 -0.5024  0.2955 -1.4158
22043SOL     OW67569   6.958   4.472   1.164 -0.0106  0.1261 -0.3521
22043SOL    HW167570   6.994   4.534   1.228  1.6282 -1.1742  0.0398
22043SOL    HW267571   6.942   4.392   1.214 -0.3441 -0.3633 -1.2302
22044SOL     OW67572   7.967   6.346   1.387  0.2411 -0.9412 -0.0233
22044SOL    HW167573   8.046   6.375   1.341 -0.8464  0.5861 -1.0393
22044SOL    HW267574   7.967   6.397   1.468  0.4726 -1.2052  0.1444
22045SOL     OW67575   5.349   0.197   2.929  0.2761  0.2266 -0.2458
22045SOL    HW167576   5.377   0.241   2.849 -1.2589 -0.3836 -1.1643
22045SOL    HW267577   5.301   0.119   2.899 -1.3831  0.6085  1.2018
22046SOL     OW67578   5.583   6.264   1.334  0.1781 -0.1447 -0.4337
22046SOL    HW167579   5.589   6.203   1.407 -3.1350 -1.9691 -1.5059
22046SOL    HW267580   5.509   6.320   1.355  0.6225  0.8439 -1.3621
22047SOL     OW67581   7.265   6.518   2.194  0.0209 -0.3922  0.1677
22047SOL    HW167582   7.212   6.440   2.215  0.5621 -0.8516 -0.1359
22047SOL    HW267583   7.232   6.586   2.253 -2.0045 -0.1960 -1.0997
22048SOL     OW67584   6.476   7.110   1.177 -0.0714 -0.2801 -0.3724
22048SOL    HW167585   6.496   7.037   1.118 -0.2519  0.9575 -2.0481
22048SOL    HW267586   6.557   7.127   1.224  0.7143  0.0111 -1.7910
22049SOL     OW67587   6.391   0.860   0.587 -0.1715 -0.6267  0.3678
22049SOL    HW167588   6.434   0.886   0.506  0.6263 -2.4385  0.1765
22049SOL    HW267589   6.450   0.889   0.656 -0.1556 -0.3678  0.2478
22050SOL     OW67590   6.537   7.446   1.049 -0.2434  0.1726  0.3286
22050SOL    HW167591   6.480   7.505   1.000 -0.5197  0.5560  1.0995
22050SOL    HW267592   6.597   7.411   0.984 -1.3693 -0.2527 -0.5190
22051SOL     OW67593   4.438   6.446   1.378 -0.3686  0.1823  0.1363
22051SOL    HW167594   4.513   6.437   1.319  0.0973  2.0966  0.3755
22051SOL    HW267595   4.476   6.469   1.463 -1.2115  2.1984  0.0314
22052SOL     OW67596   7.013   0.272  12.419 -0.6227 -0.0327  0.0184
22052SOL    HW167597   7.094   0.249  12.464 -0.9457 -1.0560  0.0901
22052SOL    HW267598   6.944   0.258  12.485 -0.8573  0.9389 -0.0046
22053SOL     OW67599   7.966   5.822   0.531 -0.1208  0.0517 -0.5272
22053SOL    HW167600   7.931   5.873   0.459 -0.2641 -0.8702 -1.1284
22053SOL    HW267601   7.993   5.887   0.596 -0.4632  0.8709 -1.1891
22054SOL     OW67602   1.434   3.596   2.337  0.0572  0.4879 -0.2257
22054SOL    HW167603   1.416   3.545   2.416  0.6339 -1.0365 -1.0481
22054SOL    HW267604   1.353   3.594   2.287  0.0422  0.4994 -0.2018
22055SOL     OW67605   5.146   5.621   0.712  0.1613  0.1281  0.6835
22055SOL    HW167606   5.065   5.588   0.748 -0.3157 -0.0392 -0.4917
22055SOL    HW267607   5.213   5.558   0.741 -0.7583 -2.1786 -1.7495
22056SOL     OW67608   6.506   5.456   0.777 -0.3688  0.2524  0.6886
22056SOL    HW167609   6.480   5.376   0.824 -0.8358 -0.5136 -0.8137
22056SOL    HW267610   6.438   5.519   0.798 -0.9199 -0.2832  0.5533
22057SOL     OW67611   5.774   7.511   0.884  0.3786 -0.1288  0.0987
22057SOL    HW167612   5.801   7.570   0.954  3.0794  0.8845 -1.6452
22057SOL    HW267613   5.850   7.454   0.869  0.1640  0.1019 -2.3893
22058SOL     OW67614   5.336   3.999   0.806 -0.1390  0.2369 -0.7939
22058SOL    HW167615   5.362   4.083   0.844 -2.5861  0.2824  1.0550
22058SOL    HW267616   5.315   4.019   0.715  1.4479  1.1390 -0.9846
22059SOL     OW67617   4.649   5.374   1.308 -0.2675  0.0839  0.2349
22059SOL    HW167618   4.575   5.393   1.365 -0.7124 -0.5121 -0.1385
22059SOL    HW267619   4.613   5.378   1.220  0.1386 -0.2555  0.0505
22060SOL     OW67620   4.192   4.803   0.109 -0.0643 -0.5204  0.3006
22060SOL    HW167621   4.185   4.780   0.016 -3.5904 -1.3951  0.6502
22060SOL    HW267622   4.164   4.895   0.113  0.1782 -0.4532  0.5063
22061SOL     OW67623   6.686   4.723   0.879 -0.4506 -0.1860 -0.0460
22061SOL    HW167624   6.733   4.730   0.962  0.8088 -3.2049 -0.3909
22061SOL    HW267625   6.650   4.634   0.879 -0.6163 -0.1952 -2.6182
22062SOL     OW67626   2.053   5.518   1.155 -0.1146  0.1471 -0.1998
22062SOL    HW167627   2.109   5.545   1.083  0.7192  0.6679  0.6322
22062SOL    HW267628   2.072   5.425   1.166  0.8993  0.4025  0.3302
22063SOL     OW67629   5.654   6.873   1.174 -0.2718  0.8207  0.0760
22063SOL    HW167630   5.709   6.822   1.233  0.7991  0.9885 -0.7441
22063SOL    HW267631   5.618   6.809   1.113 -2.3380  0.4631  1.5531
22064SOL     OW67632   1.024   7.081  11.729  0.1919  0.0642  0.0259
22064SOL    HW167633   1.061   7.082  11.817 -0.7016  2.5432  0.4270
22064SOL    HW267634   1.096   7.107  11.672  0.1108  0.9878  0.3386
22065SOL     OW67635   7.443   6.818   1.465 -0.0818  0.1683 -0.1838
22065SOL    HW167636   7.377   6.795   1.531 -0.4921  2.2125  0.1981
22065SOL    HW267637   7.484   6.898   1.499 -0.0668  1.0892 -2.2193
22066SOL     OW67638   0.230   1.022   1.252  0.1355  0.1349 -0.3658
22066SOL    HW167639   0.136   1.024   1.271  0.6328  0.1926  2.6845
22066SOL    HW267640   0.261   1.109   1.280  1.0539  0.2958 -1.8037
22067SOL     OW67641   6.042   6.151   0.401 -0.2152  0.6237 -0.3431
22067SOL    HW167642   6.005   6.091   0.466 -2.4032  1.6731 -0.5162
22067SOL    HW267643   6.078   6.094   0.334 -0.7319 -0.4990  0.3045
22068SOL     OW67644   6.087   7.641   0.797  0.1972 -0.6060 -0.1819
22068SOL    HW167645   6.074   7.547   0.799  0.9035 -0.7120  1.1551
22068SOL    HW267646   6.055   7.672   0.882  2.3882 -0.0381  0.5127
22069SOL     OW67647   6.238   6.587  11.631 -1.1127 -0.1555  0.0242
22069SOL    HW167648   6.273   6.634  11.707 -1.6012 -0.7807  0.6506
22069SOL    HW267649   6.153   6.554  11.661 -1.3620 -0.3167 -0.8358
22070SOL     OW67650   4.466   6.663   2.393 -0.1888  0.1576 -0.2547
22070SOL    HW167651   4.377   6.640   2.420 -0.0929  0.4103  0.2925
22070SOL    HW267652   4.509   6.690   2.474  0.4367 -0.1190 -0.4922
22071SOL     OW67653   6.182   6.338   0.573  0.0982  0.5351 -0.4612
22071SOL    HW167654   6.138   6.275   0.517 -0.2313  0.6504 -0.3304
22071SOL    HW267655   6.205   6.411   0.515  1.7966 -0.3245 -0.9438
22072SOL     OW67656   6.876   6.185   0.537  0.0124  0.0074 -0.1925
22072SOL    HW167657   6.886   6.155   0.628  2.8148 -0.0568 -0.4316
22072SOL    HW267658   6.875   6.280   0.543  0.8636  0.0231 -0.0991
22073SOL     OW67659   7.420   6.324   0.841  0.1745 -0.6663 -0.4639
22073SOL    HW167660   7.452   6.260   0.904  0.7347 -0.2402 -0.3145
22073SOL    HW267661   7.342   6.361   0.882  1.4652  0.8088  0.7412
22074SOL     OW67662   6.645   7.428   2.614  0.1992 -0.3397  0.1308
22074SOL    HW167663   6.732   7.461   2.636  0.2111 -0.4315  0.2248
22074SOL    HW267664   6.587   7.467   2.680 -0.1378  1.2423 -1.0531
22075SOL     OW67665   0.029   6.414   0.684  0.0522 -0.3703  0.4482
22075SOL    HW167666  -0.044   6.439   0.740 -0.1117 -0.8385  0.4481
22075SOL    HW267667   0.095   6.482   0.699 -1.0510  1.0720 -0.9151
22076SOL     OW67668   6.532   6.705  12.428 -0.5218  0.3137 -0.3378
22076SOL    HW167669   6.472   6.630  12.425 -0.1202  0.0116 -1.4292
22076SOL    HW267670   6.590   6.691  12.353 -0.4012  1.6873 -0.5105
22077SOL     OW67671   5.492   0.682   1.184  0.4639 -0.3440  0.7223
22077SOL    HW167672   5.464   0.761   1.139 -0.4520 -0.9058  0.2871
22077SOL    HW267673   5.417   0.624   1.180  1.2542 -1.3924  0.6867
22078SOL     OW67674   7.882   6.065   0.358 -0.3708  0.3106  0.2200
22078SOL    HW167675   7.809   6.089   0.415 -1.1594  1.1459 -1.0758
22078SOL    HW267676   7.847   6.076   0.269  0.9254 -0.5868 -0.4268
22079SOL     OW67677   6.366   7.759   1.391  0.2635  0.4722  0.2953
22079SOL    HW167678   6.311   7.788   1.318 -0.1160 -1.2086 -0.1220
22079SOL    HW267679   6.315   7.784   1.469 -0.6934 -0.2563 -0.0728
22080SOL     OW67680   5.575   6.263   1.050 -0.4948  0.5822 -0.4083
22080SOL    HW167681   5.590   6.277   1.143 -1.9806 -1.0930  0.1423
22080SOL    HW267682   5.531   6.178   1.045  1.0270 -0.1791 -2.7902
22081SOL     OW67683   7.650   6.640   1.086 -0.5689  0.7229 -0.1306
22081SOL    HW167684   7.721   6.700   1.108  0.5482 -0.2078 -1.0797
22081SOL    HW267685   7.637   6.588   1.165  2.3514 -1.5638 -0.9816
22082SOL     OW67686   4.868   0.485   1.291  0.4960  0.2493  0.1407
22082SOL    HW167687   4.895   0.394   1.292  1.1912  0.3644 -2.1775
22082SOL    HW267688   4.888   0.515   1.202 -1.0547  2.2501  0.3892
22083SOL     OW67689   6.493   7.550   2.834 -0.3854  0.4175 -0.2393
22083SOL    HW167690   6.413   7.520   2.792  0.5274 -0.3219 -1.5262
22083SOL    HW267691   6.520   7.476   2.888  0.4771 -0.1320 -1.3815
22084SOL     OW67692   6.667   7.354   0.124  0.1061 -0.1752 -0.1797
22084SOL    HW167693   6.667   7.443   0.159 -0.4565 -0.6896  1.2099
22084SOL    HW267694   6.586   7.316   0.157  0.9281 -1.5839  0.2768
22085SOL     OW67695   6.077   5.154   1.373 -0.0556 -0.0524 -0.3222
22085SOL    HW167696   6.026   5.186   1.299 -1.3542 -0.7685  0.2233
22085SOL    HW267697   6.056   5.214   1.444  0.3057 -0.0227 -0.2399
22086SOL     OW67698   7.575   4.830   1.475 -0.3019 -0.4532 -0.0720
22086SOL    HW167699   7.627   4.862   1.401 -0.3145 -0.4781 -0.0913
22086SOL    HW267700   7.486   4.825   1.441 -0.6270  1.2082  0.4495
22087SOL     OW67701   0.522   7.537   2.865 -0.1000 -0.1327 -0.2296
22087SOL    HW167702   0.475   7.567   2.943 -2.0608  0.3423 -1.5061
22087SOL    HW267703   0.528   7.442   2.876  1.1102  0.0800  1.2182
22088SOL     OW67704   0.462   6.099   0.280 -0.3085  0.1263 -0.5315
22088SOL    HW167705   0.528   6.123   0.345 -0.7299 -0.1377  0.0013
22088SOL    HW267706   0.504   6.114   0.196  1.3566 -2.4606 -0.2668
22089SOL     OW67707   5.937   7.206   2.529  0.2807 -0.5624  0.6629
22089SOL    HW167708   5.907   7.164   2.610 -1.4525  0.1159  0.4198
22089SOL    HW267709   5.884   7.166   2.460  0.7375 -0.1291  0.0488
22090SOL     OW67710   6.518   5.618  12.110 -0.0830  0.3612 -0.2350
22090SOL    HW167711   6.531   5.711  12.092  0.1045  0.5134  0.6107
22090SOL    HW267712   6.505   5.614  12.205  1.7637 -0.6673  0.0240
22091SOL     OW67713   5.252   0.102   2.628 -0.0118  0.1591  0.5809
22091SOL    HW167714   5.344   0.122   2.645  0.0729  0.8246 -0.5979
22091SOL    HW267715   5.230   0.154   2.551 -1.3895  0.0358  0.8740
22092SOL     OW67716   6.208   0.070   0.050  0.1529 -0.4967 -0.5211
22092SOL    HW167717   6.178   0.035   0.134 -0.7696  0.6380 -0.3655
22092SOL    HW267718   6.288   0.021   0.031 -1.1271 -2.7944 -0.3689
22093SOL     OW67719   6.711   6.739  11.765 -0.0514 -0.2933  0.3219
22093SOL    HW167720   6.649   6.668  11.782 -0.2052 -0.3822 -0.5435
22093SOL    HW267721   6.766   6.743  11.843 -0.7515 -0.6247  0.8408
22094SOL     OW67722   6.564   7.625   0.516  0.1122  0.3694  0.4666
22094SOL    HW167723   6.506   7.612   0.591 -0.6452  0.3673 -0.1093
22094SOL    HW267724   6.543   7.712   0.483 -1.6084 -0.6822 -1.4499
22095SOL     OW67725   6.835   6.982   0.484  0.2786  0.2754 -0.2857
22095SOL    HW167726   6.862   7.074   0.495 -1.1856  0.6143  0.9084
22095SOL    HW267727   6.768   6.985   0.416 -0.3218  0.2354  0.2906
22096SOL     OW67728   7.355   0.331   0.449 -0.1244  0.7267  0.5595
22096SOL    HW167729   7.268   0.356   0.479 -0.6183 -0.1429 -0.1174
22096SOL    HW267730   7.399   0.414   0.432 -0.3287  1.2196  2.2094
22097SOL     OW67731   6.262   0.246   2.306  0.5600 -0.4059  0.2954
22097SOL    HW167732   6.185   0.277   2.259  0.2440 -1.4226  0.1069
22097SOL    HW267733   6.257   0.290   2.391 -0.9877 -1.4556  0.8009
22098SOL     OW67734   7.282   7.430   2.185 -0.2097  0.4990 -0.2701
22098SOL    HW167735   7.256   7.522   2.175 -1.9723  0.2563  1.3913
22098SOL    HW267736   7.310   7.423   2.276 -2.5302 -1.0759  0.4152
22099SOL     OW67737   7.002   7.122   1.949 -0.3796  0.0128 -0.1910
22099SOL    HW167738   6.975   7.207   1.984  0.9137  0.3784 -0.0133
22099SOL    HW267739   7.068   7.090   2.012 -0.0174 -0.5840 -0.8549
22100SOL     OW67740   5.360   6.389   1.426  0.2456 -0.1747 -0.0772
22100SOL    HW167741   5.330   6.350   1.509 -0.2147  0.3061 -0.0127
22100SOL    HW267742   5.399   6.473   1.452 -0.5413  0.3050 -0.4158
22101SOL     OW67743   7.825   4.680   0.750 -0.2789  0.2700 -0.0443
22101SOL    HW167744   7.748   4.691   0.694 -1.6182  0.4857  1.7396
22101SOL    HW267745   7.815   4.747   0.818  0.8392 -0.4983  0.9218
22102SOL     OW67746   7.128   6.099   1.767  0.4259 -0.0147 -0.7227
22102SOL    HW167747   7.200   6.108   1.704  0.2705  3.0214 -0.6334
22102SOL    HW267748   7.158   6.035   1.830  2.5630  0.2817 -1.3668
22103SOL     OW67749   6.841   7.153  12.010  0.0122 -0.2414 -0.7211
22103SOL    HW167750   6.751   7.185  12.012 -0.6382 -1.9338  1.8862
22103SOL    HW267751   6.894   7.228  12.036 -1.0318 -0.0753  1.0615
22104SOL     OW67752   6.810   5.720   1.787  0.0308 -0.2419  0.1091
22104SOL    HW167753   6.756   5.654   1.745  0.1522  1.3351 -2.7929
22104SOL    HW267754   6.768   5.803   1.764  2.5217  0.9258 -0.5663
22105SOL     OW67755   0.041   5.988   1.983  0.2851  0.2458  0.4422
22105SOL    HW167756   0.016   5.927   1.914 -0.7093  0.8551  0.2406
22105SOL    HW267757   0.121   6.029   1.951  0.5897 -0.4572  0.2770
22106SOL     OW67758   7.516   6.225   2.272 -0.3380  0.1650  0.4394
22106SOL    HW167759   7.429   6.236   2.309 -0.2124  1.6564  0.3528
22106SOL    HW267760   7.566   6.181   2.340 -0.9501 -0.0342  0.7715
22107SOL     OW67761   7.371   6.996   2.531  0.1007  0.2499  0.2451
22107SOL    HW167762   7.430   6.943   2.585  0.8881  0.7547 -0.0926
22107SOL    HW267763   7.293   7.009   2.585 -0.9323 -2.7799 -0.3132
22108SOL     OW67764   7.737   5.893   1.074 -0.0575 -0.3111  0.6113
22108SOL    HW167765   7.808   5.839   1.039  0.8477  0.8262  0.6435
22108SOL    HW267766   7.659   5.838   1.067  0.5143 -0.9655 -1.0288
22109SOL     OW67767   0.338   6.753  12.144  0.3377 -0.9802 -0.4773
22109SOL    HW167768   0.256   6.709  12.125 -0.1384 -0.4828  0.3832
22109SOL    HW267769   0.337   6.768  12.238 -0.6111  2.8719 -0.9041
22110SOL     OW67770   7.754   5.751   1.717 -0.3073  0.3815  0.5580
22110SOL    HW167771   7.746   5.656   1.706 -3.9432  0.4042  1.7084
22110SOL    HW267772   7.791   5.782   1.634  1.9424 -2.0318  0.5141
22111SOL     OW67773   5.888   6.345   2.926  0.2077 -0.5146 -0.4437
22111SOL    HW167774   5.823   6.351   2.996  0.4409  0.8220 -0.3210
22111SOL    HW267775   5.837   6.318   2.849 -0.8060  1.7839 -0.6694
22112SOL     OW67776   0.785   7.000   2.894  0.0352 -0.0701 -0.2140
22112SOL    HW167777   0.830   6.975   2.813  1.6499 -0.6393  0.7980
22112SOL    HW267778   0.856   7.026   2.953 -1.0810  0.0579  1.1174
22113SOL     OW67779   6.917   6.711   1.888 -0.3262 -0.5662 -0.3007
22113SOL    HW167780   6.968   6.733   1.966 -1.2715  0.0029  0.1711
22113SOL    HW267781   6.983   6.698   1.819  0.4844 -0.5233  0.4491
22114SOL     OW67782   6.482   6.287   0.928 -0.4283  0.1828 -0.4709
22114SOL    HW167783   6.535   6.218   0.888 -2.2880 -0.8899 -1.2390
22114SOL    HW267784   6.394   6.272   0.893 -2.0558 -0.2622  3.3145
22115SOL     OW67785   7.354   6.132  11.099  0.0113 -0.0688  0.5286
22115SOL    HW167786   7.438   6.145  11.144 -0.9741 -0.0633  2.4680
22115SOL    HW267787   7.374   6.070  11.029  1.6837  0.1387  0.7772
22116SOL     OW67788   6.697   0.068   0.665 -0.1255  0.3902 -0.0536
22116SOL    HW167789   6.708   0.158   0.634 -0.2553  0.2464 -0.5195
22116SOL    HW267790   6.737   0.068   0.752  1.3793  0.4691 -0.7304
22117SOL     OW67791   5.852   7.875   2.650  0.4744 -0.1885  0.8071
22117SOL    HW167792   5.867   7.956   2.699  1.1907 -0.1514  0.5398
22117SOL    HW267793   5.768   7.888   2.607  0.4540  0.3034  0.9932
22118SOL     OW67794   4.948   6.267   1.103 -0.3218  0.3333  0.3701
22118SOL    HW167795   4.911   6.346   1.064 -0.3719 -0.5947 -1.6055
22118SOL    HW267796   4.873   6.207   1.111 -0.0582  0.0392  0.6760
22119SOL     OW67797   7.694   6.406   2.149  0.5982 -0.9032  0.4002
22119SOL    HW167798   7.657   6.325   2.184  0.5530 -1.2792 -0.4668
22119SOL    HW267799   7.779   6.379   2.112  0.6910 -0.5080  0.3237
22120SOL     OW67800   7.135   7.269  11.604  0.4096 -0.9975 -0.2508
22120SOL    HW167801   7.171   7.247  11.518 -0.1532  0.3159 -0.8544
22120SOL    HW267802   7.061   7.210  11.614  0.0108 -0.6499 -1.0292
22121SOL     OW67803   5.068   0.017   1.695 -0.1515  0.6541 -0.4307
22121SOL    HW167804   5.053  -0.074   1.671 -0.8898  0.4057  0.8644
22121SOL    HW267805   4.980   0.051   1.713  0.2643  1.1397  0.7291
22122SOL     OW67806   6.561   7.257   2.394 -0.1514 -0.1045 -0.5567
22122SOL    HW167807   6.589   7.293   2.478 -0.7076 -0.6216 -0.1489
22122SOL    HW267808   6.482   7.306   2.371 -0.6397 -0.7325 -0.2302
22123SOL     OW67809   7.591   5.587   2.151  0.4161 -0.1553 -0.4805
22123SOL    HW167810   7.610   5.497   2.179  0.4767  0.1568  0.5221
22123SOL    HW267811   7.570   5.633   2.232 -3.2300 -0.1019 -1.2805
22124SOL     OW67812   4.199   7.226   0.100  0.3536  0.2027 -0.3133
22124SOL    HW167813   4.196   7.227   0.004 -1.9564  0.0178 -0.3124
22124SOL    HW267814   4.184   7.134   0.123 -0.0911  0.4063  0.2163
22125SOL     OW67815   7.525   6.642   2.163 -0.2198  0.0597  0.4489
22125SOL    HW167816   7.596   6.580   2.177 -0.8010 -0.6689  0.2906
22125SOL    HW267817   7.450   6.602   2.207 -0.0612  1.8115  2.4393
22126SOL     OW67818   0.007   6.670   1.597 -0.3505 -0.7300 -0.1747
22126SOL    HW167819   0.094   6.701   1.572 -1.2588  0.6544 -1.7436
22126SOL    HW267820   0.021   6.578   1.620  1.9512  0.0632  2.1199
22127SOL     OW67821   6.438   7.970   1.010 -0.3673  0.0968 -0.0794
22127SOL    HW167822   6.350   7.935   1.026  0.3733 -1.8256 -0.0380
22127SOL    HW267823   6.437   7.994   0.917 -2.1654  3.9551  0.7317
22128SOL     OW67824   7.004   6.585   0.363 -0.3888  0.3752  0.0773
22128SOL    HW167825   6.940   6.573   0.433 -1.7995  2.7702 -0.6573
22128SOL    HW267826   7.044   6.670   0.381 -0.2942  0.7387 -1.6022
22129SOL     OW67827   4.792   0.107   2.536  0.1047  0.0350 -0.2996
22129SOL    HW167828   4.781   0.097   2.630 -0.9330  0.5944 -0.3396
22129SOL    HW267829   4.835   0.026   2.507  1.2868  0.2591  0.7714
22130SOL     OW67830   0.339   4.767   0.307 -0.7053  0.2858  0.7188
22130SOL    HW167831   0.408   4.750   0.372 -0.2835 -0.8159  0.0191
22130SOL    HW267832   0.296   4.682   0.296  0.1455  0.0762 -1.4520
22131SOL     OW67833   6.364   0.679   2.317 -0.3050 -0.4352  0.7951
22131SOL    HW167834   6.272   0.673   2.341 -0.5209 -1.2324 -0.1642
22131SOL    HW267835   6.368   0.751   2.254 -0.3748 -0.7796  0.3946
22132SOL     OW67836   5.700   6.187   0.395 -0.4482 -0.1293 -0.2473
22132SOL    HW167837   5.711   6.092   0.386 -1.3870 -0.1565 -1.3152
22132SOL    HW267838   5.611   6.197   0.430 -0.1590  0.3547  0.3751
22133SOL     OW67839   6.445   7.011   2.394 -0.1109  0.4739  0.2300
22133SOL    HW167840   6.498   7.087   2.369 -0.8613  0.5507 -1.2981
22133SOL    HW267841   6.355   7.037   2.371 -0.0551 -2.1421 -3.9466
22134SOL     OW67842   7.445   6.258   0.574  0.3934  0.0712 -0.7828
22134SOL    HW167843   7.421   6.298   0.658  2.9377 -1.3886  0.7212
22134SOL    HW267844   7.394   6.177   0.570 -1.1447  1.0230 -1.6074
22135SOL     OW67845   0.826   6.637   1.558 -0.4505  0.5648  0.1250
22135SOL    HW167846   0.907   6.606   1.598 -0.1329  1.4896  0.2328
22135SOL    HW267847   0.756   6.591   1.605 -0.0076  0.0296  0.2719
22136SOL     OW67848   6.088   7.944   2.970  0.3101  0.0832 -0.3897
22136SOL    HW167849   6.154   7.876   2.954 -0.7431 -1.5352  1.7659
22136SOL    HW267850   6.130   8.005   3.030  1.2557  1.4580 -2.3251
22137SOL     OW67851   5.729   6.700   1.383 -0.2810  0.1274 -0.2267
22137SOL    HW167852   5.780   6.626   1.352  0.6157  1.7386 -2.9942
22137SOL    HW267853   5.791   6.752   1.435  0.7504  1.4844 -2.6233
22138SOL     OW67854   5.607   0.464   0.787  0.2124 -0.2017  0.3361
22138SOL    HW167855   5.649   0.538   0.744  0.0289 -1.2518 -1.7615
22138SOL    HW267856   5.528   0.447   0.735  0.2258 -1.8175  0.7739
22139SOL     OW67857   5.267   7.346   2.200  0.2180  0.6825  0.5105
22139SOL    HW167858   5.219   7.415   2.153 -0.0072 -0.8199 -1.6270
22139SOL    HW267859   5.357   7.354   2.169  0.2717  0.2421  0.5538
22140SOL     OW67860   7.417   4.648   1.323 -0.0766 -0.4017 -0.1980
22140SOL    HW167861   7.496   4.696   1.296  0.6213 -1.0344  0.6641
22140SOL    HW267862   7.367   4.638   1.242  0.9003 -0.3011 -0.8364
22141SOL     OW67863   6.119   5.398   0.175  0.0184  0.2658 -0.5386
22141SOL    HW167864   6.194   5.427   0.124  0.1657 -0.8185 -0.9684
22141SOL    HW267865   6.158   5.353   0.251 -0.1961  1.7343  0.4802
22142SOL     OW67866   7.560   0.962  11.805 -0.2329  0.2139 -0.0687
22142SOL    HW167867   7.485   0.984  11.750 -0.2766 -0.8016 -0.4395
22142SOL    HW267868   7.594   1.046  11.835 -0.8688  0.7266 -0.7687
22143SOL     OW67869   6.344   5.957   2.312  0.3153 -0.2701 -0.1980
22143SOL    HW167870   6.316   5.985   2.225  0.2869 -0.5500 -0.2794
22143SOL    HW267871   6.431   5.995   2.323 -0.0923  0.6391  0.0689
22144SOL     OW67872   7.791   6.180   0.633  0.0324  0.5225 -0.1825
22144SOL    HW167873   7.722   6.127   0.593  0.6400 -1.6566  1.5067
22144SOL    HW267874   7.786   6.160   0.726  0.0760  3.7999  0.6227
22145SOL     OW67875   6.719   7.334   2.016  0.0107  0.0703  0.0406
22145SOL    HW167876   6.669   7.374   1.944 -1.5233 -0.0738  0.9731
22145SOL    HW267877   6.740   7.246   1.984  0.1518  0.3210 -0.5784
22146SOL     OW67878   5.921   6.752   0.738 -0.0261  0.2643 -0.9545
22146SOL    HW167879   5.985   6.817   0.710 -0.7159  0.6544 -1.6973
22146SOL    HW267880   5.952   6.669   0.702  1.1444  0.0572  0.4481
22147SOL     OW67881   5.842   6.430   1.925 -0.5660 -0.1668 -0.1859
22147SOL    HW167882   5.758   6.465   1.896 -1.2399 -2.4651 -1.1916
22147SOL    HW267883   5.821   6.346   1.966  1.1333 -0.2163  0.7021
22148SOL     OW67884   5.951   5.021   0.607 -0.1701 -0.1339  0.0812
22148SOL    HW167885   5.985   5.082   0.673  0.3697  0.2743 -0.5665
22148SOL    HW267886   6.029   4.990   0.561 -0.5434 -0.4544 -0.3374
22149SOL     OW67887   7.823   6.135   0.907  0.0276 -0.3160 -0.3413
22149SOL    HW167888   7.813   6.064   0.970  0.4289  0.9376  1.1815
22149SOL    HW267889   7.918   6.144   0.897 -0.0159  0.3198 -0.1739
22150SOL     OW67890   5.379   7.960  11.047  0.4849 -0.3034 -0.0159
22150SOL    HW167891   5.308   7.912  11.004  0.0217  1.1899 -1.0123
22150SOL    HW267892   5.340   7.994  11.127  0.8076 -1.5096  0.6809
22151SOL     OW67893   6.723   7.400   1.517  0.0176  0.6283 -0.6735
22151SOL    HW167894   6.657   7.466   1.494 -1.1048 -0.7505 -1.6409
22151SOL    HW267895   6.804   7.433   1.479 -0.3759  1.7650 -0.5577
22152SOL     OW67896   7.381   7.241  11.728 -0.3916  0.7953  0.1774
22152SOL    HW167897   7.392   7.148  11.705 -1.1925  1.1674 -1.9503
22152SOL    HW267898   7.301   7.268  11.683 -0.7377  2.2878  1.5999
22153SOL     OW67899   6.530   7.334  12.281 -0.2049  0.2462 -0.1661
22153SOL    HW167900   6.576   7.416  12.300 -0.9934  0.3667  1.3396
22153SOL    HW267901   6.441   7.350  12.312 -1.1764 -0.1521 -2.5381
22154SOL     OW67902   4.001   5.966   1.448 -0.4323  0.1973 -0.6390
22154SOL    HW167903   4.093   5.973   1.474  0.0259  1.8744 -2.4061
22154SOL    HW267904   3.971   6.057   1.443 -1.4893 -0.1946 -2.2184
22155SOL     OW67905   7.531   5.302   0.547  0.2310  0.2297 -0.1850
22155SOL    HW167906   7.472   5.244   0.499  1.1832 -1.1188  0.2195
22155SOL    HW267907   7.517   5.389   0.508 -1.0696 -0.2981 -0.9445
22156SOL     OW67908   6.229   6.847   0.621 -0.2748 -0.2260 -0.2954
22156SOL    HW167909   6.214   6.774   0.561 -0.7410 -0.8119  0.5060
22156SOL    HW267910   6.259   6.919   0.565  1.1227 -1.3117 -0.9850
22157SOL     OW67911   6.579   6.269  11.979 -0.3963  0.0813 -0.5567
22157SOL    HW167912   6.551   6.222  12.057 -2.1061  0.6470 -0.7905
22157SOL    HW267913   6.669   6.296  11.998 -0.7184  0.0488  1.1402
22158SOL     OW67914   5.173   0.513   2.618  0.0415 -0.0111  0.5660
22158SOL    HW167915   5.100   0.466   2.660 -0.8851 -0.6892 -1.6602
22158SOL    HW267916   5.153   0.606   2.632 -0.3707 -0.2152  1.3727
22159SOL     OW67917   6.588   6.535   2.098 -0.1219 -0.1289  0.0284
22159SOL    HW167918   6.569   6.526   2.005 -0.7629 -0.9514  0.2224
22159SOL    HW267919   6.540   6.613   2.125  0.5224  0.4338 -0.4468
22160SOL     OW67920   4.194   0.194   1.720  0.0873 -0.3656 -0.1764
22160SOL    HW167921   4.142   0.168   1.796 -0.7962  2.1738  0.1805
22160SOL    HW267922   4.284   0.169   1.743 -0.2923 -0.4833  1.3031
22161SOL     OW67923   6.592   5.239   0.319  0.4064 -0.1047 -0.2567
22161SOL    HW167924   6.621   5.159   0.364 -1.4183 -0.9641 -0.5024
22161SOL    HW267925   6.638   5.237   0.235  2.3903  0.5226  0.7561
22162SOL     OW67926   6.830   5.132   1.567  0.4689 -0.3352  0.1499
22162SOL    HW167927   6.799   5.158   1.481 -1.8871  1.6756  1.4811
22162SOL    HW267928   6.770   5.062   1.594  0.5485 -0.2496  0.5627
22163SOL     OW67929   0.848   5.219   0.257  0.1841 -0.0275 -0.6486
22163SOL    HW167930   0.827   5.270   0.336  1.0154  0.2745 -0.6092
22163SOL    HW267931   0.771   5.227   0.202 -0.7884 -0.9888  0.5087
22164SOL     OW67932   6.656   6.794   1.851 -0.0869 -0.1622  0.3851
22164SOL    HW167933   6.614   6.721   1.805  0.2747 -0.6975  0.8934
22164SOL    HW267934   6.744   6.762   1.872 -0.4185 -0.1467  1.9207
22165SOL     OW67935   6.063   0.540   0.558 -0.3147  0.6400 -0.5805
22165SOL    HW167936   6.040   0.577   0.643 -0.1556 -2.2354  0.8311
22165SOL    HW267937   6.158   0.552   0.553  0.0096 -1.0734  0.7024
22166SOL     OW67938   7.675   7.720   1.050  0.3733  0.7014 -0.1643
22166SOL    HW167939   7.769   7.706   1.057  0.2042  0.2681  1.7503
22166SOL    HW267940   7.636   7.638   1.081 -0.6971  0.0380 -2.9160
22167SOL     OW67941   0.069   6.531   1.905 -0.3961  0.3747 -0.5050
22167SOL    HW167942   0.129   6.567   1.971 -0.1955 -0.6853 -0.0942
22167SOL    HW267943  -0.017   6.562   1.932 -0.2648  0.2832  0.0305
22168SOL     OW67944   7.158   5.828   1.005  0.4009 -0.3075 -0.3463
22168SOL    HW167945   7.150   5.783   0.920 -0.7167 -2.2316  0.7062
22168SOL    HW267946   7.159   5.921   0.982 -0.3095 -0.7409 -2.4602
22169SOL     OW67947   7.228   6.150   2.033 -0.3050  0.3800  0.6460
22169SOL    HW167948   7.247   6.223   1.974 -0.0028  0.7728  1.2244
22169SOL    HW267949   7.166   6.186   2.097  0.4200  0.3492  1.3778
22170SOL     OW67950   6.142   7.090   1.109 -0.7914  0.0202 -0.5307
22170SOL    HW167951   6.095   7.007   1.098 -0.1512 -0.0753 -3.2984
22170SOL    HW267952   6.165   7.116   1.019 -1.5067  3.5153  0.1626
22171SOL     OW67953   7.542   7.392   1.798 -0.5384 -0.3252  0.4307
22171SOL    HW167954   7.605   7.361   1.734  0.0316 -0.3927  1.0200
22171SOL    HW267955   7.472   7.432   1.745  1.5997  2.9464 -0.2435
22172SOL     OW67956   7.094   4.891  10.883 -0.2737  0.0736  0.5966
22172SOL    HW167957   7.132   4.908  10.796 -1.1838  0.7092  0.3034
22172SOL    HW267958   7.169   4.870  10.938  0.4473  0.7973 -0.0774
22173SOL     OW67959   5.560   5.943   1.142 -0.4097 -0.0886  0.7303
22173SOL    HW167960   5.559   5.942   1.238  1.3705  1.1721  0.7921
22173SOL    HW267961   5.475   5.980   1.118 -0.9348 -0.5423  1.7951
22174SOL     OW67962   6.690   5.722  11.866 -0.5540 -0.1331  0.0678
22174SOL    HW167963   6.736   5.782  11.925 -0.2255 -0.3498  0.0337
22174SOL    HW267964   6.602   5.716  11.903 -0.8522  1.0345 -0.4091
22175SOL     OW67965   0.234   6.594   0.632 -0.5611  0.9246 -0.0902
22175SOL    HW167966   0.314   6.593   0.580 -0.3147 -3.2358 -0.0019
22175SOL    HW267967   0.257   6.645   0.710  1.6308  0.8234 -0.6044
22176SOL     OW67968   5.434   0.238  12.476 -0.2399  0.0145 -0.0087
22176SOL    HW167969   5.501   0.227  12.543 -0.1117 -1.3153 -0.3192
22176SOL    HW267970   5.476   0.291  12.408 -0.2428  1.0324  0.7734
22177SOL     OW67971   5.568   7.897   2.569 -0.2073 -0.3503  0.4551
22177SOL    HW167972   5.555   7.859   2.482 -0.9654  0.4095  0.2144
22177SOL    HW267973   5.540   7.828   2.630 -1.3995 -0.2703  0.0332
22178SOL     OW67974   6.807   7.362   2.306 -0.0071 -0.1438 -0.1646
22178SOL    HW167975   6.729   7.336   2.355  1.2234 -1.9312  0.9865
22178SOL    HW267976   6.790   7.335   2.216  0.0645 -2.5748  0.4700
22179SOL     OW67977   6.046   6.851   1.028  0.2222 -0.0129 -0.0729
22179SOL    HW167978   5.980   6.852   0.959  0.9950 -0.0024 -0.8121
22179SOL    HW267979   6.127   6.825   0.985  0.4847 -1.1492  1.0343
22180SOL     OW67980   6.661   7.015   0.294 -0.1893  0.0864  0.5307
22180SOL    HW167981   6.725   7.063   0.242  0.6760 -0.0368  1.4455
22180SOL    HW267982   6.639   6.938   0.242  0.9229 -0.2175  0.4837
22181SOL     OW67983   3.148   4.861   0.575  0.0120  0.0035 -0.1298
22181SOL    HW167984   3.084   4.806   0.530  0.3740 -2.2240  1.8840
22181SOL    HW267985   3.209   4.888   0.506 -0.2184 -2.0747 -1.2101
22182SOL     OW67986   4.925   7.562   1.967  0.2309  0.1527  0.6068
22182SOL    HW167987   4.868   7.504   1.917  0.8432  0.4936 -0.5265
22182SOL    HW267988   4.975   7.503   2.023 -0.7671 -0.2003  1.1421
22183SOL     OW67989   5.183   6.203   1.244 -0.4755 -0.2396  0.1222
22183SOL    HW167990   5.199   6.261   1.318 -1.0415 -1.1797  0.9967
22183SOL    HW267991   5.098   6.231   1.209 -0.2289  0.1747 -0.1566
22184SOL     OW67992   0.474   5.219  12.179 -0.5031 -0.4333 -0.3722
22184SOL    HW167993   0.461   5.202  12.272  1.1178 -0.0415 -0.0337
22184SOL    HW267994   0.502   5.311  12.175  0.4327 -0.7244 -1.1176
22185SOL     OW67995   6.624   5.846   0.773  0.1714  0.1801 -0.3096
22185SOL    HW167996   6.684   5.777   0.744  1.7549  1.6240 -0.6597
22185SOL    HW267997   6.538   5.819   0.740  0.5577 -2.0005  0.2705
22186SOL     OW67998   5.516   7.322   2.100 -0.5590  0.5209 -0.1849
22186SOL    HW167999   5.565   7.240   2.104 -0.1067  0.8156  1.3313
22186SOL    HW268000   5.490   7.331   2.009  0.4386 -0.6911 -0.6195
22187SOL     OW68001   7.140   7.892   0.900  0.3520 -0.2032 -0.1907
22187SOL    HW168002   7.112   7.955   0.834  2.1422 -0.2188 -1.0160
22187SOL    HW268003   7.058   7.857   0.936 -0.6996  2.6722  0.4481
22188SOL     OW68004   7.675   6.423  12.404  0.0082  0.8114 -0.2220
22188SOL    HW168005   7.645   6.424  12.313  0.2476 -0.0699 -0.3156
22188SOL    HW268006   7.770   6.415  12.398 -0.0229  0.1958  0.1124
22189SOL     OW68007   0.647   6.987  12.349 -0.0910  0.3342  0.1956
22189SOL    HW168008   0.557   7.003  12.377  0.2203  0.6778  1.0319
22189SOL    HW268009   0.646   7.003  12.254 -0.9456  0.1562  0.1691
22190SOL     OW68010   5.015   7.647  11.908  0.3516 -0.4097 -0.2053
22190SOL    HW168011   4.973   7.649  11.822 -0.5045 -0.2649  0.2056
22190SOL    HW268012   5.009   7.737  11.940  0.2032 -0.5649  0.2144
22191SOL     OW68013   7.358   7.404   3.045 -0.1383  0.2267 -0.9851
22191SOL    HW168014   7.398   7.484   3.079 -1.0672  0.2941 -0.0227
22191SOL    HW268015   7.346   7.422   2.952  3.6550 -0.4476 -1.7937
22192SOL     OW68016   0.004   0.272  12.454  0.1469  0.0409  0.2195
22192SOL    HW168017  -0.012   0.202  12.517 -0.2491 -1.1899 -1.2024
22192SOL    HW268018  -0.071   0.330  12.463 -1.4839 -1.7290 -1.1652
22193SOL     OW68019   7.289   7.045   0.104  0.2878  0.0193  0.2354
22193SOL    HW168020   7.215   7.060   0.045  1.9145  2.0961 -1.4560
22193SOL    HW268021   7.357   7.005   0.049  0.7761 -1.0435  1.5338
22194SOL     OW68022   7.899   6.388   2.688  0.0564 -0.2157 -0.1776
22194SOL    HW168023   7.872   6.297   2.677 -0.7504 -0.4093  2.5630
22194SOL    HW268024   7.893   6.403   2.783 -1.0156  3.0366 -0.6372
22195SOL     OW68025   0.201   6.399   2.196  0.0740 -0.4039  0.2808
22195SOL    HW168026   0.238   6.400   2.285 -3.5367 -0.2607  1.9837
22195SOL    HW268027   0.175   6.490   2.180 -0.5000 -0.6731 -0.3642
22196SOL     OW68028   5.558   7.812   0.523  0.3344  0.1299 -0.1428
22196SOL    HW168029   5.625   7.748   0.547 -1.4084 -2.2468 -1.2006
22196SOL    HW268030   5.501   7.765   0.463 -2.2462  2.0778  0.6179
22197SOL     OW68031   7.124   6.455  12.197 -0.6934  0.3487 -0.4762
22197SOL    HW168032   7.144   6.540  12.238 -0.1844  0.0543 -0.1035
22197SOL    HW268033   7.150   6.466  12.106  0.3192  0.2883 -0.2153
22198SOL     OW68034   6.770   4.745   3.728 -0.0905 -0.2961  0.4441
22198SOL    HW168035   6.836   4.814   3.740 -1.1122  0.8204 -0.0653
22198SOL    HW268036   6.743   4.754   3.637  0.9990 -2.5749 -0.1644
22199SOL     OW68037   5.775   4.998   3.991 -0.0644 -0.1113  0.0312
22199SOL    HW168038   5.848   4.936   3.999 -0.6439 -0.7927  0.0860
22199SOL    HW268039   5.759   5.028   4.080 -1.3687 -1.7441  0.3935
22200SOL     OW68040   6.745   6.549   3.982  0.3912  0.4426  0.0192
22200SOL    HW168041   6.746   6.570   4.075  3.0739 -0.5431  0.3264
22200SOL    HW268042   6.708   6.461   3.978  1.1504  0.0923  0.3225
22201SOL     OW68043   6.313   6.910   3.242 -0.1641  0.1164 -0.0347
22201SOL    HW168044   6.233   6.862   3.261 -0.7470  0.4107 -1.6024
22201SOL    HW268045   6.291   7.002   3.256 -0.5239  0.3166 -1.6724
22202SOL     OW68046   6.327   7.419   2.398  0.1166  0.4431 -0.3643
22202SOL    HW168047   6.318   7.513   2.381  2.5277  0.6788 -0.8053
22202SOL    HW268048   6.288   7.377   2.321  1.8791  1.2448 -1.8044
22203SOL     OW68049   0.494   4.914   2.494 -0.2652 -0.1776  0.1589
22203SOL    HW168050   0.442   4.906   2.574 -1.1920  1.0951 -0.2768
22203SOL    HW268051   0.578   4.950   2.523 -0.7804  0.7675  0.5242
22204SOL     OW68052   6.253   7.262   3.269  0.6095 -0.1229 -0.0396
22204SOL    HW168053   6.214   7.349   3.263 -0.9381 -0.8588 -1.2120
22204SOL    HW268054   6.346   7.277   3.251  0.5217  1.3702  0.5765
22205SOL     OW68055   5.631   7.784   5.043 -0.2230  0.4501 -0.0762
22205SOL    HW168056   5.570   7.840   5.091  0.2177 -0.0501  1.1189
22205SOL    HW268057   5.715   7.830   5.049 -0.2882  0.6821 -0.9081
22206SOL     OW68058   0.358   5.706   1.760 -0.3123  0.1032 -0.0615
22206SOL    HW168059   0.425   5.655   1.713  0.6259  1.0310  0.2309
22206SOL    HW268060   0.365   5.794   1.724 -1.8751  0.0707 -0.5074
22207SOL     OW68061   6.514   7.326   3.257  0.6848 -0.2689 -0.2791
22207SOL    HW168062   6.529   7.414   3.222  1.4466 -0.2398  0.1108
22207SOL    HW268063   6.518   7.337   3.352 -1.9159 -0.2460 -0.0910
22208SOL     OW68064   4.342   6.212  12.007  0.4231  0.4543 -0.5729
22208SOL    HW168065   4.323   6.294  11.963 -0.8835  1.5016  1.7406
22208SOL    HW268066   4.345   6.234  12.100  0.3928 -2.0347  0.1108
22209SOL     OW68067   7.074   1.003   3.230 -0.0215 -0.6479  0.1747
22209SOL    HW168068   7.128   1.075   3.199 -0.6975  1.0993  2.7555
22209SOL    HW268069   7.002   0.998   3.167  0.1234  0.8257 -0.1322
22210SOL     OW68070   6.682   7.402   3.716 -0.1189  0.1006 -0.6456
22210SOL    HW168071   6.769   7.392   3.679 -0.4980 -1.2662 -1.2277
22210SOL    HW268072   6.651   7.486   3.683  1.0993  0.7740 -0.1415
22211SOL     OW68073   6.690   6.104   0.839  0.3156 -0.1567 -0.7264
22211SOL    HW168074   6.659   6.018   0.809  0.4220  0.0588 -1.4811
22211SOL    HW268075   6.785   6.102   0.823  0.4572 -0.2179  0.0725
22212SOL     OW68076   6.259   7.243   1.848 -0.5859 -0.2041 -0.1666
22212SOL    HW168077   6.175   7.198   1.840 -1.0698  0.2509  1.7951
22212SOL    HW268078   6.244   7.328   1.807 -0.7381 -0.5386 -0.8128
22213SOL     OW68079   5.962   5.515   3.850 -0.0667 -0.0870  0.0279
22213SOL    HW168080   5.953   5.604   3.884  2.4498 -0.2910  1.4261
22213SOL    HW268081   5.974   5.460   3.928  0.0950 -1.4237 -0.9020
22214SOL     OW68082   5.639   6.681   3.751 -0.2327  0.2442 -0.9542
22214SOL    HW168083   5.548   6.657   3.766  0.1398 -1.1751 -0.7822
22214SOL    HW268084   5.635   6.762   3.699 -1.5607  1.1124  0.4275
22215SOL     OW68085   6.825   6.850   2.907 -0.0484 -0.2353  0.0411
22215SOL    HW168086   6.730   6.841   2.896  0.0657 -1.2130 -0.2546
22215SOL    HW268087   6.848   6.779   2.968  0.5632 -0.3139 -0.2763
22216SOL     OW68088   6.448   0.443   4.371 -0.0769  0.0207 -0.2617
22216SOL    HW168089   6.506   0.491   4.312 -0.7964  0.4593 -0.6362
22216SOL    HW268090   6.367   0.495   4.372 -0.1124 -0.0177  1.0533
22217SOL     OW68091   5.936   4.899   1.803 -0.3965  0.6830  0.1976
22217SOL    HW168092   5.868   4.837   1.826 -1.3590  1.8328  0.5042
22217SOL    HW268093   5.905   4.940   1.722  1.2169 -0.6934 -1.1926
22218SOL     OW68094   6.133   6.613   3.998  0.4901  0.2035  0.0158
22218SOL    HW168095   6.176   6.691   4.034 -0.4829  0.3615  0.8723
22218SOL    HW268096   6.067   6.648   3.938 -1.4989  0.1858  2.0847
22219SOL     OW68097   5.815   5.498   1.382 -0.1247  0.1243  0.1602
22219SOL    HW168098   5.871   5.575   1.376  2.6173 -1.6311  1.5587
22219SOL    HW268099   5.790   5.479   1.292  4.9107 -1.2334 -1.2642
22220SOL     OW68100   0.760   0.080   2.216  1.2787 -0.3704 -0.4200
22220SOL    HW168101   0.717   0.120   2.292  1.5911 -0.8072 -0.0057
22220SOL    HW268102   0.729  -0.011   2.218  0.9579 -0.2802 -1.0657
22221SOL     OW68103   5.281   6.903   1.748 -0.0405  0.4543 -0.3835
22221SOL    HW168104   5.274   6.896   1.844  2.2169  1.8319 -0.0197
22221SOL    HW268105   5.306   6.815   1.720  1.5323  0.5235  0.6312
22222SOL     OW68106   7.761   7.265   2.287 -0.0063 -0.1226 -0.5973
22222SOL    HW168107   7.776   7.177   2.321  0.9559 -0.2745 -1.3657
22222SOL    HW268108   7.841   7.314   2.309  0.2545  0.0263 -1.7627
22223SOL     OW68109   7.525   6.432   2.765 -0.2416 -0.6882  0.3116
22223SOL    HW168110   7.441   6.392   2.742 -1.0799  1.1742 -0.0452
22223SOL    HW268111   7.556   6.472   2.684  0.3798 -0.3065  0.7261
22224SOL     OW68112   6.422   5.064   3.539 -0.1737  0.1670 -0.3399
22224SOL    HW168113   6.412   4.978   3.498  1.7849 -0.9478  1.3230
22224SOL    HW268114   6.340   5.109   3.521 -0.7684 -1.5621 -2.3549
22225SOL     OW68115   6.286   7.548   2.061 -0.5866  0.3980  0.4994
22225SOL    HW168116   6.208   7.601   2.045 -0.4628  0.6061  0.5903
22225SOL    HW268117   6.351   7.582   2.000 -0.6733 -0.0111  0.1705
22226SOL     OW68118   5.811   6.695   3.244  0.0908  0.3845 -0.0578
22226SOL    HW168119   5.736   6.750   3.221  0.7721  1.3853  0.0743
22226SOL    HW268120   5.782   6.648   3.323 -0.7778 -0.0542 -0.6185
22227SOL     OW68121   7.216   3.991   2.214  0.1745 -0.0944 -0.2344
22227SOL    HW168122   7.124   3.967   2.210  0.4502 -1.3716  0.5196
22227SOL    HW268123   7.218   4.074   2.262 -0.3744 -1.7407  2.9181
22228SOL     OW68124   6.076   6.726   5.073 -0.2217 -0.1383 -0.3125
22228SOL    HW168125   5.990   6.765   5.088  0.2805  1.1876 -0.7414
22228SOL    HW268126   6.106   6.700   5.160  0.3354  2.4330  0.3446
22229SOL     OW68127   0.362   5.482   0.959 -0.5055 -0.2926  0.1159
22229SOL    HW168128   0.387   5.438   1.040 -0.7412  0.0504  0.3752
22229SOL    HW268129   0.266   5.475   0.956 -0.4568 -0.9217 -0.4885
22230SOL     OW68130   4.242   6.570   4.366  0.0022  0.2009  0.1995
22230SOL    HW168131   4.146   6.576   4.369 -0.2268 -2.4100  0.3312
22230SOL    HW268132   4.271   6.614   4.446 -1.2053 -0.3601  0.9776
22231SOL     OW68133   6.651   7.209   1.341  0.0023 -0.6285 -0.3394
22231SOL    HW168134   6.639   7.139   1.405  2.8090 -1.2321 -0.3550
22231SOL    HW268135   6.653   7.290   1.393  1.9086 -1.0809  0.3683
22232SOL     OW68136   7.214   7.631   0.814  1.1670 -0.4920 -0.3609
22232SOL    HW168137   7.195   7.719   0.848 -0.1652 -1.6972  2.3783
22232SOL    HW268138   7.212   7.641   0.719  0.7063  2.3468 -0.1582
22233SOL     OW68139   4.222   6.339   0.613 -0.1310  0.0921 -0.1321
22233SOL    HW168140   4.250   6.427   0.639 -0.3815 -0.1778  1.1683
22233SOL    HW268141   4.127   6.342   0.618 -0.1376 -0.2691  0.0005
22234SOL     OW68142   7.015   7.023   4.075 -0.6770 -0.7591 -0.1266
22234SOL    HW168143   7.051   7.080   4.144  0.0122 -0.2136 -0.9128
22234SOL    HW268144   6.922   7.043   4.074 -0.1168  2.4603 -2.2017
22235SOL     OW68145   5.612   7.992   2.860  0.6318 -0.0011 -0.0663
22235SOL    HW168146   5.558   8.043   2.801  0.3947 -0.7359 -0.4941
22235SOL    HW268147   5.702   8.019   2.840  0.4210  1.8695  1.2519
22236SOL     OW68148   5.392   7.498   4.973  0.6746  0.3167 -0.7950
22236SOL    HW168149   5.378   7.576   4.919 -1.0835 -0.3590 -1.3750
22236SOL    HW268150   5.438   7.437   4.916  1.9213  0.8520 -0.3877
22237SOL     OW68151   7.902   0.339   3.277 -0.5511 -0.3049 -0.1257
22237SOL    HW168152   7.991   0.373   3.283 -0.3219 -1.0921  2.6148
22237SOL    HW268153   7.848   0.403   3.323 -0.9327 -1.0403  0.4962
22238SOL     OW68154   6.970   6.358   4.946 -0.5092 -0.6550 -0.0097
22238SOL    HW168155   7.024   6.388   4.873 -1.2348 -0.9700 -0.6797
22238SOL    HW268156   7.008   6.402   5.023  0.0494 -0.0642 -0.6108
22239SOL     OW68157   7.029   7.370   4.074 -0.2651  0.3648  0.2478
22239SOL    HW168158   7.084   7.439   4.110  0.2410  0.0785  0.0248
22239SOL    HW268159   6.957   7.417   4.032  0.7531  0.8200 -1.0551
22240SOL     OW68160   7.120   7.988   1.834  0.1890 -0.2353 -0.2838
22240SOL    HW168161   7.065   7.991   1.913 -0.5838  3.6608 -0.7566
22240SOL    HW268162   7.070   7.934   1.772 -1.9549  1.1032  0.1656
22241SOL     OW68163   7.337   5.199   1.404  0.0702  0.4711  0.3208
22241SOL    HW168164   7.336   5.125   1.343  0.2568  1.5207 -1.0234
22241SOL    HW268165   7.314   5.274   1.349  1.2259  1.6108  1.3400
22242SOL     OW68166   4.065   7.056   3.591  0.4438  0.3393 -0.0072
22242SOL    HW168167   4.126   6.989   3.560 -0.6711 -1.5188  1.5579
22242SOL    HW268168   4.094   7.075   3.681 -0.1907  0.8038  0.1099
22243SOL     OW68169   6.426   4.764   1.669  0.1653  0.7111  0.1310
22243SOL    HW168170   6.349   4.815   1.644 -1.7166 -0.3115  3.2596
22243SOL    HW268171   6.440   4.703   1.597 -1.6276  1.2989 -0.7667
22244SOL     OW68172   7.499   4.858   3.617  0.2644 -0.4876 -0.2942
22244SOL    HW168173   7.595   4.860   3.618  0.3254  0.3713 -2.1399
22244SOL    HW268174   7.477   4.842   3.525 -1.3770 -0.8043  0.1222
22245SOL     OW68175   7.415   1.024   1.614  0.2410 -0.0115 -0.1604
22245SOL    HW168176   7.424   0.949   1.673  0.0083 -0.2105 -0.3683
22245SOL    HW268177   7.387   0.984   1.531  0.6795  0.2495 -0.4367
22246SOL     OW68178   6.021   6.872   3.336 -0.2490  0.3445 -0.5966
22246SOL    HW168179   5.952   6.820   3.296 -1.6141 -0.2098  2.1850
22246SOL    HW268180   5.990   6.963   3.329 -0.9464  0.1627 -0.0184
22247SOL     OW68181   7.958   6.127   2.358 -0.3348 -0.0964 -0.3060
22247SOL    HW168182   7.928   6.094   2.442  0.6535  0.5685  0.3295
22247SOL    HW268183   8.009   6.205   2.379  0.0835 -0.0201 -1.5017
22248SOL     OW68184   5.190   6.587   3.404  0.1180  0.2974  0.6765
22248SOL    HW168185   5.113   6.630   3.368  0.5469  1.1243  0.7283
22248SOL    HW268186   5.249   6.576   3.330  0.7213  1.3863  0.9710
22249SOL     OW68187   0.644   6.698   3.248  0.0212 -0.4377  0.0731
22249SOL    HW168188   0.610   6.771   3.197 -0.7183 -0.2077  0.8596
22249SOL    HW268189   0.570   6.671   3.303 -0.0667 -2.4692 -0.9534
22250SOL     OW68190   5.357   7.007   2.767 -0.0978 -0.1011 -0.2083
22250SOL    HW168191   5.442   7.026   2.806 -0.4853  0.8767  0.2022
22250SOL    HW268192   5.373   6.933   2.708  1.2979  0.7942 -1.0169
22251SOL     OW68193   6.174   6.374   1.244 -0.3031  0.3262 -0.0240
22251SOL    HW168194   6.262   6.375   1.206  0.5788 -2.9918  1.5331
22251SOL    HW268195   6.115   6.374   1.168  1.2351 -1.8863 -1.3286
22252SOL     OW68196   7.729   7.088   4.469  0.0382  0.0490 -0.0596
22252SOL    HW168197   7.784   7.106   4.393  1.6094  0.9497  1.2431
22252SOL    HW268198   7.784   7.036   4.527 -0.7079  0.3994  0.9977
22253SOL     OW68199   4.856   7.972   3.946  0.5830 -0.4948 -0.2986
22253SOL    HW168200   4.899   8.053   3.920 -0.2496 -0.5036 -1.8233
22253SOL    HW268201   4.913   7.935   4.014  1.0524  1.2730  0.3342
22254SOL     OW68202   7.273   6.265   2.755  0.2039 -0.3279  0.3966
22254SOL    HW168203   7.182   6.235   2.759  0.1002 -0.0197  0.3566
22254SOL    HW268204   7.323   6.186   2.737 -0.1456 -0.3493 -0.5293
22255SOL     OW68205   6.083   6.970   3.725  0.2486  0.3880 -0.4184
22255SOL    HW168206   6.171   7.007   3.727  0.2591  0.3361  0.2929
22255SOL    HW268207   6.095   6.882   3.688  0.8298 -0.4194  1.5409
22256SOL     OW68208   6.738   7.772  11.789  0.2379 -0.1338 -0.4182
22256SOL    HW168209   6.717   7.749  11.880  0.0110  0.6614 -0.2652
22256SOL    HW268210   6.822   7.729  11.773  1.0923  1.0336  0.7100
22257SOL     OW68211   4.413   1.439   1.373  0.2586  0.0056 -0.8460
22257SOL    HW168212   4.473   1.376   1.334  2.1779  1.1355  0.1290
22257SOL    HW268213   4.350   1.459   1.304  1.3626 -0.7686 -2.1168
22258SOL     OW68214   5.796   5.896   2.939  0.4475 -0.0283 -0.6470
22258SOL    HW168215   5.864   5.940   2.990  0.2295 -1.2641  0.7677
22258SOL    HW268216   5.720   5.893   2.998  0.0635 -1.1524 -1.1700
22259SOL     OW68217   5.322   7.058   1.482  0.0790 -0.0455  0.3658
22259SOL    HW168218   5.240   7.025   1.518 -1.4858  2.0657 -1.0280
22259SOL    HW268219   5.371   7.087   1.559  0.3203 -2.7910  1.3751
22260SOL     OW68220   6.459   7.547   3.467  0.6004  0.0659 -0.2206
22260SOL    HW168221   6.425   7.635   3.478  1.6875  0.5331 -0.4224
22260SOL    HW268222   6.392   7.490   3.504 -0.5829  0.8975 -1.0133
22261SOL     OW68223   5.582   5.668   3.517  0.0790 -0.5328 -0.0110
22261SOL    HW168224   5.670   5.686   3.549 -0.5238  1.5714  0.6363
22261SOL    HW268225   5.585   5.577   3.489  2.3743 -0.5986  0.2309
22262SOL     OW68226   6.549   5.239   4.158  0.0303 -0.1801 -0.6512
22262SOL    HW168227   6.507   5.159   4.127  0.6876 -0.6597 -0.3302
22262SOL    HW268228   6.642   5.227   4.136  0.2602  0.1410  0.1133
22263SOL     OW68229   5.875   6.479   2.597 -0.1750 -0.1051  0.2815
22263SOL    HW168230   5.856   6.489   2.691 -0.2473 -1.7390  0.4613
22263SOL    HW268231   5.798   6.435   2.562  0.9354 -1.9370 -0.0078
22264SOL     OW68232   6.434   5.830   5.352  0.9723 -0.2630 -0.3770
22264SOL    HW168233   6.427   5.735   5.363 -1.3215 -0.1474 -0.3156
22264SOL    HW268234   6.444   5.843   5.257 -0.2603 -0.5498 -0.5651
22265SOL     OW68235   6.002   7.116   3.241  0.5059  0.2479 -0.4418
22265SOL    HW168236   6.085   7.161   3.257 -0.8537  2.1635  1.9358
22265SOL    HW268237   5.939   7.162   3.296 -2.3675 -0.5674 -2.8146
22266SOL     OW68238   7.820   6.483   4.339  0.2760  0.1103 -0.2272
22266SOL    HW168239   7.878   6.431   4.394 -1.7834  0.1500  2.1306
22266SOL    HW268240   7.780   6.420   4.280  0.1054 -0.5005  0.5279
22267SOL     OW68241   4.483   0.185   2.119 -0.4615 -0.2068  0.1533
22267SOL    HW168242   4.425   0.109   2.106 -0.9727  0.1757  0.1610
22267SOL    HW268243   4.527   0.167   2.202 -1.7781  0.2549  0.9791
22268SOL     OW68244   7.984   7.264   1.576  0.2519 -0.3944 -0.6231
22268SOL    HW168245   8.030   7.267   1.492  0.5670  0.3075 -0.4309
22268SOL    HW268246   7.944   7.177   1.578  0.4225 -0.4999 -1.4030
22269SOL     OW68247   5.940   6.587   3.024 -0.1903 -0.0597  0.0565
22269SOL    HW168248   5.896   6.503   3.039  0.3963 -0.2946  0.4884
22269SOL    HW268249   5.895   6.648   3.083  0.0544 -0.2958  0.4874
22270SOL     OW68250   7.701   6.832   2.109  0.6975  0.4302  0.2937
22270SOL    HW168251   7.636   6.762   2.118 -0.1065  1.2646  1.1347
22270SOL    HW268252   7.661   6.894   2.048  1.6833 -0.1322 -0.9547
22271SOL     OW68253   6.388   5.424   2.652  0.0574 -0.2367 -0.0521
22271SOL    HW168254   6.311   5.475   2.677  1.1332  1.3224  0.2295
22271SOL    HW268255   6.353   5.350   2.603 -1.8243 -1.1355  2.4452
22272SOL     OW68256   6.697   4.805   1.394 -0.0991  0.0391 -0.7645
22272SOL    HW168257   6.608   4.838   1.376 -0.3628 -0.5505 -0.5400
22272SOL    HW268258   6.721   4.846   1.477 -1.0887 -1.5917  0.3896
22273SOL     OW68259   6.723   6.457   4.486 -0.5694  0.1667 -0.1607
22273SOL    HW168260   6.744   6.502   4.568  1.3274 -0.8722 -0.0239
22273SOL    HW268261   6.736   6.523   4.418  0.7959  0.2611  0.1601
22274SOL     OW68262   5.485   6.704   2.961  0.5316 -0.4127 -0.1974
22274SOL    HW168263   5.546   6.734   2.893 -1.1005 -0.3691 -1.7165
22274SOL    HW268264   5.402   6.693   2.915 -0.5448 -0.7733  1.7413
22275SOL     OW68265   4.677   6.966   3.503 -0.2122  0.3524  0.4763
22275SOL    HW168266   4.585   6.991   3.501 -0.2065  0.7046  2.3733
22275SOL    HW268267   4.677   6.872   3.485 -0.9587  0.3127  0.6546
22276SOL     OW68268   7.682   1.364   2.489 -0.0578 -0.0581  0.0562
22276SOL    HW168269   7.769   1.394   2.512 -0.6018  1.3904  0.3150
22276SOL    HW268270   7.680   1.365   2.393  0.0767  0.3170  0.0563
22277SOL     OW68271   5.951   5.087   1.037  0.4195 -0.2389  0.0104
22277SOL    HW168272   5.896   5.126   1.106  0.7254  1.2565 -0.5575
22277SOL    HW268273   5.889   5.066   0.967  0.2536 -0.8336  0.3204
22278SOL     OW68274   5.209   6.004   4.226  0.5716  0.1716  0.0623
22278SOL    HW168275   5.256   6.010   4.142  1.6888  0.7408  0.7073
22278SOL    HW268276   5.278   6.002   4.292 -0.3224  1.1241  1.0559
22279SOL     OW68277   5.362   5.844   1.986  0.2990 -0.2005  0.3366
22279SOL    HW168278   5.337   5.838   2.078  0.1324 -0.7806  0.2573
22279SOL    HW268279   5.285   5.814   1.938  0.6893 -0.7465  0.0400
22280SOL     OW68280   6.411   5.229   1.222  0.1635 -0.5540  0.1141
22280SOL    HW168281   6.338   5.291   1.225  1.0138  0.6550 -1.8934
22280SOL    HW268282   6.384   5.163   1.158  0.2059 -0.9847  0.5355
22281SOL     OW68283   5.267   5.280   2.442  0.2819 -0.2255 -0.2069
22281SOL    HW168284   5.185   5.275   2.393  1.3992  0.2060 -2.2011
22281SOL    HW268285   5.316   5.204   2.415  0.8643 -0.0824  0.4142
22282SOL     OW68286   7.213   5.435   2.622 -0.0771  0.2480  0.0041
22282SOL    HW168287   7.272   5.386   2.565 -0.9267 -1.1346  0.2627
22282SOL    HW268288   7.245   5.418   2.710 -0.2604  0.3255  0.0864
22283SOL     OW68289   6.300   5.950   4.066  0.0704  0.0561  0.0559
22283SOL    HW168290   6.332   5.932   4.154  1.5419 -0.5698 -0.5566
22283SOL    HW268291   6.258   5.869   4.038 -1.1253  0.5257  0.4713
22284SOL     OW68292   0.707   6.303   1.399 -0.1259 -0.1809 -0.5065
22284SOL    HW168293   0.702   6.322   1.493 -1.0427 -1.9457 -0.1601
22284SOL    HW268294   0.801   6.292   1.382 -0.1008 -2.3821  0.7861
22285SOL     OW68295   5.357   7.639   2.569  0.7952 -0.0740  0.7348
22285SOL    HW168296   5.383   7.631   2.661  0.2085 -1.7253  0.7821
22285SOL    HW268297   5.322   7.553   2.546  1.3289  0.1787 -1.1682
22286SOL     OW68298   5.069   7.012   1.639  0.2004 -0.5064 -0.1528
22286SOL    HW168299   5.147   6.970   1.675 -0.3978 -0.2697  1.5116
22286SOL    HW268300   5.012   6.939   1.616  0.6814 -0.6676 -0.8633
22287SOL     OW68301   7.286   6.853   1.224 -0.4442  0.6644  0.6748
22287SOL    HW168302   7.199   6.829   1.256 -0.9836 -0.0100 -1.1870
22287SOL    HW268303   7.343   6.840   1.300 -1.9570  1.2706  1.9889
22288SOL     OW68304   7.414   6.809   1.864 -0.4478 -0.1701  0.5127
22288SOL    HW168305   7.439   6.737   1.806 -0.3475  0.8208 -0.7045
22288SOL    HW268306   7.385   6.765   1.945 -0.0918 -1.5536 -0.0747
22289SOL     OW68307   7.206   7.220   3.874 -0.4241  0.2657  0.2641
22289SOL    HW168308   7.146   7.258   3.937 -0.8244 -0.2867  0.2187
22289SOL    HW268309   7.216   7.287   3.806  1.4012  1.6068  1.7516
22290SOL     OW68310   6.989   5.554   3.357  0.5340  0.4125 -0.2045
22290SOL    HW168311   6.925   5.489   3.328 -1.9500  2.5429  0.0695
22290SOL    HW268312   7.017   5.597   3.276  0.4401  0.4999 -0.1903
22291SOL     OW68313   7.767   0.231   1.778  0.2546  0.7281  0.2982
22291SOL    HW168314   7.779   0.296   1.848  0.9515  2.6668 -1.5120
22291SOL    HW268315   7.708   0.274   1.716 -2.1303 -1.7842  0.6063
22292SOL     OW68316   7.040   4.979   1.631 -0.3327 -0.7133  0.0159
22292SOL    HW168317   6.975   5.044   1.608 -1.2246 -1.7636 -0.5222
22292SOL    HW268318   6.989   4.902   1.657  0.6713 -1.7300 -0.8951
22293SOL     OW68319   7.885   7.227   3.437 -0.1495 -0.4063 -0.2467
22293SOL    HW168320   7.932   7.155   3.480 -1.1221 -1.2942 -0.6173
22293SOL    HW268321   7.912   7.221   3.345  0.4487  0.2796 -0.1250
22294SOL     OW68322   5.853   7.041   2.729  0.1082 -0.2930  0.8328
22294SOL    HW168323   5.910   7.050   2.806  0.5814 -3.2288  0.9457
22294SOL    HW268324   5.895   6.973   2.677 -1.9106 -0.6283 -0.4411
22295SOL     OW68325   4.906   7.590   5.631 -0.1998 -0.7291  0.0685
22295SOL    HW168326   4.880   7.565   5.719 -1.3361  1.3871  0.3698
22295SOL    HW268327   4.999   7.611   5.638  0.6754 -3.9602 -0.0712
22296SOL     OW68328   7.569   6.553   0.756  0.3988 -0.4805  0.0519
22296SOL    HW168329   7.523   6.471   0.773 -1.4516 -0.1792 -2.8124
22296SOL    HW268330   7.620   6.536   0.676  0.4201  0.9971 -0.2822
22297SOL     OW68331   3.332   7.447   3.729  0.5328 -0.7591  0.2627
22297SOL    HW168332   3.324   7.400   3.646  0.2779  1.9087 -1.3645
22297SOL    HW268333   3.414   7.416   3.767  0.6734 -2.0189 -0.9901
22298SOL     OW68334   6.159   4.764   3.484 -0.0115  0.2007  0.2203
22298SOL    HW168335   6.111   4.725   3.411  0.4972 -0.1923  0.0963
22298SOL    HW268336   6.115   4.848   3.499 -1.0237 -0.3427  0.4035
22299SOL     OW68337   5.242   7.621   3.066  0.5078 -0.1559 -0.1171
22299SOL    HW168338   5.266   7.696   3.013 -3.5712  1.0715 -0.5514
22299SOL    HW268339   5.248   7.652   3.157  0.3227  0.1598 -0.2153
22300SOL     OW68340   6.426   6.835   1.591 -0.0108 -0.4930 -0.1406
22300SOL    HW168341   6.425   6.779   1.514  0.8642  1.0211 -1.3191
22300SOL    HW268342   6.413   6.776   1.665 -0.3270 -2.0565 -1.4058
22301SOL     OW68343   5.365   0.801   2.198 -0.5837 -0.0940 -0.4625
22301SOL    HW168344   5.398   0.716   2.226  0.7120 -0.0134 -1.6869
22301SOL    HW268345   5.326   0.838   2.277  3.0321  0.1916  1.3822
22302SOL     OW68346   6.409   6.078   1.746 -0.1050 -0.4015  0.1969
22302SOL    HW168347   6.321   6.041   1.744 -0.6392  0.7928  0.4144
22302SOL    HW268348   6.400   6.164   1.704  1.2158 -0.7487 -0.8639
22303SOL     OW68349   7.773   6.798   3.462 -0.6543  0.1426  0.2510
22303SOL    HW168350   7.703   6.825   3.403 -0.7486  2.0780  1.1602
22303SOL    HW268351   7.853   6.827   3.419 -0.4998 -0.8340 -0.1429
22304SOL     OW68352   7.203   6.483   2.595 -0.1240  0.0762  0.6968
22304SOL    HW168353   7.229   6.415   2.657 -1.0233  1.2931  2.4823
22304SOL    HW268354   7.121   6.517   2.630 -1.1267  0.2622 -1.6400
22305SOL     OW68355   7.109   6.408   4.446 -0.4705  0.0719 -0.3205
22305SOL    HW168356   7.143   6.496   4.432  0.4548  0.0164  1.2960
22305SOL    HW268357   7.086   6.377   4.359  2.9421  0.4153 -1.4925
22306SOL     OW68358   4.885   7.526   3.876  0.2426 -0.8453  0.3040
22306SOL    HW168359   4.941   7.548   3.802  1.0639 -1.0356  0.8502
22306SOL    HW268360   4.836   7.606   3.895  0.0999 -0.7691 -0.3744
22307SOL     OW68361   6.524   7.936   4.471 -0.3360 -0.5049  0.0433
22307SOL    HW168362   6.547   7.888   4.551  1.3532  0.6750  0.3353
22307SOL    HW268363   6.529   8.028   4.497 -0.9068 -0.1179 -1.1524
22308SOL     OW68364   5.396   6.597   3.206 -0.1467  0.0795 -0.2951
22308SOL    HW168365   5.417   6.648   3.127  0.1007  1.0042  0.3503
22308SOL    HW268366   5.396   6.506   3.176  2.2098  0.2125 -0.8957
22309SOL     OW68367   5.974   5.779   2.702  0.3649  0.0622 -0.4233
22309SOL    HW168368   5.925   5.763   2.622  0.2082 -0.6155 -0.1951
22309SOL    HW268369   5.910   5.817   2.762  0.7203  1.5368 -0.9419
22310SOL     OW68370   6.098   6.311   2.448  0.7145 -0.1764  0.0027
22310SOL    HW168371   6.171   6.355   2.403  1.3010 -1.3589 -0.2433
22310SOL    HW268372   6.071   6.373   2.515  0.8453  0.9859 -0.9717
22311SOL     OW68373   7.758   7.390   2.786 -0.0811 -0.2904 -0.0778
22311SOL    HW168374   7.716   7.436   2.858  1.7086  1.5600 -0.1311
22311SOL    HW268375   7.685   7.358   2.732 -1.4147  0.0988  1.4315
22312SOL     OW68376   7.639   4.570   0.973  0.0067 -0.0224 -0.2265
22312SOL    HW168377   7.552   4.541   0.948 -0.8041  1.3999  0.7870
22312SOL    HW268378   7.671   4.621   0.899 -1.4020  2.1788  0.5831
22313SOL     OW68379   4.712   6.505   1.173 -0.0365 -0.4543  0.5194
22313SOL    HW168380   4.763   6.471   1.246  1.0601 -0.7543 -0.3413
22313SOL    HW268381   4.778   6.522   1.105 -0.7944  1.5072  0.2223
22314SOL     OW68382   4.407   6.804   2.626  0.1139  0.5158  0.4620
22314SOL    HW168383   4.380   6.895   2.626 -0.5630  0.3400  1.9394
22314SOL    HW268384   4.501   6.806   2.644  0.1279  0.9200  0.3371
22315SOL     OW68385   5.793   6.908   4.239 -0.7232 -0.2074 -0.0145
22315SOL    HW168386   5.754   6.899   4.152 -0.9870  0.4999  0.0248
22315SOL    HW268387   5.719   6.922   4.297 -0.4489  0.7947  0.1132
22316SOL     OW68388   6.946   6.644   5.268  0.0035 -0.3888  0.0845
22316SOL    HW168389   6.871   6.619   5.214  0.2881  0.9207 -0.9753
22316SOL    HW268390   6.928   6.606   5.354 -1.6256 -0.5305 -0.2899
22317SOL     OW68391   4.903   4.720   2.081 -0.2993  0.3448 -0.3676
22317SOL    HW168392   4.911   4.693   2.172 -1.8599  1.5191  0.1640
22317SOL    HW268393   4.913   4.639   2.031 -0.6070 -0.5061  0.9017
22318SOL     OW68394   0.096   6.100   1.164 -0.4211 -0.3677 -0.3732
22318SOL    HW168395   0.161   6.059   1.222 -1.3481 -0.1520  0.8339
22318SOL    HW268396   0.031   6.137   1.223 -1.5183 -0.3530 -1.5654
22319SOL     OW68397   7.333   7.761   1.977  0.1132 -0.1403  0.6812
22319SOL    HW168398   7.264   7.821   1.951  1.3532  1.6289  1.2646
22319SOL    HW268399   7.304   7.727   2.062 -0.7509 -0.6270  0.1968
22320SOL     OW68400   4.334   7.184   3.881 -0.0046 -0.3334 -0.1575
22320SOL    HW168401   4.348   7.248   3.811 -2.1138  1.1896  0.6951
22320SOL    HW268402   4.245   7.153   3.867 -0.0149 -0.9403  1.1374
22321SOL     OW68403   7.205   0.838   5.007  0.0073  0.1529 -0.0868
22321SOL    HW168404   7.209   0.763   4.947  2.1423 -0.7474  1.0803
22321SOL    HW268405   7.295   0.851   5.036 -0.9226  0.4322  3.0266
22322SOL     OW68406   4.769   5.396   4.715  0.4274  0.0781 -0.0413
22322SOL    HW168407   4.832   5.346   4.663 -0.3178 -0.2430 -0.6463
22322SOL    HW268408   4.797   5.382   4.805  0.8419 -0.5871 -0.2636
22323SOL     OW68409   7.106   5.529   0.724 -0.1125  0.5540  0.3932
22323SOL    HW168410   7.036   5.521   0.788 -0.4143  0.0325 -0.0002
22323SOL    HW268411   7.173   5.468   0.754  0.2591  1.1733  0.8625
22324SOL     OW68412   7.724   6.829   0.787 -0.2577  0.1459  0.1835
22324SOL    HW168413   7.762   6.820   0.700 -0.3844 -1.7042  0.2747
22324SOL    HW268414   7.795   6.863   0.842 -0.2805  1.6666 -0.6733
22325SOL     OW68415   0.764   1.837   1.961 -0.3121 -0.2174 -0.4123
22325SOL    HW168416   0.726   1.756   1.928 -1.1647 -0.1775  0.4415
22325SOL    HW268417   0.838   1.809   2.015  1.3416 -0.2692 -2.5819
22326SOL     OW68418   6.969   5.284   1.786  0.3080 -0.1914 -0.3175
22326SOL    HW168419   6.903   5.240   1.732  0.8731  1.2000 -2.2936
22326SOL    HW268420   7.051   5.238   1.765  0.2152 -1.0375  1.0817
22327SOL     OW68421   6.009   7.003   2.993 -0.0991  0.1989  0.1139
22327SOL    HW168422   6.009   7.056   3.072  3.2692  1.0248 -0.2571
22327SOL    HW268423   6.097   7.015   2.957 -0.6085 -2.3224 -2.2934
22328SOL     OW68424   6.348   1.136   2.890 -0.0012  0.7742 -0.1106
22328SOL    HW168425   6.418   1.186   2.932  0.6022 -1.2765  1.5203
22328SOL    HW268426   6.270   1.190   2.901  0.7449  1.7027  0.9082
22329SOL     OW68427   0.806   6.658   6.635  0.0924 -0.0318  0.1693
22329SOL    HW168428   0.826   6.711   6.713 -1.8778 -0.0540  0.7497
22329SOL    HW268429   0.882   6.667   6.579  1.5558  0.0451  2.0791
22330SOL     OW68430   5.558   7.680   2.760 -0.1691  0.1278  0.1418
22330SOL    HW168431   5.609   7.706   2.837  0.3329 -1.0623  0.2330
22330SOL    HW268432   5.595   7.596   2.734 -2.2255 -0.8970  0.3265
22331SOL     OW68433   5.732   7.016   4.586 -1.3347 -0.4862  0.3730
22331SOL    HW168434   5.746   7.100   4.542  2.1575 -0.1399  1.8214
22331SOL    HW268435   5.640   7.016   4.609 -1.9386  1.9359 -1.6324
22332SOL     OW68436   7.506   7.856   1.793 -0.8544 -0.2672  0.1322
22332SOL    HW168437   7.543   7.943   1.804 -0.7063 -0.3428  0.2396
22332SOL    HW268438   7.468   7.834   1.878 -1.8985  0.1522 -0.2118
22333SOL     OW68439   5.131   6.811   2.930  0.2555 -0.3509 -0.5007
22333SOL    HW168440   5.178   6.871   2.988  0.4120 -0.7126 -0.2493
22333SOL    HW268441   5.151   6.843   2.842  0.1989  0.0672 -0.3625
22334SOL     OW68442   5.140   7.713   3.306  0.6726  0.3008  0.3893
22334SOL    HW168443   5.128   7.657   3.383  2.0811  0.1406  0.5246
22334SOL    HW268444   5.058   7.760   3.297  0.5412  0.4361  2.0887
22335SOL     OW68445   5.253   5.246   2.153  0.5771 -0.3566 -1.3621
22335SOL    HW168446   5.255   5.263   2.059 -0.0757  0.0866 -1.3014
22335SOL    HW268447   5.308   5.315   2.191 -0.9963  0.8730 -1.2340
22336SOL     OW68448   7.205   6.913   3.034  0.1786  0.1090  0.1463
22336SOL    HW168449   7.122   6.959   3.019 -0.2896 -0.3841  1.1415
22336SOL    HW268450   7.201   6.885   3.125  1.7552  0.6758  0.4160
22337SOL     OW68451   6.978   7.800   2.475 -0.3965  0.1890  0.4734
22337SOL    HW168452   6.946   7.753   2.398  1.2550  0.3366 -0.3430
22337SOL    HW268453   6.955   7.743   2.549  1.2157 -1.7781 -0.4408
22338SOL     OW68454   6.622   6.166   3.462 -0.2628  0.0070 -0.1687
22338SOL    HW168455   6.582   6.114   3.532 -0.8115 -0.7469 -1.0229
22338SOL    HW268456   6.714   6.141   3.463  0.0410  1.0925  1.2298
22339SOL     OW68457   5.576   7.446   4.513  0.1785  0.4438  0.3168
22339SOL    HW168458   5.536   7.418   4.431 -1.5624  1.2459  0.8290
22339SOL    HW268459   5.670   7.434   4.500 -0.2270 -2.2756 -0.6886
22340SOL     OW68460   5.781   6.736   4.573 -0.1247  0.1782  0.0365
22340SOL    HW168461   5.780   6.758   4.666  1.8748 -0.4403  0.2710
22340SOL    HW268462   5.812   6.815   4.529 -1.2944  0.5460 -0.1504
22341SOL     OW68463   5.629   7.746   3.073 -0.7632 -0.5585 -0.0581
22341SOL    HW168464   5.654   7.658   3.103  1.0027 -0.2198 -0.4716
22341SOL    HW268465   5.693   7.768   3.006 -2.2084  0.3753 -1.2060
22342SOL     OW68466   6.682   6.861   3.309  0.5466  0.8299 -0.2525
22342SOL    HW168467   6.683   6.780   3.257 -3.2911  1.9247 -2.3716
22342SOL    HW268468   6.663   6.831   3.398  1.7781 -0.7074 -0.4451
22343SOL     OW68469   5.336   6.118   3.617 -0.1970  0.0585 -0.8091
22343SOL    HW168470   5.264   6.172   3.586 -2.1589 -2.1209 -0.3542
22343SOL    HW268471   5.351   6.055   3.546 -1.1348 -1.6452  0.4444
22344SOL     OW68472   0.246   7.894   1.087  0.1599  0.2834  0.0647
22344SOL    HW168473   0.153   7.900   1.061  0.0557 -2.0706 -0.3781
22344SOL    HW268474   0.255   7.805   1.121  1.8674  1.0952  1.9171
22345SOL     OW68475   7.932   5.433   1.778  0.2047  0.0037  0.4632
22345SOL    HW168476   7.922   5.368   1.708  2.8863 -0.7740  0.7169
22345SOL    HW268477   7.969   5.384   1.851  0.6015  1.4783  1.2899
22346SOL     OW68478   6.724   7.316   0.825 -0.2848  0.0618  0.1027
22346SOL    HW168479   6.791   7.247   0.820  0.8630  0.9722  1.7448
22346SOL    HW268480   6.765   7.391   0.781  0.5795  1.1469  2.5593
22347SOL     OW68481   4.592   6.730   3.248 -0.1261 -0.0462  0.5973
22347SOL    HW168482   4.613   6.816   3.210  0.1942 -0.0439  0.7739
22347SOL    HW268483   4.499   6.736   3.270 -0.0508  0.3413  0.8241
22348SOL     OW68484   5.286   7.254   4.636 -0.1495 -0.1800 -0.2242
22348SOL    HW168485   5.310   7.326   4.694  1.1099 -1.1667  0.5312
22348SOL    HW268486   5.195   7.234   4.659 -0.4600  1.0324 -0.3280
22349SOL     OW68487   6.889   4.877   4.555  0.1542  0.0595  0.4394
22349SOL    HW168488   6.909   4.968   4.535 -0.6440 -0.0305 -0.8816
22349SOL    HW268489   6.916   4.828   4.477 -1.9428 -0.4729 -0.0005
22350SOL     OW68490   7.906   6.375   2.967  0.4169 -0.7935 -0.1883
22350SOL    HW168491   7.948   6.336   3.044  1.2845 -0.5435 -0.5230
22350SOL    HW268492   7.819   6.335   2.964  1.2657 -2.7343 -0.4996
22351SOL     OW68493   6.985   0.010   3.431 -0.1809  0.0021  0.2438
22351SOL    HW168494   6.907   0.063   3.441  0.0753  0.5547 -0.6470
22351SOL    HW268495   7.051   0.069   3.395 -0.4460 -1.3447 -2.7051
22352SOL     OW68496   7.289   7.545   1.781 -0.0188 -0.3184  0.0695
22352SOL    HW168497   7.347   7.601   1.832 -0.5669  0.7516 -0.4529
22352SOL    HW268498   7.209   7.540   1.833  0.1632 -0.9372  0.2955
22353SOL     OW68499   5.957   6.483   3.511 -0.0133  0.4430 -0.2229
22353SOL    HW168500   5.989   6.487   3.421 -0.4868  0.0312 -0.4143
22353SOL    HW268501   6.027   6.438   3.560 -0.3627 -0.6241 -0.6746
22354SOL     OW68502   3.704   7.489   2.484  0.2591  0.6006 -0.9103
22354SOL    HW168503   3.668   7.543   2.413 -0.5311  0.5962 -0.5265
22354SOL    HW268504   3.668   7.527   2.564  0.3863  0.0335 -0.5761
22355SOL     OW68505   6.553   6.969   2.049  0.4205 -0.2628  0.4111
22355SOL    HW168506   6.599   6.922   1.979 -0.5180  1.1697 -1.2337
22355SOL    HW268507   6.620   6.983   2.116  2.0537  0.5968 -1.3266
22356SOL     OW68508   0.806   5.866   4.506  0.1332  0.4971  0.3071
22356SOL    HW168509   0.768   5.789   4.464  1.8499  0.1375 -0.6353
22356SOL    HW268510   0.731   5.910   4.546 -1.3885  0.1905 -2.0568
22357SOL     OW68511   6.556   6.815   2.853 -0.1081  0.3256 -0.3904
22357SOL    HW168512   6.516   6.879   2.793 -2.5205  1.8538  2.5547
22357SOL    HW268513   6.499   6.739   2.847 -0.5430  0.6004  0.1270
22358SOL     OW68514   5.481   7.395   5.305  0.6084  0.7833  0.2445
22358SOL    HW168515   5.386   7.392   5.306  0.6313 -0.0211  0.7455
22358SOL    HW268516   5.502   7.486   5.284 -0.2571  0.6996 -1.0741
22359SOL     OW68517   6.020   7.541   3.521 -0.3101 -0.2711  0.1655
22359SOL    HW168518   6.079   7.535   3.596  0.4583 -1.9344 -0.5299
22359SOL    HW268519   6.043   7.625   3.480  0.3400 -0.0758  0.9003
22360SOL     OW68520   5.100   6.863   2.081  0.2393  0.0725 -0.3103
22360SOL    HW168521   5.127   6.786   2.131  0.7171  1.5522  1.8496
22360SOL    HW268522   5.047   6.914   2.142 -0.9081  1.0213 -2.0008
22361SOL     OW68523   5.369   6.548   2.658 -0.3328  0.0777  0.4133
22361SOL    HW168524   5.399   6.471   2.707  1.0333  0.6052  0.4319
22361SOL    HW268525   5.276   6.529   2.640 -0.0476 -1.5457  0.4457
22362SOL     OW68526   5.355   7.788   3.472  0.3245 -0.5187 -0.0319
22362SOL    HW168527   5.430   7.819   3.420 -0.5353  0.2732 -0.8331
22362SOL    HW268528   5.289   7.766   3.406 -1.0709  1.2126  0.7298
22363SOL     OW68529   5.759   7.657   1.342  0.3800  0.3377 -0.1541
22363SOL    HW168530   5.763   7.709   1.422  3.1881  2.0892 -1.2873
22363SOL    HW268531   5.823   7.587   1.356  0.9323  0.6906 -0.8585
22364SOL     OW68532   6.439   6.358   3.703 -0.1147 -1.2024  0.5438
22364SOL    HW168533   6.525   6.395   3.723  0.7423 -2.2645 -1.0223
22364SOL    HW268534   6.421   6.298   3.775  0.8230 -1.5449  0.5068
22365SOL     OW68535   7.466   6.403   1.609 -0.2737 -0.5270 -0.5769
22365SOL    HW168536   7.457   6.396   1.514  0.5469  0.8360 -0.7925
22365SOL    HW268537   7.543   6.459   1.622 -1.9358  1.6147  0.8089
22366SOL     OW68538   6.939   3.967   5.108  0.1016  0.5788 -0.0799
22366SOL    HW168539   6.923   3.883   5.065  0.0731  1.1595 -1.2507
22366SOL    HW268540   6.853   4.010   5.109 -0.2581 -0.0759  2.0864
22367SOL     OW68541   5.670   6.829   2.432  0.5000 -0.2711  0.3066
22367SOL    HW168542   5.691   6.918   2.404 -1.5228 -0.2066 -1.2354
22367SOL    HW268543   5.726   6.773   2.378 -0.2277  0.0123 -0.7707
22368SOL     OW68544   3.344   7.532   3.142 -0.3676 -0.3018 -0.2885
22368SOL    HW168545   3.404   7.583   3.197 -0.1633  1.6138 -2.1546
22368SOL    HW268546   3.266   7.521   3.197  0.3962  0.1449  0.9394
22369SOL     OW68547   5.035   5.428   2.709  0.0848  0.0782 -0.3594
22369SOL    HW168548   5.094   5.358   2.736 -0.2298  0.3569  1.1411
22369SOL    HW268549   4.951   5.404   2.747 -0.6537  0.0314 -1.9089
22370SOL     OW68550   6.134   6.606   2.204 -0.4958  0.2076 -0.3213
22370SOL    HW168551   6.182   6.683   2.174 -0.5679  0.7184  0.8112
22370SOL    HW268552   6.127   6.550   2.127 -3.2021  2.6842 -2.0878
22371SOL     OW68553   7.592   7.316   0.969  0.7733 -0.0397 -0.4077
22371SOL    HW168554   7.642   7.259   1.029 -0.9970  1.2879  2.5550
22371SOL    HW268555   7.530   7.257   0.926  1.5092 -0.9106 -0.3080
22372SOL     OW68556   4.089   5.553   1.130 -0.2862  0.1386 -0.6312
22372SOL    HW168557   4.081   5.565   1.036  1.4705  0.3211 -0.7955
22372SOL    HW268558   4.131   5.634   1.161  0.1130 -0.3503  0.1344
22373SOL     OW68559   7.338   0.109   2.660  0.7829 -0.2491  0.1362
22373SOL    HW168560   7.340   0.077   2.750  0.2238 -2.1602 -0.4905
22373SOL    HW268561   7.428   0.137   2.643  1.2867 -1.4039  0.7692
22374SOL     OW68562   7.130   6.878   4.443 -0.0950  0.3434  0.1868
22374SOL    HW168563   7.129   6.968   4.409  0.4182  1.0831  1.9926
22374SOL    HW268564   7.091   6.886   4.530  2.0146 -0.7653  1.3088
22375SOL     OW68565   5.961   7.264   3.496 -0.1449 -0.4729 -0.0938
22375SOL    HW168566   5.983   7.357   3.490 -1.0834 -0.3232 -2.8240
22375SOL    HW268567   5.874   7.263   3.537 -0.6069 -0.0097 -1.0097
22376SOL     OW68568   5.917   5.954   4.261  0.2590  0.0986  0.2895
22376SOL    HW168569   5.850   5.954   4.329  1.8105  2.9722  2.0193
22376SOL    HW268570   5.998   5.933   4.308  0.9674 -0.8210 -1.2694
22377SOL     OW68571   4.933   6.525   5.006  0.2590  0.4235 -0.3728
22377SOL    HW168572   4.858   6.584   5.003  1.2619  1.7874  0.2882
22377SOL    HW268573   4.954   6.517   5.099 -1.0501 -2.6316 -0.2080
22378SOL     OW68574   6.084   5.568   3.040  0.8322  0.1854 -0.6782
22378SOL    HW168575   6.126   5.643   3.082 -0.0150  0.5148 -0.4022
22378SOL    HW268576   5.995   5.568   3.074  0.6115 -0.5175 -1.2317
22379SOL     OW68577   6.583   5.071   2.290  0.7647 -0.3844 -0.3169
22379SOL    HW168578   6.543   5.158   2.304  1.5793  0.4103 -2.4244
22379SOL    HW268579   6.553   5.019   2.364  0.1177  1.6498  0.9559
22380SOL     OW68580   5.508   0.163   2.654  0.0404  0.5582  0.4895
22380SOL    HW168581   5.550   0.230   2.599  2.4257 -0.5195  0.8653
22380SOL    HW268582   5.534   0.080   2.614 -1.8137 -0.1954  0.7671
22381SOL     OW68583   7.636   5.217   3.851 -0.2555  0.6252 -0.4705
22381SOL    HW168584   7.593   5.268   3.919  0.7733  1.6145 -0.5283
22381SOL    HW268585   7.721   5.259   3.839  0.5646 -0.9908 -0.6691
22382SOL     OW68586   0.724   7.822   2.260  0.4745  0.2506  0.0907
22382SOL    HW168587   0.639   7.787   2.233 -0.0780  2.2096 -0.9235
22382SOL    HW268588   0.728   7.805   2.354 -0.0739 -1.7538 -0.2029
22383SOL     OW68589   6.194   1.011   3.658 -0.0276 -0.3334  0.4022
22383SOL    HW168590   6.249   1.059   3.596 -0.3141 -0.2840  0.1905
22383SOL    HW268591   6.234   1.030   3.744 -0.6400  0.9791  0.4177
22384SOL     OW68592   0.018   0.163   1.383  0.8593  0.0270  0.3818
22384SOL    HW168593   0.111   0.147   1.396  0.8482 -0.6812 -0.3869
22384SOL    HW268594   0.011   0.259   1.378  2.0026  0.0616 -2.6412
22385SOL     OW68595   5.209   5.613   3.197 -0.6850  0.6272  0.0511
22385SOL    HW168596   5.284   5.611   3.138 -0.0935  1.3239  0.7509
22385SOL    HW268597   5.154   5.540   3.169 -0.8005  1.3886 -1.8518
22386SOL     OW68598   7.928   6.266   3.460 -0.5790  0.5643 -0.3235
22386SOL    HW168599   7.887   6.334   3.513 -0.9116  1.0256 -1.1512
22386SOL    HW268600   8.007   6.308   3.425  0.2303 -0.0889  0.6850
22387SOL     OW68601   7.926   6.666   1.201 -0.1998  0.0547 -0.0015
22387SOL    HW168602   8.014   6.683   1.233 -0.0938  0.2683 -0.3972
22387SOL    HW268603   7.871   6.731   1.245 -0.2227 -0.3040  0.5149
22388SOL     OW68604   3.497   6.418   1.610 -0.6233  0.2756  0.3917
22388SOL    HW168605   3.550   6.492   1.581  0.1581 -0.4441 -0.0639
22388SOL    HW268606   3.506   6.419   1.706  1.2424 -0.5514  0.2621
22389SOL     OW68607   5.618   7.873   1.865 -0.6442 -0.1069 -0.3320
22389SOL    HW168608   5.554   7.944   1.863 -1.4334 -0.7902 -0.2021
22389SOL    HW268609   5.668   7.888   1.945 -0.5369  0.5267 -0.5150
22390SOL     OW68610   5.811   7.773   4.082  0.0153  0.1614 -0.3372
22390SOL    HW168611   5.900   7.740   4.064  0.2731 -0.6762  2.1574
22390SOL    HW268612   5.754   7.698   4.062  0.0435  0.1244 -0.2807
22391SOL     OW68613   6.723   5.914   4.094 -0.3657  0.5153  0.2505
22391SOL    HW168614   6.733   5.986   4.156  0.5249  1.5427 -1.0186
22391SOL    HW268615   6.778   5.939   4.019  0.3592 -1.7057 -0.0417
22392SOL     OW68616   5.412   5.271   1.890 -0.6943  0.5266  0.4020
22392SOL    HW168617   5.370   5.242   1.809  0.4678 -0.4449  0.1192
22392SOL    HW268618   5.473   5.201   1.912  0.5583  1.7416  0.9567
22393SOL     OW68619   7.612   6.790   2.390 -0.5291  0.1162  0.2118
22393SOL    HW168620   7.548   6.749   2.448 -1.2513  0.4295 -0.3454
22393SOL    HW268621   7.579   6.774   2.301  0.3241  0.0248 -0.1038
22394SOL     OW68622   6.231   5.412   1.304  0.2501 -0.0114  0.2958
22394SOL    HW168623   6.176   5.365   1.367 -0.7615 -0.4258 -0.8552
22394SOL    HW268624   6.198   5.502   1.305  0.1793 -0.0376  0.2992
22395SOL     OW68625   6.558   0.272   2.536 -0.2073  0.1026  0.0291
22395SOL    HW168626   6.625   0.235   2.479 -1.6962 -2.4340 -0.1946
22395SOL    HW268627   6.598   0.274   2.623  1.2686  1.8469 -0.6269
22396SOL     OW68628   5.811   5.632   3.098 -0.5819 -0.5959 -0.3679
22396SOL    HW168629   5.757   5.554   3.110 -0.1044 -1.0906 -1.2619
22396SOL    HW268630   5.751   5.699   3.066 -1.0567 -0.4952  0.7201
22397SOL     OW68631   6.819   7.667   3.062  0.2204  0.3358 -0.3095
22397SOL    HW168632   6.776   7.723   2.998 -1.5791 -1.4390 -0.7543
22397SOL    HW268633   6.902   7.643   3.021 -0.3433  0.2332 -1.4214
22398SOL     OW68634   5.703   7.545   3.235 -0.5567  0.2500 -0.3915
22398SOL    HW168635   5.798   7.554   3.228 -0.4560  0.1274  0.7173
22398SOL    HW268636   5.685   7.553   3.328 -1.6822  0.6590 -0.6268
22399SOL     OW68637   6.275   4.579   3.677  0.3328 -0.9849  1.1052
22399SOL    HW168638   6.362   4.574   3.717  0.7651  0.3409  0.3943
22399SOL    HW268639   6.272   4.666   3.635 -1.5722 -0.7218  1.6666
22400SOL     OW68640   6.793   7.048   2.133  0.7175  0.0846  0.0368
22400SOL    HW168641   6.836   7.060   2.217  0.9890  1.5220 -0.2766
22400SOL    HW268642   6.864   7.053   2.068  0.5244 -1.0809 -0.2898
22401SOL     OW68643   7.136   7.064   2.730 -0.2184 -0.1933 -0.2257
22401SOL    HW168644   7.097   6.977   2.736 -0.7028  0.0511  0.2519
22401SOL    HW268645   7.066   7.120   2.699 -0.1887  0.2028  0.3952
22402SOL     OW68646   7.325   6.110   3.403  0.4532 -0.0868  0.0434
22402SOL    HW168647   7.333   6.202   3.378 -0.2749 -0.3841 -1.3641
22402SOL    HW268648   7.245   6.107   3.456 -0.5607 -0.1878 -1.4469
22403SOL     OW68649   5.708   7.088   2.026 -0.0239 -0.2675  0.0943
22403SOL    HW168650   5.736   7.171   1.988  3.1452 -0.9776  0.6105
22403SOL    HW268651   5.776   7.026   2.002 -2.0637 -2.6817  0.1170
22404SOL     OW68652   7.611   0.598   1.904  0.3874  0.0407  0.0489
22404SOL    HW168653   7.550   0.568   1.836 -0.8185  1.2837  0.5274
22404SOL    HW268654   7.594   0.692   1.911 -1.1164 -0.3423  3.5744
22405SOL     OW68655   6.672   6.262   4.934  0.4629  0.8205 -0.0064
22405SOL    HW168656   6.738   6.198   4.905 -0.9538 -0.3273 -0.8343
22405SOL    HW268657   6.663   6.247   5.028  0.3136 -0.0666 -0.1531
22406SOL     OW68658   0.175   4.792   5.246 -0.4008  0.6576 -0.2125
22406SOL    HW168659   0.166   4.888   5.250  2.5814  0.9839  1.8317
22406SOL    HW268660   0.174   4.764   5.338  0.1971 -1.1020 -0.7067
22407SOL     OW68661   2.835   7.243   5.817 -0.5136  0.6042  0.0969
22407SOL    HW168662   2.880   7.172   5.863 -1.6539  0.1715  0.5735
22407SOL    HW268663   2.888   7.258   5.739  1.2729  1.1284  1.3606
22408SOL     OW68664   5.382   5.716   4.271 -0.3361 -0.5574  0.6974
22408SOL    HW168665   5.468   5.694   4.306 -1.1068 -2.8186  1.3500
22408SOL    HW268666   5.326   5.724   4.348 -1.2846 -1.9585  0.1896
22409SOL     OW68667   1.008   6.625   5.107  0.8019  0.3746 -0.1781
22409SOL    HW168668   1.072   6.689   5.138  2.0861 -0.5396 -0.8185
22409SOL    HW268669   0.992   6.569   5.183 -0.7749  1.7334  0.5628
22410SOL     OW68670   6.417   6.468   5.576  0.0676 -0.4232 -0.1564
22410SOL    HW168671   6.358   6.393   5.571  2.4409 -2.3756 -2.1797
22410SOL    HW268672   6.486   6.440   5.636 -0.8282  1.7554  2.0708
22411SOL     OW68673   0.077   5.437   4.758 -0.0007  0.0556 -0.2488
22411SOL    HW168674   0.045   5.524   4.782  0.0818  0.3786 -1.2530
22411SOL    HW268675   0.006   5.378   4.784  0.3367  0.2988  1.3004
22412SOL     OW68676   6.368   5.307   4.830  0.3603 -0.7524  0.3793
22412SOL    HW168677   6.280   5.324   4.863 -0.0693  2.0791 -1.8711
22412SOL    HW268678   6.425   5.363   4.883  0.0334  1.5585 -1.5742
22413SOL     OW68679   5.192   5.245   5.527 -0.0270 -0.4515 -0.2258
22413SOL    HW168680   5.184   5.231   5.621 -2.0813 -3.6769 -0.7114
22413SOL    HW268681   5.287   5.243   5.511  0.3224 -1.0352  1.6438
22414SOL     OW68682   4.374   5.437   3.454 -0.1790 -0.0615 -0.2053
22414SOL    HW168683   4.306   5.468   3.513 -0.1648  0.3857 -0.4195
22414SOL    HW268684   4.357   5.344   3.444 -1.0106  0.1245 -0.5874
22415SOL     OW68685   7.038   5.041   5.558 -0.4616 -0.4252 -0.2395
22415SOL    HW168686   7.074   5.011   5.641  0.5390 -2.4946 -1.3533
22415SOL    HW268687   7.087   5.121   5.538  0.5597 -0.8974  0.3124
22416SOL     OW68688   5.735   6.143   5.822  0.5434 -0.4476  0.7098
22416SOL    HW168689   5.742   6.191   5.740  1.1474 -1.4183  0.1696
22416SOL    HW268690   5.818   6.160   5.867  0.4150 -0.3180  0.9018
22417SOL     OW68691   5.504   6.642   4.699  0.0213  0.8918  0.6537
22417SOL    HW168692   5.577   6.697   4.672  1.1497 -0.3931  0.9295
22417SOL    HW268693   5.430   6.671   4.646  1.8486 -0.8451 -3.2089
22418SOL     OW68694   5.037   5.691   4.128  0.3030 -0.1701  0.6480
22418SOL    HW168695   5.106   5.632   4.160  1.9807 -0.4043 -2.9147
22418SOL    HW268696   4.957   5.640   4.137  1.1537 -1.4589  1.2778
22419SOL     OW68697   6.389   5.132   5.508 -0.3009 -0.3892 -0.4008
22419SOL    HW168698   6.380   5.039   5.528 -0.6223 -0.4152 -0.6466
22419SOL    HW268699   6.428   5.133   5.420  1.9004 -0.2775  0.5114
22420SOL     OW68700   4.541   6.742   5.050  0.0427 -0.0567 -0.1541
22420SOL    HW168701   4.514   6.827   5.084  0.7231  0.3749 -0.6689
22420SOL    HW268702   4.512   6.680   5.117 -0.0246  0.6244  0.4661
22421SOL     OW68703   5.611   5.845   5.087  0.0901 -0.4405 -0.3241
22421SOL    HW168704   5.648   5.824   5.002 -0.3861 -0.0500 -0.6327
22421SOL    HW268705   5.681   5.891   5.133  0.5600 -1.2032 -0.2667
22422SOL     OW68706   4.060   6.934   4.439 -0.0514  0.3408  0.4117
22422SOL    HW168707   3.987   6.878   4.411  2.7421 -2.9782 -0.8566
22422SOL    HW268708   4.061   6.926   4.535 -0.7777 -0.2989  0.3759
22423SOL     OW68709   6.595   7.129   4.799 -0.2962 -0.2375  0.3729
22423SOL    HW168710   6.532   7.068   4.760  0.8661 -2.0509  1.1801
22423SOL    HW268711   6.646   7.074   4.859 -0.0043  1.8022  2.1020
22424SOL     OW68712   6.072   7.364   4.136  0.1924 -0.1560  0.4933
22424SOL    HW168713   6.046   7.362   4.044 -0.5707  0.1786  0.6944
22424SOL    HW268714   6.016   7.299   4.178 -0.5612  0.7968  0.9886
22425SOL     OW68715   5.822   5.673   3.635  0.1172  0.1227 -0.5849
22425SOL    HW168716   5.857   5.587   3.662  0.1223  0.2296 -0.2383
22425SOL    HW268717   5.889   5.735   3.663 -0.1748  0.2950 -0.2591
22426SOL     OW68718   7.528   7.554   5.316  0.2983 -1.2250 -0.0769
22426SOL    HW168719   7.547   7.475   5.367  1.4854 -1.1039 -0.3134
22426SOL    HW268720   7.613   7.582   5.282 -0.2176 -0.2644 -0.6146
22427SOL     OW68721   5.506   5.067   3.878  0.3398 -0.0331 -0.2764
22427SOL    HW168722   5.592   5.047   3.916  1.4402  0.5714 -2.3105
22427SOL    HW268723   5.453   4.989   3.896  1.8357 -1.1160 -0.4208
22428SOL     OW68724   0.328   0.127   3.952  0.1880 -0.2646  0.0802
22428SOL    HW168725   0.335   0.032   3.948  1.7154 -0.1940  0.4314
22428SOL    HW268726   0.374   0.158   3.874  0.0019  0.1956  0.1510
22429SOL     OW68727   4.539   5.816   5.859 -0.0983  0.2641  0.0246
22429SOL    HW168728   4.593   5.740   5.881 -1.2858 -1.0485 -1.4153
22429SOL    HW268729   4.450   5.791   5.884 -0.5988  0.9490 -0.9888
22430SOL     OW68730   6.863   4.836   4.824  0.2728  0.2482 -0.9083
22430SOL    HW168731   6.894   4.832   4.734 -0.0380  1.2610 -1.0802
22430SOL    HW268732   6.771   4.810   4.819  0.6099 -1.0269 -0.6681
22431SOL     OW68733   7.789   5.730   4.223  0.6339  0.5326  0.5479
22431SOL    HW168734   7.789   5.658   4.285 -0.6548  1.2094  1.3785
22431SOL    HW268735   7.806   5.689   4.138 -0.7682 -0.8684  0.8979
22432SOL     OW68736   6.289   5.744   3.725  0.2396 -0.1990 -0.4029
22432SOL    HW168737   6.309   5.695   3.645  3.4363 -1.7680  1.2065
22432SOL    HW268738   6.335   5.697   3.794  0.1703  2.8649  1.9134
22433SOL     OW68739   3.834   7.598   3.680 -0.4455 -0.1577  0.4076
22433SOL    HW168740   3.911   7.542   3.668  0.3786  1.2465 -1.3814
22433SOL    HW268741   3.766   7.539   3.712  0.6186 -2.0086 -0.5620
22434SOL     OW68742   7.084   5.256   5.375  0.2775 -0.8248 -0.0013
22434SOL    HW168743   7.012   5.293   5.426 -0.4070 -0.2168 -1.3576
22434SOL    HW268744   7.067   5.283   5.285  0.6683 -3.0491 -0.8219
22435SOL     OW68745   4.747   5.891   2.239  0.2917 -0.1002  0.4489
22435SOL    HW168746   4.721   5.972   2.282  0.7192  0.2584  0.0429
22435SOL    HW268747   4.721   5.822   2.300 -0.1193  0.3362  0.7747
22436SOL     OW68748   5.510   6.987   5.006 -0.3957  0.3480  0.3089
22436SOL    HW168749   5.453   7.050   5.048  2.3929  1.7970  2.2628
22436SOL    HW268750   5.489   6.903   5.048 -0.8370  0.9187  1.2524
22437SOL     OW68751   0.640   1.384   7.656 -0.0121  0.3364  0.4305
22437SOL    HW168752   0.682   1.362   7.740 -2.1734 -3.0458  0.8432
22437SOL    HW268753   0.682   1.326   7.592  0.5422  1.7744 -0.5466
22438SOL     OW68754   6.317   5.914   6.073 -0.4731 -0.0122 -0.1044
22438SOL    HW168755   6.381   5.843   6.068 -1.5819 -0.9886 -1.2506
22438SOL    HW268756   6.366   5.992   6.048  0.3794 -0.6571 -0.5043
22439SOL     OW68757   6.387   7.023   5.621 -0.3407 -0.5018 -0.1694
22439SOL    HW168758   6.383   6.933   5.654  1.4427 -0.3912  0.4611
22439SOL    HW268759   6.419   7.074   5.695 -3.0994  1.0458  0.0972
22440SOL     OW68760   0.142   7.032   5.600 -0.2735 -0.3611 -0.0818
22440SOL    HW168761   0.176   6.953   5.641 -0.4766  0.2316  1.2599
22440SOL    HW268762   0.051   7.011   5.580 -0.8911  0.1164  1.9837
22441SOL     OW68763   6.874   7.290   3.132 -0.1974  0.1314 -0.3036
22441SOL    HW168764   6.889   7.377   3.170 -0.7607 -0.2881  0.9506
22441SOL    HW268765   6.848   7.236   3.207 -0.8580 -0.8669 -1.2294
22442SOL     OW68766   5.860   6.400   4.943 -0.1146 -0.3456 -0.7347
22442SOL    HW168767   5.904   6.387   5.027 -1.1825 -0.0624 -0.1146
22442SOL    HW268768   5.833   6.312   4.916  0.2814 -0.4442 -0.8212
22443SOL     OW68769   0.150   7.941   1.798 -0.4114 -0.4731  0.1070
22443SOL    HW168770   0.077   7.987   1.758  0.2340  1.4075  0.9974
22443SOL    HW268771   0.110   7.887   1.866 -0.9436  1.2552  1.2291
22444SOL     OW68772   6.217   4.873   4.884 -0.2142 -0.3686  0.0730
22444SOL    HW168773   6.274   4.838   4.952  0.3325 -0.9268 -0.6530
22444SOL    HW268774   6.214   4.805   4.817 -1.9623 -0.4619  0.2027
22445SOL     OW68775   5.752   4.837   2.894  0.3032 -0.8069 -0.6171
22445SOL    HW168776   5.846   4.817   2.895  0.3818 -0.9753  3.0138
22445SOL    HW268777   5.709   4.751   2.891  0.2899 -0.7782 -1.2339
22446SOL     OW68778   6.505   6.169   5.670 -0.0469 -0.9252 -0.2734
22446SOL    HW168779   6.535   6.114   5.598  0.3695 -1.9236  0.6532
22446SOL    HW268780   6.584   6.190   5.719 -0.3575 -0.4216  0.0166
22447SOL     OW68781   6.372   5.539   4.356  0.7257  0.1161 -0.0310
22447SOL    HW168782   6.422   5.535   4.438  1.4578 -1.3359 -0.5117
22447SOL    HW268783   6.436   5.562   4.289  0.9585 -2.2705 -0.7381
22448SOL     OW68784   5.535   4.714   4.121  0.2907 -0.1648  0.2832
22448SOL    HW168785   5.447   4.691   4.150  0.2383 -1.0673 -0.5494
22448SOL    HW268786   5.591   4.691   4.195 -0.0691 -0.4678  0.4669
22449SOL     OW68787   7.321   4.850   5.240 -0.5578  0.0584  0.5251
22449SOL    HW168788   7.226   4.859   5.242 -0.7428 -1.1273 -0.8566
22449SOL    HW268789   7.354   4.936   5.269 -2.0319  0.6106  0.6674
22450SOL     OW68790   4.398   0.039   4.833 -0.8174  0.1862 -0.1249
22450SOL    HW168791   4.424  -0.029   4.770  2.8540  1.4255 -0.2300
22450SOL    HW268792   4.381   0.116   4.780  0.1508  0.6505  0.1962
22451SOL     OW68793   7.292   6.661   4.408  0.2513 -0.3258  0.9785
22451SOL    HW168794   7.353   6.674   4.481  0.7873 -0.2944  0.5259
22451SOL    HW268795   7.242   6.742   4.405  1.8678  0.6830 -0.2148
22452SOL     OW68796   6.708   4.958   5.764 -0.1295  0.0926 -0.4944
22452SOL    HW168797   6.753   5.026   5.714 -2.4696  0.6056 -2.0969
22452SOL    HW268798   6.726   4.877   5.716  1.0572 -0.1345  0.2969
22453SOL     OW68799   6.234   5.674   4.054  0.1412 -0.0618 -0.5149
22453SOL    HW168800   6.164   5.609   4.047 -0.5306  0.5032  0.5627
22453SOL    HW268801   6.315   5.623   4.053 -0.3474 -0.8605 -0.3458
22454SOL     OW68802   5.464   6.136   5.955  0.2527  0.1430 -0.1079
22454SOL    HW168803   5.472   6.056   6.008  0.6495  0.5875  0.5289
22454SOL    HW268804   5.550   6.145   5.914 -0.0286 -0.1535 -0.7834
22455SOL     OW68805   6.683   7.231   4.389 -0.2366 -0.6404  0.2920
22455SOL    HW168806   6.775   7.257   4.393 -0.2180 -0.7550  0.6686
22455SOL    HW268807   6.645   7.265   4.471 -0.2156 -1.7698  0.7934
22456SOL     OW68808   5.158   6.392   5.412  0.2888 -0.2117 -0.5291
22456SOL    HW168809   5.091   6.349   5.465 -1.0840  0.4467 -1.6450
22456SOL    HW268810   5.241   6.359   5.446 -0.5597 -0.5694  1.3245
22457SOL     OW68811   7.919   5.803   5.328  0.4338 -1.0503  0.0521
22457SOL    HW168812   7.924   5.773   5.419 -2.4614 -0.1729  0.5994
22457SOL    HW268813   7.870   5.735   5.283 -0.3143 -0.3232 -0.2539
22458SOL     OW68814   6.116   6.466   5.655  0.2443  0.0487  0.3826
22458SOL    HW168815   6.130   6.447   5.563 -1.3572 -0.4246  0.1988
22458SOL    HW268816   6.069   6.550   5.655 -0.0938 -0.1387  0.7435
22459SOL     OW68817   4.902   5.475   5.541 -0.2345 -0.2188 -0.3836
22459SOL    HW168818   4.816   5.514   5.555 -0.3199 -1.1587  2.3156
22459SOL    HW268819   4.886   5.381   5.541  0.5083 -0.4172 -2.6502
22460SOL     OW68820   6.282   4.821   2.852  0.0072  0.1444  0.1569
22460SOL    HW168821   6.369   4.855   2.831 -0.2386  1.0771  0.5838
22460SOL    HW268822   6.266   4.852   2.941  0.0950 -1.7881  0.8938
22461SOL     OW68823   6.011   0.846   4.528  0.3773 -0.0273 -0.4469
22461SOL    HW168824   5.989   0.761   4.567  0.8791 -0.6418 -1.4526
22461SOL    HW268825   6.075   0.884   4.588  0.0335 -0.2808  0.0915
22462SOL     OW68826   5.839   6.267   4.368 -0.2624 -0.5881  0.3903
22462SOL    HW168827   5.843   6.331   4.440  0.0297 -1.2734  0.9995
22462SOL    HW268828   5.927   6.268   4.330  0.7274 -2.7811  2.3553
22463SOL     OW68829   6.045   4.038   5.054 -0.3123  0.5826  0.3158
22463SOL    HW168830   6.017   4.129   5.047  0.0354  0.7562  1.0620
22463SOL    HW268831   5.964   3.988   5.048 -0.3232  0.7797 -2.3536
22464SOL     OW68832   7.423   1.017   2.487 -0.3224  0.2300 -0.1754
22464SOL    HW168833   7.395   1.109   2.493  1.2711  0.8567 -1.4403
22464SOL    HW268834   7.515   1.019   2.513 -0.4256 -1.1255  0.3520
22465SOL     OW68835   6.240   0.051   5.310  0.0127 -0.3898  0.3754
22465SOL    HW168836   6.290   0.095   5.379 -2.6300  1.8241  1.0053
22465SOL    HW268837   6.158   0.025   5.352 -0.5453 -1.4607 -1.2835
22466SOL     OW68838   6.549   6.509   4.831  0.2855  0.1452  0.1136
22466SOL    HW168839   6.578   6.425   4.864 -0.1583 -0.4512 -0.9537
22466SOL    HW268840   6.610   6.530   4.760  1.6343  1.7207  1.6492
22467SOL     OW68841   5.342   6.575   5.661  0.1549 -0.8999 -0.6922
22467SOL    HW168842   5.380   6.495   5.698 -0.1031 -0.5752  0.3121
22467SOL    HW268843   5.349   6.640   5.731 -2.2067 -0.8223 -0.4500
22468SOL     OW68844   4.681   6.874   4.437 -0.1106  0.2611 -0.1954
22468SOL    HW168845   4.687   6.954   4.489  3.3264 -1.2127  2.0278
22468SOL    HW268846   4.654   6.807   4.499  1.3170 -1.0583 -0.9302
22469SOL     OW68847   5.300   5.668   4.823 -0.0155 -0.1305 -0.8495
22469SOL    HW168848   5.393   5.667   4.801 -0.1902  0.8720 -1.6790
22469SOL    HW268849   5.267   5.749   4.786 -1.0095  0.0487  0.3700
22470SOL     OW68850   6.689   5.962   1.751  0.1407 -0.2264  0.2921
22470SOL    HW168851   6.602   5.995   1.776 -1.1247 -0.3019 -3.3858
22470SOL    HW268852   6.738   6.042   1.730  0.1207 -0.2942 -0.0072
22471SOL     OW68853   5.524   3.528   5.386 -0.3982  0.2532  0.1881
22471SOL    HW168854   5.594   3.587   5.360 -0.8074  0.0994 -1.3823
22471SOL    HW268855   5.443   3.576   5.368 -0.7209 -0.2692  0.1958
22472SOL     OW68856   6.342   6.802   5.982 -0.4825 -0.2775 -0.0239
22472SOL    HW168857   6.336   6.824   6.075 -2.3076 -3.3139  0.7293
22472SOL    HW268858   6.259   6.831   5.945 -0.6449 -0.9484 -0.1983
22473SOL     OW68859   4.632   6.068   5.764 -0.0564 -0.7757 -0.2390
22473SOL    HW168860   4.577   6.064   5.686 -0.5338 -1.2670  0.1123
22473SOL    HW268861   4.601   5.996   5.819  0.8225 -0.9598  0.0422
22474SOL     OW68862   6.614   7.868   4.733 -0.1621  0.6653  0.0277
22474SOL    HW168863   6.694   7.846   4.780 -0.3446 -0.7019 -0.2673
22474SOL    HW268864   6.551   7.891   4.802 -0.2170 -0.6150  0.4194
22475SOL     OW68865   7.223   4.205   5.477  0.4236  0.4272 -0.4383
22475SOL    HW168866   7.131   4.221   5.457  0.5268 -0.5786 -1.8684
22475SOL    HW268867   7.240   4.117   5.442  1.6201  0.0971  0.8947
22476SOL     OW68868   6.096   5.467   3.465  0.0776 -0.2697  0.4656
22476SOL    HW168869   6.166   5.520   3.428  0.5565 -0.0364  1.6421
22476SOL    HW268870   6.131   5.436   3.549 -1.0045 -0.6521  0.8026
22477SOL     OW68871   6.204   7.125   4.484  0.4660 -0.5518  0.0872
22477SOL    HW168872   6.243   7.179   4.415  0.4968 -0.9201 -0.1839
22477SOL    HW268873   6.112   7.149   4.484  0.0249 -2.0408 -1.5107
22478SOL     OW68874   4.722   6.596   4.537 -0.0075  0.0937 -0.2713
22478SOL    HW168875   4.671   6.572   4.614 -0.3918  0.2699 -0.4663
22478SOL    HW268876   4.795   6.647   4.571  0.9507 -1.5254  0.1738
22479SOL     OW68877   6.500   5.539   4.038 -0.0183  0.0864  0.1123
22479SOL    HW168878   6.563   5.539   3.966 -1.0970  0.5916 -0.8655
22479SOL    HW268879   6.464   5.450   4.038  0.1212  0.0291  0.1657
22480SOL     OW68880   6.673   5.067   4.832  0.6307 -0.9494  0.1252
22480SOL    HW168881   6.645   4.978   4.853  1.6363 -1.5887 -1.0774
22480SOL    HW268882   6.724   5.095   4.909 -2.1695 -0.1943  1.8432
22481SOL     OW68883   5.050   6.184   5.912 -0.2895 -0.0177  0.1797
22481SOL    HW168884   4.985   6.248   5.884  0.6845  0.2967 -1.4391
22481SOL    HW268885   5.013   6.099   5.886 -0.8587 -0.0095  0.9156
22482SOL     OW68886   5.377   6.080   4.690 -0.1867 -0.0318  0.4247
22482SOL    HW168887   5.338   6.150   4.638  0.0593  0.0092  0.2957
22482SOL    HW268888   5.315   6.067   4.762 -0.3701  0.1288  0.2983
22483SOL     OW68889   7.215   6.750   4.867  0.1791 -0.1934  0.4725
22483SOL    HW168890   7.203   6.660   4.836  1.3787 -0.2482  0.1262
22483SOL    HW268891   7.157   6.802   4.811 -0.3569 -0.7134  0.5302
22484SOL     OW68892   5.648   5.834   3.922  0.1474  0.0397  0.4225
22484SOL    HW168893   5.599   5.829   4.004 -1.6472 -0.2616 -0.6170
22484SOL    HW268894   5.596   5.893   3.867  1.7412  0.8838 -0.2402
22485SOL     OW68895   5.541   4.801   4.609  0.2452  0.1733  0.1637
22485SOL    HW168896   5.575   4.832   4.693  1.9560  1.7753 -1.0266
22485SOL    HW268897   5.608   4.741   4.577  0.3252  0.6872 -0.6716
22486SOL     OW68898   6.035   4.320   6.066  0.1600 -0.0435 -0.0050
22486SOL    HW168899   6.097   4.310   6.139 -0.2520  0.1419  0.3727
22486SOL    HW268900   6.058   4.249   6.006 -0.9031 -1.5931  1.3121
22487SOL     OW68901   6.935   7.802   5.412 -0.1143 -0.2035 -0.2716
22487SOL    HW168902   6.886   7.721   5.430  1.4146 -1.1483 -0.1419
22487SOL    HW268903   6.969   7.790   5.323  0.1900  0.2706 -0.2204
22488SOL     OW68904   7.248   5.094   2.887  0.1994  0.0384 -0.4119
22488SOL    HW168905   7.328   5.118   2.840 -0.2314  1.1630 -0.5847
22488SOL    HW268906   7.235   5.164   2.950  0.2766 -1.0059  0.8148
22489SOL     OW68907   6.863   1.044   4.152 -0.7630 -0.4051 -0.4220
22489SOL    HW168908   6.851   1.106   4.081 -0.7943 -0.6214 -0.6078
22489SOL    HW268909   6.779   0.997   4.157 -1.4724  0.9314  1.0445
22490SOL     OW68910   0.210   6.461   6.061 -0.3367 -0.3108  0.1656
22490SOL    HW168911   0.245   6.546   6.087  2.2791 -1.6462  1.3733
22490SOL    HW268912   0.123   6.458   6.101 -0.2565  1.5339  0.6023
22491SOL     OW68913   7.027   6.296   3.903  0.4051  0.1930  0.2908
22491SOL    HW168914   7.091   6.351   3.859  1.3163  0.1800  1.5452
22491SOL    HW268915   6.943   6.325   3.868  1.0318  0.7549 -0.7986
22492SOL     OW68916   5.463   5.619   3.075 -0.3516 -0.0657 -0.0948
22492SOL    HW168917   5.523   5.693   3.091 -1.7234  1.0312  0.1851
22492SOL    HW268918   5.506   5.544   3.115  1.0591  0.5805 -0.3316
22493SOL     OW68919   7.931   7.667   3.041  0.1272  0.5978 -0.2558
22493SOL    HW168920   7.950   7.688   3.132  2.5390  1.7639 -0.9313
22493SOL    HW268921   7.881   7.742   3.009 -1.5754 -0.2552  0.3011
22494SOL     OW68922   6.956   0.475   3.667 -0.3924 -0.0120 -0.4463
22494SOL    HW168923   6.945   0.398   3.723 -0.9423 -0.5634 -1.2884
22494SOL    HW268924   6.874   0.523   3.675 -0.3172  0.1179 -0.4620
22495SOL     OW68925   7.098   4.913   4.964 -0.6084  0.1321 -0.1478
22495SOL    HW168926   7.077   4.897   5.057  1.3685 -1.5512  0.1053
22495SOL    HW268927   7.018   4.891   4.917 -1.2327 -0.3528  1.0924
22496SOL     OW68928   5.804   7.151   6.570  0.1367  0.1042  0.5346
22496SOL    HW168929   5.710   7.165   6.576 -0.0603 -0.5535 -0.7423
22496SOL    HW268930   5.838   7.232   6.531  0.1650  0.4645  1.2734
22497SOL     OW68931   6.808   5.561   6.696  0.3218  0.0473  0.1381
22497SOL    HW168932   6.727   5.516   6.674  1.1010 -1.3109 -0.0622
22497SOL    HW268933   6.795   5.650   6.665 -0.8152 -0.3320 -0.5388
22498SOL     OW68934   7.385   6.028   7.038  0.2686  0.1070  0.4623
22498SOL    HW168935   7.320   5.962   7.064  0.5180 -0.8545 -1.1786
22498SOL    HW268936   7.357   6.108   7.081 -0.8617 -0.7565  1.3968
22499SOL     OW68937   7.428   6.770   5.013  0.2059 -0.0032  0.1064
22499SOL    HW168938   7.500   6.757   4.952 -0.8320 -1.6847 -0.8256
22499SOL    HW268939   7.349   6.752   4.961 -0.8275  0.5680  1.4160
22500SOL     OW68940   6.754   6.642   4.671 -0.2520  0.9085  0.6178
22500SOL    HW168941   6.753   6.708   4.602  0.9231 -0.8725 -1.2550
22500SOL    HW268942   6.807   6.680   4.741  1.8347  1.3702 -1.1031
22501SOL     OW68943   6.179   6.261   4.568  0.1793  0.3892  0.5272
22501SOL    HW168944   6.176   6.291   4.477  2.7469  0.9088  0.5391
22501SOL    HW268945   6.228   6.329   4.614 -0.0727 -0.4369  2.0754
22502SOL     OW68946   6.582   5.931   4.732 -0.1930  0.4496 -0.3225
22502SOL    HW168947   6.633   5.868   4.782 -0.2910 -0.2399 -1.0810
22502SOL    HW268948   6.634   6.012   4.736  0.6667 -0.0785 -0.5842
22503SOL     OW68949   5.801   5.974   3.290 -0.2007  0.2732 -0.0979
22503SOL    HW168950   5.813   5.972   3.385  2.7946  0.1662 -0.3545
22503SOL    HW268951   5.881   6.016   3.257 -0.1781 -1.5432 -2.6742
22504SOL     OW68952   6.367   5.750   2.893  0.3919 -0.5191  0.0548
22504SOL    HW168953   6.319   5.683   2.846 -1.5735  1.7536 -1.4409
22504SOL    HW268954   6.308   5.776   2.964 -0.2654  1.5418 -1.1425
22505SOL     OW68955   5.885   6.788   5.544 -0.5183  0.6041  0.5123
22505SOL    HW168956   5.951   6.853   5.520  0.0681 -0.4528 -0.8334
22505SOL    HW268957   5.911   6.708   5.498 -2.2218 -0.1034  0.6864
22506SOL     OW68958   6.628   7.637   4.171 -0.0924 -0.3754 -0.2069
22506SOL    HW168959   6.591   7.641   4.260 -0.2878  0.0513 -0.3018
22506SOL    HW268960   6.623   7.728   4.139  0.6985 -0.3795 -0.3642
22507SOL     OW68961   5.985   4.725   3.251 -0.0458 -0.1310 -0.0370
22507SOL    HW168962   5.911   4.680   3.291 -0.7004  1.2663  0.3740
22507SOL    HW268963   5.989   4.691   3.161 -0.1401 -1.4137  0.4263
22508SOL     OW68964   5.688   5.741   2.760  0.3112  0.4289 -0.1402
22508SOL    HW168965   5.617   5.791   2.721 -0.0648  0.2390  0.3028
22508SOL    HW268966   5.713   5.791   2.838 -1.4068 -1.0554  1.4533
22509SOL     OW68967   5.631   7.902   4.482  0.2419  0.3249  0.0148
22509SOL    HW168968   5.615   7.921   4.389  2.6194  2.3848 -0.0790
22509SOL    HW268969   5.545   7.909   4.523 -0.9522 -1.1278 -2.0595
22510SOL     OW68970   0.037   6.893   3.339  0.1515 -0.2544 -0.5387
22510SOL    HW168971   0.049   6.806   3.302 -0.1161 -0.0852 -1.0479
22510SOL    HW268972   0.066   6.953   3.269 -0.1786  0.0693 -0.4041
22511SOL     OW68973   0.129   7.235   4.418 -0.4439  0.0339  0.2868
22511SOL    HW168974   0.139   7.164   4.481 -1.2838  0.3573  0.8088
22511SOL    HW268975   0.206   7.290   4.430 -0.6139  0.1072  1.0555
22512SOL     OW68976   5.106   7.001   4.506  0.3810 -0.2382  0.1206
22512SOL    HW168977   5.093   7.089   4.540 -1.3183 -0.3905 -0.0291
22512SOL    HW268978   5.125   7.014   4.413 -2.6877 -0.0605 -0.5809
22513SOL     OW68979   7.496   6.181   5.251 -0.3297 -0.3855 -0.2427
22513SOL    HW168980   7.542   6.110   5.207 -0.1490 -0.0137 -0.6624
22513SOL    HW268981   7.463   6.236   5.180 -3.3214 -1.7772 -0.1052
22514SOL     OW68982   6.519   4.742   5.701 -0.6999  0.3571 -0.1502
22514SOL    HW168983   6.546   4.818   5.752  0.5669  0.4931 -0.9629
22514SOL    HW268984   6.585   4.735   5.632 -1.4042 -0.8339 -0.7438
22515SOL     OW68985   7.880   6.464   5.801  0.0897  0.3508 -0.4482
22515SOL    HW168986   7.793   6.441   5.769 -1.4024  1.1641  2.5796
22515SOL    HW268987   7.879   6.560   5.804  1.7940  0.4566 -1.9775
22516SOL     OW68988   5.968   5.655   6.269 -0.2239  0.2729 -0.0228
22516SOL    HW168989   5.958   5.563   6.295 -0.0308  0.6534  1.4738
22516SOL    HW268990   5.881   5.680   6.238 -0.2843 -0.4008 -0.4262
22517SOL     OW68991   6.800   7.296   4.897  0.4103  0.2965  0.0888
22517SOL    HW168992   6.841   7.280   4.812 -0.9028  0.1518 -0.5407
22517SOL    HW268993   6.711   7.263   4.887 -0.1448  1.4078  1.1263
22518SOL     OW68994   0.075   5.448   4.471 -0.2424  0.4565  0.9314
22518SOL    HW168995   0.092   5.353   4.473 -1.2786  0.2575  0.5555
22518SOL    HW268996   0.106   5.479   4.556  1.6266  0.0611  0.4455
22519SOL     OW68997   6.404   5.900   3.452 -0.9341  0.2717 -0.0054
22519SOL    HW168998   6.474   5.893   3.387 -0.2393 -0.9772  0.8345
22519SOL    HW268999   6.337   5.838   3.423 -0.8663  0.1109  0.1822
22520SOL     OW69000   5.336   6.649   6.200 -0.6104  0.0373 -0.6042
22520SOL    HW169001   5.310   6.613   6.284  1.5927  1.1632  0.6743
22520SOL    HW269002   5.389   6.580   6.160 -2.4892 -0.8944 -1.6052
22521SOL     OW69003   6.118   4.809   4.361 -0.5309 -0.2481  0.1624
22521SOL    HW169004   6.161   4.895   4.359  2.2871 -1.4662  2.2221
22521SOL    HW269005   6.062   4.813   4.439  1.2123 -0.8804  1.5120
22522SOL     OW69006   7.252   5.129   5.109  0.0965 -0.4401  0.2721
22522SOL    HW169007   7.184   5.190   5.137  1.0516  0.4746  0.6574
22522SOL    HW269008   7.204   5.059   5.063 -1.3783 -1.1687  2.7290
22523SOL     OW69009   0.691   5.757   6.573 -0.2400 -0.1779  0.0449
22523SOL    HW169010   0.727   5.822   6.634 -0.5104  1.5603 -1.5708
22523SOL    HW269011   0.769   5.717   6.534 -0.0347 -1.9187  2.0200
22524SOL     OW69012   6.758   5.859   5.245  0.1810 -0.1012  0.2177
22524SOL    HW169013   6.792   5.947   5.229  0.8946 -0.1387  1.4451
22524SOL    HW269014   6.811   5.825   5.317  1.6944 -2.5407 -1.8736
22525SOL     OW69015   6.604   6.599   3.746 -0.3128 -0.0055  0.0133
22525SOL    HW169016   6.685   6.623   3.791  0.7913 -0.1178 -1.7891
22525SOL    HW269017   6.536   6.606   3.812  1.1738  0.0741  1.6010
22526SOL     OW69018   5.734   4.625   4.278  0.1856  0.1611 -0.1568
22526SOL    HW169019   5.757   4.640   4.369  2.1309  1.0600 -0.7357
22526SOL    HW269020   5.794   4.556   4.249 -1.4376 -1.2137 -0.3990
22527SOL     OW69021   7.227   7.771   5.804  0.1811  0.5691  0.3526
22527SOL    HW169022   7.208   7.824   5.726  0.2130  0.4065  0.2344
22527SOL    HW269023   7.145   7.772   5.854  0.3833  1.3012  0.6902
22528SOL     OW69024   2.814   6.344   6.802  0.0691  0.4802  0.1340
22528SOL    HW169025   2.753   6.291   6.751 -0.4090  1.1676 -0.0215
22528SOL    HW269026   2.795   6.434   6.777  0.8103  0.7408  0.4609
22529SOL     OW69027   7.287   7.522   5.663  0.4635 -0.1728  0.4851
22529SOL    HW169028   7.217   7.557   5.718 -0.2375 -1.7393  0.6442
22529SOL    HW269029   7.368   7.546   5.709  0.0437  1.4197  0.4358
22530SOL     OW69030   7.423   6.408   4.798 -0.1205  0.2523 -0.0253
22530SOL    HW169031   7.465   6.485   4.837 -0.2921 -0.2211  1.1192
22530SOL    HW269032   7.479   6.386   4.723  0.9136  0.4583  0.6619
22531SOL     OW69033   7.230   7.190   3.161 -0.4086  0.1132 -0.4366
22531SOL    HW169034   7.171   7.145   3.101 -1.1743  0.9727 -0.3454
22531SOL    HW269035   7.276   7.253   3.105  0.7003 -0.7900 -0.5763
22532SOL     OW69036   5.855   7.196   4.227  0.6738  0.5440 -0.8860
22532SOL    HW169037   5.818   7.240   4.151 -3.1086 -0.1383  0.3499
22532SOL    HW269038   5.842   7.102   4.210 -2.0482  0.4027  1.2077
22533SOL     OW69039   5.863   5.178   3.787 -0.1809  0.3721  0.5850
22533SOL    HW169040   5.837   5.111   3.850 -1.5901  0.2056 -0.1188
22533SOL    HW269041   5.787   5.237   3.782 -0.1980  0.2811 -1.0441
22534SOL     OW69042   6.034   5.387   4.078  0.0694  0.2021  0.1024
22534SOL    HW169043   6.062   5.297   4.062  0.9805  0.7388 -1.5814
22534SOL    HW269044   6.068   5.408   4.165  0.2083 -0.9298  0.3305
22535SOL     OW69045   0.455   4.624   6.949  0.3193  0.3994 -0.5222
22535SOL    HW169046   0.405   4.631   6.868 -0.7555 -2.0213 -0.1625
22535SOL    HW269047   0.399   4.666   7.015 -0.2925 -0.4464 -0.4937
22536SOL     OW69048   6.018   4.522   5.146  0.2528 -0.3351  0.3973
22536SOL    HW169049   6.069   4.474   5.211 -0.1391  2.2112  2.7448
22536SOL    HW269050   5.934   4.538   5.188 -0.3327  0.6869 -1.0739
22537SOL     OW69051   5.070   6.799   2.462  0.2033  0.1604 -0.1701
22537SOL    HW169052   5.064   6.867   2.395 -1.1898 -0.0971 -0.3349
22537SOL    HW269053   5.059   6.846   2.545  0.8918  0.3390 -0.1711
22538SOL     OW69054   5.452   7.650   5.227  0.1671  0.1064  0.2301
22538SOL    HW169055   5.525   7.709   5.212 -1.0840  1.5887 -0.2877
22538SOL    HW269056   5.441   7.603   5.144  0.9733 -0.6880  0.5497
22539SOL     OW69057   1.145   7.970   3.745  0.1653  0.5331 -0.0443
22539SOL    HW169058   1.071   7.957   3.687 -0.6552 -1.8691  1.4006
22539SOL    HW269059   1.128   8.054   3.788 -0.7340  0.8764 -1.0240
22540SOL     OW69060   4.267   6.686   4.611 -0.5270  0.2514 -0.0499
22540SOL    HW169061   4.303   6.750   4.672  1.2162 -0.9718  0.2886
22540SOL    HW269062   4.206   6.634   4.664  0.2606 -0.1984  0.4341
22541SOL     OW69063   4.711   6.207   5.209  0.4124 -0.5724 -0.3611
22541SOL    HW169064   4.694   6.121   5.169  1.4880 -0.7447 -0.4985
22541SOL    HW269065   4.807   6.215   5.208  0.3458  0.4603  0.0183
22542SOL     OW69066   5.579   5.565   5.254 -0.0454 -0.1766 -0.1462
22542SOL    HW169067   5.605   5.613   5.175 -2.0200  3.6083  1.2331
22542SOL    HW269068   5.659   5.562   5.307  0.2784  1.3056 -0.4940
22543SOL     OW69069   0.990   5.357   7.250  0.1821 -0.0482  0.2868
22543SOL    HW169070   1.059   5.421   7.267  1.3038 -1.8188  3.5094
22543SOL    HW269071   1.026   5.301   7.181 -0.9061  2.6619 -2.7289
22544SOL     OW69072   5.386   7.010   3.788 -0.1209 -0.0939 -0.0146
22544SOL    HW169073   5.302   6.968   3.765  0.5021 -0.8255 -1.0212
22544SOL    HW269074   5.450   6.967   3.732  0.6560  1.8139 -0.6555
22545SOL     OW69075   6.669   6.276   4.273 -0.2308 -0.1468 -0.1343
22545SOL    HW169076   6.687   6.330   4.350  0.0721 -0.8488  0.3023
22545SOL    HW269077   6.574   6.264   4.275 -0.2253 -0.1609  0.1412
22546SOL     OW69078   5.911   5.040   3.538 -0.1564  0.2803 -0.6824
22546SOL    HW169079   5.912   5.112   3.602  0.4191 -0.1839 -0.1485
22546SOL    HW269080   5.839   4.984   3.567  0.0558  0.1098 -0.4776
22547SOL     OW69081   5.624   5.483   4.582  0.0875 -0.4202  0.2902
22547SOL    HW169082   5.659   5.394   4.570 -1.2575 -0.9018 -0.2042
22547SOL    HW269083   5.640   5.526   4.498  2.8009  0.6036  1.2219
22548SOL     OW69084   6.087   7.657   3.984  0.0202 -0.0247  0.5960
22548SOL    HW169085   6.115   7.589   3.923 -1.5692 -0.6243  0.4585
22548SOL    HW269086   6.149   7.652   4.056  1.7575  0.5000 -0.7954
22549SOL     OW69087   5.411   5.050   5.076 -0.1496  0.3093  0.2625
22549SOL    HW169088   5.371   5.134   5.097 -0.6113  0.0546  0.4184
22549SOL    HW269089   5.402   4.999   5.156  1.9306  0.7823  0.8505
22550SOL     OW69090   4.197   5.998   5.463  0.2915  0.2002 -0.6192
22550SOL    HW169091   4.260   5.935   5.426 -0.3045 -1.4778  1.0448
22550SOL    HW269092   4.204   5.986   5.557 -0.9580  1.5836 -0.3105
22551SOL     OW69093   7.320   6.276   5.490  0.3253  0.5966 -0.3561
22551SOL    HW169094   7.371   6.226   5.425 -0.0618 -2.2468  1.3475
22551SOL    HW269095   7.229   6.253   5.472  0.0979  1.0650  0.1857
22552SOL     OW69096   7.364   7.624   3.311  0.5830  0.5416  0.0298
22552SOL    HW169097   7.291   7.571   3.344  0.7860  0.3730  0.2067
22552SOL    HW269098   7.371   7.600   3.219  1.1978 -0.3493  0.2982
22553SOL     OW69099   6.386   6.229   4.884  0.2354 -0.0744  0.2062
22553SOL    HW169100   6.373   6.222   4.790 -1.0574 -1.6627  0.4547
22553SOL    HW269101   6.481   6.235   4.895  0.3847  0.6716 -1.1931
22554SOL     OW69102   6.725   6.717   6.826 -0.5165  0.1673  0.4068
22554SOL    HW169103   6.637   6.723   6.863 -0.6504 -2.4457  0.6948
22554SOL    HW269104   6.771   6.656   6.884  0.1432 -1.8751 -2.0759
22555SOL     OW69105   5.538   5.549   4.818 -0.4739 -0.2046  0.4162
22555SOL    HW169106   5.584   5.533   4.736 -1.2643 -1.2512  0.1559
22555SOL    HW269107   5.569   5.481   4.877 -0.3820  0.1597  0.7993
22556SOL     OW69108   5.158   6.695   4.101  0.2181  0.5152  0.2979
22556SOL    HW169109   5.072   6.729   4.124 -0.0658 -0.6633  1.0717
22556SOL    HW269110   5.159   6.695   4.005 -0.5077  0.8820  0.2883
22557SOL     OW69111   7.010   5.245   5.104 -0.1990 -0.2221 -0.4861
22557SOL    HW169112   7.004   5.312   5.036 -2.6388  0.4562  0.3152
22557SOL    HW269113   6.938   5.185   5.085  0.4681 -1.2862  0.2334
22558SOL     OW69114   5.901   5.595   5.062 -0.1892 -0.1737  0.6651
22558SOL    HW169115   5.919   5.685   5.034 -0.4547 -0.1776  0.4785
22558SOL    HW269116   5.915   5.597   5.157 -0.8971  0.2433  0.7714
22559SOL     OW69117   7.584   0.721   5.693  0.0228 -0.6548 -0.1337
22559SOL    HW169118   7.562   0.797   5.748 -1.2163 -0.0894 -1.3370
22559SOL    HW269119   7.553   0.646   5.743  0.1465 -0.2627  0.5443
22560SOL     OW69120   7.119   5.312   4.721 -0.3857 -0.4543  0.0974
22560SOL    HW169121   7.077   5.346   4.800  0.8582 -1.2891  1.1697
22560SOL    HW269122   7.059   5.244   4.689 -0.6821 -0.4368  0.6083
22561SOL     OW69123   4.317   7.035   4.408  0.3734  0.1042 -0.3718
22561SOL    HW169124   4.356   7.015   4.323  1.4349 -1.8049  0.5028
22561SOL    HW269125   4.248   6.970   4.419 -0.6093  1.1307 -0.2831
22562SOL     OW69126   6.335   6.548   4.448  0.8978 -0.4549  0.0844
22562SOL    HW169127   6.365   6.638   4.458  0.7719 -0.3479 -0.4660
22562SOL    HW269128   6.309   6.521   4.536 -0.0154  0.3873  0.0768
22563SOL     OW69129   6.614   5.115   6.427 -0.1773  0.2575 -0.1988
22563SOL    HW169130   6.690   5.067   6.459  1.0787  1.6216 -0.9716
22563SOL    HW269131   6.546   5.049   6.416  1.0326 -1.0782  0.0965
22564SOL     OW69132   7.746   6.573   4.610  0.1858 -0.2669  0.9579
22564SOL    HW169133   7.822   6.537   4.655  0.8224  1.1908  1.1018
22564SOL    HW269134   7.760   6.551   4.518  0.4081 -0.6224  1.0764
22565SOL     OW69135   5.393   6.320   5.748 -0.2310  0.2996 -0.2311
22565SOL    HW169136   5.362   6.260   5.681  0.4842 -0.2135 -0.1139
22565SOL    HW269137   5.382   6.272   5.830  2.3498 -0.5828 -0.3081
22566SOL     OW69138   4.971   0.013   3.345  0.2024 -0.4132  0.2038
22566SOL    HW169139   5.004   0.084   3.399 -0.3637 -0.1017  0.1577
22566SOL    HW269140   5.031   0.008   3.271 -0.5936  1.0561 -0.5864
22567SOL     OW69141   4.648   7.321   5.343 -0.0156  0.1660 -0.2377
22567SOL    HW169142   4.627   7.251   5.404  1.3654  0.6733  0.8790
22567SOL    HW269143   4.611   7.293   5.260 -1.6253 -0.7176  0.7331
22568SOL     OW69144   7.598   5.855   4.359 -0.4407 -0.4950 -0.3842
22568SOL    HW169145   7.530   5.798   4.395  0.8084 -1.4111  0.6553
22568SOL    HW269146   7.665   5.795   4.326 -0.3733  0.3758 -1.9146
22569SOL     OW69147   7.745   1.155   2.993 -0.2660 -0.6164  0.3992
22569SOL    HW169148   7.832   1.194   2.984  0.0516 -1.1954  0.8784
22569SOL    HW269149   7.716   1.138   2.903  1.2355 -2.8317  0.2583
22570SOL     OW69150   6.003   7.290   3.875 -0.2252  0.0038  0.7630
22570SOL    HW169151   6.074   7.342   3.839  0.4927  0.0523  2.1590
22570SOL    HW269152   5.974   7.233   3.803  1.3935 -0.1956  0.2460
22571SOL     OW69153   7.551   0.307   5.637  0.4260  0.1204  0.3268
22571SOL    HW169154   7.621   0.353   5.589 -1.6005  0.9139 -2.0571
22571SOL    HW269155   7.539   0.359   5.717  0.6549  1.6495 -0.6006
22572SOL     OW69156   6.348   5.898   4.345 -0.4800 -0.3058 -0.1162
22572SOL    HW169157   6.263   5.874   4.382 -0.5913 -1.0950 -0.8309
22572SOL    HW269158   6.409   5.834   4.382 -0.7478 -1.6965 -1.9105
22573SOL     OW69159   5.361   4.320   2.352 -0.3000  0.4311 -0.2290
22573SOL    HW169160   5.270   4.319   2.383  0.0894 -0.0747  0.9536
22573SOL    HW269161   5.409   4.368   2.421  0.8314 -1.9021  0.7287
22574SOL     OW69162   6.319   0.465   5.379 -0.0104 -0.1303  0.4693
22574SOL    HW169163   6.287   0.409   5.450  1.9191 -1.3765  0.4306
22574SOL    HW269164   6.260   0.540   5.379 -1.7116 -1.4034  1.5851
22575SOL     OW69165   7.938   4.868   7.388 -0.1606 -1.0572  0.0261
22575SOL    HW169166   7.932   4.796   7.325 -0.6801 -1.5112  0.5869
22575SOL    HW269167   8.030   4.892   7.388 -0.1642 -0.9773 -0.9865
22576SOL     OW69168   5.331   6.787   4.297 -0.2058  0.3141  0.3423
22576SOL    HW169169   5.383   6.854   4.253  1.2924 -0.9429  0.0828
22576SOL    HW269170   5.272   6.754   4.230  0.9677 -0.4905 -0.3389
22577SOL     OW69171   5.847   5.520   6.924 -0.1062  0.2179 -0.8943
22577SOL    HW169172   5.761   5.500   6.888  0.0280  2.3375 -2.6292
22577SOL    HW269173   5.908   5.467   6.872 -0.2608 -0.4258 -0.4299
22578SOL     OW69174   7.921   4.412   7.013  0.3018  0.2142  0.0536
22578SOL    HW169175   7.912   4.335   7.069  1.0061 -0.0039 -0.1179
22578SOL    HW269176   7.926   4.485   7.074 -1.1449  0.2178  0.1902
22579SOL     OW69177   6.168   7.483   3.745 -0.2034  0.7070 -0.1422
22579SOL    HW169178   6.221   7.528   3.811  0.8078 -0.2082 -0.2953
22579SOL    HW269179   6.232   7.433   3.694 -1.0968  0.5145 -1.0993
22580SOL     OW69180   6.892   4.680   4.264  0.2038  0.6570 -0.0635
22580SOL    HW169181   6.966   4.739   4.282  0.4252  0.6066 -0.8024
22580SOL    HW269182   6.931   4.592   4.266 -0.0979  0.5319  0.8869
22581SOL     OW69183   4.844   6.921   3.102  0.0770 -0.0485  0.1758
22581SOL    HW169184   4.907   6.992   3.111  0.8773 -0.9187  2.0493
22581SOL    HW269185   4.759   6.964   3.106  0.5457  0.9010  0.1229
22582SOL     OW69186   5.955   6.345   5.967 -0.4441  0.3075 -0.4003
22582SOL    HW169187   5.938   6.439   5.973  0.7860  0.6330 -1.5540
22582SOL    HW269188   6.049   6.339   5.949 -0.3516 -1.1800  0.4434
22583SOL     OW69189   6.131   5.418   5.731 -0.1413 -0.3928  0.0580
22583SOL    HW169190   6.168   5.429   5.818 -0.9424 -0.5845  0.4379
22583SOL    HW269191   6.036   5.410   5.746 -0.4803  1.2383 -0.9612
22584SOL     OW69192   6.728   7.100   4.123 -0.3337  0.1148 -0.5064
22584SOL    HW169193   6.714   7.106   4.218  0.6896 -0.5859 -0.2964
22584SOL    HW269194   6.655   7.149   4.085 -0.9504  0.1117  0.6324
22585SOL     OW69195   6.417   4.743   4.674  0.3787  0.1381  0.3603
22585SOL    HW169196   6.466   4.664   4.649 -0.2052 -0.5663  1.3912
22585SOL    HW269197   6.341   4.710   4.721 -1.1647  1.2127 -1.2769
22586SOL     OW69198   7.341   5.927   4.067 -0.3319 -0.5606  0.6734
22586SOL    HW169199   7.298   5.841   4.072 -1.6477  0.1129  1.2884
22586SOL    HW269200   7.326   5.956   3.977  1.2661 -1.5141  0.0479
22587SOL     OW69201   5.767   1.060   5.832  0.4251 -0.3732 -0.4583
22587SOL    HW169202   5.720   0.988   5.875  1.4111 -0.4632  0.5233
22587SOL    HW269203   5.859   1.032   5.833  0.7342  0.5875 -0.7082
22588SOL     OW69204   7.382   6.681   6.580  0.3729  0.1339 -0.1095
22588SOL    HW169205   7.453   6.679   6.644  0.3288 -0.0096 -0.0636
22588SOL    HW269206   7.421   6.647   6.500  1.0928  2.5236 -0.8549
22589SOL     OW69207   6.109   6.447   4.295  0.2138 -0.0395  0.1927
22589SOL    HW169208   6.204   6.452   4.303  0.3535  1.3370 -1.7223
22589SOL    HW269209   6.078   6.537   4.304 -0.7554 -0.2632 -0.6078
22590SOL     OW69210   4.852   4.617   4.186  0.0921  0.3669  0.5017
22590SOL    HW169211   4.777   4.663   4.224 -2.0395 -2.2590 -0.2113
22590SOL    HW269212   4.846   4.529   4.221  0.5093 -1.0037 -2.5202
22591SOL     OW69213   6.030   5.086   4.940 -0.7655 -0.3482  0.1465
22591SOL    HW169214   6.031   5.093   5.035  0.2768  0.2087  0.1110
22591SOL    HW269215   6.093   5.017   4.920 -0.6620 -0.1719 -0.1506
22592SOL     OW69216   7.185   7.236   5.778  0.2798  0.1304  0.0527
22592SOL    HW169217   7.108   7.293   5.784 -0.0819 -0.3522  0.0397
22592SOL    HW269218   7.240   7.276   5.711 -0.1089  0.2993 -0.1655
22593SOL     OW69219   5.705   6.875   3.985 -0.1444 -0.2603 -0.0469
22593SOL    HW169220   5.740   6.789   3.960 -0.0775  0.0349 -0.9995
22593SOL    HW269221   5.744   6.936   3.922 -2.4699  0.0611 -1.2837
22594SOL     OW69222   5.209   7.753   5.291 -0.1494 -0.0295 -0.3812
22594SOL    HW169223   5.194   7.666   5.327 -1.5421 -1.7979 -4.6081
22594SOL    HW269224   5.301   7.754   5.267 -0.8240 -1.8961 -3.5082
22595SOL     OW69225   5.773   5.145   4.243  0.1177  0.8222  0.6572
22595SOL    HW169226   5.747   5.229   4.206  0.8174  0.3373 -1.0621
22595SOL    HW269227   5.867   5.154   4.259  0.4647 -0.0266 -0.7610
22596SOL     OW69228   0.584   6.219   4.876  0.5444  0.2006  0.6108
22596SOL    HW169229   0.629   6.173   4.805  1.4163  1.5988  0.2149
22596SOL    HW269230   0.648   6.221   4.947  0.6755  1.1572  0.4709
22597SOL     OW69231   4.799   0.219   5.445 -0.2972  0.0670 -0.2433
22597SOL    HW169232   4.889   0.248   5.458 -0.1013 -1.4944  2.8494
22597SOL    HW269233   4.788   0.217   5.350  2.4158  1.7141 -0.6953
22598SOL     OW69234   6.318   7.579   5.217 -0.0947 -0.1564  0.2198
22598SOL    HW169235   6.325   7.658   5.164  0.7928 -0.7499 -0.5695
22598SOL    HW269236   6.248   7.599   5.280  0.0087  1.1870 -0.0585
22599SOL     OW69237   5.491   6.679   4.009  0.2403  0.4916 -0.0258
22599SOL    HW169238   5.551   6.689   4.083  0.5685  1.8312 -0.4513
22599SOL    HW269239   5.538   6.718   3.935  0.1818 -1.3688 -1.1166
22600SOL     OW69240   6.667   7.551   4.937  0.0803  0.2458 -0.1500
22600SOL    HW169241   6.731   7.480   4.932 -0.6901 -0.4048 -1.4029
22600SOL    HW269242   6.679   7.601   4.856 -0.8555  0.2165 -0.3249
22601SOL     OW69243   0.314   6.645   6.291  0.3242  0.0162 -0.0976
22601SOL    HW169244   0.373   6.717   6.268 -0.9649  0.9587 -0.5057
22601SOL    HW269245   0.357   6.567   6.255  0.9665  0.7721 -1.0148
22602SOL     OW69246   5.179   4.251   3.639 -0.1492  0.3633 -0.0216
22602SOL    HW169247   5.148   4.166   3.608 -1.1739  0.2499  1.2090
22602SOL    HW269248   5.132   4.264   3.722  1.2048  1.4016  0.6095
22603SOL     OW69249   7.414   7.381   3.995 -0.6402 -0.4308  0.3034
22603SOL    HW169250   7.328   7.419   4.009 -1.0765 -1.1295 -0.3803
22603SOL    HW269251   7.423   7.376   3.900 -0.2437 -1.2234  0.3739
22604SOL     OW69252   4.088   7.081   3.892 -0.1216  0.0302  0.4379
22604SOL    HW169253   4.137   7.047   3.966  0.2287 -1.5021 -0.4504
22604SOL    HW269254   3.996   7.075   3.918 -0.1053 -2.0252  0.1979
22605SOL     OW69255   6.882   7.188   5.524  0.5840  0.5006  0.2446
22605SOL    HW169256   6.924   7.264   5.484  0.9404  0.5636  0.7271
22605SOL    HW269257   6.790   7.195   5.498  0.1836  2.2041  1.8861
22606SOL     OW69258   0.757   5.331   7.386  0.3539 -0.4155 -0.1126
22606SOL    HW169259   0.735   5.249   7.340 -1.0041  1.8208 -3.8819
22606SOL    HW269260   0.846   5.351   7.357 -0.0690  0.4050 -0.8997
22607SOL     OW69261   6.781   5.350   3.324 -0.4343  0.4300 -0.1782
22607SOL    HW169262   6.757   5.325   3.413  0.6492 -0.5104 -0.1242
22607SOL    HW269263   6.699   5.341   3.274 -0.5703 -1.3327  0.2725
22608SOL     OW69264   6.745   7.644   3.472 -0.4699  0.0754  0.2345
22608SOL    HW169265   6.728   7.734   3.444 -0.9160  0.2363  1.0006
22608SOL    HW269266   6.661   7.599   3.464 -0.2925 -0.2284  0.0324
22609SOL     OW69267   6.575   0.216   4.157  0.5628  0.6378  1.2596
22609SOL    HW169268   6.564   0.311   4.152  0.8929  0.6989  1.6640
22609SOL    HW269269   6.486   0.182   4.169  0.2276  0.7628 -0.6023
22610SOL     OW69270   5.180   7.153   2.569  0.1793 -0.9811  0.6817
22610SOL    HW169271   5.228   7.106   2.637  2.1109  1.0770  0.8871
22610SOL    HW269272   5.088   7.128   2.582  0.7336 -2.1876  2.7501
22611SOL     OW69273   7.729   5.624   4.944  0.4115 -0.1260 -0.3940
22611SOL    HW169274   7.768   5.626   5.031 -0.2198  0.9679 -0.1189
22611SOL    HW269275   7.681   5.540   4.942  0.9604 -0.4569  0.0601
22612SOL     OW69276   5.516   5.843   4.654 -0.1600 -0.2533 -0.0192
22612SOL    HW169277   5.490   5.915   4.710 -0.9307  0.3410 -1.1031
22612SOL    HW269278   5.437   5.821   4.604  0.7090 -0.1645 -1.5069
22613SOL     OW69279   6.167   6.825   4.701 -0.3698  0.1263 -0.2524
22613SOL    HW169280   6.146   6.751   4.759  1.5753  0.0216  0.4052
22613SOL    HW269281   6.120   6.899   4.739 -1.1425 -0.4645 -0.0345
22614SOL     OW69282   5.978   7.696   4.736  0.2045  0.1218  0.3289
22614SOL    HW169283   6.048   7.737   4.787 -0.2818 -1.2016  2.1754
22614SOL    HW269284   5.930   7.644   4.800 -0.0956 -2.1295 -1.5939
22615SOL     OW69285   5.926   7.217   5.191 -0.2541  0.0645 -0.5879
22615SOL    HW169286   5.993   7.247   5.130  0.6250 -1.6883 -0.5303
22615SOL    HW269287   5.874   7.155   5.140 -0.6716 -0.0072 -0.0829
22616SOL     OW69288   5.021   5.192   6.545  0.2015 -0.2052 -0.4955
22616SOL    HW169289   5.062   5.194   6.458 -1.3166 -1.0096 -1.2962
22616SOL    HW269290   4.936   5.150   6.529 -0.9407  1.3766  1.0392
22617SOL     OW69291   4.674   5.207   6.652  0.0597  0.1243  0.2769
22617SOL    HW169292   4.588   5.165   6.656 -0.1383  0.5863  0.9501
22617SOL    HW269293   4.674   5.255   6.570 -1.3896  2.3614  1.4884
22618SOL     OW69294   6.608   5.961   8.235 -0.4478  0.4414  0.5440
22618SOL    HW169295   6.699   5.936   8.252  0.2560  1.9523 -0.6676
22618SOL    HW269296   6.556   5.907   8.295  1.0036 -2.5342 -0.6697
22619SOL     OW69297   6.168   6.400   6.933  0.0564 -0.3443  0.7413
22619SOL    HW169298   6.171   6.327   6.994  1.7738 -0.2296  0.8391
22619SOL    HW269299   6.105   6.462   6.971 -0.6099 -1.2877  1.1944
22620SOL     OW69300   6.207   5.267   6.229 -0.1409  0.4655  0.3733
22620SOL    HW169301   6.174   5.195   6.175 -2.3851  2.5179 -1.1964
22620SOL    HW269302   6.156   5.262   6.310  0.0035  0.0609  0.4415
22621SOL     OW69303   0.999   4.835   6.840  0.0612 -0.2220 -0.3080
22621SOL    HW169304   1.072   4.878   6.886  0.3002 -1.7878  0.8324
22621SOL    HW269305   0.967   4.903   6.780  1.6370  0.9236  0.0513
22622SOL     OW69306   7.005   6.806   7.131  0.2839 -0.3508 -0.5487
22622SOL    HW169307   6.960   6.854   7.200  0.7271 -1.2165  0.3753
22622SOL    HW269308   6.963   6.834   7.050 -0.2902  0.6369  0.0776
22623SOL     OW69309   6.566   7.538   7.890  0.1452  0.0583 -0.7382
22623SOL    HW169310   6.625   7.470   7.924  0.2678  0.0953 -0.8764
22623SOL    HW269311   6.510   7.560   7.964 -0.7611 -1.1218 -1.0417
22624SOL     OW69312   6.457   5.570   5.424 -0.3234 -0.0973  0.2076
22624SOL    HW169313   6.387   5.518   5.463 -1.1745 -0.3045 -1.4904
22624SOL    HW269314   6.488   5.517   5.350 -0.6026  1.3696 -1.0290
22625SOL     OW69315   5.817   5.863   8.035  0.2039  0.6977  0.1071
22625SOL    HW169316   5.791   5.887   7.946 -0.2391  1.8623  0.5237
22625SOL    HW269317   5.749   5.902   8.090 -1.0577 -2.2531  0.8573
22626SOL     OW69318   6.894   6.979   7.634  0.7117 -0.3190  0.4194
22626SOL    HW169319   6.881   7.031   7.714 -0.1382 -0.8796  0.6629
22626SOL    HW269320   6.805   6.964   7.601  1.0982  0.5419 -1.0615
22627SOL     OW69321   7.353   6.234   7.531  0.7215  0.3663 -0.2417
22627SOL    HW169322   7.358   6.180   7.610  0.5838 -0.0673 -0.5281
22627SOL    HW269323   7.384   6.320   7.559  1.3925  0.0163  0.1093
22628SOL     OW69324   3.671   7.718   6.731 -0.1493  0.1595  0.1842
22628SOL    HW169325   3.594   7.689   6.780  1.1487 -0.4696  1.9601
22628SOL    HW269326   3.698   7.799   6.776  0.2082  0.3829 -0.4276
22629SOL     OW69327   5.856   5.029   6.398  0.1231  0.3056  0.3873
22629SOL    HW169328   5.877   4.955   6.456  0.0308  0.6021  0.8021
22629SOL    HW269329   5.799   4.991   6.331 -0.6727  0.1840  1.1208
22630SOL     OW69330   7.336   0.388   5.411 -0.2371 -0.3116  0.3844
22630SOL    HW169331   7.359   0.311   5.463 -0.1108 -0.2508  0.4195
22630SOL    HW269332   7.253   0.417   5.448 -0.1253 -0.2423  0.5839
22631SOL     OW69333   7.890   6.481   6.383  0.5468  0.5950 -0.0115
22631SOL    HW169334   7.985   6.470   6.390  0.3382 -0.3938  1.5541
22631SOL    HW269335   7.853   6.421   6.447 -1.1135  1.8726  0.3086
22632SOL     OW69336   6.629   7.116   7.281  0.3379 -0.2862  0.4423
22632SOL    HW169337   6.544   7.155   7.259  0.6030 -0.3605 -0.8285
22632SOL    HW269338   6.674   7.184   7.331 -1.0991 -0.8989  2.7230
22633SOL     OW69339   7.305   6.009   6.777  0.0212 -0.4874  0.3827
22633SOL    HW169340   7.353   6.022   6.859  1.8935  2.0201 -0.9807
22633SOL    HW269341   7.214   5.999   6.804  0.3575  1.8007  2.7264
22634SOL     OW69342   6.874   7.698   6.864 -0.4412  0.2790  0.3787
22634SOL    HW169343   6.852   7.785   6.830  2.6788  1.2006  0.4412
22634SOL    HW269344   6.851   7.638   6.792  1.5463  1.6846 -1.5529
22635SOL     OW69345   5.901   5.862   4.000  0.6135 -0.4031  0.5038
22635SOL    HW169346   5.811   5.832   3.990  1.4034 -3.7142  1.9967
22635SOL    HW269347   5.915   5.867   4.095  1.8519  0.7185  0.3105
22636SOL     OW69348   0.863   5.584   8.571 -0.3957  0.5156 -0.7174
22636SOL    HW169349   0.885   5.572   8.663 -1.7789 -0.2187 -0.4627
22636SOL    HW269350   0.788   5.643   8.571 -2.2391 -1.6960 -1.1509
22637SOL     OW69351   6.424   5.662   7.613 -0.2164 -0.0714  0.6589
22637SOL    HW169352   6.348   5.720   7.600  0.3105  0.5640  0.3416
22637SOL    HW269353   6.469   5.699   7.689  1.4757  1.4753 -0.9736
22638SOL     OW69354   0.004   0.503   5.465  0.3317 -0.4843  0.6142
22638SOL    HW169355   0.099   0.511   5.472  0.3751 -1.2528  1.1131
22638SOL    HW269356  -0.009   0.411   5.439 -0.2063  0.0913 -1.3025
22639SOL     OW69357   4.330   7.531   5.808 -0.1408 -0.4813 -0.5055
22639SOL    HW169358   4.402   7.594   5.820 -0.6303  0.0815 -0.4489
22639SOL    HW269359   4.339   7.502   5.718  0.7169 -1.1291 -0.2255
22640SOL     OW69360   6.907   6.140   6.126  0.0591 -0.8466 -0.5307
22640SOL    HW169361   6.926   6.234   6.124  0.1693 -0.8512  0.1113
22640SOL    HW269362   6.968   6.102   6.064  0.5429 -0.5796 -0.2270
22641SOL     OW69363   6.543   5.720   5.103  0.1449 -0.5031 -0.4111
22641SOL    HW169364   6.625   5.740   5.148 -0.3764  1.5692 -0.2457
22641SOL    HW269365   6.567   5.658   5.034  1.4430 -1.6104  0.9663
22642SOL     OW69366   6.414   6.983   6.440 -0.4359 -0.0220  0.1681
22642SOL    HW169367   6.345   6.973   6.506 -1.1854 -2.0083 -0.8221
22642SOL    HW269368   6.412   6.901   6.391  0.8060  0.9567 -1.6475
22643SOL     OW69369   5.735   5.496   7.174  0.1667  0.0098  0.7115
22643SOL    HW169370   5.646   5.463   7.162 -0.5239  1.2401  2.0435
22643SOL    HW269371   5.766   5.517   7.086 -1.6176  1.3965  0.3629
22644SOL     OW69372   7.486   6.585   8.746  0.2963 -0.2668 -0.0832
22644SOL    HW169373   7.542   6.632   8.685 -0.2307  2.0880  1.1102
22644SOL    HW269374   7.445   6.654   8.799 -0.5130 -2.0947  1.8332
22645SOL     OW69375   6.478   5.170   7.249  0.1119  0.1678  0.1930
22645SOL    HW169376   6.554   5.204   7.296 -0.8970 -0.4374  2.3848
22645SOL    HW269377   6.429   5.121   7.315  0.0539 -3.2392 -2.1113
22646SOL     OW69378   5.835   5.897   7.561  0.4292 -0.0702 -0.3470
22646SOL    HW169379   5.750   5.890   7.605  0.8314  0.5866  0.5855
22646SOL    HW269380   5.836   5.986   7.525  1.2032  0.3777  0.7330
22647SOL     OW69381   7.487   5.299   4.545  0.1365  0.4610  0.1512
22647SOL    HW169382   7.440   5.381   4.558 -0.8624  0.6476 -3.4951
22647SOL    HW269383   7.571   5.324   4.508 -0.0957 -0.0835 -0.7964
22648SOL     OW69384   7.348   7.558   7.044  0.6105 -0.2194  0.5166
22648SOL    HW169385   7.297   7.600   6.974  0.0174  0.7266  1.4799
22648SOL    HW269386   7.321   7.467   7.042 -1.3153  0.2865  1.1027
22649SOL     OW69387   6.103   4.837   7.883  0.0301 -0.1723  0.2017
22649SOL    HW169388   6.084   4.787   7.803  1.2853 -0.7418  0.2302
22649SOL    HW269389   6.136   4.921   7.852  2.1563 -0.9895  0.0109
22650SOL     OW69390   7.333   7.538   8.564  0.0504 -0.5133  0.3597
22650SOL    HW169391   7.280   7.516   8.641  1.4569  1.0509  1.8465
22650SOL    HW269392   7.402   7.472   8.563  0.2028 -0.3573  0.6111
22651SOL     OW69393   7.746   6.713   6.370  0.0435  0.2970  0.2911
22651SOL    HW169394   7.816   6.777   6.372 -0.1678  0.6356 -1.7179
22651SOL    HW269395   7.791   6.628   6.371  0.4951  0.5107 -0.9756
22652SOL     OW69396   5.639   4.773   3.884  0.0270  0.4113  0.4649
22652SOL    HW169397   5.607   4.754   3.972  0.5913 -0.9213  0.4106
22652SOL    HW269398   5.698   4.848   3.894  2.3538 -1.4541  1.7371
22653SOL     OW69399   1.199   5.670   7.891 -0.5290  0.3021 -0.2497
22653SOL    HW169400   1.176   5.700   7.802 -1.0393  0.0339 -0.2118
22653SOL    HW269401   1.284   5.629   7.881 -1.5098 -1.6553 -1.0401
22654SOL     OW69402   0.110   6.164   5.709 -0.7015  0.5719 -0.6566
22654SOL    HW169403   0.144   6.087   5.663 -0.5356 -0.0993  0.5671
22654SOL    HW269404   0.049   6.129   5.774  2.1047  1.0548  2.5010
22655SOL     OW69405   7.071   6.284   6.304 -0.5730 -0.9165  0.1617
22655SOL    HW169406   7.073   6.193   6.276  0.2493 -0.6610 -0.6840
22655SOL    HW269407   7.144   6.325   6.257 -2.5421  0.7869 -1.6173
22656SOL     OW69408   6.405   6.177   6.031  0.0334  0.1302  0.2740
22656SOL    HW169409   6.363   6.202   6.114 -1.7103  0.6239 -0.7006
22656SOL    HW269410   6.352   6.220   5.964 -1.2068 -3.5728 -1.3686
22657SOL     OW69411   7.799   6.204   4.891  0.0343  0.3932  0.2057
22657SOL    HW169412   7.884   6.187   4.930  0.2505 -3.1427 -1.4013
22657SOL    HW269413   7.736   6.183   4.960  0.4611 -0.8963  0.2292
22658SOL     OW69414   6.897   6.175   7.185  0.3114  0.7440  0.2663
22658SOL    HW169415   6.915   6.085   7.210 -3.2570  0.1069  1.1530
22658SOL    HW269416   6.883   6.220   7.269 -1.2976  1.2222 -0.2208
22659SOL     OW69417   6.788   5.990   7.731  0.3146 -0.2717  0.3549
22659SOL    HW169418   6.850   6.009   7.660 -0.6885  1.4757 -0.1239
22659SOL    HW269419   6.703   5.986   7.688 -0.6125  2.9203  1.5988
22660SOL     OW69420   5.710   5.729   6.133  0.0595 -0.6420 -0.1772
22660SOL    HW169421   5.721   5.653   6.076  0.2061  0.8842 -2.2889
22660SOL    HW269422   5.619   5.755   6.120  0.3419  0.2518 -0.4019
22661SOL     OW69423   4.122   6.952   8.960 -0.2497  0.0730 -0.2828
22661SOL    HW169424   4.143   6.884   8.896 -0.5282  0.9764 -1.3503
22661SOL    HW269425   4.176   6.929   9.037 -0.3199 -1.3286 -0.6134
22662SOL     OW69426   6.622   6.387   7.007 -0.0821  0.3574  0.0546
22662SOL    HW169427   6.598   6.351   7.093  3.0350 -0.1502  0.8336
22662SOL    HW269428   6.604   6.317   6.945 -1.7566  0.5018  0.3141
22663SOL     OW69429   7.207   5.823   7.071  0.3276 -0.0511  0.7530
22663SOL    HW169430   7.121   5.852   7.102  0.5947  2.2730 -0.4423
22663SOL    HW269431   7.187   5.748   7.014 -0.7509 -0.4122  1.5706
22664SOL     OW69432   5.449   0.270   5.203  0.6350  0.2953 -0.1821
22664SOL    HW169433   5.537   0.294   5.176  1.5645  0.8336  2.8750
22664SOL    HW269434   5.404   0.353   5.216  0.2416  0.0718 -0.0915
22665SOL     OW69435   6.320   4.308   6.992  0.9645  0.3857 -1.3700
22665SOL    HW169436   6.302   4.245   6.923 -0.7885 -0.8397  0.1240
22665SOL    HW269437   6.250   4.373   6.985  0.6155  0.1032 -0.5841
22666SOL     OW69438   6.610   3.872   5.826  0.0634 -0.3357 -0.0573
22666SOL    HW169439   6.559   3.908   5.753 -0.7997  0.0244  0.7082
22666SOL    HW269440   6.549   3.813   5.871  1.2501 -2.3533 -0.9208
22667SOL     OW69441   5.818   0.019   6.527 -0.5799  0.0582  0.0946
22667SOL    HW169442   5.886   0.032   6.461 -0.5192 -0.4272  0.0594
22667SOL    HW269443   5.776   0.105   6.535  0.3639  0.4889  0.4890
22668SOL     OW69444   7.930   7.398   6.212  0.4236 -0.5133 -0.1523
22668SOL    HW169445   7.880   7.475   6.186  0.1897 -0.0241  1.6348
22668SOL    HW269446   7.915   7.390   6.306  2.2677 -1.4211  0.1112
22669SOL     OW69447   6.120   6.952   5.888  0.6209 -0.2582 -0.3592
22669SOL    HW169448   6.082   7.009   5.954 -0.0846  3.3250 -3.4787
22669SOL    HW269449   6.045   6.903   5.852  0.7357 -0.9687  0.3523
22670SOL     OW69450   5.279   6.014   7.358 -0.1378  0.2962  0.1206
22670SOL    HW169451   5.264   6.012   7.452 -2.0258 -1.2311 -0.1405
22670SOL    HW269452   5.196   5.984   7.320  1.0287 -0.4999 -1.9733
22671SOL     OW69453   7.930   5.680   6.628 -0.3141 -0.2102 -0.0104
22671SOL    HW169454   7.838   5.693   6.605  0.0807  0.4689 -1.3038
22671SOL    HW269455   7.940   5.585   6.630 -1.3277 -0.3157  1.4216
22672SOL     OW69456   6.761   6.646   7.500 -0.4681  0.2110 -0.1180
22672SOL    HW169457   6.764   6.717   7.437  0.9558  0.2223 -0.0515
22672SOL    HW269458   6.697   6.584   7.463 -0.2490  0.5924 -1.1660
22673SOL     OW69459   6.691   5.328   4.648 -0.1614 -0.6176  0.2733
22673SOL    HW169460   6.683   5.388   4.722  0.4156  1.4363 -1.2389
22673SOL    HW269461   6.748   5.373   4.587 -1.3752 -1.8088 -1.8603
22674SOL     OW69462   3.777   5.237   8.229  0.4187  0.4590  0.2129
22674SOL    HW169463   3.864   5.225   8.266  0.5201  0.0374 -0.1600
22674SOL    HW269464   3.734   5.152   8.241 -0.4999  1.0907  1.8214
22675SOL     OW69465   6.167   7.832   6.838 -0.4221 -0.4301 -0.2300
22675SOL    HW169466   6.139   7.779   6.912 -0.2091 -1.0798 -0.6036
22675SOL    HW269467   6.098   7.897   6.827 -0.8735 -0.8631  0.0065
22676SOL     OW69468   0.179   7.646   7.013  0.4665  0.6022 -0.2802
22676SOL    HW169469   0.147   7.733   7.037  0.0156  0.7378 -1.3199
22676SOL    HW269470   0.258   7.634   7.066 -1.1075  0.3574  2.1849
22677SOL     OW69471   7.938   7.270   7.648 -0.0503  0.0657  0.0753
22677SOL    HW169472   8.005   7.321   7.692  0.6310 -1.0962  0.4097
22677SOL    HW269473   7.977   7.184   7.634 -0.6687  0.0166 -1.7186
22678SOL     OW69474   6.075   6.600   4.826  0.8770 -0.4230 -0.1152
22678SOL    HW169475   6.020   6.523   4.839 -0.9648  0.7083 -0.8164
22678SOL    HW269476   6.066   6.650   4.907 -1.0841  0.8771 -1.0470
22679SOL     OW69477   6.006   6.224   5.241 -0.2362  0.1531  0.0291
22679SOL    HW169478   6.053   6.278   5.178  0.6089  0.5188  0.9421
22679SOL    HW269479   6.068   6.211   5.313 -1.3775  0.3094  1.0933
22680SOL     OW69480   5.461   6.405   6.084 -0.1715 -0.3690  0.3375
22680SOL    HW169481   5.499   6.327   6.043  0.9858  0.0431  0.6130
22680SOL    HW269482   5.366   6.391   6.076 -0.0110 -2.0145  0.7629
22681SOL     OW69483   0.766   7.872   6.441  0.7483 -0.6738 -0.7587
22681SOL    HW169484   0.856   7.868   6.407  0.6733 -2.7610 -0.8573
22681SOL    HW269485   0.719   7.806   6.391 -0.2795 -1.2072  0.8277
22682SOL     OW69486   4.083   4.488   6.037 -0.4073 -0.5061  0.2624
22682SOL    HW169487   4.056   4.579   6.034  0.8508 -0.1266 -1.0508
22682SOL    HW269488   4.033   4.445   5.967 -1.1306 -0.8829  0.9943
22683SOL     OW69489   4.973   5.856   8.233  0.2346  0.4386  0.0267
22683SOL    HW169490   4.902   5.828   8.177 -0.6775  2.0525  0.3021
22683SOL    HW269491   5.052   5.820   8.193 -0.6439 -0.6107 -0.8028
22684SOL     OW69492   5.740   5.901   4.467  0.1578 -0.4130  0.0039
22684SOL    HW169493   5.664   5.850   4.498 -0.3030 -0.2973 -0.9208
22684SOL    HW269494   5.720   5.991   4.494  0.1620 -0.4476  0.1243
22685SOL     OW69495   7.648   6.354   6.180  0.0614 -0.1799 -0.0806
22685SOL    HW169496   7.577   6.394   6.131 -2.7498 -2.8858  1.4500
22685SOL    HW269497   7.652   6.404   6.262  0.1499  0.1406 -0.2775
22686SOL     OW69498   6.565   7.826   7.329 -0.4767 -0.1077 -0.9464
22686SOL    HW169499   6.533   7.767   7.260  1.8259 -2.8945  0.1535
22686SOL    HW269500   6.538   7.784   7.410 -0.1575  1.2742 -0.1054
22687SOL     OW69501   6.864   6.060   6.672  0.3875 -0.0695  0.3700
22687SOL    HW169502   6.894   6.040   6.761  0.2247 -0.8249  0.2625
22687SOL    HW269503   6.896   6.149   6.655  0.6105 -0.0063  1.0992
22688SOL     OW69504   5.973   6.525   7.061 -0.0037  0.2473 -0.4634
22688SOL    HW169505   6.015   6.556   7.141 -0.5203 -0.3958  0.0633
22688SOL    HW269506   5.954   6.605   7.012  0.8630  0.6058 -0.2249
22689SOL     OW69507   7.118   6.243   5.218 -0.0951 -0.0976 -0.6146
22689SOL    HW169508   7.159   6.177   5.161  0.2853  0.6019 -1.1609
22689SOL    HW269509   7.092   6.194   5.296 -0.9983 -1.1821 -1.5464
22690SOL     OW69510   6.054   5.202   6.433  0.0431  0.1712  0.1423
22690SOL    HW169511   6.116   5.131   6.447 -0.8902 -0.8181 -0.6032
22690SOL    HW269512   5.977   5.160   6.394 -1.8077  1.0499  2.6101
22691SOL     OW69513   7.014   3.986   7.737  0.3311  0.2028 -0.0760
22691SOL    HW169514   7.087   4.043   7.711  0.7222  0.4856  1.5545
22691SOL    HW269515   6.945   4.046   7.765  0.0114 -0.0896 -0.2313
22692SOL     OW69516   6.444   6.312   7.199  0.0812  0.2342 -0.2605
22692SOL    HW169517   6.380   6.277   7.262 -1.0810  2.2079 -0.2733
22692SOL    HW269518   6.435   6.255   7.123  0.0819 -0.9817  0.6134
22693SOL     OW69519   6.151   5.551   4.653  0.6916  0.0906  0.5367
22693SOL    HW169520   6.146   5.635   4.609  0.1031 -0.7774 -1.1182
22693SOL    HW269521   6.065   5.540   4.695  1.8444  1.7548  3.6579
22694SOL     OW69522   5.471   6.885   6.183  0.1365  0.3045 -0.0188
22694SOL    HW169523   5.439   6.795   6.180 -0.6158  0.5926 -1.7706
22694SOL    HW269524   5.497   6.898   6.275 -1.4604 -1.0950  0.6856
22695SOL     OW69525   6.038   6.421   6.518 -0.0872  0.0706  0.0192
22695SOL    HW169526   5.946   6.405   6.493  0.3107 -1.2905 -0.6979
22695SOL    HW269527   6.081   6.442   6.436  0.7506 -1.9775 -0.1230
22696SOL     OW69528   5.696   4.492   5.607 -0.2529  0.1265  0.1088
22696SOL    HW169529   5.702   4.431   5.533  2.1289 -1.3729  1.4154
22696SOL    HW269530   5.726   4.442   5.682  0.9016  2.6094  1.4451
22697SOL     OW69531   4.433   5.522   6.889 -0.2241 -0.6616 -0.2616
22697SOL    HW169532   4.389   5.479   6.815 -2.4424  1.2885 -0.2091
22697SOL    HW269533   4.372   5.511   6.962  1.1555 -1.0888  0.8529
22698SOL     OW69534   6.503   6.189   8.046  0.1181 -0.1171  0.2823
22698SOL    HW169535   6.533   6.102   8.073  1.8357 -0.1950 -1.6265
22698SOL    HW269536   6.583   6.241   8.037 -0.9025  1.9036  1.9794
22699SOL     OW69537   5.154   4.794   5.080 -0.3359  0.2608  0.1831
22699SOL    HW169538   5.232   4.800   5.135  1.2434  0.5634 -1.9587
22699SOL    HW269539   5.103   4.721   5.117  1.2921 -0.3847  1.2366
22700SOL     OW69540   6.096   3.541   5.406  0.0489 -0.2132 -0.3181
22700SOL    HW169541   6.131   3.452   5.399 -0.6384 -0.4582 -0.6937
22700SOL    HW269542   6.050   3.543   5.490  0.9288  0.1041  0.1690
22701SOL     OW69543   6.031   5.927   4.669  0.3371  0.5998 -0.1117
22701SOL    HW169544   6.123   5.928   4.693  1.0679  0.2413 -2.5883
22701SOL    HW269545   5.988   5.880   4.740  2.3264 -0.6731  0.3418
22702SOL     OW69546   6.953   6.389   6.004 -0.0349  0.3026  0.3327
22702SOL    HW169547   6.992   6.322   5.948 -0.0724  0.9405 -0.4764
22702SOL    HW269548   7.027   6.445   6.030 -0.3974  1.7932 -1.5890
22703SOL     OW69549   6.186   5.782   7.008 -0.1771 -0.0422 -0.5790
22703SOL    HW169550   6.155   5.695   6.983 -0.4928  0.0834 -0.6341
22703SOL    HW269551   6.281   5.779   6.994 -0.0458 -0.6820  0.3091
22704SOL     OW69552   7.528   6.550   5.190  0.1758 -0.5203  0.3331
22704SOL    HW169553   7.440   6.586   5.181  0.3137 -0.0575  0.7552
22704SOL    HW269554   7.578   6.591   5.119  0.3043  0.0596  0.7421
22705SOL     OW69555   7.421   7.696   6.135  0.8452  0.1092  0.5618
22705SOL    HW169556   7.491   7.730   6.192  0.9151  0.8952  0.0256
22705SOL    HW269557   7.378   7.774   6.101  0.8217 -0.3393 -0.4877
22706SOL     OW69558   5.946   5.840   7.174 -0.3380 -0.1308  0.7036
22706SOL    HW169559   5.982   5.765   7.222  2.4782  1.8311  1.9273
22706SOL    HW269560   6.013   5.861   7.109 -0.1050  2.4923  1.7106
22707SOL     OW69561   1.037   7.473   7.278 -0.0802 -0.3478  0.1135
22707SOL    HW169562   0.950   7.498   7.247 -0.8602 -1.7819  1.0518
22707SOL    HW269563   1.093   7.479   7.201 -1.3203 -0.8834 -0.8580
22708SOL     OW69564   7.013   6.832   6.134  0.2565 -0.6538 -0.0535
22708SOL    HW169565   6.992   6.873   6.050 -0.8655  1.4939  1.1560
22708SOL    HW269566   6.929   6.795   6.164  0.2061  0.1172  0.8337
22709SOL     OW69567   6.957   0.367   6.982 -0.0005  0.5198 -0.0089
22709SOL    HW169568   7.024   0.299   6.977  0.2567  0.8536 -1.8498
22709SOL    HW269569   6.998   0.444   6.941 -0.6254  1.5186  1.1597
22710SOL     OW69570   5.704   6.627   4.955 -0.0489  0.3620  0.4075
22710SOL    HW169571   5.624   6.579   4.976 -0.4564  0.8296 -0.0629
22710SOL    HW269572   5.762   6.561   4.917 -0.5315  0.1978 -0.0498
22711SOL     OW69573   7.840   5.537   8.183 -0.2942  0.3426  0.4901
22711SOL    HW169574   7.877   5.449   8.185 -1.1545 -0.0466 -0.2358
22711SOL    HW269575   7.880   5.582   8.258  0.9887 -0.3137  0.2277
22712SOL     OW69576   5.852   5.501   7.437 -0.5916 -0.5151 -0.3319
22712SOL    HW169577   5.820   5.429   7.490 -1.2248 -0.1948 -0.2701
22712SOL    HW269578   5.793   5.503   7.361 -1.0368  0.3992  0.0310
22713SOL     OW69579   6.213   6.256   7.838  0.4875 -0.5381 -0.0127
22713SOL    HW169580   6.192   6.343   7.806  1.8255 -1.0958 -2.7071
22713SOL    HW269581   6.276   6.270   7.908 -0.1047  0.6593  0.2980
22714SOL     OW69582   6.695   6.962   5.296 -0.0153 -0.2360  0.5458
22714SOL    HW169583   6.711   7.036   5.354 -0.7214 -0.7374  1.3921
22714SOL    HW269584   6.643   6.901   5.348  1.7755 -2.0175  0.4010
22715SOL     OW69585   6.014   6.070   5.843  0.1968  0.4676  0.4431
22715SOL    HW169586   6.104   6.072   5.811  0.1103  0.5575  0.1995
22715SOL    HW269587   5.971   6.004   5.788 -0.3745  1.8064 -0.7817
22716SOL     OW69588   6.541   4.915   7.665  0.1850 -0.8508  0.3500
22716SOL    HW169589   6.591   4.952   7.737 -3.5296 -0.1729  2.8438
22716SOL    HW269590   6.518   4.827   7.695 -0.4402 -1.0156 -0.5651
22717SOL     OW69591   6.359   6.973   8.381  0.3560 -0.1280  0.2156
22717SOL    HW169592   6.276   7.007   8.349 -0.1206  0.1343  1.6371
22717SOL    HW269593   6.343   6.880   8.396 -0.0864  0.1390  1.6008
22718SOL     OW69594   7.739   6.911   7.391  0.1578 -0.6801 -0.2220
22718SOL    HW169595   7.835   6.916   7.388  0.2325 -2.1971 -1.8781
22718SOL    HW269596   7.711   6.941   7.305 -0.8678 -0.3441  0.2147
22719SOL     OW69597   6.133   6.285   4.975  0.0615 -0.4234 -0.0175
22719SOL    HW169598   6.225   6.295   4.949 -0.3186  1.5743 -0.8060
22719SOL    HW269599   6.091   6.249   4.897  0.3440 -2.5754  0.7632
22720SOL     OW69600   5.413   7.049   6.518  0.5110 -0.2114 -0.4668
22720SOL    HW169601   5.477   6.989   6.480  1.0224 -1.1549  1.6991
22720SOL    HW269602   5.458   7.133   6.523  0.3423 -0.0069 -2.0916
22721SOL     OW69603   6.848   7.169   6.542  0.4778 -0.2957 -0.2045
22721SOL    HW169604   6.844   7.079   6.574 -0.5499 -0.2576 -0.1695
22721SOL    HW269605   6.856   7.161   6.447 -2.0146 -0.4942 -0.4781
22722SOL     OW69606   7.667   7.687   4.727 -0.1359 -0.2886  0.0681
22722SOL    HW169607   7.595   7.626   4.735  0.4875 -1.0031  0.3605
22722SOL    HW269608   7.630   7.772   4.750 -0.5444 -0.8705  1.7054
22723SOL     OW69609   3.930   6.371   7.148 -0.3453 -0.3887  0.4745
22723SOL    HW169610   3.895   6.292   7.107  0.2123 -0.4186  0.0485
22723SOL    HW269611   3.868   6.440   7.122 -0.1009 -0.4394 -0.2851
22724SOL     OW69612   7.193   6.854   8.079  0.0304 -0.7329  0.0908
22724SOL    HW169613   7.158   6.924   8.135  1.2484  0.7623 -0.9037
22724SOL    HW269614   7.116   6.817   8.036 -0.5248  1.4528 -0.9299
22725SOL     OW69615   1.116   5.772   8.760 -0.2147  0.2760 -0.0754
22725SOL    HW169616   1.063   5.842   8.722 -1.0544 -0.5561 -0.5070
22725SOL    HW269617   1.052   5.709   8.793  0.5185 -0.1356  0.5891
22726SOL     OW69618   5.894   5.645   7.683  0.3209  0.1987 -0.2451
22726SOL    HW169619   5.888   5.573   7.620 -0.4466 -0.4266  0.5146
22726SOL    HW269620   5.913   5.722   7.630 -0.8798 -0.2128 -1.3069
22727SOL     OW69621   6.989   7.438   6.990 -0.1492  0.0633 -0.1707
22727SOL    HW169622   6.963   7.397   6.907 -4.0153  0.4818  0.6535
22727SOL    HW269623   7.060   7.498   6.965  0.9682 -2.0489 -2.5569
22728SOL     OW69624   7.150   5.205   6.071  0.3761 -0.3219 -0.1228
22728SOL    HW169625   7.059   5.224   6.095  0.5544  2.1831 -1.0972
22728SOL    HW269626   7.203   5.259   6.130  1.1301 -0.4021 -0.7015
22729SOL     OW69627   0.147   3.952   5.718  0.0626  0.3127 -0.3645
22729SOL    HW169628   0.240   3.969   5.730  0.1393 -0.5529  0.3741
22729SOL    HW269629   0.112   4.034   5.682  1.3091  0.2515 -1.7954
22730SOL     OW69630   3.872   5.305   5.444 -0.1032 -0.1750  0.2915
22730SOL    HW169631   3.938   5.361   5.402 -0.1506  0.4054  0.9739
22730SOL    HW269632   3.923   5.243   5.495 -0.0689 -0.2383  0.1804
22731SOL     OW69633   6.003   7.003   6.708 -0.1929 -0.5571 -0.6364
22731SOL    HW169634   5.989   6.911   6.687  1.9401 -1.1948  0.4420
22731SOL    HW269635   5.920   7.046   6.686 -1.7968 -2.9685  0.3558
22732SOL     OW69636   7.176   6.495   5.189  0.0376  0.0387 -0.2301
22732SOL    HW169637   7.152   6.403   5.202  0.6756 -0.3384 -1.5451
22732SOL    HW269638   7.105   6.544   5.229 -1.5117 -1.0351 -1.5467
22733SOL     OW69639   7.834   7.420   6.459  0.2555 -0.4952 -0.1806
22733SOL    HW169640   7.815   7.402   6.551  0.1532  0.9155  0.1043
22733SOL    HW269641   7.891   7.497   6.462 -0.3724  0.0265 -1.3225
22734SOL     OW69642   6.127   4.674   5.394 -0.6152 -0.1441 -0.3452
22734SOL    HW169643   6.130   4.663   5.489 -1.6001  0.0879 -0.2802
22734SOL    HW269644   6.151   4.588   5.359 -4.1340 -1.4914  0.1386
22735SOL     OW69645   6.237   5.994   5.465 -0.7673  0.1277  0.0082
22735SOL    HW169646   6.262   6.002   5.557  0.0838  2.6640 -0.3662
22735SOL    HW269647   6.298   5.929   5.429 -0.5066 -0.2114  1.0311
22736SOL     OW69648   6.942   5.327   6.580 -0.7100  0.3774  0.0658
22736SOL    HW169649   6.968   5.403   6.632 -1.5746 -0.0123  1.1125
22736SOL    HW269650   6.858   5.300   6.618  0.1280 -1.7966  0.4882
22737SOL     OW69651   6.765   0.031   7.480 -0.1298  0.3181  0.4070
22737SOL    HW169652   6.855   0.041   7.510  0.0298 -0.3576  0.1726
22737SOL    HW269653   6.711   0.062   7.553  0.2538 -0.8597  1.2132
22738SOL     OW69654   7.561   0.708   7.387  0.4363  0.1897  0.2417
22738SOL    HW169655   7.652   0.739   7.391  0.8728 -1.1362  1.4527
22738SOL    HW269656   7.510   0.781   7.422  1.0718  0.8061 -0.0891
22739SOL     OW69657   6.839   5.224   5.729 -0.5913 -0.0970 -0.7087
22739SOL    HW169658   6.753   5.227   5.687 -0.1591 -0.2435 -1.6380
22739SOL    HW269659   6.883   5.304   5.699 -0.1830 -0.3345 -0.7509
22740SOL     OW69660   6.788   6.581   7.036 -0.4467  0.3044 -0.2765
22740SOL    HW169661   6.739   6.501   7.023 -1.4870  0.6566  1.2047
22740SOL    HW269662   6.863   6.555   7.090  0.4738 -0.0454 -1.6769
22741SOL     OW69663   6.584   7.960   6.343  0.1978 -0.5166  0.3220
22741SOL    HW169664   6.520   8.030   6.344 -1.2781 -1.7965 -0.5169
22741SOL    HW269665   6.669   8.005   6.342 -0.6572  1.2087  1.2304
22742SOL     OW69666   0.167   0.173   6.532 -0.0288 -0.3116 -0.5314
22742SOL    HW169667   0.128   0.247   6.577  0.1318 -0.2340 -0.5178
22742SOL    HW269668   0.136   0.181   6.442  1.4422  0.8343 -0.9853
22743SOL     OW69669   5.991   4.978   6.852 -0.0091  0.2492 -0.3127
22743SOL    HW169670   5.897   4.991   6.839  0.1916  0.4545 -1.7704
22743SOL    HW269671   6.020   4.929   6.775  1.4357  2.0356 -0.9984
22744SOL     OW69672   7.594   5.812   6.096  0.4254 -0.2096  0.1404
22744SOL    HW169673   7.670   5.758   6.115  0.3314  0.0497  1.3445
22744SOL    HW269674   7.629   5.900   6.084  0.3037 -0.0009  1.1534
22745SOL     OW69675   7.788   4.397   7.473 -0.4778 -0.6231 -0.4445
22745SOL    HW169676   7.846   4.342   7.421 -0.4204 -0.9380 -0.0500
22745SOL    HW269677   7.785   4.355   7.559  1.2073  1.0734  0.5244
22746SOL     OW69678   0.333   6.066   6.996  0.4814  0.1206  0.2025
22746SOL    HW169679   0.304   6.132   7.059 -1.1713  0.4631 -0.8275
22746SOL    HW269680   0.283   6.087   6.917  1.1744 -1.3712 -0.6546
22747SOL     OW69681   4.972   5.776   4.949  0.0174 -0.1070  0.1570
22747SOL    HW169682   4.906   5.762   4.881  0.4206  0.5844 -0.3964
22747SOL    HW269683   4.945   5.856   4.993  0.8032  0.5302 -0.4838
22748SOL     OW69684   4.684   7.964   6.648  0.2198 -0.1341 -0.3771
22748SOL    HW169685   4.636   8.042   6.620  0.7886 -0.1662 -1.4777
22748SOL    HW269686   4.663   7.897   6.584  1.9830 -0.0528 -1.1067
22749SOL     OW69687   5.317   7.978   4.062  0.2012  0.0497 -0.2439
22749SOL    HW169688   5.383   7.912   4.038 -1.2433 -1.4339 -0.2661
22749SOL    HW269689   5.299   8.024   3.980 -0.5373 -1.1715 -0.7898
22750SOL     OW69690   6.480   6.066   7.786 -0.1230  0.3468 -0.0503
22750SOL    HW169691   6.463   6.145   7.838  2.1321 -0.0899  1.4909
22750SOL    HW269692   6.545   6.018   7.837  0.7744 -1.0582 -2.4023
22751SOL     OW69693   4.647   5.423   7.169  0.1217 -0.2158  0.0712
22751SOL    HW169694   4.722   5.382   7.125 -0.7345  1.4419 -3.3360
22751SOL    HW269695   4.573   5.366   7.148  0.1581 -1.1683  2.3339
22752SOL     OW69696   0.140   7.226   6.955  0.1028  0.4394 -0.9303
22752SOL    HW169697   0.149   7.293   6.887  0.0224  0.4003 -0.9786
22752SOL    HW269698   0.160   7.272   7.037 -0.9354  0.7700 -0.8467
22753SOL     OW69699   0.301   7.162   7.893  0.3038  0.1097  0.3217
22753SOL    HW169700   0.387   7.139   7.858  0.7470  0.1267  1.3669
22753SOL    HW269701   0.240   7.145   7.820  1.0495 -0.9599 -0.0753
22754SOL     OW69702   6.288   5.370   5.516 -0.4509 -0.1902  0.5505
22754SOL    HW169703   6.254   5.406   5.597  0.4353  0.4884  0.6476
22754SOL    HW269704   6.299   5.277   5.533  0.4658  0.0633  1.5016
22755SOL     OW69705   7.851   5.848   7.479  0.1113  0.0703 -0.1620
22755SOL    HW169706   7.894   5.893   7.406 -0.9298  0.8225 -0.3344
22755SOL    HW269707   7.777   5.904   7.502  0.2954 -0.2558  1.3533
22756SOL     OW69708   6.795   7.292   7.669 -0.0432 -0.5254  0.3169
22756SOL    HW169709   6.703   7.318   7.659  0.4580  1.1014 -0.3127
22756SOL    HW269710   6.814   7.306   7.762 -0.3934 -0.7689  0.4278
22757SOL     OW69711   7.229   5.526   5.237 -0.2721  0.1366 -0.1274
22757SOL    HW169712   7.224   5.515   5.331 -3.1761 -2.5036 -0.4450
22757SOL    HW269713   7.150   5.574   5.213  0.2214  0.4346 -1.2753
22758SOL     OW69714   7.430   6.884   7.878 -0.3817  0.4024  0.2571
22758SOL    HW169715   7.478   6.965   7.893 -0.8642  0.6097  0.7052
22758SOL    HW269716   7.373   6.875   7.954 -2.1099  0.9255 -0.9250
22759SOL     OW69717   5.198   5.792   6.154 -0.1461  0.4148 -0.7450
22759SOL    HW169718   5.199   5.701   6.123 -2.2621 -0.5827  1.7587
22759SOL    HW269719   5.186   5.785   6.248 -0.4830  3.3214 -0.5023
22760SOL     OW69720   5.455   6.504   7.364  0.0069  0.2572  0.2603
22760SOL    HW169721   5.439   6.412   7.344  1.0659  0.3528 -1.2060
22760SOL    HW269722   5.425   6.550   7.286  2.0141  0.8942 -0.1840
22761SOL     OW69723   0.548   7.663   5.932 -0.0756 -0.0138 -0.4024
22761SOL    HW169724   0.473   7.722   5.939  0.9058  1.4082 -1.1863
22761SOL    HW269725   0.510   7.578   5.910 -1.6562 -0.0740  2.0936
22762SOL     OW69726   6.957   7.583   7.324  0.5821 -0.1545 -0.1697
22762SOL    HW169727   6.989   7.644   7.390  2.4488 -2.1965  0.9666
22762SOL    HW269728   6.974   7.496   7.361 -0.4689 -1.3932 -2.3614
22763SOL     OW69729   7.937   5.883   6.827 -0.5120  0.2792  0.0390
22763SOL    HW169730   7.915   5.797   6.792  1.5693  0.1167 -1.0232
22763SOL    HW269731   7.894   5.944   6.767  0.3667 -0.0342 -0.9481
22764SOL     OW69732   6.754   7.337   7.382 -0.5337  0.4027 -0.0950
22764SOL    HW169733   6.695   7.389   7.438 -0.0971  2.5070 -1.4612
22764SOL    HW269734   6.827   7.315   7.439 -1.6904 -0.5597  1.0871
22765SOL     OW69735   6.376   6.344   6.754  0.1828  0.1829 -0.1005
22765SOL    HW169736   6.313   6.339   6.682 -0.8816  1.1155  0.7259
22765SOL    HW269737   6.323   6.364   6.831  1.1774 -1.5831  1.1371
22766SOL     OW69738   5.492   6.773   8.547  0.4876 -0.0810 -0.5620
22766SOL    HW169739   5.447   6.856   8.563  0.6198  0.1054 -1.1460
22766SOL    HW269740   5.467   6.749   8.457  0.5898 -0.5861 -0.4581
22767SOL     OW69741   0.346   5.959   5.887 -0.0633  0.4317 -0.7669
22767SOL    HW169742   0.299   5.877   5.904 -1.1750  0.8207 -1.8793
22767SOL    HW269743   0.319   6.017   5.958  1.0002 -0.2412  0.2317
22768SOL     OW69744   0.846   7.142   6.205 -0.3226 -0.1338 -0.0556
22768SOL    HW169745   0.799   7.062   6.183  1.2637 -1.1520  0.1366
22768SOL    HW269746   0.810   7.208   6.145  0.2477 -1.6108 -2.1153
22769SOL     OW69747   4.752   7.200   8.147  0.5871 -0.9995 -0.1668
22769SOL    HW169748   4.812   7.221   8.219  1.0051  0.5035 -0.9303
22769SOL    HW269749   4.668   7.237   8.174  0.4677 -1.3987  0.0227
22770SOL     OW69750   7.476   7.005   5.161  0.2647  0.2899  0.6347
22770SOL    HW169751   7.466   6.921   5.116  1.4816  0.2823  0.3675
22770SOL    HW269752   7.465   6.984   5.254  2.9283 -0.6299  0.8297
22771SOL     OW69753   6.413   0.908   7.014 -0.3350 -0.1070 -0.0370
22771SOL    HW169754   6.386   0.863   7.094  0.6060  1.2726  1.1035
22771SOL    HW269755   6.506   0.924   7.026 -0.2953  0.6123 -1.1636
22772SOL     OW69756   7.233   5.634   4.328  0.0499 -0.1959  0.0507
22772SOL    HW169757   7.268   5.577   4.260 -0.6307  0.4965 -0.9244
22772SOL    HW269758   7.175   5.694   4.280  0.5301  1.1295  1.0661
22773SOL     OW69759   7.528   7.247   5.756 -0.4932  0.2595  0.3591
22773SOL    HW169760   7.475   7.172   5.730  1.0069 -0.7736  0.1329
22773SOL    HW269761   7.537   7.239   5.851 -1.0164  0.6329  0.4431
22774SOL     OW69762   7.494   7.168   6.002 -0.9726 -0.1780 -0.4468
22774SOL    HW169763   7.432   7.101   6.032  0.6058 -2.3316 -1.7533
22774SOL    HW269764   7.552   7.181   6.077 -0.0737 -1.8387 -0.7984
22775SOL     OW69765   6.147   4.509   7.013 -0.5309  0.3246  0.2652
22775SOL    HW169766   6.128   4.599   6.989 -0.8728  0.2282  0.1687
22775SOL    HW269767   6.115   4.500   7.103  1.0300  0.7741  0.8921
22776SOL     OW69768   5.363   5.686   4.000 -0.1843 -1.0657  0.0690
22776SOL    HW169769   5.359   5.710   4.092  0.2798 -0.6165 -0.0191
22776SOL    HW269770   5.341   5.766   3.953  0.5714 -1.0098 -0.2173
22777SOL     OW69771   7.152   6.593   6.938 -0.9831  0.0094 -0.7317
22777SOL    HW169772   7.104   6.676   6.943  1.1312  1.2579  2.0706
22777SOL    HW269773   7.112   6.538   7.005  0.3218  0.4833  0.5058
22778SOL     OW69774   7.236   5.717   6.600  0.2600 -0.2972 -0.5408
22778SOL    HW169775   7.276   5.803   6.613 -0.6049 -0.0011  0.4188
22778SOL    HW269776   7.307   5.660   6.570  1.2903  0.3015  0.6750
22779SOL     OW69777   0.211   6.306   5.164  0.7732  0.0135 -0.2587
22779SOL    HW169778   0.150   6.260   5.106 -0.3391 -1.7822  2.1880
22779SOL    HW269779   0.272   6.350   5.104 -0.7557 -1.0588 -2.7636
22780SOL     OW69780   6.749   0.244   8.657 -0.1321 -0.7401 -0.3266
22780SOL    HW169781   6.689   0.297   8.710  1.3091 -1.6938  2.4463
22780SOL    HW269782   6.778   0.304   8.588 -2.5043  0.4159 -0.4482
22781SOL     OW69783   7.963   6.858   6.276  0.4643  0.1205  0.4992
22781SOL    HW169784   7.957   6.807   6.195 -1.5727 -1.1053  1.3462
22781SOL    HW269785   8.020   6.932   6.253  0.7486 -0.6968 -1.7525
22782SOL     OW69786   7.719   6.259   6.519  0.1729 -0.7055  0.0195
22782SOL    HW169787   7.730   6.239   6.612 -1.2019  0.6430  0.5095
22782SOL    HW269788   7.696   6.175   6.479  1.1299 -1.3719  0.8073
22783SOL     OW69789   7.235   5.846   5.189 -0.0347 -0.6378  0.3250
22783SOL    HW169790   7.223   5.918   5.127 -0.7815 -0.5541  0.5547
22783SOL    HW269791   7.300   5.879   5.251 -0.5856 -0.0291  0.5981
22784SOL     OW69792   4.583   7.953   6.962  0.0967 -0.1106 -0.2636
22784SOL    HW169793   4.640   7.885   6.998 -1.6230 -1.6092 -0.2829
22784SOL    HW269794   4.589   7.942   6.867 -0.3013 -0.3152 -0.2625
22785SOL     OW69795   6.323   7.054   4.088  0.1995 -0.6908 -0.1382
22785SOL    HW169796   6.391   7.094   4.034 -0.3857 -0.8743 -1.0434
22785SOL    HW269797   6.311   7.115   4.161  0.4940 -0.0520 -0.6109
22786SOL     OW69798   5.925   5.924   6.082 -0.1129  0.9467  0.4417
22786SOL    HW169799   5.863   5.854   6.064  0.1075  0.3242  1.9686
22786SOL    HW269800   5.921   5.981   6.005 -1.2708 -0.0261 -0.2335
22787SOL     OW69801   5.465   5.882   6.082  0.4687  0.0922  0.1565
22787SOL    HW169802   5.376   5.886   6.117  0.2590  1.8176 -0.5047
22787SOL    HW269803   5.464   5.807   6.023 -0.6068  0.2352 -0.0191
22788SOL     OW69804   6.419   6.085   7.001 -0.2616 -0.6916 -0.2680
22788SOL    HW169805   6.437   5.998   6.963  0.1718 -0.2333 -1.1425
22788SOL    HW269806   6.333   6.108   6.967  0.6473  0.2683 -2.0973
22789SOL     OW69807   5.343   4.859   3.968  0.4900  0.0284 -0.5218
22789SOL    HW169808   5.282   4.898   4.031  0.9776  1.5888 -0.9739
22789SOL    HW269809   5.394   4.796   4.020 -1.2711 -1.0993 -0.0800
22790SOL     OW69810   7.863   6.242   7.402 -0.2187 -0.3386  0.0694
22790SOL    HW169811   7.868   6.337   7.409 -1.2485 -0.3618  1.7106
22790SOL    HW269812   7.932   6.210   7.461 -0.7943 -0.5982  0.6107
22791SOL     OW69813   4.338   4.396   5.927  0.4110 -0.3499 -0.1690
22791SOL    HW169814   4.248   4.426   5.943  0.8872  1.1449 -0.0931
22791SOL    HW269815   4.366   4.359   6.011 -0.8591 -2.9793 -0.8038
22792SOL     OW69816   5.832   6.118   3.851  0.0022 -0.5876 -0.7565
22792SOL    HW169817   5.741   6.134   3.825 -1.0516 -2.0645  1.6925
22792SOL    HW269818   5.829   6.037   3.901  2.4117  0.1843  0.8170
22793SOL     OW69819   6.105   0.409   7.201  0.4083 -0.0562 -0.0360
22793SOL    HW169820   6.013   0.385   7.194  0.4860 -0.9020  1.4572
22793SOL    HW269821   6.151   0.343   7.149  0.2309 -0.0811 -0.1619
22794SOL     OW69822   0.720   6.613   6.142 -0.3108 -0.1695 -0.1199
22794SOL    HW169823   0.709   6.541   6.204 -1.9288 -0.5261 -0.7913
22794SOL    HW269824   0.633   6.627   6.105  0.0881  1.7621 -0.4280
22795SOL     OW69825   6.246   4.587   7.343 -0.5429 -0.0960  0.3308
22795SOL    HW169826   6.157   4.556   7.326 -0.7113 -0.0965  1.1842
22795SOL    HW269827   6.264   4.649   7.272 -1.2312 -0.0781  0.1704
22796SOL     OW69828   7.644   0.154   8.374 -0.4208 -0.0166  0.0751
22796SOL    HW169829   7.688   0.168   8.290  1.3412 -0.7481  0.8243
22796SOL    HW269830   7.590   0.077   8.361 -1.9648  1.1894 -1.0139
22797SOL     OW69831   5.425   7.189   7.134  0.1491 -0.0114 -0.1375
22797SOL    HW169832   5.348   7.233   7.170  0.4338 -0.5580  1.1784
22797SOL    HW269833   5.405   7.178   7.041  0.0649  2.9098 -0.5549
22798SOL     OW69834   6.143   3.920   7.770  0.0521 -0.3184  0.2751
22798SOL    HW169835   6.068   3.874   7.734 -0.2922  1.3299 -1.2607
22798SOL    HW269836   6.119   3.937   7.862 -0.8225 -1.0390  0.1926
22799SOL     OW69837   7.771   4.820   6.840  0.2951 -0.6482  0.4241
22799SOL    HW169838   7.716   4.742   6.849 -1.1413  0.1336 -1.0357
22799SOL    HW269839   7.860   4.786   6.836 -0.1792 -2.0832  1.3686
22800SOL     OW69840   6.545   5.420   6.113 -0.3314  0.1667 -0.5740
22800SOL    HW169841   6.617   5.365   6.144 -0.2771 -0.6116 -1.9941
22800SOL    HW269842   6.484   5.423   6.186 -0.6458 -2.3570 -0.6497
22801SOL     OW69843   2.587   7.275   7.990  0.6501 -0.0077  0.3655
22801SOL    HW169844   2.585   7.219   7.912  0.4635  0.6541 -0.1099
22801SOL    HW269845   2.568   7.363   7.957  1.1794  0.3786  1.0701
22802SOL     OW69846   0.764   7.275   7.437 -0.1658 -0.0718 -0.0002
22802SOL    HW169847   0.843   7.225   7.415  0.5689  0.8897  0.3937
22802SOL    HW269848   0.794   7.343   7.497 -0.6611  2.3516 -2.3144
22803SOL     OW69849   0.072   5.628   8.024 -0.6979 -0.4150  0.2186
22803SOL    HW169850   0.095   5.580   7.944  0.1326  0.0563  0.1640
22803SOL    HW269851  -0.020   5.605   8.040 -0.8355 -0.6237 -0.7904
22804SOL     OW69852   6.053   6.370   8.277 -0.2049 -0.4752  0.5619
22804SOL    HW169853   6.027   6.442   8.220 -0.8435  0.0163  1.4603
22804SOL    HW269854   6.028   6.291   8.229 -2.6571 -0.0516  1.0149
22805SOL     OW69855   7.304   7.116   4.959 -0.3792  0.5195 -0.4773
22805SOL    HW169856   7.375   7.109   5.023 -0.5437  0.1551 -0.3351
22805SOL    HW269857   7.281   7.209   4.959  1.0477  0.8946 -1.5615
22806SOL     OW69858   7.519   6.472   5.991 -0.2398  0.3650  0.1517
22806SOL    HW169859   7.482   6.560   5.991 -2.4786 -0.5117  0.3260
22806SOL    HW269860   7.541   6.456   5.899 -1.0857  0.6278 -0.1050
22807SOL     OW69861   6.675   6.747   7.252  0.3141  0.1992  0.0227
22807SOL    HW169862   6.732   6.732   7.176 -0.0970 -1.2466 -0.0435
22807SOL    HW269863   6.612   6.674   7.249 -1.6937  1.8244 -0.0316
22808SOL     OW69864   6.571   6.007   7.229  0.0337  0.5778 -0.2538
22808SOL    HW169865   6.488   5.986   7.272 -0.3755  0.2551 -1.1748
22808SOL    HW269866   6.545   6.057   7.151  0.5807 -0.9252 -1.4404
22809SOL     OW69867   5.164   6.525   9.257 -0.3691 -0.8148 -0.5508
22809SOL    HW169868   5.084   6.498   9.302 -0.0616  1.7320  1.7722
22809SOL    HW269869   5.232   6.466   9.291 -0.6946 -0.8753 -0.0015
22810SOL     OW69870   7.328   5.564   7.992  0.1372 -0.1458  0.2769
22810SOL    HW169871   7.378   5.509   7.931  1.3639  0.3990  0.7731
22810SOL    HW269872   7.349   5.530   8.079  0.2228  0.5554  0.5392
22811SOL     OW69873   5.742   5.384   4.953  0.5809  0.0182  0.5034
22811SOL    HW169874   5.811   5.334   4.909 -0.0778 -1.8852  1.5312
22811SOL    HW269875   5.790   5.448   5.006  1.5419 -0.7623  0.6050
22812SOL     OW69876   7.572   7.561   5.668 -0.4276 -0.0774  0.3924
22812SOL    HW169877   7.623   7.510   5.605 -0.5059  0.6314 -0.2530
22812SOL    HW269878   7.591   7.520   5.753  0.7945 -0.1567  0.0991
22813SOL     OW69879   7.115   5.650   6.845 -0.0044 -0.2535 -0.2369
22813SOL    HW169880   7.097   5.558   6.866  0.4704 -0.5071 -0.9104
22813SOL    HW269881   7.168   5.647   6.766 -0.8911  0.6526 -0.8883
22814SOL     OW69882   6.719   7.775   5.803  0.0366 -0.9257  0.1209
22814SOL    HW169883   6.624   7.772   5.812  0.0728 -0.3942  0.7296
22814SOL    HW269884   6.744   7.686   5.779 -0.5403 -1.2466  0.6883
22815SOL     OW69885   6.932   4.500   7.144  0.0035 -0.0203 -0.4348
22815SOL    HW169886   6.954   4.565   7.077  1.5928  2.3134  2.1360
22815SOL    HW269887   6.843   4.521   7.170  0.4310  1.0792  0.2219
22816SOL     OW69888   5.425   3.878   6.906 -0.2282  0.1307 -0.0627
22816SOL    HW169889   5.369   3.831   6.844 -0.5417  1.5323 -0.8712
22816SOL    HW269890   5.447   3.812   6.972 -0.4769 -1.2077 -1.2604
22817SOL     OW69891   4.493   4.524   9.276 -0.2495  0.1204  0.0951
22817SOL    HW169892   4.441   4.451   9.243  0.7698 -0.1677 -0.9443
22817SOL    HW269893   4.499   4.585   9.202  1.4875 -0.2098 -0.1001
22818SOL     OW69894   5.489   7.190   5.577  0.0928  0.6082  0.2746
22818SOL    HW169895   5.528   7.264   5.531 -0.6805  0.8120 -0.0596
22818SOL    HW269896   5.395   7.206   5.574 -0.1033 -0.5227 -0.0500
22819SOL     OW69897   0.295   5.851   6.271  0.3067  0.4398  0.1635
22819SOL    HW169898   0.384   5.834   6.303  1.2662  1.5184 -1.7513
22819SOL    HW269899   0.300   5.939   6.234 -1.5596  0.4768 -0.0975
22820SOL     OW69900   5.838   5.788   5.823 -0.1292  0.0348 -0.1943
22820SOL    HW169901   5.905   5.757   5.762 -0.8848 -1.0252 -0.5021
22820SOL    HW269902   5.757   5.786   5.774 -0.4905  0.7792  0.3519
22821SOL     OW69903   6.610   4.079   6.330  0.7442 -0.1904  0.6128
22821SOL    HW169904   6.644   4.085   6.241 -0.0093  3.0241  0.4147
22821SOL    HW269905   6.631   4.164   6.370 -1.6612 -0.3206  2.4326
22822SOL     OW69906   0.185   6.743   4.763  0.1678 -0.1750 -0.0641
22822SOL    HW169907   0.155   6.815   4.707 -1.9185  0.3569  1.5928
22822SOL    HW269908   0.270   6.718   4.727 -0.6167  0.7684 -2.8224
22823SOL     OW69909   6.010   6.179   4.755 -0.5181 -0.4408 -0.1210
22823SOL    HW169910   6.052   6.230   4.685 -1.9321 -1.7415 -2.0423
22823SOL    HW269911   6.021   6.088   4.728 -1.7843 -0.9517  0.9492
22824SOL     OW69912   5.008   5.482   7.635  0.3816  0.2726 -0.1984
22824SOL    HW169913   4.981   5.514   7.722 -0.4815  1.2065 -0.7867
22824SOL    HW269914   4.926   5.466   7.589  0.8262 -1.1591 -0.5303
22825SOL     OW69915   5.440   4.505  10.372  0.1732 -0.4338  0.4704
22825SOL    HW169916   5.527   4.465  10.361  0.4517  0.3691 -0.3475
22825SOL    HW269917   5.453   4.572  10.440  0.3735  0.1573 -0.1350
22826SOL     OW69918   4.559   5.479   7.578  0.1130  0.4022 -0.1224
22826SOL    HW169919   4.535   5.387   7.567  0.8939  0.3549 -1.9779
22826SOL    HW269920   4.492   5.515   7.635  0.2688 -1.4972  1.3769
22827SOL     OW69921   7.097   7.426   9.150 -0.6934  0.1359 -0.1617
22827SOL    HW169922   7.018   7.379   9.123 -0.4463 -0.8658  0.7735
22827SOL    HW269923   7.117   7.391   9.237  1.7405 -0.9019 -1.0511
22828SOL     OW69924   6.842   0.191   8.267 -0.4002 -0.2769 -0.4191
22828SOL    HW169925   6.838   0.118   8.328  0.5177  0.0297  0.0266
22828SOL    HW269926   6.859   0.268   8.322 -0.1494  0.0931 -0.9961
22829SOL     OW69927   4.719   6.764   8.954  0.1017  0.8167  0.0495
22829SOL    HW169928   4.790   6.809   8.908 -1.2293  4.4356  1.1775
22829SOL    HW269929   4.763   6.710   9.019  1.8543 -0.1783 -1.8632
22830SOL     OW69930   0.377   0.174   7.323 -0.0481  0.3216  0.1867
22830SOL    HW169931   0.451   0.233   7.340 -0.3531  0.4855  0.9584
22830SOL    HW269932   0.300   0.229   7.330 -0.3510 -0.1958  1.1303
22831SOL     OW69933   6.137   7.787   8.086  0.0279  0.4599  0.0271
22831SOL    HW169934   6.182   7.830   8.013 -0.0069 -0.1620 -0.3642
22831SOL    HW269935   6.188   7.811   8.163  1.2696 -0.5608 -0.4598
22832SOL     OW69936   4.727   5.739   8.651 -0.2196  0.7265 -0.0867
22832SOL    HW169937   4.652   5.750   8.592  1.3470 -0.2106 -2.4016
22832SOL    HW269938   4.794   5.798   8.616  1.0256 -0.4163  0.2734
22833SOL     OW69939   5.899   6.292  10.323  0.1079  0.1296 -0.1422
22833SOL    HW169940   5.823   6.247  10.284 -1.8524  3.7074 -0.9151
22833SOL    HW269941   5.880   6.294  10.417 -0.6560  0.7081 -0.2930
22834SOL     OW69942   5.519   6.440  10.107  0.1939 -0.1179  0.2212
22834SOL    HW169943   5.535   6.425  10.200  1.2928  1.5279  0.3511
22834SOL    HW269944   5.424   6.443  10.099  0.0609 -1.4183  1.0623
22835SOL     OW69945   6.778   0.007   8.918  0.5086  0.0859  0.2520
22835SOL    HW169946   6.819   0.083   8.961  0.4936  0.6193 -0.6465
22835SOL    HW269947   6.838  -0.065   8.935  0.7853  0.4080  0.6865
22836SOL     OW69948   5.833   4.973   9.745  0.1665  0.0049  0.4041
22836SOL    HW169949   5.845   4.923   9.664 -1.8268 -1.9734  1.2336
22836SOL    HW269950   5.875   4.919   9.813 -1.2027 -0.1413  1.1737
22837SOL     OW69951   6.259   5.927   7.266  0.6607 -0.3468 -0.1210
22837SOL    HW169952   6.223   5.880   7.191  0.7086 -0.3248 -0.1575
22837SOL    HW269953   6.323   5.866   7.304  1.3663  0.0212 -0.6883
22838SOL     OW69954   6.356   6.519   6.477 -0.1599 -0.0289  0.3493
22838SOL    HW169955   6.291   6.547   6.542 -0.3205 -1.4737  0.8510
22838SOL    HW269956   6.439   6.521   6.525 -0.3840 -1.8688  0.8935
22839SOL     OW69957   6.159   7.010   8.053 -0.4221 -0.1280  0.1139
22839SOL    HW169958   6.218   7.072   8.097  1.3600 -0.9394 -1.0352
22839SOL    HW269959   6.080   7.061   8.035 -0.0025  1.0700  1.4685
22840SOL     OW69960   6.221   7.095  10.517 -0.4102  0.4085 -0.5800
22840SOL    HW169961   6.240   7.056  10.432 -0.9841  1.0693 -1.0243
22840SOL    HW269962   6.126   7.088  10.526 -0.5166  1.6275 -0.6374
22841SOL     OW69963   7.002   5.583   9.099 -0.1955  0.3435  0.5856
22841SOL    HW169964   7.054   5.591   9.019 -1.1279 -0.0548 -0.0643
22841SOL    HW269965   6.915   5.613   9.075 -0.8242 -0.9952  1.0972
22842SOL     OW69966   3.568   4.777   9.572 -0.3201 -0.2181 -0.4524
22842SOL    HW169967   3.477   4.776   9.541 -0.3121  0.1198 -0.4912
22842SOL    HW269968   3.618   4.738   9.501 -0.5714 -1.4481  0.0242
22843SOL     OW69969   5.480   6.945  11.679  0.5806 -0.6115  0.3450
22843SOL    HW169970   5.557   6.927  11.732  1.2944 -1.2655 -0.8855
22843SOL    HW269971   5.450   7.031  11.710  2.3528  0.0983  0.1925
22844SOL     OW69972   6.110   7.405   7.295 -0.5986 -0.3487  0.4321
22844SOL    HW169973   6.164   7.342   7.342  0.3263 -1.3244 -1.8336
22844SOL    HW269974   6.163   7.484   7.291  0.5850 -1.1807 -1.4372
22845SOL     OW69975   5.729   5.573   7.891  0.2554 -0.7941 -0.1384
22845SOL    HW169976   5.666   5.513   7.850 -1.3083 -0.3198  1.4573
22845SOL    HW269977   5.783   5.604   7.818 -1.8880 -0.5816 -1.7260
22846SOL     OW69978   5.238   5.955   6.622 -0.1129  0.3094 -0.4223
22846SOL    HW169979   5.326   5.992   6.622  0.5428 -1.1870 -1.6934
22846SOL    HW269980   5.232   5.909   6.706  0.6163 -0.2276 -0.6529
22847SOL     OW69981   1.943   0.982   9.108 -0.8388  0.3537  0.0691
22847SOL    HW169982   1.882   0.917   9.074 -1.6233  1.0355  0.1425
22847SOL    HW269983   1.988   1.016   9.030  0.5735 -1.2240  0.1491
22848SOL     OW69984   5.224   0.062   8.301 -0.5949 -0.3395  0.9079
22848SOL    HW169985   5.293   0.126   8.283 -1.0422  0.5667  2.2670
22848SOL    HW269986   5.242  -0.010   8.241  0.8901  0.3436  0.4853
22849SOL     OW69987   6.817   6.267   8.110  0.2860  0.0450  0.6390
22849SOL    HW169988   6.768   6.330   8.057  0.9212  0.4455  0.5137
22849SOL    HW269989   6.757   6.245   8.182 -0.3029  0.0550  0.1575
22850SOL     OW69990   7.397   7.033   6.788  0.7146  0.4232 -0.3202
22850SOL    HW169991   7.343   6.968   6.743 -0.2454  1.3697 -0.5652
22850SOL    HW269992   7.369   7.117   6.751  0.7594  1.1236  1.1805
22851SOL     OW69993   4.478   6.667   9.332 -0.4709  0.3310 -0.0623
22851SOL    HW169994   4.437   6.699   9.413 -1.5175 -0.1042 -0.3987
22851SOL    HW269995   4.451   6.575   9.326  2.9014 -0.8755  1.1537
22852SOL     OW69996   5.044   0.081   8.074 -0.5534  0.3543  0.2020
22852SOL    HW169997   4.950   0.079   8.090 -0.5500 -1.1243  0.1145
22852SOL    HW269998   5.084   0.071   8.160 -0.4903 -0.2496  0.1052
22853SOL     OW69999   0.817   6.301   8.376 -0.1308  0.5908  0.1395
22853SOL    HW170000   0.755   6.269   8.442 -0.6831 -0.2779 -0.7674
22853SOL    HW270001   0.776   6.379   8.339  0.1229  1.0078  0.7219
22854SOL     OW70002   5.280   5.080   7.176  0.1403 -0.0841 -0.1528
22854SOL    HW170003   5.269   5.174   7.166  0.3234 -0.2173 -1.8403
22854SOL    HW270004   5.216   5.055   7.243  1.2990  1.4697  1.6144
22855SOL     OW70005   4.637   5.297   7.976  0.2160  0.6159 -0.4321
22855SOL    HW170006   4.548   5.330   7.969 -0.2372 -0.5257 -0.2204
22855SOL    HW270007   4.649   5.277   8.069  0.8465  1.1548 -0.3878
22856SOL     OW70008   0.074   7.507   8.635  0.1564 -0.5517 -0.4491
22856SOL    HW170009   0.094   7.585   8.687 -1.6528 -1.4713  1.7867
22856SOL    HW270010   0.095   7.532   8.545  0.4751  2.1937  0.3115
22857SOL     OW70011   7.827   7.101   9.268  0.1589  0.0602 -0.4031
22857SOL    HW170012   7.751   7.151   9.237  1.2409  1.8783 -0.2394
22857SOL    HW270013   7.901   7.161   9.257  1.5606 -1.6079 -0.3906
22858SOL     OW70014   4.521   6.415  10.237 -0.2697 -0.0691  0.3004
22858SOL    HW170015   4.574   6.354  10.185 -1.0390 -0.1351 -0.4221
22858SOL    HW270016   4.583   6.453  10.300  0.2505 -1.5261  0.7174
22859SOL     OW70017   0.833   6.270   8.023 -0.3622 -0.5356  0.5075
22859SOL    HW170018   0.925   6.278   8.047 -0.4191  0.7712  0.3629
22859SOL    HW270019   0.815   6.349   7.972 -1.6339 -0.6507  0.7590
22860SOL     OW70020   5.880   7.767   7.159 -0.0321  0.2822  0.1569
22860SOL    HW170021   5.865   7.860   7.142 -0.4219 -0.1452 -2.1714
22860SOL    HW270022   5.972   7.753   7.136 -0.8265 -0.5105 -2.9266
22861SOL     OW70023   6.142   6.175   7.081 -0.0435 -0.0265 -0.2845
22861SOL    HW170024   6.185   6.105   7.129  0.1688 -0.7141 -1.4460
22861SOL    HW270025   6.049   6.165   7.103  0.2078  0.7298  1.2888
22862SOL     OW70026   6.674   5.389   8.341  0.2904 -0.0485  0.0872
22862SOL    HW170027   6.600   5.356   8.392  0.9949 -2.1023 -0.1295
22862SOL    HW270028   6.735   5.316   8.336  1.7251  1.1423 -0.9343
22863SOL     OW70029   0.052   7.007   7.253  0.1830  0.5787 -0.2991
22863SOL    HW170030   0.123   6.957   7.216  0.8349  2.4201 -1.6858
22863SOL    HW270031   0.091   7.052   7.329  0.3633  1.1038 -0.6933
22864SOL     OW70032   7.365   6.499   9.479 -0.5148  0.1247 -0.0011
22864SOL    HW170033   7.364   6.592   9.454 -1.1694 -0.3646 -1.9805
22864SOL    HW270034   7.454   6.470   9.458 -0.8923 -0.1452 -1.3030
22865SOL     OW70035   7.937   6.830   9.366  0.2390  0.2710 -0.0959
22865SOL    HW170036   7.868   6.796   9.424  1.3791 -0.6008  0.7942
22865SOL    HW270037   7.896   6.905   9.322 -1.2430 -0.1695  0.4708
22866SOL     OW70038   6.611   6.996  10.177 -0.1298 -0.0418  0.2387
22866SOL    HW170039   6.661   7.009  10.096  0.9149 -0.2135  0.8435
22866SOL    HW270040   6.675   7.008  10.247 -1.1127  0.5485  1.0632
22867SOL     OW70041   5.709   6.020   8.259 -0.5913  0.5382 -0.1063
22867SOL    HW170042   5.765   5.958   8.307  0.0711  0.8861 -0.4198
22867SOL    HW270043   5.640   6.043   8.322 -0.9227 -0.6024 -0.0216
22868SOL     OW70044   1.657   7.073   6.602 -0.2346  0.0631  0.4690
22868SOL    HW170045   1.668   7.150   6.658  0.2269  0.1142  0.3147
22868SOL    HW270046   1.735   7.072   6.547  0.1350 -0.9307  0.9802
22869SOL     OW70047   6.548   5.896   8.527 -0.0621 -0.1792 -0.2545
22869SOL    HW170048   6.621   5.895   8.588  0.1698  0.2524 -0.5245
22869SOL    HW270049   6.474   5.927   8.578  0.2997  0.9240 -0.3682
22870SOL     OW70050   4.637   6.839   9.803 -0.1732  0.6996  0.2070
22870SOL    HW170051   4.683   6.880   9.877 -0.1501 -0.3456  0.7949
22870SOL    HW270052   4.611   6.753   9.836 -0.2219  0.2374 -0.9907
22871SOL     OW70053   6.602   6.021   5.981  0.3903  0.6859 -0.1485
22871SOL    HW170054   6.542   6.094   5.993  3.5761  3.3197  1.6735
22871SOL    HW270055   6.639   6.007   6.068  1.9223 -1.2025 -1.0358
22872SOL     OW70056   0.316   5.483   9.567 -0.3299  0.1480  0.4749
22872SOL    HW170057   0.385   5.530   9.615 -0.0015  0.4801 -0.3001
22872SOL    HW270058   0.339   5.494   9.475 -1.0258 -0.3611  0.2285
22873SOL     OW70059   7.629   7.533   8.426 -0.6299 -0.3285 -0.5291
22873SOL    HW170060   7.588   7.596   8.367 -1.4221 -1.1481 -0.8869
22873SOL    HW270061   7.636   7.453   8.374  0.1783 -0.5951 -0.0265
22874SOL     OW70062   5.225   6.753   9.606  0.0717  0.2562  0.0057
22874SOL    HW170063   5.225   6.660   9.583  2.0684  0.8575 -2.9398
22874SOL    HW270064   5.144   6.765   9.656 -0.9390 -2.8040 -0.6825
22875SOL     OW70065   0.124   7.781   7.628  0.4039  0.0466 -0.0245
22875SOL    HW170066   0.177   7.859   7.610  1.0493 -0.3450  0.1390
22875SOL    HW270067   0.157   7.749   7.712  1.6641 -1.6551 -1.1083
22876SOL     OW70068   6.967   0.359   8.478 -0.2067 -0.0364 -0.3683
22876SOL    HW170069   7.010   0.312   8.550  0.1781 -0.4205 -0.8440
22876SOL    HW270070   7.037   0.379   8.417 -0.6175 -0.2141 -0.9073
22877SOL     OW70071   0.229   7.676   7.371 -0.0577  0.0401  0.2521
22877SOL    HW170072   0.254   7.713   7.287 -1.6070 -0.7891 -0.6205
22877SOL    HW270073   0.163   7.736   7.405 -2.2876 -1.5781 -0.9848
22878SOL     OW70074   5.510   7.440   8.250  0.3427  0.2084  0.2799
22878SOL    HW170075   5.520   7.535   8.245 -0.3440  0.3542  1.2342
22878SOL    HW270076   5.596   7.407   8.277  0.4240  0.6255  0.5355
22879SOL     OW70077   5.514   5.742   7.667 -0.4659  0.4290 -0.1809
22879SOL    HW170078   5.527   5.648   7.666 -0.8283  0.2853  2.3213
22879SOL    HW270079   5.433   5.755   7.717  0.2417  2.0941  0.6137
22880SOL     OW70080   4.943   5.881   9.298 -0.0390 -0.1079 -0.6589
22880SOL    HW170081   4.936   5.940   9.374  1.1080 -0.2936 -0.3979
22880SOL    HW270082   4.857   5.841   9.292 -0.0146 -0.4488  0.8486
22881SOL     OW70083   5.625   0.415   9.581 -0.5280  0.1661 -0.0529
22881SOL    HW170084   5.686   0.419   9.655 -0.7074 -0.7685  0.1621
22881SOL    HW270085   5.676   0.374   9.511 -0.9533 -0.8541  0.2054
22882SOL     OW70086   6.782   6.916   6.639  0.0805  0.5807 -0.5117
22882SOL    HW170087   6.769   6.864   6.718 -0.1698  1.1469 -0.1708
22882SOL    HW270088   6.773   6.854   6.567 -1.6225  0.3939 -0.1681
22883SOL     OW70089   7.343   7.199   7.982  0.0180 -0.7546 -0.1823
22883SOL    HW170090   7.358   7.288   8.013  0.8232 -1.2193  0.8124
22883SOL    HW270091   7.392   7.144   8.042  0.0146 -1.8396 -1.1365
22884SOL     OW70092   6.392   5.751   5.697 -0.4654  0.1505  0.3052
22884SOL    HW170093   6.422   5.704   5.775 -1.1309 -0.6457  0.1084
22884SOL    HW270094   6.471   5.783   5.655 -0.0814  0.3217  1.1446
22885SOL     OW70095   5.095   0.368   8.780  0.2449 -0.1198  0.1885
22885SOL    HW170096   5.057   0.285   8.751 -0.8851  0.4527 -0.0209
22885SOL    HW270097   5.022   0.417   8.817  0.6925  1.1349 -0.4949
22886SOL     OW70098   7.156   6.127   8.775  0.3956  0.4609  0.3841
22886SOL    HW170099   7.189   6.094   8.692 -2.9350  0.6903 -1.2068
22886SOL    HW270100   7.203   6.209   8.788  1.4608  0.0955 -0.9312
22887SOL     OW70101   6.144   6.788  10.315 -0.3946  0.1422 -0.1425
22887SOL    HW170102   6.105   6.719  10.262 -2.6484  0.4408  1.0160
22887SOL    HW270103   6.184   6.743  10.389 -0.9298  0.0046  0.0628
22888SOL     OW70104   6.731   0.744   7.225  0.0367  0.0526  0.0739
22888SOL    HW170105   6.695   0.738   7.314  2.3612  0.6586  1.1520
22888SOL    HW270106   6.744   0.654   7.198 -1.2213 -0.1485  0.0923
22889SOL     OW70107   6.706   5.400   9.311 -0.3139  0.0202 -0.0430
22889SOL    HW170108   6.717   5.324   9.254 -0.9944 -0.1025 -0.0105
22889SOL    HW270109   6.787   5.402   9.362 -1.2222 -2.0794  1.6310
22890SOL     OW70110   7.835   5.593  10.946  0.0019 -0.1392  0.3676
22890SOL    HW170111   7.888   5.527  10.902 -0.0074  1.0846 -1.6590
22890SOL    HW270112   7.753   5.595  10.896 -1.0456 -0.3987  2.0174
22891SOL     OW70113   5.783   4.389   7.268 -0.2477  0.3523  0.1651
22891SOL    HW170114   5.725   4.402   7.193 -1.0374  0.7324  0.8175
22891SOL    HW270115   5.727   4.350   7.335  0.6718 -0.8562  0.2548
22892SOL     OW70116   6.013   6.642   9.960 -0.5404 -0.1693 -0.1260
22892SOL    HW170117   5.966   6.571   9.917 -0.6103 -0.2490  0.0848
22892SOL    HW270118   6.001   6.627  10.054 -1.5986  0.8016 -0.0835
22893SOL     OW70119   5.462   6.664  10.881 -0.1737  0.4582 -0.0917
22893SOL    HW170120   5.453   6.696  10.792  1.7439  0.9000 -0.1537
22893SOL    HW270121   5.382   6.695  10.925 -0.6931  1.0512 -1.3874
22894SOL     OW70122   7.016   6.522   9.761  0.2919  0.0301  0.4606
22894SOL    HW170123   7.017   6.471   9.681  1.0889  0.7234  0.0098
22894SOL    HW270124   7.108   6.526   9.788  0.3248  1.5612  0.2452
22895SOL     OW70125   4.591   6.757   8.707  0.5397  0.1389  0.5894
22895SOL    HW170126   4.576   6.851   8.704  0.2699  0.0844  0.0590
22895SOL    HW270127   4.619   6.740   8.797  2.4702  0.9849  0.1884
22896SOL     OW70128   6.448   5.090   8.137 -0.0403  0.0799 -0.2016
22896SOL    HW170129   6.400   5.017   8.100 -0.1083 -0.0053  0.0514
22896SOL    HW270130   6.381   5.146   8.176  0.0134  0.2670 -0.3801
22897SOL     OW70131   6.566   6.558   6.645 -0.2818 -0.1234 -0.0875
22897SOL    HW170132   6.495   6.552   6.709 -0.5393 -1.8711 -0.4988
22897SOL    HW270133   6.635   6.607   6.690 -2.0522  2.5243 -0.0211
22898SOL     OW70134   7.818   7.151   6.744 -0.4592 -0.7316  0.1338
22898SOL    HW170135   7.883   7.128   6.810 -1.7371  0.7045  1.9909
22898SOL    HW270136   7.825   7.246   6.734 -2.6112 -0.4354  0.8521
22899SOL     OW70137   6.044   7.558   7.759 -0.1736  0.4736  0.0911
22899SOL    HW170138   6.096   7.486   7.724 -2.1134 -1.3210  0.7127
22899SOL    HW270139   6.038   7.539   7.853 -1.5900  0.8394  0.0923
22900SOL     OW70140   6.687   5.669   8.454 -0.4345  0.2868 -0.3967
22900SOL    HW170141   6.618   5.732   8.478 -2.1331 -2.1155  1.5234
22900SOL    HW270142   6.641   5.586   8.444  1.9838 -1.0843 -0.8308
22901SOL     OW70143   6.881   6.019   8.483 -0.3341  0.5202  0.0844
22901SOL    HW170144   6.897   5.937   8.437  1.7655  0.6509  0.4964
22901SOL    HW270145   6.829   5.994   8.560  0.5533 -0.4830  0.3698
22902SOL     OW70146   7.642   1.242   7.921  0.5698 -0.1477  0.2569
22902SOL    HW170147   7.670   1.227   7.831 -0.1372 -1.4977  0.2391
22902SOL    HW270148   7.722   1.235   7.973  1.1685  1.7246 -0.3416
22903SOL     OW70149   7.690   7.622   7.821  0.2687 -0.1775  0.4731
22903SOL    HW170150   7.739   7.667   7.752 -0.8906  0.8612  0.3004
22903SOL    HW270151   7.683   7.532   7.789  1.3361 -0.1566  0.1190
22904SOL     OW70152   7.082   6.304   7.583 -0.3545  0.4611  0.5380
22904SOL    HW170153   7.095   6.311   7.677  0.1402  0.7942  0.4496
22904SOL    HW270154   7.169   6.284   7.548 -0.7165 -0.7081  0.2443
22905SOL     OW70155   5.446   4.253   7.688 -0.5454 -0.2607 -0.5275
22905SOL    HW170156   5.476   4.332   7.733 -0.5309 -0.6067  0.0908
22905SOL    HW270157   5.431   4.190   7.759  0.7823 -1.2725 -1.1150
22906SOL     OW70158   5.930   5.777   8.566  0.2179 -0.2760  0.0436
22906SOL    HW170159   6.002   5.717   8.548  0.4853 -0.9720  3.0264
22906SOL    HW270160   5.941   5.848   8.502  1.7133 -1.8301 -1.5258
22907SOL     OW70161   6.409   5.324   8.431  0.3167  0.1749 -0.4928
22907SOL    HW170162   6.316   5.328   8.407  0.3753  1.5272 -0.5399
22907SOL    HW270163   6.409   5.339   8.526  0.6217  2.5962 -0.8164
22908SOL     OW70164   5.976   7.576   8.367  0.6905 -0.2663  0.3231
22908SOL    HW170165   6.054   7.628   8.380  1.0243 -0.8736  0.7836
22908SOL    HW270166   5.903   7.636   8.384  0.9349  1.0692 -2.6938
22909SOL     OW70167   6.271   6.446  10.267  0.1291 -0.1078 -0.0273
22909SOL    HW170168   6.329   6.370  10.264  0.9028  0.5011 -0.9467
22909SOL    HW270169   6.300   6.502  10.195 -0.4711  1.0312  0.5838
22910SOL     OW70170   6.437   6.600   9.381 -0.0009 -0.6361  0.1821
22910SOL    HW170171   6.452   6.516   9.339  0.6225 -0.1942 -0.5133
22910SOL    HW270172   6.465   6.665   9.316  0.3837  0.0862  1.0308
22911SOL     OW70173   6.804   6.550   8.831  0.4473 -0.1488  0.5288
22911SOL    HW170174   6.842   6.637   8.822 -0.6265  0.1437 -2.1337
22911SOL    HW270175   6.870   6.491   8.793 -1.0689  0.2437 -3.0852
22912SOL     OW70176   7.258   6.109   7.276 -0.3333 -0.1026  0.1257
22912SOL    HW170177   7.223   6.172   7.213  0.2465 -1.6278 -1.8401
22912SOL    HW270178   7.298   6.162   7.344 -2.2599  1.6406  0.0132
22913SOL     OW70179   6.148   4.477   6.519  0.4632  0.4133  0.5334
22913SOL    HW170180   6.095   4.556   6.534  1.3012  0.7926  1.6518
22913SOL    HW270181   6.090   4.405   6.544 -0.3886  0.6323 -0.7075
22914SOL     OW70182   7.484   7.335   7.223  0.5617  0.3592 -0.3112
22914SOL    HW170183   7.447   7.308   7.307 -0.5820  1.4403 -0.4370
22914SOL    HW270184   7.516   7.253   7.184 -0.1147 -0.3592  0.5855
22915SOL     OW70185   7.407   6.873   7.583  0.4578  0.4677 -0.0210
22915SOL    HW170186   7.387   6.882   7.676 -0.6521 -2.5580  0.1362
22915SOL    HW270187   7.375   6.954   7.544 -0.1930  1.2792  2.0458
22916SOL     OW70188   7.290   5.342   6.274 -0.7366  0.2142  0.7783
22916SOL    HW170189   7.313   5.434   6.283 -1.2009  0.5051 -0.7718
22916SOL    HW270190   7.352   5.296   6.331  2.3940  1.1262 -1.6152
22917SOL     OW70191   1.087   2.275   7.611  0.2306 -0.0985  0.5233
22917SOL    HW170192   1.143   2.336   7.564 -0.3480  0.6978  0.8411
22917SOL    HW270193   1.083   2.197   7.556  3.2959 -1.0214  1.4017
22918SOL     OW70194   6.417   5.620   8.361  0.0257  0.8303  0.3207
22918SOL    HW170195   6.376   5.540   8.393  1.8354  0.4161  1.7834
22918SOL    HW270196   6.408   5.683   8.433  3.1501  0.2504  1.3552
22919SOL     OW70197   6.237   7.074   9.699  0.5172  0.1933  0.2691
22919SOL    HW170198   6.323   7.049   9.734 -0.6491 -1.4194  2.1979
22919SOL    HW270199   6.220   7.009   9.630  0.4257 -0.1101  0.5752
22920SOL     OW70200   7.544   6.153   8.742 -0.3602  0.1579 -0.4073
22920SOL    HW170201   7.450   6.151   8.760 -0.6231 -0.7869 -1.6927
22920SOL    HW270202   7.582   6.201   8.815 -1.5330 -1.7678  1.5966
22921SOL     OW70203   7.120   6.590   7.897 -0.1108 -0.2945 -0.0729
22921SOL    HW170204   7.084   6.608   7.810 -0.6558  0.0222  0.2107
22921SOL    HW270205   7.058   6.633   7.957  1.2145  1.0626  0.3868
22922SOL     OW70206   6.133   4.846   8.698 -0.4775 -0.0297 -0.3354
22922SOL    HW170207   6.143   4.842   8.603  1.1072  0.3803 -0.2075
22922SOL    HW270208   6.215   4.812   8.733 -0.8802  0.1951  0.8967
22923SOL     OW70209   7.431   7.496   7.670 -0.2333 -0.1146 -0.3057
22923SOL    HW170210   7.419   7.402   7.654 -0.2648  0.0259 -1.1893
22923SOL    HW270211   7.484   7.526   7.595 -0.8890  0.7178 -0.4554
22924SOL     OW70212   4.888   6.241   7.622  0.1820 -0.0259  0.2283
22924SOL    HW170213   4.889   6.146   7.616 -0.2475  0.0100 -0.4738
22924SOL    HW270214   4.892   6.259   7.716 -1.2488 -0.7602  0.4527
22925SOL     OW70215   5.520   5.694  10.303 -0.0523  0.0457  0.3204
22925SOL    HW170216   5.587   5.635  10.270 -0.2090  1.0435 -1.9828
22925SOL    HW270217   5.567   5.755  10.360  0.5717 -0.6065  0.5120
22926SOL     OW70218   7.029   5.714   6.445 -0.2126 -0.7652 -0.0051
22926SOL    HW170219   6.957   5.745   6.499 -0.0497  0.1169 -0.2679
22926SOL    HW270220   7.106   5.716   6.503  0.0199  0.4684 -0.3268
22927SOL     OW70221   5.461   5.697   9.735 -0.8075 -0.1126  0.2557
22927SOL    HW170222   5.459   5.703   9.639  1.2346  1.0331  0.2299
22927SOL    HW270223   5.395   5.631   9.756 -0.8119 -0.9164 -1.9798
22928SOL     OW70224   5.247   7.850   9.536  0.0205  0.1196 -0.4344
22928SOL    HW170225   5.160   7.883   9.561  0.0870 -0.9955  1.4716
22928SOL    HW270226   5.252   7.866   9.442 -2.4732 -0.2762 -0.7120
22929SOL     OW70227   5.308   5.323   7.757 -1.3788  0.7984 -0.0133
22929SOL    HW170228   5.316   5.227   7.758 -1.4546  0.7897 -0.1804
22929SOL    HW270229   5.226   5.340   7.802 -0.9903  0.8277  0.7004
22930SOL     OW70230   7.163   0.515   7.707 -0.3499  0.3134  0.3117
22930SOL    HW170231   7.200   0.530   7.620 -0.2508  0.2565  0.3435
22930SOL    HW270232   7.080   0.564   7.708  0.5027  1.7966  0.8176
22931SOL     OW70233   7.422   1.241   8.605 -0.0483  0.3193  0.3316
22931SOL    HW170234   7.512   1.260   8.580  0.1409  1.2477  1.6002
22931SOL    HW270235   7.401   1.307   8.671 -1.1424 -0.8089  1.1620
22932SOL     OW70236   7.099   4.798   7.397  0.2074 -0.0306 -0.3541
22932SOL    HW170237   7.005   4.781   7.396  0.0050  0.9930 -0.3997
22932SOL    HW270238   7.111   4.868   7.332  0.5050  2.1362  1.8612
22933SOL     OW70239   5.042   6.591   8.163 -0.1450  0.0642 -0.4509
22933SOL    HW170240   5.092   6.612   8.084 -0.1672  1.3210 -0.1582
22933SOL    HW270241   4.995   6.673   8.183 -1.3052 -0.6887  0.0126
22934SOL     OW70242   5.387   5.076   7.499 -0.2437  0.0391 -0.4348
22934SOL    HW170243   5.384   5.041   7.588 -1.4131  1.0166 -0.0697
22934SOL    HW270244   5.308   5.041   7.458 -1.3295  2.0143 -0.1260
22935SOL     OW70245   6.091   5.178   7.874  0.1604  0.2885 -0.3311
22935SOL    HW170246   6.181   5.207   7.860  0.3416 -0.6752 -1.2819
22935SOL    HW270247   6.052   5.179   7.787 -0.8317  0.8953  0.0960
22936SOL     OW70248   6.004   6.806   8.202  0.1643 -0.0070 -0.0089
22936SOL    HW170249   5.972   6.872   8.264  0.5685  0.1387  0.0448
22936SOL    HW270250   6.043   6.857   8.131  2.6474 -0.1668  1.1432
22937SOL     OW70251   5.820   5.471   9.170  0.3100 -0.2711 -0.1999
22937SOL    HW170252   5.890   5.517   9.125 -0.2187  0.1388 -0.6226
22937SOL    HW270253   5.748   5.534   9.173  0.6829  0.1506  2.2512
22938SOL     OW70254   0.970   4.597   9.058  0.5551 -1.0620  0.4111
22938SOL    HW170255   0.996   4.690   9.054  0.2662 -1.0235 -2.5435
22938SOL    HW270256   1.050   4.552   9.085  0.9935 -0.0533  0.8835
22939SOL     OW70257   6.769   7.613  10.154 -0.0100  0.1138  0.3285
22939SOL    HW170258   6.708   7.658  10.096 -1.6157  0.5055  2.2137
22939SOL    HW270259   6.739   7.523  10.156  1.9092 -0.6720 -1.7502
22940SOL     OW70260   0.532   6.462   6.971  0.0175 -0.3361  0.3063
22940SOL    HW170261   0.517   6.556   6.970  0.1247 -0.3014  1.2736
22940SOL    HW270262   0.445   6.423   6.966  0.0163 -0.2058 -0.9700
22941SOL     OW70263   6.445   5.961  10.971  0.1833 -0.6756 -0.3242
22941SOL    HW170264   6.397   5.927  10.895 -1.8503  3.2439 -1.0549
22941SOL    HW270265   6.385   5.948  11.045  0.3725 -0.7179 -0.1775
22942SOL     OW70266   5.400   6.222   9.838 -0.0133  0.0081 -0.1198
22942SOL    HW170267   5.491   6.235   9.865 -0.3796  0.0652  1.1391
22942SOL    HW270268   5.390   6.127   9.832  0.0275 -0.0084  0.0913
22943SOL     OW70269   6.374   6.171   8.465  0.1338 -0.3086 -0.4366
22943SOL    HW170270   6.282   6.170   8.492  0.2204  0.7764 -0.0557
22943SOL    HW270271   6.379   6.108   8.393 -0.5379 -1.7298  0.7011
22944SOL     OW70272   6.202   5.337   9.650  0.2815 -0.2815 -0.3315
22944SOL    HW170273   6.119   5.304   9.684 -0.2649  1.0554 -0.3029
22944SOL    HW270274   6.254   5.354   9.728  0.7702 -1.5054 -0.3612
22945SOL     OW70275   5.990   6.567   8.089 -0.6784  0.1767  0.5505
22945SOL    HW170276   5.995   6.655   8.125 -0.1712  0.6000 -0.5240
22945SOL    HW270277   5.969   6.579   7.997  0.3471 -0.7583  0.1638
22946SOL     OW70278   7.340   6.502   7.272  0.0566 -0.6713  0.0488
22946SOL    HW170279   7.385   6.448   7.337  1.5618  1.3742  0.7856
22946SOL    HW270280   7.324   6.585   7.316  0.9091  0.7082 -2.0987
22947SOL     OW70281   4.979   6.248  10.521  0.5439 -0.8266  0.0290
22947SOL    HW170282   4.985   6.208  10.608  0.7121 -2.6334 -0.7613
22947SOL    HW270283   5.064   6.231  10.481  0.9291  1.1021 -0.0808
22948SOL     OW70284   6.165   6.591   9.439  0.0872 -0.3412  0.0322
22948SOL    HW170285   6.157   6.501   9.471  2.0114 -0.2911  0.7629
22948SOL    HW270286   6.255   6.598   9.408 -0.1959  1.1914 -0.5453
22949SOL     OW70287   7.926   0.022   9.307 -0.0186 -0.4836  0.1653
22949SOL    HW170288   7.987  -0.002   9.237 -0.1205  0.0486 -0.1092
22949SOL    HW270289   7.852   0.062   9.261  0.6562  1.4146  0.6824
22950SOL     OW70290   5.770   6.128   8.900 -0.5829 -0.3792 -0.1373
22950SOL    HW170291   5.678   6.136   8.922 -0.2228  1.6115  0.8142
22950SOL    HW270292   5.816   6.176   8.969  1.1138 -0.6495 -1.0242
22951SOL     OW70293   6.786   6.602   8.372  0.4862 -0.0569 -0.2672
22951SOL    HW170294   6.829   6.519   8.390  1.6670  0.0628 -2.2300
22951SOL    HW270295   6.790   6.650   8.455  2.8212 -0.6726  0.0540
22952SOL     OW70296   0.198   0.289   7.603  0.1501  0.0359  0.1357
22952SOL    HW170297   0.142   0.350   7.651 -0.1636 -0.1618  0.0217
22952SOL    HW270298   0.217   0.333   7.520 -0.4159 -0.1910 -0.1209
22953SOL     OW70299   6.603   0.682   7.526  0.1083 -0.2711 -0.0309
22953SOL    HW170300   6.539   0.647   7.588  1.5871 -0.3460  1.5316
22953SOL    HW270301   6.581   0.775   7.518 -0.4189 -0.3765  0.1870
22954SOL     OW70302   6.490   5.989  10.011 -0.1359  0.7774 -0.4069
22954SOL    HW170303   6.446   5.951   9.935 -0.9666  1.0254 -0.0668
22954SOL    HW270304   6.524   6.073   9.980  0.0589  0.6024 -0.6644
22955SOL     OW70305   5.189   6.889   7.194  0.0370  0.0766  0.1344
22955SOL    HW170306   5.262   6.917   7.248 -0.2150  2.5235 -0.6629
22955SOL    HW270307   5.156   6.969   7.154 -3.4998 -0.7860  0.9360
22956SOL     OW70308   5.130   4.970   9.415 -0.5535 -0.3394 -0.0822
22956SOL    HW170309   5.078   4.943   9.339  1.3587 -1.0096 -1.2316
22956SOL    HW270310   5.217   4.935   9.398  0.0159 -0.2990  2.3341
22957SOL     OW70311   5.825   4.873   9.178 -0.0653 -0.2039 -0.3067
22957SOL    HW170312   5.871   4.957   9.185 -1.4603  0.5697 -0.0883
22957SOL    HW270313   5.849   4.840   9.091  0.2688  0.5663 -0.5187
22958SOL     OW70314   5.623   6.889   6.430  0.4682 -0.1169 -0.1471
22958SOL    HW170315   5.676   6.964   6.402  0.1196 -0.5117 -2.0000
22958SOL    HW270316   5.682   6.814   6.424  0.2353 -0.2852 -0.3520
22959SOL     OW70317   6.370   7.852   8.218  0.0256  0.6859  0.1036
22959SOL    HW170318   6.361   7.938   8.177  1.8017  0.8300 -0.0714
22959SOL    HW270319   6.456   7.854   8.259  0.4045 -1.2539 -0.4948
22960SOL     OW70320   5.999   1.300   7.674  0.3275 -0.3660 -0.1740
22960SOL    HW170321   6.076   1.355   7.661  0.5591 -0.7919 -0.6346
22960SOL    HW270322   5.935   1.333   7.611  0.7919 -1.2101 -1.1212
22961SOL     OW70323   4.183   5.504   7.010  0.5497  0.2987  0.5515
22961SOL    HW170324   4.099   5.465   6.986  0.5380  0.0776  0.9466
22961SOL    HW270325   4.204   5.466   7.095  1.4733 -0.3313  0.0615
22962SOL     OW70326   7.119   4.944   6.960  0.1106 -0.5402 -0.1529
22962SOL    HW170327   7.215   4.950   6.952  0.0926 -0.3663 -0.2470
22962SOL    HW270328   7.088   5.030   6.930 -0.0861 -0.6588 -0.2845
22963SOL     OW70329   6.929   6.782   8.762  0.3708  0.0576 -0.6679
22963SOL    HW170330   6.921   6.873   8.791  0.2831 -0.1974  0.1440
22963SOL    HW270331   7.010   6.779   8.712  1.6992  0.0830  1.3658
22964SOL     OW70332   5.810   5.453   9.601  0.0462  0.1845  0.5735
22964SOL    HW170333   5.848   5.368   9.621 -0.4805 -0.2102 -0.0434
22964SOL    HW270334   5.882   5.503   9.561  0.3781  0.0634  1.0164
22965SOL     OW70335   5.656   5.731   7.366 -0.1834  0.2949  0.9955
22965SOL    HW170336   5.741   5.736   7.410  1.8514  0.5245 -2.6046
22965SOL    HW270337   5.650   5.812   7.316 -1.0860 -0.9852 -1.1082
22966SOL     OW70338   5.553   5.042   9.743  0.1268 -0.0630 -0.1099
22966SOL    HW170339   5.537   4.954   9.710 -1.0024 -0.6269  1.7879
22966SOL    HW270340   5.649   5.051   9.742  0.3181 -1.7055  0.5542
22967SOL     OW70341   4.872   6.883  10.497 -0.1009 -0.2393  0.0227
22967SOL    HW170342   4.817   6.821  10.449 -0.5525  1.5289 -1.8476
22967SOL    HW270343   4.810   6.939  10.544  0.2191 -0.0450  0.2151
22968SOL     OW70344   7.374   5.846   7.603  0.2124  0.3024 -0.0691
22968SOL    HW170345   7.396   5.897   7.682  1.1310 -2.7583  1.8247
22968SOL    HW270346   7.392   5.756   7.627  0.1362 -0.8537 -3.7276
22969SOL     OW70347   5.907   7.157   8.705  0.4554 -0.6102 -0.1258
22969SOL    HW170348   5.841   7.104   8.660  0.6772 -1.2035  0.2304
22969SOL    HW270349   5.875   7.246   8.699 -0.9225 -1.0075  0.9741
22970SOL     OW70350   6.479   6.958   7.768  0.1300 -0.1447  0.4438
22970SOL    HW170351   6.544   6.946   7.838  0.9941  1.9555  0.0962
22970SOL    HW270352   6.451   7.049   7.777 -0.6066 -0.1695 -1.2269
22971SOL     OW70353   6.325   6.370   8.125  0.0850 -0.1540  0.1485
22971SOL    HW170354   6.254   6.359   8.188 -0.2090  0.5031 -0.0532
22971SOL    HW270355   6.383   6.296   8.140  0.6119  0.5701  1.9818
22972SOL     OW70356   6.414   7.327   8.689 -0.7675  0.5197 -0.3298
22972SOL    HW170357   6.326   7.295   8.671  0.2692 -1.6826 -2.1225
22972SOL    HW270358   6.470   7.273   8.633  1.6719  2.2463  0.2898
22973SOL     OW70359   7.023   3.999   7.368 -0.1671 -0.1466  0.6288
22973SOL    HW170360   7.079   4.064   7.326 -1.3111 -0.0841 -0.8829
22973SOL    HW270361   6.936   4.013   7.329 -0.3638 -2.8131 -0.0634
22974SOL     OW70362   0.093   6.080   7.527  0.3434  0.9616  0.0161
22974SOL    HW170363   0.072   6.033   7.446 -0.9410  0.0412  0.8371
22974SOL    HW270364   0.179   6.048   7.552  0.4701  0.7743 -0.6398
22975SOL     OW70365   7.396   1.499   9.553  0.2496  0.2900 -0.1087
22975SOL    HW170366   7.310   1.513   9.515  0.0117 -0.0178  0.3105
22975SOL    HW270367   7.381   1.438   9.625  0.6984  0.7899  0.4198
22976SOL     OW70368   6.254   6.266   9.648  0.2913 -0.3965 -0.3197
22976SOL    HW170369   6.230   6.189   9.597 -0.3777 -0.1637 -0.3688
22976SOL    HW270370   6.192   6.267   9.722  2.3036 -1.6916  1.5061
22977SOL     OW70371   6.240   6.159  10.603 -0.1186 -0.2369 -0.2810
22977SOL    HW170372   6.269   6.077  10.642  2.0406  0.8651  0.6232
22977SOL    HW270373   6.187   6.133  10.528  0.1780 -2.4351  0.2157
22978SOL     OW70374   5.713   4.557   8.000 -0.1957  0.7513  0.3839
22978SOL    HW170375   5.723   4.487   8.065  0.0690  2.5009  2.3599
22978SOL    HW270376   5.802   4.572   7.967 -0.3679 -0.3093 -0.6248
22979SOL     OW70377   0.492   7.876   8.072  0.0481  0.0857  0.1563
22979SOL    HW170378   0.475   7.936   8.145  2.1030 -2.1348  2.6887
22979SOL    HW270379   0.444   7.797   8.094  1.2252 -0.8559 -0.5526
22980SOL     OW70380   6.423   7.622   8.599  0.0918  0.0502 -0.2853
22980SOL    HW170381   6.446   7.530   8.588 -1.0032 -0.5314  1.7431
22980SOL    HW270382   6.355   7.639   8.533  0.2339 -0.6201 -0.6047
22981SOL     OW70383   6.386   0.343   7.424  0.1747  0.1966  0.6058
22981SOL    HW170384   6.323   0.402   7.465  0.2608  0.7669 -0.0635
22981SOL    HW270385   6.359   0.337   7.332  1.2638  0.7079  0.2302
22982SOL     OW70386   4.912   7.080  10.281  0.1772  0.0979 -0.2568
22982SOL    HW170387   4.843   7.063  10.217  1.2236 -0.4068 -1.2979
22982SOL    HW270388   4.930   6.994  10.319 -0.0847  0.3083  0.3407
22983SOL     OW70389   6.194   7.306   9.165  0.0095 -0.1884  0.0615
22983SOL    HW170390   6.282   7.311   9.128  0.4782  0.6637  1.2409
22983SOL    HW270391   6.169   7.215   9.155  0.9154 -0.3870 -0.5255
22984SOL     OW70392   7.930   0.004   8.440 -0.3661 -0.3124 -0.7457
22984SOL    HW170393   7.907  -0.088   8.429  1.1436 -0.8575  0.3390
22984SOL    HW270394   7.847   0.050   8.431 -1.2717 -1.8331 -0.5747
22985SOL     OW70395   7.962   6.828   8.289 -0.1750  0.1245  0.0813
22985SOL    HW170396   7.958   6.757   8.225 -0.9716  0.6227 -0.4412
22985SOL    HW270397   8.034   6.804   8.347 -0.4684 -1.1466 -0.0403
22986SOL     OW70398   5.046   6.438   8.767  0.2412 -0.0677 -0.0871
22986SOL    HW170399   5.022   6.375   8.699  0.5167 -0.4786  0.1869
22986SOL    HW270400   4.975   6.502   8.767  0.6975  0.4880 -1.4129
22987SOL     OW70401   6.650   6.817   7.920 -0.3265 -0.5610  0.4708
22987SOL    HW170402   6.684   6.771   7.997 -0.3975 -1.4144  0.0027
22987SOL    HW270403   6.631   6.748   7.857  0.2008  0.1711 -0.5122
22988SOL     OW70404   4.715   6.283   8.071  0.4481  0.2213 -0.2276
22988SOL    HW170405   4.637   6.327   8.036  0.7044  0.6059 -0.3154
22988SOL    HW270406   4.691   6.190   8.073 -1.6880  0.6294  3.8575
22989SOL     OW70407   0.189   5.435   8.168  0.2345  0.2056 -0.1319
22989SOL    HW170408   0.146   5.518   8.143  0.3562  0.1502 -0.5430
22989SOL    HW270409   0.212   5.447   8.260  2.3835  1.5793 -0.7621
22990SOL     OW70410   0.089   7.925   7.038  0.0443 -0.3165 -0.2654
22990SOL    HW170411   0.058   7.981   7.110  2.7296 -0.9276  1.5118
22990SOL    HW270412   0.100   7.985   6.964 -0.9678  0.7076  0.3732
22991SOL     OW70413   4.329   6.398   9.948 -0.2663  0.4275  0.0003
22991SOL    HW170414   4.334   6.312   9.988 -2.4574 -0.1865 -0.9310
22991SOL    HW270415   4.287   6.453  10.014 -3.0111 -0.3611 -0.9593
22992SOL     OW70416   5.945   0.125   9.002 -0.1056 -0.6854 -0.0843
22992SOL    HW170417   5.954   0.192   8.934  1.8712 -1.3080 -0.5045
22992SOL    HW270418   6.014   0.061   8.982  0.6279 -0.8374  2.5725
22993SOL     OW70419   7.548   7.638   8.184  0.1716  0.0568  0.4686
22993SOL    HW170420   7.493   7.586   8.126 -0.9879  1.2265  0.4768
22993SOL    HW270421   7.638   7.619   8.155 -0.3576  1.5409 -2.6121
22994SOL     OW70422   6.227   6.765   7.916 -0.1004  0.4377  0.0116
22994SOL    HW170423   6.275   6.714   7.982  0.1630  0.7474  0.0601
22994SOL    HW270424   6.197   6.842   7.964 -0.3227  0.4270 -0.1136
22995SOL     OW70425   1.150   5.664   8.469 -0.3241 -0.2462  0.5706
22995SOL    HW170426   1.114   5.637   8.553  2.3928 -0.0571  1.8900
22995SOL    HW270427   1.126   5.757   8.461 -1.4961 -0.5289  0.5758
22996SOL     OW70428   3.968   0.162   6.872  0.0560  0.3158 -0.6598
22996SOL    HW170429   3.884   0.203   6.851  0.3944  0.4575 -1.7609
22996SOL    HW270430   4.005   0.137   6.788  0.9778 -0.0369 -0.1635
22997SOL     OW70431   6.307   6.611  10.029  0.2305 -0.2967  0.8936
22997SOL    HW170432   6.225   6.647   9.994  1.7852  0.5147 -2.2548
22997SOL    HW270433   6.366   6.686  10.035  1.4821 -1.2403  0.8188
22998SOL     OW70434   5.704   5.757   9.191  0.5200 -0.5367  0.1954
22998SOL    HW170435   5.756   5.753   9.271  0.1603 -0.7303  0.4232
22998SOL    HW270436   5.618   5.723   9.217  0.0452  0.4852  0.0170
22999SOL     OW70437   6.036   5.665   8.236 -0.5159  0.0804  0.8276
22999SOL    HW170438   6.091   5.742   8.248  0.3843 -0.6403  1.5418
22999SOL    HW270439   6.052   5.612   8.315 -0.1163 -1.4184 -0.1978
23000SOL     OW70440   1.265   6.080   7.479  0.2450 -0.1328  0.3459
23000SOL    HW170441   1.314   6.014   7.430  0.9441  0.4268  0.2861
23000SOL    HW270442   1.258   6.043   7.567 -0.5011 -0.8704 -0.0107
23001SOL     OW70443   6.899   7.685   7.889 -0.1178  0.0225 -0.4963
23001SOL    HW170444   6.841   7.729   7.952  0.9296 -0.0237  0.5329
23001SOL    HW270445   6.851   7.689   7.806 -1.1356  0.8989  0.1010
23002SOL     OW70446   6.920   7.494   6.140  0.3867 -0.3992 -0.0033
23002SOL    HW170447   7.012   7.512   6.154  0.1978  2.3161 -1.5286
23002SOL    HW270448   6.884   7.480   6.227  1.7391  1.5277  0.9355
23003SOL     OW70449   6.897   0.368   9.765 -0.0344  0.0825 -0.5273
23003SOL    HW170450   6.966   0.368   9.831  0.0306  0.6862 -0.5907
23003SOL    HW270451   6.871   0.276   9.757  0.1640 -0.0349  0.1211
23004SOL     OW70452   6.190   6.246   9.343  0.8323 -0.4187 -0.1804
23004SOL    HW170453   6.104   6.287   9.348  1.7868  1.6188  0.6603
23004SOL    HW270454   6.173   6.152   9.345 -1.3364 -0.0492  0.2038
23005SOL     OW70455   7.184   7.108   9.958  0.3632 -0.0172  0.6789
23005SOL    HW170456   7.144   7.154   9.885  0.3846 -0.7928  0.1621
23005SOL    HW270457   7.267   7.075   9.922  0.8364  0.4346  1.3430
23006SOL     OW70458   7.124   7.000   9.100  0.1328  0.2846 -0.1408
23006SOL    HW170459   7.158   6.912   9.117  0.2314  0.2327 -0.5944
23006SOL    HW270460   7.049   7.008   9.159  1.5767  0.8296  1.7206
23007SOL     OW70461   1.114   7.381  11.355  0.2306 -0.3971 -0.0243
23007SOL    HW170462   1.093   7.436  11.280 -0.5178 -0.9953 -0.2615
23007SOL    HW270463   1.184   7.324  11.324 -0.0871 -0.6521 -0.2769
23008SOL     OW70464   6.506   6.806   9.134 -0.1675  0.3089  0.2807
23008SOL    HW170465   6.453   6.877   9.099 -0.4795  0.4355  0.9761
23008SOL    HW270466   6.524   6.749   9.059 -0.2328  0.9185 -0.2048
23009SOL     OW70467   6.776   4.169   6.822 -0.1416 -0.0074 -0.1045
23009SOL    HW170468   6.805   4.260   6.829 -0.4043  0.0090  1.0769
23009SOL    HW270469   6.835   4.129   6.758  1.4226  0.4434  1.0077
23010SOL     OW70470   6.044   0.038   7.725 -0.5509 -0.6282 -0.1807
23010SOL    HW170471   6.120   0.094   7.711 -0.5091 -0.8363 -0.8044
23010SOL    HW270472   6.055   0.005   7.814 -0.0267 -0.4881 -0.1892
23011SOL     OW70473   0.136   6.844   9.628 -0.3672 -0.1176 -0.1768
23011SOL    HW170474   0.190   6.924   9.630 -0.8033  0.2037  2.4740
23011SOL    HW270475   0.139   6.811   9.718 -2.2959 -1.6668 -0.6191
23012SOL     OW70476   6.841   5.872   9.653 -0.4866 -0.4458 -0.1721
23012SOL    HW170477   6.834   5.854   9.559  0.3157 -0.7968 -0.1711
23012SOL    HW270478   6.932   5.849   9.675 -1.2082 -2.3474  1.1053
23013SOL     OW70479   7.686   7.857   8.629  0.2886 -0.3623 -0.1944
23013SOL    HW170480   7.606   7.834   8.581  0.9010 -1.2318 -0.8275
23013SOL    HW270481   7.754   7.802   8.589  1.0519 -0.1986  0.8530
23014SOL     OW70482   6.367   7.026   7.450 -0.1990 -0.2905 -0.2301
23014SOL    HW170483   6.341   6.958   7.388  1.6587 -1.3784  0.0901
23014SOL    HW270484   6.320   7.004   7.530 -1.4606  0.2452 -0.8027
23015SOL     OW70485   5.062   5.306   7.904 -0.2758  0.0018  0.0243
23015SOL    HW170486   5.052   5.214   7.879 -2.2955  0.0502  0.4331
23015SOL    HW270487   4.976   5.330   7.938  0.6679  1.6141  1.4001
23016SOL     OW70488   6.817   7.859   8.088  0.0751  0.0330  1.2060
23016SOL    HW170489   6.894   7.913   8.104  0.8355 -0.9285  0.9017
23016SOL    HW270490   6.752   7.918   8.050  1.5633  0.3418 -1.0231
23017SOL     OW70491   0.352   0.442   8.249 -0.1080  0.9655  0.0592
23017SOL    HW170492   0.358   0.499   8.325  1.7979 -0.4978  1.0811
23017SOL    HW270493   0.310   0.363   8.282  0.3532  0.4798 -0.4942
23018SOL     OW70494   5.582   4.140   9.033 -0.4085 -0.2005 -0.2600
23018SOL    HW170495   5.567   4.214   8.974  0.3707  1.0413  1.0072
23018SOL    HW270496   5.531   4.163   9.111  0.2191 -0.7669  0.3233
23019SOL     OW70497   5.461   6.552   7.871 -0.3295 -0.0072 -0.1592
23019SOL    HW170498   5.401   6.488   7.834  0.1122 -1.1460  1.0226
23019SOL    HW270499   5.526   6.500   7.918  0.8094  1.2496 -0.2653
23020SOL     OW70500   7.873   7.613   9.619  0.1477  0.5362 -0.5789
23020SOL    HW170501   7.793   7.658   9.647  1.2821  2.0672  0.3183
23020SOL    HW270502   7.910   7.670   9.551 -0.1315 -0.8052 -1.9162
23021SOL     OW70503   6.658   6.693   8.159  0.3013 -0.1661  0.0037
23021SOL    HW170504   6.622   6.768   8.206 -0.5783 -1.2453  1.1495
23021SOL    HW270505   6.684   6.632   8.228  3.9045  0.2599 -0.7819
23022SOL     OW70506   7.814   7.933   7.726  0.3969 -0.1119 -0.9920
23022SOL    HW170507   7.817   7.897   7.815  0.9374 -1.0645 -1.3844
23022SOL    HW270508   7.860   7.869   7.672 -0.0541  0.3845 -1.9962
23023SOL     OW70509   6.333   7.240   8.108  0.4624  0.5215 -0.5211
23023SOL    HW170510   6.296   7.320   8.145 -0.5876 -0.2043  0.0478
23023SOL    HW270511   6.427   7.247   8.124  0.1114  0.4740  1.8782
23024SOL     OW70512   6.741   4.418   7.862  0.4908  0.3373 -0.2480
23024SOL    HW170513   6.721   4.433   7.769 -4.0210  0.3683  0.4857
23024SOL    HW270514   6.798   4.491   7.886  3.8525 -0.9382 -3.3607
23025SOL     OW70515   6.844   6.740   9.681 -0.2806  0.8130  0.0589
23025SOL    HW170516   6.911   6.807   9.667 -0.5889  0.9475 -0.8100
23025SOL    HW270517   6.892   6.666   9.720  0.0826  1.4806  0.9210
23026SOL     OW70518   0.244   5.133   8.484  0.0125  0.2174  0.1195
23026SOL    HW170519   0.222   5.206   8.542 -1.2190  1.7050 -2.0639
23026SOL    HW270520   0.160   5.107   8.445  0.9725  0.7949 -2.6148
23027SOL     OW70521   5.706   5.277   7.606  0.6008 -0.1736 -0.5133
23027SOL    HW170522   5.661   5.270   7.522  1.1214 -1.4266 -0.7105
23027SOL    HW270523   5.711   5.187   7.639  1.0508  0.2091  0.5128
23028SOL     OW70524   6.636   6.926   8.364  0.3853 -0.3857 -0.0065
23028SOL    HW170525   6.660   6.886   8.448 -0.8861  0.6509  0.8846
23028SOL    HW270526   6.544   6.949   8.373  0.3109  0.0529 -1.5723
23029SOL     OW70527   5.359   7.684   8.380  0.4935 -0.4789  0.3710
23029SOL    HW170528   5.410   7.765   8.375 -0.0720 -0.1548 -0.2096
23029SOL    HW270529   5.370   7.644   8.294  0.6493 -0.9514  0.6056
23030SOL     OW70530   6.990   6.509   7.404  0.1933  0.2024  0.1914
23030SOL    HW170531   7.023   6.454   7.475 -0.9254  0.7276  1.1569
23030SOL    HW270532   6.934   6.573   7.448 -1.3923 -0.1083 -1.2698
23031SOL     OW70533   0.127   6.409   8.403  0.2904  0.0518  0.0801
23031SOL    HW170534   0.049   6.416   8.460 -1.6358  0.8673 -2.4723
23031SOL    HW270535   0.165   6.324   8.426  0.0904  0.6277  3.0395
23032SOL     OW70536   0.268   5.473   8.416  0.3587 -0.4785 -0.5876
23032SOL    HW170537   0.272   5.568   8.426 -0.8049 -0.4470 -0.2270
23032SOL    HW270538   0.256   5.440   8.505  2.0419 -1.0791 -0.5394
23033SOL     OW70539   5.461   6.255   8.990 -0.6259 -0.1425 -0.2877
23033SOL    HW170540   5.503   6.268   9.076 -0.7078 -2.0163  0.0808
23033SOL    HW270541   5.375   6.294   8.999 -0.9062 -0.9527  0.7640
23034SOL     OW70542   6.815   6.631   6.092 -0.0266  0.0476 -0.7098
23034SOL    HW170543   6.724   6.606   6.106 -0.4331  1.2258 -1.1084
23034SOL    HW270544   6.864   6.549   6.099 -0.8875 -0.3541  1.3355
23035SOL     OW70545   5.536   7.426  10.312 -0.2796 -0.0834 -0.3449
23035SOL    HW170546   5.571   7.353  10.261  0.7553 -0.3530  0.6937
23035SOL    HW270547   5.569   7.410  10.401  1.5387  2.5823 -0.4199
23036SOL     OW70548   5.605   5.623  12.304  0.2336 -0.3818 -0.0419
23036SOL    HW170549   5.601   5.666  12.389 -0.4899  1.7351 -1.0635
23036SOL    HW270550   5.650   5.686  12.247  1.9045 -2.2855 -0.9628
23037SOL     OW70551   4.680   5.900  10.479 -0.2739  0.0694  0.1463
23037SOL    HW170552   4.603   5.957  10.477  0.1916  0.7692  1.4811
23037SOL    HW270553   4.645   5.815  10.507 -0.5125  0.4959  1.1948
23038SOL     OW70554   5.287   6.794  11.032  0.0908 -0.7614  0.3226
23038SOL    HW170555   5.276   6.739  11.109  0.3588  0.6840  1.4274
23038SOL    HW270556   5.197   6.814  11.004 -0.0049 -1.5001  0.0817
23039SOL     OW70557   7.025   0.154   8.725  0.1611 -0.0640 -0.1445
23039SOL    HW170558   6.932   0.158   8.706 -0.2155  1.4044  1.7301
23039SOL    HW270559   7.056   0.076   8.678 -1.8355 -0.1615 -1.3828
23040SOL     OW70560   5.650   5.975   9.465 -0.0801  0.1000  0.0631
23040SOL    HW170561   5.696   5.892   9.470  0.5834  0.3093 -1.6045
23040SOL    HW270562   5.559   5.954   9.484  0.3457 -0.6847  1.3471
23041SOL     OW70563   0.309   5.175   7.818 -0.0024 -1.1048 -0.3941
23041SOL    HW170564   0.308   5.102   7.880  0.8417 -0.7539  0.0529
23041SOL    HW270565   0.376   5.234   7.852 -1.1779  0.2618 -0.3206
23042SOL     OW70566   5.263   6.370  10.693  0.0338  0.0584  0.1989
23042SOL    HW170567   5.253   6.286  10.648  0.8607  0.0991 -0.0883
23042SOL    HW270568   5.342   6.360  10.746  0.9945  1.0981 -0.9427
23043SOL     OW70569   5.318   5.508  10.384 -0.0978  0.3689 -0.1350
23043SOL    HW170570   5.277   5.563  10.451  0.7954  0.0222  0.7085
23043SOL    HW270571   5.397   5.555  10.358  0.1342 -0.0250 -0.1525
23044SOL     OW70572   4.432   6.858  10.792 -0.3684 -0.2937 -0.1668
23044SOL    HW170573   4.505   6.857  10.730  0.3477  0.9766  0.6227
23044SOL    HW270574   4.459   6.796  10.860  0.5618  1.0137  0.7180
23045SOL     OW70575   6.733   7.439  10.473 -0.1948 -0.1081 -0.0387
23045SOL    HW170576   6.801   7.428  10.407  0.2088  0.2264  0.3185
23045SOL    HW270577   6.651   7.429  10.424  0.1011 -0.3664 -0.4982
23046SOL     OW70578   4.927   5.593   8.778 -0.6636 -0.7456 -0.3161
23046SOL    HW170579   4.866   5.657   8.742 -0.1849 -0.7744 -1.2186
23046SOL    HW270580   4.959   5.545   8.702  1.3159 -0.0065 -0.0221
23047SOL     OW70581   7.428   0.322  12.313 -0.3852  0.2438 -0.3803
23047SOL    HW170582   7.385   0.375  12.245 -2.2301 -0.9014 -0.1901
23047SOL    HW270583   7.496   0.379  12.348 -1.1755  1.8684 -1.3422
23048SOL     OW70584   6.061   5.409   9.441  0.2238  0.5982 -0.3635
23048SOL    HW170585   6.135   5.415   9.502  0.2375  3.9701 -0.5069
23048SOL    HW270586   6.095   5.447   9.360  0.1333 -3.5602 -2.5944
23049SOL     OW70587   0.027   6.847  10.792  0.2754  0.0783 -0.6468
23049SOL    HW170588   0.057   6.863  10.702  1.0225  0.9540 -0.2544
23049SOL    HW270589  -0.069   6.848  10.785  0.3233  0.1406 -1.4405
23050SOL     OW70590   5.815   7.332  10.655  0.2399 -0.8518  0.0842
23050SOL    HW170591   5.841   7.359  10.567  1.0600 -1.3928  0.1504
23050SOL    HW270592   5.719   7.334  10.654  0.2538  0.7491 -0.3103
23051SOL     OW70593   5.804   7.276  10.997 -0.2167  0.1667  0.3768
23051SOL    HW170594   5.851   7.203  11.038  1.3223 -0.4065 -2.2157
23051SOL    HW270595   5.716   7.241  10.982  0.2297 -0.8537 -0.0027
23052SOL     OW70596   5.429   5.924   9.848 -0.2122  0.0649 -0.4164
23052SOL    HW170597   5.435   5.898   9.940 -1.3046  1.4553  0.0852
23052SOL    HW270598   5.421   5.841   9.801 -0.8072 -0.6408  0.8596
23053SOL     OW70599   5.913   7.333  11.345  0.0269  0.7681  0.2002
23053SOL    HW170600   5.977   7.303  11.280  0.4729  0.8523  0.5960
23053SOL    HW270601   5.964   7.346  11.424 -0.6335 -0.0723  0.7872
23054SOL     OW70602   6.154   7.164  10.053 -0.0780  0.1961 -0.0024
23054SOL    HW170603   6.219   7.155  10.122  0.2752  0.7614 -0.2482
23054SOL    HW270604   6.089   7.097  10.072  0.7067 -0.5581  0.1002
23055SOL     OW70605   6.030   6.606   8.412 -0.2680 -0.6209  0.1499
23055SOL    HW170606   6.095   6.542   8.381  1.0506 -0.6417  2.6507
23055SOL    HW270607   6.026   6.672   8.343  3.2158 -0.1175  0.2263
23056SOL     OW70608   6.550   6.916  10.510 -0.1127  0.3250  0.0054
23056SOL    HW170609   6.641   6.898  10.532  0.5083  2.7223 -0.4279
23056SOL    HW270610   6.528   6.849  10.445  1.6717  0.3422 -0.6680
23057SOL     OW70611   5.248   5.268  10.473 -0.1096  0.5727  0.8250
23057SOL    HW170612   5.258   5.358  10.443 -1.6265  0.7467  0.7696
23057SOL    HW270613   5.196   5.226  10.404  1.4114 -0.6330  0.3603
23058SOL     OW70614   5.592   5.490  10.044 -0.2164  0.7963 -0.4886
23058SOL    HW170615   5.572   5.460   9.956 -1.6728  1.7831 -0.5374
23058SOL    HW270616   5.641   5.570  10.032  3.1023 -1.0431 -0.3558
23059SOL     OW70617   4.543   0.076   9.891 -0.2938  0.9733  0.1854
23059SOL    HW170618   4.486   0.008   9.855  0.3145 -0.0300  1.0627
23059SOL    HW270619   4.585   0.116   9.814  0.5901 -0.7733 -0.2883
23060SOL     OW70620   7.263   6.564  11.213  0.0130 -0.0105  0.2532
23060SOL    HW170621   7.276   6.548  11.120  2.0616 -0.1128  0.5015
23060SOL    HW270622   7.249   6.478  11.251 -0.5833  0.0079  0.0838
23061SOL     OW70623   6.131   5.598   8.500 -0.1856  0.4274  0.6480
23061SOL    HW170624   6.219   5.617   8.530  0.9070  1.9021 -2.9337
23061SOL    HW270625   6.131   5.505   8.480 -0.5049 -0.2565  3.4829
23062SOL     OW70626   5.854   6.238  11.960 -0.1707  0.1039  0.1590
23062SOL    HW170627   5.913   6.293  12.012  0.8187 -0.8442  0.0821
23062SOL    HW270628   5.896   6.152  11.960 -0.4755 -0.0780 -1.6860
23063SOL     OW70629   5.298   5.801  11.307 -0.6080 -0.2109  0.2256
23063SOL    HW170630   5.238   5.804  11.382 -1.2345 -0.2638 -0.2579
23063SOL    HW270631   5.257   5.860  11.243  1.4611  2.2629  1.0211
23064SOL     OW70632   6.841   6.331   8.442 -0.0498 -0.2320 -0.5491
23064SOL    HW170633   6.782   6.268   8.402 -2.3407  1.0090  0.6844
23064SOL    HW270634   6.929   6.302   8.416 -1.1896 -1.6726 -3.1581
23065SOL     OW70635   0.215   6.837   9.893 -0.0602  0.7177 -0.7714
23065SOL    HW170636   0.289   6.797   9.846 -1.1476  1.3008 -3.0984
23065SOL    HW270637   0.194   6.774   9.962  2.6339  0.5822  0.0635
23066SOL     OW70638   4.540   6.031   9.534 -0.2968  0.0567  0.2650
23066SOL    HW170639   4.456   5.998   9.566 -0.1606  0.5347  1.1267
23066SOL    HW270640   4.536   6.019   9.439 -0.9528 -0.8083  0.3907
23067SOL     OW70641   7.708   7.862  10.354 -0.5217 -0.1430  0.2978
23067SOL    HW170642   7.685   7.791  10.414  0.8792  0.8992  2.1846
23067SOL    HW270643   7.637   7.925  10.363 -0.0442  0.2693  1.3522
23068SOL     OW70644   7.121   7.958   8.565  0.6849  0.2670 -0.8904
23068SOL    HW170645   7.192   8.017   8.542  2.3819 -1.6120 -0.7954
23068SOL    HW270646   7.164   7.874   8.581 -1.3098 -0.4709  1.2530
23069SOL     OW70647   7.539   7.469  11.090  0.0530  0.2141  0.4615
23069SOL    HW170648   7.629   7.439  11.079  0.1478  0.5525  0.3161
23069SOL    HW270649   7.488   7.389  11.103  0.0663 -0.1468 -1.4315
23070SOL     OW70650   7.498   7.140  10.609 -0.2059  0.0218 -0.0670
23070SOL    HW170651   7.495   7.046  10.594  0.8953  0.0488 -0.5510
23070SOL    HW270652   7.409   7.171  10.590 -0.3197 -0.7712 -0.8850
23071SOL     OW70653   8.000   7.151  10.698  0.3255 -0.2678 -0.3064
23071SOL    HW170654   8.036   7.121  10.782  0.8406 -0.3861 -0.5647
23071SOL    HW270655   7.906   7.160  10.715  0.4489 -0.0994  0.3391
23072SOL     OW70656   3.672   5.726   9.519  0.3322 -0.5381  0.5617
23072SOL    HW170657   3.624   5.712   9.600  0.5885  0.9267  1.0148
23072SOL    HW270658   3.728   5.802   9.538 -1.2429  1.3251 -1.6428
23073SOL     OW70659   6.684   6.179  11.748 -0.0400 -0.9861  0.6778
23073SOL    HW170660   6.697   6.263  11.703  2.0355 -1.3155  0.5308
23073SOL    HW270661   6.631   6.201  11.824 -0.0823  0.3539  0.2963
23074SOL     OW70662   6.741   0.889   9.815 -0.1897  0.1939 -0.1521
23074SOL    HW170663   6.705   0.804   9.791  1.4600 -0.4725 -0.4135
23074SOL    HW270664   6.689   0.953   9.766 -0.0001 -0.8235 -1.7372
23075SOL     OW70665   6.809   6.683  10.848 -0.1751 -0.2963 -0.2531
23075SOL    HW170666   6.715   6.702  10.844 -0.5112 -1.8395 -0.5115
23075SOL    HW270667   6.819   6.629  10.926  0.3070 -1.0487 -0.8191
23076SOL     OW70668   6.384   5.982   9.754  0.0168 -0.6499 -0.0521
23076SOL    HW170669   6.298   6.002   9.717  0.1588  0.6776  0.2736
23076SOL    HW270670   6.447   6.016   9.690  0.2734  2.7869  1.7829
23077SOL     OW70671   5.103   7.659  10.042 -0.3127 -0.6866  0.6106
23077SOL    HW170672   5.169   7.607  10.089 -0.4976  0.0747  1.7582
23077SOL    HW270673   5.020   7.639  10.086 -0.4797  0.0995  0.6782
23078SOL     OW70674   7.361   3.233  11.491  0.0342 -0.1470 -0.0524
23078SOL    HW170675   7.341   3.297  11.422 -1.0026  1.8560  1.9766
23078SOL    HW270676   7.318   3.153  11.462 -1.8283  1.1112 -0.9754
23079SOL     OW70677   4.094   6.656  11.265 -0.2890 -0.3258  0.9665
23079SOL    HW170678   4.068   6.702  11.185  1.4481 -1.1974 -0.1529
23079SOL    HW270679   4.105   6.725  11.330 -1.8013  0.3904  0.5139
23080SOL     OW70680   4.699   6.226  10.102  0.6813 -0.2052 -0.4700
23080SOL    HW170681   4.750   6.280  10.043  1.2479 -0.6339 -0.3829
23080SOL    HW270682   4.738   6.138  10.095  0.3366 -0.4079  0.0348
23081SOL     OW70683   6.611   7.307   8.171 -0.1370  0.4844  0.2092
23081SOL    HW170684   6.594   7.386   8.223 -1.0865 -0.2036  0.9782
23081SOL    HW270685   6.655   7.247   8.231  3.1005  1.3461 -1.0950
23082SOL     OW70686   5.797   5.724   9.446 -0.1329  0.0306  0.1202
23082SOL    HW170687   5.785   5.629   9.450  1.4250 -0.1288  2.0950
23082SOL    HW270688   5.875   5.741   9.497 -0.7437  2.4776  0.3633
23083SOL     OW70689   7.159   4.602  10.705  0.5930  0.1129  0.2007
23083SOL    HW170690   7.215   4.547  10.759  0.0992  0.4304  1.0641
23083SOL    HW270691   7.219   4.656  10.654  1.2081 -2.9480 -2.6769
23084SOL     OW70692   7.388   6.546  10.531  0.3482 -0.1840 -0.2291
23084SOL    HW170693   7.439   6.486  10.477 -2.0317 -1.0672 -1.6524
23084SOL    HW270694   7.368   6.495  10.610 -0.8957 -1.0109 -1.0376
23085SOL     OW70695   4.595   4.905   9.237 -0.2694  0.4507 -0.0449
23085SOL    HW170696   4.564   4.840   9.174 -2.1461 -1.7447  2.9030
23085SOL    HW270697   4.535   4.898   9.311  1.4089  3.3355  1.7903
23086SOL     OW70698   4.395   5.905   8.761 -0.6106 -0.0571  0.4230
23086SOL    HW170699   4.444   5.882   8.682  1.6751  0.9931  1.4193
23086SOL    HW270700   4.332   5.971   8.732 -0.0021  0.1008 -0.5932
23087SOL     OW70701   5.262   7.422  10.658 -0.4819  0.0854  0.4852
23087SOL    HW170702   5.195   7.387  10.716 -1.1618  1.9128  0.8847
23087SOL    HW270703   5.223   7.419  10.571 -0.9333  0.7366  0.6580
23088SOL     OW70704   0.207   6.167   8.560 -0.1292  0.1821 -0.2585
23088SOL    HW170705   0.215   6.163   8.655  1.6053 -0.6272 -0.3915
23088SOL    HW270706   0.272   6.104   8.528  0.6571  1.7762 -2.0077
23089SOL     OW70707   6.107   0.356  10.911  0.1687 -0.4045  0.1108
23089SOL    HW170708   6.016   0.334  10.892  0.7762 -1.2569 -2.2210
23089SOL    HW270709   6.106   0.450  10.924 -1.0215 -0.3616 -0.1213
23090SOL     OW70710   3.409   6.610   9.918  0.6871 -0.1795  0.6842
23090SOL    HW170711   3.477   6.676   9.901  2.1360 -2.1193 -1.6190
23090SOL    HW270712   3.326   6.658   9.909  1.6890  1.6925  0.9768
23091SOL     OW70713   0.195   6.262   9.438  0.0065  0.0444  0.1166
23091SOL    HW170714   0.176   6.337   9.382 -2.3333 -0.3254  0.3256
23091SOL    HW270715   0.291   6.261   9.444  0.3420  0.6114 -3.1266
23092SOL     OW70716   5.351   7.097  10.269 -0.3337 -0.3076 -0.1876
23092SOL    HW170717   5.429   7.129  10.225  1.3784 -0.5780  2.4008
23092SOL    HW270718   5.278   7.125  10.213  1.4185  2.4109 -1.3178
23093SOL     OW70719   4.506   6.741  10.173  0.4771 -0.5653 -0.0420
23093SOL    HW170720   4.559   6.819  10.157  0.4711 -0.6150 -0.2971
23093SOL    HW270721   4.524   6.683  10.099  0.1283 -0.6120 -0.0922
23094SOL     OW70722   5.625   5.738  11.730 -0.1748 -0.2368 -0.1982
23094SOL    HW170723   5.532   5.716  11.740 -0.0800 -1.2508 -1.2813
23094SOL    HW270724   5.630   5.784  11.646 -0.0199  2.0420  0.9803
23095SOL     OW70725   7.598   5.681   8.190 -0.8129  0.0426 -0.0862
23095SOL    HW170726   7.665   5.614   8.176 -1.3214 -0.6630  0.6903
23095SOL    HW270727   7.515   5.634   8.181 -1.1895  0.7185 -0.2047
23096SOL     OW70728   6.517   5.970  10.306 -0.3630  0.0247  0.4130
23096SOL    HW170729   6.505   5.959  10.212 -0.5054  0.2212  0.4071
23096SOL    HW270730   6.549   6.060  10.316  0.3253 -0.2298  0.4978
23097SOL     OW70731   7.783   7.652  10.223 -0.0205 -0.0497 -0.1695
23097SOL    HW170732   7.836   7.688  10.151  0.3734  1.2360  0.7325
23097SOL    HW270733   7.774   7.725  10.284 -0.6060 -1.0416  0.9501
23098SOL     OW70734   7.602   0.236   9.799  0.0599 -0.4077  0.0325
23098SOL    HW170735   7.677   0.276   9.843 -0.6066  0.4756  0.4044
23098SOL    HW270736   7.601   0.275   9.712 -0.0257 -0.3491  0.0600
23099SOL     OW70737   7.909   0.072  10.330 -0.0976 -0.1142 -0.9406
23099SOL    HW170738   7.972   0.043  10.264 -1.2368 -0.2635 -1.9780
23099SOL    HW270739   7.870  -0.008  10.363 -1.5344  0.0620 -2.1106
23100SOL     OW70740   4.997   4.753   8.424 -0.0403 -0.0358 -0.1099
23100SOL    HW170741   4.915   4.706   8.439  1.4074 -2.7613 -0.1826
23100SOL    HW270742   5.041   4.703   8.355  2.6316  0.0751  1.3957
23101SOL     OW70743   1.362   6.083   9.465 -0.4379 -1.1296 -0.2657
23101SOL    HW170744   1.315   6.151   9.416 -2.0464 -2.9294 -1.3465
23101SOL    HW270745   1.295   6.042   9.519  0.7349 -1.1643  1.2125
23102SOL     OW70746   5.000   6.246   9.481  0.0674  0.3592  0.6260
23102SOL    HW170747   5.053   6.259   9.560  1.1792 -2.1413  0.4030
23102SOL    HW270748   4.915   6.283   9.503  0.7716  0.9916  2.4784
23103SOL     OW70749   5.785   6.568  11.447 -0.1356 -0.1240 -0.1361
23103SOL    HW170750   5.709   6.510  11.443 -0.5447  0.4045 -0.1847
23103SOL    HW270751   5.751   6.649  11.486  0.1677  0.4911 -1.1297
23104SOL     OW70752   5.250   6.244   9.366 -0.5472 -0.0593 -0.8937
23104SOL    HW170753   5.260   6.186   9.441  1.5165 -0.3496 -1.3525
23104SOL    HW270754   5.158   6.233   9.340 -1.4564  0.3708  1.7909
23105SOL     OW70755   0.014   7.310  10.263  0.0088  0.0122 -0.7944
23105SOL    HW170756  -0.079   7.323  10.281  0.3277  0.0073  1.0034
23105SOL    HW270757   0.018   7.221  10.228 -0.3886 -1.1536  1.8820
23106SOL     OW70758   6.460   6.335   9.297  0.4359  0.5883  0.3677
23106SOL    HW170759   6.387   6.273   9.295  0.4533  0.5791 -1.1756
23106SOL    HW270760   6.492   6.330   9.387 -0.5667 -0.4588  0.7046
23107SOL     OW70761   4.548   5.913  10.183 -0.6318 -0.0761  0.3573
23107SOL    HW170762   4.508   5.828  10.164 -0.7681 -0.3583  1.7675
23107SOL    HW270763   4.505   5.942  10.264  0.2964  0.7474  0.5756
23108SOL     OW70764   5.615   4.694   9.736  0.1294 -0.1409  0.4361
23108SOL    HW170765   5.646   4.722   9.650 -1.1824 -0.8972 -0.3211
23108SOL    HW270766   5.537   4.642   9.717 -0.9715  0.7830  2.1548
23109SOL     OW70767   7.022   7.568   6.654  0.3001  0.1004  0.0263
23109SOL    HW170768   7.089   7.582   6.588 -0.0545 -0.7764 -0.5350
23109SOL    HW270769   6.998   7.476   6.645 -0.8280  0.3479  0.3627
23110SOL     OW70770   5.097   4.572   8.772 -0.9390  0.2467  0.0405
23110SOL    HW170771   5.015   4.615   8.747 -0.4228  1.5186  0.4514
23110SOL    HW270772   5.069   4.489   8.812 -1.8730 -1.2606 -3.3296
23111SOL     OW70773   6.791   6.453   9.274 -0.2980  0.3145 -0.1502
23111SOL    HW170774   6.872   6.500   9.255 -0.0996  0.1256  0.2114
23111SOL    HW270775   6.770   6.478   9.364 -0.6052  0.3087 -0.2183
23112SOL     OW70776   6.913   7.557  10.873  0.3797 -0.2006 -0.1145
23112SOL    HW170777   6.931   7.507  10.953  0.0229 -0.2106 -0.0384
23112SOL    HW270778   6.824   7.530  10.848  0.8873 -1.0194 -1.1141
23113SOL     OW70779   7.813   6.545  10.657  0.3123  0.5589 -0.2772
23113SOL    HW170780   7.778   6.463  10.692 -0.3700  1.0227  0.1703
23113SOL    HW270781   7.907   6.539  10.670  0.1426  0.4140  1.0235
23114SOL     OW70782   6.213   6.988  11.443 -0.1146  0.9062  0.3268
23114SOL    HW170783   6.121   6.980  11.470 -0.5794 -0.9241 -1.5702
23114SOL    HW270784   6.262   6.984  11.525 -1.6648  1.0225  1.3030
23115SOL     OW70785   7.346   6.793   8.914 -0.3845  0.0738 -0.0731
23115SOL    HW170786   7.433   6.769   8.946  0.4435  0.5580 -1.8169
23115SOL    HW270787   7.290   6.790   8.991  0.7518 -2.2345  0.7449
23116SOL     OW70788   6.826   6.518  11.050  0.1931  0.2005 -0.1000
23116SOL    HW170789   6.869   6.539  11.133  0.3844 -1.5769  0.2937
23116SOL    HW270790   6.889   6.463  11.004  0.2409  1.4493 -1.6293
23117SOL     OW70791   4.648   1.408  10.706 -0.5273  0.1937  0.0797
23117SOL    HW170792   4.612   1.360  10.781 -0.6707 -0.4657 -0.4002
23117SOL    HW270793   4.628   1.353  10.631  2.1626 -0.6472 -0.1469
23118SOL     OW70794   4.390   5.831  11.566  0.0533 -0.0074 -0.0545
23118SOL    HW170795   4.484   5.835  11.586  0.1070 -1.8882  0.2565
23118SOL    HW270796   4.348   5.811  11.650 -0.3177 -1.8568 -0.6212
23119SOL     OW70797   5.999   6.004  11.931  0.6088 -0.3177 -0.3383
23119SOL    HW170798   5.935   5.942  11.966  0.7694 -0.0887  0.3809
23119SOL    HW270799   6.072   5.999  11.993 -0.3751  2.4456  1.2382
23120SOL     OW70800   5.383   5.634  10.895 -0.0032  0.2243 -0.2339
23120SOL    HW170801   5.425   5.573  10.957  1.2337 -0.2061 -1.4540
23120SOL    HW270802   5.294   5.645  10.930  0.0353 -1.5351  0.5515
23121SOL     OW70803   5.090   5.299  11.077 -0.3877 -0.2406  0.0296
23121SOL    HW170804   5.180   5.288  11.106 -0.3489  1.5840  0.7212
23121SOL    HW270805   5.094   5.370  11.013 -0.8345 -2.5817 -2.8124
23122SOL     OW70806   6.925   6.772   8.074 -0.1831  0.3055  0.5396
23122SOL    HW170807   6.921   6.822   8.156 -1.0570  0.1600  0.6038
23122SOL    HW270808   6.851   6.711   8.081  1.3690 -1.6258  0.8728
23123SOL     OW70809   7.969   6.352  10.480 -0.3723  0.1183 -0.3760
23123SOL    HW170810   7.980   6.258  10.465 -0.7408 -0.0879  0.5695
23123SOL    HW270811   8.017   6.369  10.561 -1.2492  0.5246  0.0702
23124SOL     OW70812   5.001   1.022  11.638 -0.1096 -0.5456 -0.2365
23124SOL    HW170813   5.040   0.992  11.556 -0.2075 -0.5924 -0.2661
23124SOL    HW270814   4.920   0.972  11.646 -0.2579 -0.3104 -0.2696
23125SOL     OW70815   7.855   6.537   9.844 -0.3184 -0.1393 -0.0562
23125SOL    HW170816   7.867   6.456   9.893 -0.6886  0.6916  1.4816
23125SOL    HW270817   7.766   6.531   9.809 -0.4393 -0.2875  0.2735
23126SOL     OW70818   5.496   6.371   9.284  0.0627  0.1005 -0.3803
23126SOL    HW170819   5.498   6.436   9.355  0.5293 -0.7035  0.3571
23126SOL    HW270820   5.429   6.308   9.312  0.9587 -0.7653 -0.1494
23127SOL     OW70821   5.914   5.190  10.868 -0.3064  0.3542  0.1104
23127SOL    HW170822   5.822   5.205  10.848 -0.8375 -1.8193  0.6627
23127SOL    HW270823   5.938   5.262  10.926 -1.0691  2.0323 -1.5784
23128SOL     OW70824   6.882   6.715  11.988  0.4706  0.1579  0.7418
23128SOL    HW170825   6.963   6.664  11.994 -0.1833 -0.8597  1.2864
23128SOL    HW270826   6.906   6.802  12.019  1.6239  0.2158 -0.2280
23129SOL     OW70827   4.917   6.754  11.580  0.5423  0.5489  0.0203
23129SOL    HW170828   4.871   6.827  11.622  2.3162  1.5072  0.4148
23129SOL    HW270829   4.933   6.784  11.491  0.7097  0.3785 -0.0083
23130SOL     OW70830   7.492   0.004  10.975  0.8840 -0.0345  0.2872
23130SOL    HW170831   7.510   0.093  10.947  0.3431  0.2629  0.8431
23130SOL    HW270832   7.550  -0.009  11.051  2.6042 -0.9575 -1.1215
23131SOL     OW70833   6.724   7.959  10.566  0.2248 -0.2560  0.5352
23131SOL    HW170834   6.810   7.930  10.594 -0.4536 -1.4441  1.4676
23131SOL    HW270835   6.716   7.928  10.476  1.4337  1.4101 -0.1987
23132SOL     OW70836   7.303   7.506  10.449 -0.4349 -0.0150  0.0362
23132SOL    HW170837   7.288   7.423  10.495  0.7938 -1.6032 -2.2047
23132SOL    HW270838   7.236   7.507  10.381 -0.9176  1.2493  0.5066
23133SOL     OW70839   6.439   6.464  11.491 -0.2697  0.1658 -0.4635
23133SOL    HW170840   6.369   6.506  11.542  0.4041  1.9935 -0.9504
23133SOL    HW270841   6.394   6.399  11.438 -1.5284  0.8853 -0.3243
23134SOL     OW70842   5.690   5.994  11.158 -0.1375  0.8109 -0.2006
23134SOL    HW170843   5.646   6.018  11.239  1.1385 -1.5069  1.2988
23134SOL    HW270844   5.782   6.013  11.174  0.7065 -2.9885  0.4535
23135SOL     OW70845   5.875   6.222   8.118  0.1050 -0.0085  0.1298
23135SOL    HW170846   5.823   6.301   8.131  0.6500  0.4809 -0.5572
23135SOL    HW270847   5.826   6.153   8.161 -0.9617  0.4987 -0.2429
23136SOL     OW70848   6.098   6.450  12.403 -0.0206  0.0329  0.1544
23136SOL    HW170849   6.128   6.416  12.487 -1.2769  0.7943  0.9527
23136SOL    HW270850   6.161   6.518  12.381 -0.4465  0.8124  1.2223
23137SOL     OW70851   0.551   7.182  10.702 -0.4610  0.5288 -0.4964
23137SOL    HW170852   0.620   7.198  10.766 -1.1451 -0.6825  0.5896
23137SOL    HW270853   0.470   7.187  10.753 -1.0597  0.2018 -1.3986
23138SOL     OW70854   6.341   5.760  11.795 -0.5387  0.5289  0.3116
23138SOL    HW170855   6.252   5.783  11.770 -0.3239  0.3717 -0.6557
23138SOL    HW270856   6.383   5.843  11.814 -0.6624  0.6773 -0.0544
23139SOL     OW70857   5.094   5.598   9.586 -0.0297  0.5530 -0.0264
23139SOL    HW170858   5.104   5.626   9.495  0.6070 -0.6536 -0.3497
23139SOL    HW270859   5.183   5.579   9.615 -0.3795 -0.5907  0.3361
23140SOL     OW70860   5.389   6.573  12.068  0.2067 -0.2445  0.3576
23140SOL    HW170861   5.473   6.570  12.114 -0.0585  2.3124  1.1525
23140SOL    HW270862   5.354   6.485  12.078  0.9217 -0.3068  3.6808
23141SOL     OW70863   5.675   6.109  10.280 -0.0585 -0.1212  0.0221
23141SOL    HW170864   5.710   6.029  10.243 -0.2043 -0.4805  0.6462
23141SOL    HW270865   5.635   6.082  10.363 -1.4287  0.3433 -0.4638
23142SOL     OW70866   5.854   5.934  10.662  0.4269  0.2233  0.5236
23142SOL    HW170867   5.900   5.868  10.714 -0.5951 -0.8349  0.1430
23142SOL    HW270868   5.809   5.989  10.726  1.3787  0.6494  0.8505
23143SOL     OW70869   7.647   5.951   9.409  0.6713 -0.7050  0.2032
23143SOL    HW170870   7.649   5.885   9.478  0.0561 -0.8697  0.0708
23143SOL    HW270871   7.563   5.937   9.365 -0.4142  1.4476  1.4266
23144SOL     OW70872   7.062   6.982  11.091  0.5420  0.2353 -0.6461
23144SOL    HW170873   7.104   6.932  11.161  0.8206  0.2951 -0.7700
23144SOL    HW270874   7.007   7.046  11.137  1.5387  0.9746 -0.4659
23145SOL     OW70875   4.299   6.294   9.668 -0.1336 -0.0981  0.2396
23145SOL    HW170876   4.254   6.310   9.750 -0.4275 -1.8340  0.4564
23145SOL    HW270877   4.391   6.281   9.693 -0.3042 -1.1039  0.3644
23146SOL     OW70878   7.815   5.401   9.819  0.6153  0.3343  0.0507
23146SOL    HW170879   7.884   5.445   9.769  2.0583 -1.9907 -0.1215
23146SOL    HW270880   7.846   5.311   9.830 -1.0132 -0.0248  2.6015
23147SOL     OW70881   5.297   7.336  11.833 -0.2854 -0.3728  0.0858
23147SOL    HW170882   5.209   7.362  11.858 -0.1574  0.2820 -0.1314
23147SOL    HW270883   5.315   7.258  11.885 -1.4525 -1.2370 -0.7524
23148SOL     OW70884   3.603   6.867  11.463  0.1937 -1.5564  0.1384
23148SOL    HW170885   3.525   6.814  11.480  1.2266 -3.0944  0.2729
23148SOL    HW270886   3.676   6.815  11.497  1.1344  0.7964  2.0165
23149SOL     OW70887   7.070   7.770   9.552  0.1718 -0.3205  0.0178
23149SOL    HW170888   7.146   7.747   9.499  0.2418 -0.8106  0.3203
23149SOL    HW270889   7.076   7.713   9.628 -0.8840 -0.8770 -0.2956
23150SOL     OW70890   7.202   6.715   9.172 -0.4388  0.0486 -0.1286
23150SOL    HW170891   7.186   6.745   9.261 -1.2490 -1.4846  0.2636
23150SOL    HW270892   7.119   6.676   9.144  0.3248 -1.1009 -0.8850
23151SOL     OW70893   4.359   5.635   9.228 -0.3070  0.1199 -0.1905
23151SOL    HW170894   4.297   5.607   9.295 -0.8174 -1.7181 -1.3483
23151SOL    HW270895   4.303   5.671   9.158  0.0564  0.1244 -0.4799
23152SOL     OW70896   5.317   0.086   8.824  0.3345  0.3806 -0.0956
23152SOL    HW170897   5.233   0.041   8.817  0.3836  0.4033 -0.8262
23152SOL    HW270898   5.372   0.046   8.757  0.4926  1.2803 -0.5115
23153SOL     OW70899   5.055   6.872  10.867  0.3193  0.0677  0.2853
23153SOL    HW170900   5.051   6.968  10.870  0.1954  0.0769 -0.0910
23153SOL    HW270901   5.119   6.853  10.798  1.8163 -0.1139  1.6614
23154SOL     OW70902   0.038   6.884  12.415 -0.2429 -0.6262  0.1925
23154SOL    HW170903   0.049   6.977  12.398  1.1217 -0.1358  3.1489
23154SOL    HW270904  -0.007   6.850  12.337 -2.6203  2.8281 -0.1577
23155SOL     OW70905   5.467   4.990  11.120 -0.3531 -0.5048 -0.0925
23155SOL    HW170906   5.487   4.931  11.193 -0.5102 -0.1557  0.2373
23155SOL    HW270907   5.527   4.963  11.050  0.7525  0.0241  0.6179
23156SOL     OW70908   6.259   6.621  10.523 -0.3378  0.0815 -0.9078
23156SOL    HW170909   6.231   6.562  10.593 -0.7632  0.2944 -0.8904
23156SOL    HW270910   6.261   6.566  10.444 -0.3564 -0.0430 -0.8208
23157SOL     OW70911   5.240   5.541  12.382  0.5234 -0.0090  0.4594
23157SOL    HW170912   5.178   5.471  12.360 -0.3359  1.0399 -0.6172
23157SOL    HW270913   5.303   5.541  12.310  0.2642  0.5834  0.2244
23158SOL     OW70914   7.550   7.557  10.752 -0.6456  0.0673 -0.4242
23158SOL    HW170915   7.456   7.572  10.747 -0.4122  1.7003 -0.4076
23158SOL    HW270916   7.584   7.632  10.800  0.3881 -1.8094  1.9769
23159SOL     OW70917   7.301   7.971  10.577  0.3585 -0.4850  0.0379
23159SOL    HW170918   7.264   7.986  10.664 -1.1806 -1.2306 -0.4501
23159SOL    HW270919   7.304   7.876  10.567 -0.2199 -0.4185 -0.9917
23160SOL     OW70920   5.555   6.939   0.429 -0.0821  0.4120  0.4857
23160SOL    HW170921   5.506   6.999   0.373 -0.4994  0.6848  1.1264
23160SOL    HW270922   5.643   6.937   0.393 -0.4356  0.3016 -0.3918
23161SOL     OW70923   5.573   5.076   8.707 -0.6440  0.0559 -0.4641
23161SOL    HW170924   5.559   5.110   8.618 -0.5184  0.1250 -0.4577
23161SOL    HW270925   5.563   4.981   8.698 -1.5624  0.1343 -0.3820
23162SOL     OW70926   7.524   7.079   8.777  0.4462  0.5290 -0.2717
23162SOL    HW170927   7.605   7.030   8.766  1.4387  2.0455  0.0306
23162SOL    HW270928   7.498   7.064   8.868  0.8071  0.6486 -0.1492
23163SOL     OW70929   4.768   6.643  10.277  0.3267 -0.2155 -0.1173
23163SOL    HW170930   4.686   6.691  10.267  1.6050  2.4482  1.3366
23163SOL    HW270931   4.824   6.675  10.206  0.3140 -1.7416 -0.8724
23164SOL     OW70932   5.546   6.028  12.309  0.4713 -0.2318 -0.6604
23164SOL    HW170933   5.524   6.120  12.291  1.0462  0.0462  0.0056
23164SOL    HW270934   5.552   6.023  12.404 -5.3127 -2.2842 -0.0212
23165SOL     OW70935   6.149   5.659  11.425 -0.3862 -0.1123  0.0840
23165SOL    HW170936   6.118   5.571  11.445 -1.5564  0.0242 -0.9679
23165SOL    HW270937   6.084   5.694  11.364 -0.1430  1.6207  0.7510
23166SOL     OW70938   6.464   6.156  11.224 -0.2558  0.1934 -0.4597
23166SOL    HW170939   6.472   6.063  11.204  0.3898 -0.2396  1.5875
23166SOL    HW270940   6.537   6.174  11.282 -2.3182  1.1165  2.0439
23167SOL     OW70941   6.927   6.294  10.942  0.0057 -0.1977 -0.2263
23167SOL    HW170942   6.997   6.232  10.961  1.6023  0.3872 -3.5413
23167SOL    HW270943   6.847   6.252  10.975  1.1632 -3.4500 -1.2597
23168SOL     OW70944   6.105   7.786   9.954  0.0992  0.4744  0.0576
23168SOL    HW170945   6.168   7.841  10.001  0.9621  0.2106 -0.7509
23168SOL    HW270946   6.019   7.823   9.976  0.3814 -0.1252  2.4612
23169SOL     OW70947   5.481   7.243  11.170 -0.4706 -0.1249  0.4336
23169SOL    HW170948   5.533   7.322  11.152 -0.7862 -0.0616 -0.2357
23169SOL    HW270949   5.497   7.188  11.093 -2.4382  0.4480 -0.4501
23170SOL     OW70950   5.617   7.649  11.610 -0.3626 -0.0089 -0.1398
23170SOL    HW170951   5.596   7.732  11.653  0.6731 -0.3859  1.1689
23170SOL    HW270952   5.613   7.584  11.680 -2.0836 -1.2646 -1.3200
23171SOL     OW70953   6.233   6.882  12.144  0.2728 -0.1086  0.6293
23171SOL    HW170954   6.225   6.901  12.238 -0.4077 -0.0711  0.5755
23171SOL    HW270955   6.313   6.832  12.136  0.2538 -0.2488  1.2594
23172SOL     OW70956   0.195   6.303   9.688 -0.1349  0.1970 -0.6832
23172SOL    HW170957   0.200   6.211   9.713 -1.6345 -0.7626 -3.4515
23172SOL    HW270958   0.193   6.302   9.593  1.6356  3.2748 -0.8837
23173SOL     OW70959   0.039   6.926  10.502  0.0939  0.2084 -0.5833
23173SOL    HW170960   0.019   6.997  10.562  1.7612  0.0183  0.2565
23173SOL    HW270961  -0.045   6.906  10.460 -0.7619  1.4820  0.4290
23174SOL     OW70962   1.387   5.777  10.642  0.1485  0.1657 -0.0001
23174SOL    HW170963   1.342   5.809  10.720 -0.3658  3.2890 -1.4284
23174SOL    HW270964   1.476   5.758  10.672 -0.1957  0.7339  1.4601
23175SOL     OW70965   6.731   5.567  11.217  0.1458 -0.4770 -0.0201
23175SOL    HW170966   6.646   5.603  11.190 -0.4265 -0.9839  1.0657
23175SOL    HW270967   6.782   5.643  11.244 -0.1807 -0.2304 -0.0907
23176SOL     OW70968   7.996   7.196   8.380  0.5404  0.0282  0.6228
23176SOL    HW170969   8.056   7.172   8.450  0.1908  0.3478  1.0387
23176SOL    HW270970   8.020   7.139   8.307 -0.7591 -2.1888  1.8095
23177SOL     OW70971   7.419   0.852  10.988 -0.7182  0.4411 -0.7079
23177SOL    HW170972   7.339   0.806  11.013  0.7532 -1.3461  1.0016
23177SOL    HW270973   7.481   0.783  10.965  0.7368  1.6991 -0.7185
23178SOL     OW70974   0.487   6.878  10.830  0.5030 -0.9996 -0.1387
23178SOL    HW170975   0.497   6.921  10.745 -0.1527 -1.0767 -0.2609
23178SOL    HW270976   0.409   6.918  10.868  1.2221 -0.4219  0.7622
23179SOL     OW70977   5.905   0.482  10.170  0.0347 -0.0447  0.3242
23179SOL    HW170978   5.855   0.507  10.247 -1.3490  0.3143 -0.6578
23179SOL    HW270979   5.949   0.563  10.143  0.1440 -0.0593  0.4564
23180SOL     OW70980   3.758   5.589   9.997 -0.3599  0.0871 -0.3514
23180SOL    HW170981   3.771   5.660   9.935  1.7442 -0.0800 -0.1702
23180SOL    HW270982   3.845   5.552  10.010 -0.7732 -0.0889  2.4628
23181SOL     OW70983   4.981   0.023  11.785 -0.1642  0.0092 -0.0390
23181SOL    HW170984   5.006  -0.017  11.868  0.2948 -0.5821 -0.4511
23181SOL    HW270985   5.015   0.112  11.790 -0.1570 -0.0206  0.4184
23182SOL     OW70986   5.914   7.029  10.836 -0.3720 -0.4126  0.0212
23182SOL    HW170987   5.853   7.026  10.910 -0.0684 -2.3850  0.2442
23182SOL    HW270988   5.932   7.122  10.823 -1.2274  0.0301  1.7614
23183SOL     OW70989   4.840   5.707   9.632  0.3744 -0.1100  0.2100
23183SOL    HW170990   4.920   5.654   9.636  0.1430 -0.4052  1.1180
23183SOL    HW270991   4.872   5.797   9.648  0.4609 -0.3110  1.2856
23184SOL     OW70992   0.025   6.601  10.381  0.0146  0.4583  0.2039
23184SOL    HW170993   0.044   6.671  10.444  0.5512  0.8563 -0.3916
23184SOL    HW270994  -0.002   6.526  10.435 -0.0316  0.9534  0.8719
23185SOL     OW70995   6.676   7.366  10.089  0.3008 -0.4323 -0.7699
23185SOL    HW170996   6.744   7.315  10.133 -0.2607 -0.6870 -0.1815
23185SOL    HW270997   6.600   7.360  10.148  0.0037  0.4691 -1.0528
23186SOL     OW70998   5.009   5.844   9.842  0.3765 -0.1365 -0.2218
23186SOL    HW170999   5.005   5.830   9.937 -0.1978  0.2593 -0.1889
23186SOL    HW271000   5.069   5.775   9.811  0.2865 -0.4935  0.3794
23187SOL     OW71001   5.975   7.896  10.583 -0.2513  0.3866  0.4941
23187SOL    HW171002   6.050   7.854  10.540 -0.8727  0.0760 -0.2959
23187SOL    HW271003   6.005   7.986  10.598  0.3106  0.2498  0.2511
23188SOL     OW71004   7.308   0.149   8.509 -0.0841  0.5766  0.1562
23188SOL    HW171005   7.328   0.168   8.418  0.2593 -0.8593 -0.0993
23188SOL    HW271006   7.393   0.156   8.554 -0.2503  1.2693  0.3644
23189SOL     OW71007   1.094   6.851   8.985 -0.1300  0.0456 -0.2939
23189SOL    HW171008   1.060   6.805   9.062 -0.5318  0.2068 -0.3714
23189SOL    HW271009   1.119   6.780   8.925  1.5571 -0.1086  0.5491
23190SOL     OW71010   7.028   7.589  10.258  0.5369  0.9888 -0.0442
23190SOL    HW171011   7.049   7.498  10.238  2.0938  1.0642  1.0553
23190SOL    HW271012   6.940   7.602  10.223  0.8733 -0.4918 -1.5495
23191SOL     OW71013   5.778   6.717  10.180 -0.4856  0.0389  0.2169
23191SOL    HW171014   5.714   6.681  10.241 -0.1772 -1.0559 -0.0859
23191SOL    HW271015   5.862   6.681  10.209  0.0509  1.6166  0.7340
23192SOL     OW71016   6.258   7.547   9.871  0.0924 -0.4370 -1.0207
23192SOL    HW171017   6.322   7.592   9.815  1.3741 -1.7620 -0.6848
23192SOL    HW271018   6.204   7.618   9.907  1.5436  0.7702 -1.1041
23193SOL     OW71019   5.879   6.283  10.649 -0.1914  0.4076 -0.4107
23193SOL    HW171020   5.837   6.369  10.654 -0.2424  0.3271  0.6906
23193SOL    HW271021   5.896   6.259  10.740  1.4561  0.0478 -0.7765
23194SOL     OW71022   1.174   5.573  10.993  0.3357 -0.3949 -0.3231
23194SOL    HW171023   1.259   5.541  11.024  1.5001  2.0043 -0.7798
23194SOL    HW271024   1.177   5.667  11.010 -1.4816  0.0286 -2.0554
23195SOL     OW71025   7.626   6.425   9.420  0.1691  0.1966  0.3239
23195SOL    HW171026   7.721   6.417   9.431  0.4355  3.0176  0.7949
23195SOL    HW271027   7.594   6.335   9.424  2.5475 -0.6895  2.8126
23196SOL     OW71028   6.516   6.753  10.312  0.2478 -0.0927  0.3507
23196SOL    HW171029   6.571   6.676  10.296 -0.7089 -0.7502  0.1326
23196SOL    HW271030   6.524   6.805  10.231  0.6551 -0.1040  0.3802
23197SOL     OW71031   0.895   7.284  11.069 -0.2811  0.1203  0.0802
23197SOL    HW171032   0.945   7.210  11.103  1.3025  1.4109  0.6872
23197SOL    HW271033   0.895   7.347  11.140 -1.6380  0.7015 -0.4111
23198SOL     OW71034   5.369   7.096  11.939  0.7918 -0.5856  0.2187
23198SOL    HW171035   5.288   7.088  11.888  1.4642  0.4127 -1.0916
23198SOL    HW271036   5.368   7.021  11.998 -0.4626 -1.3176 -0.6694
23199SOL     OW71037   5.577   6.623  10.359 -0.4966 -0.3489  0.1893
23199SOL    HW171038   5.484   6.641  10.351 -0.1161  1.0853 -1.7924
23199SOL    HW271039   5.583   6.555  10.426 -2.8285  0.4547  1.2930
23200SOL     OW71040   0.171   7.407   7.756  0.1902 -0.1295  0.0498
23200SOL    HW171041   0.210   7.385   7.841 -2.3185  0.2270  1.3742
23200SOL    HW271042   0.240   7.454   7.710  0.9838  1.5491  2.7418
23201SOL     OW71043   6.055   7.041   8.384 -0.2185  0.4570  0.0991
23201SOL    HW171044   5.960   7.042   8.377 -0.2327  1.6661  0.2529
23201SOL    HW271045   6.082   7.129   8.356  0.7608  0.5199  1.1703
23202SOL     OW71046   2.000   6.739  11.322  0.2392 -0.0862 -0.0336
23202SOL    HW171047   1.942   6.804  11.361  0.0292 -0.4208  0.2152
23202SOL    HW271048   2.021   6.774  11.236  1.0307  0.8681  0.5215
23203SOL     OW71049   5.981   7.015  10.228  0.0876 -0.1368  0.3863
23203SOL    HW171050   5.963   7.033  10.320 -1.5777 -1.0029  0.2678
23203SOL    HW271051   6.027   6.931  10.228 -1.0041 -0.7507  0.3810
23204SOL     OW71052   6.455   4.997   8.708 -0.5767  0.4624 -0.7382
23204SOL    HW171053   6.409   4.987   8.625 -0.2825 -1.8889 -0.6861
23204SOL    HW271054   6.425   4.923   8.762 -0.3829  1.6414  1.0798
23205SOL     OW71055   6.425   7.339  11.110 -0.0779 -0.1123 -0.0231
23205SOL    HW171056   6.457   7.364  11.023  1.0457 -2.0658 -0.2365
23205SOL    HW271057   6.344   7.291  11.093 -0.0814 -0.1291  0.0428
23206SOL     OW71058   1.007   6.450  11.988  0.5911 -0.1250 -0.0810
23206SOL    HW171059   0.984   6.402  11.909 -2.3686  0.2473  0.4380
23206SOL    HW271060   1.066   6.519  11.959  0.4455 -0.6731 -1.7598
23207SOL     OW71061   7.124   6.855  10.621 -0.2748  0.1179  0.0148
23207SOL    HW171062   7.165   6.771  10.637 -1.3496 -0.4357 -0.0425
23207SOL    HW271063   7.141   6.906  10.700  0.5794 -0.0641 -0.0456
23208SOL     OW71064   4.612   5.926  12.463  0.3612  0.3290  0.0835
23208SOL    HW171065   4.673   5.955  12.395  0.6172 -0.2899  0.0506
23208SOL    HW271066   4.656   5.949  12.545 -0.1741  1.5530  0.0586
23209SOL     OW71067   5.833   5.636  11.445 -0.1208 -0.2334 -0.2601
23209SOL    HW171068   5.773   5.710  11.432  0.2392  0.0698 -0.2134
23209SOL    HW271069   5.828   5.617  11.539 -0.5383 -0.5479 -0.3442
23210SOL     OW71070   4.245   4.344  10.204  0.4010  0.2887  0.3337
23210SOL    HW171071   4.340   4.360  10.208  0.4064  0.7118 -1.0402
23210SOL    HW271072   4.215   4.397  10.130 -0.6977 -0.9052 -0.1054
23211SOL     OW71073   6.751   6.978  11.307 -0.8276  0.0119  0.0858
23211SOL    HW171074   6.802   6.927  11.370 -2.4140 -2.6335 -0.5819
23211SOL    HW271075   6.666   6.991  11.349 -1.5896 -0.9791 -1.0487
23212SOL     OW71076   5.795   6.260  11.585  0.2588  0.3372 -0.1299
23212SOL    HW171077   5.845   6.306  11.516 -1.3017 -0.4055 -1.8347
23212SOL    HW271078   5.857   6.195  11.619  1.2719  1.1342 -0.3783
23213SOL     OW71079   0.424   7.300  10.156 -0.0258  0.3511 -0.3687
23213SOL    HW171080   0.365   7.349  10.098  1.0788  0.3793 -1.5009
23213SOL    HW271081   0.400   7.209  10.143  0.6197  0.3122 -1.3521
23214SOL     OW71082   0.023   6.722  12.165  0.0335  0.0953  0.0375
23214SOL    HW171083   0.048   6.776  12.089  1.4207 -1.8748 -0.9830
23214SOL    HW271084  -0.048   6.667  12.133 -0.4337  0.3237  0.6619
23215SOL     OW71085   1.049   0.047  11.218  0.5269  0.3688  0.3343
23215SOL    HW171086   1.081   0.002  11.139  0.1081 -0.0703  0.4150
23215SOL    HW271087   1.063   0.140  11.199  2.4637  0.1871  0.6221
23216SOL     OW71088   5.774   7.093   1.049 -0.4528  0.1858  0.3150
23216SOL    HW171089   5.746   7.012   1.093 -0.6245 -1.2208 -2.1574
23216SOL    HW271090   5.756   7.162   1.112  0.7489 -1.7665  3.0193
23217SOL     OW71091   6.519   7.080  10.917  0.5748  0.4026 -0.0709
23217SOL    HW171092   6.537   7.161  10.869  1.0400  0.6828  0.5699
23217SOL    HW271093   6.603   7.055  10.955  0.4719 -0.4857 -0.4147
23218SOL     OW71094   6.794   6.696  10.548 -0.0241  0.3799  0.2646
23218SOL    HW171095   6.708   6.654  10.559  0.2868 -0.2535  0.3026
23218SOL    HW271096   6.815   6.732  10.634 -0.2161  0.4779  0.2725
23219SOL     OW71097   7.004   6.331   8.989 -0.3423 -0.5273  0.1257
23219SOL    HW171098   7.007   6.337   8.894 -0.4456  0.5414  0.1774
23219SOL    HW271099   7.040   6.245   9.009 -1.9734 -1.5136 -0.9712
23220SOL     OW71100   5.027   5.178   8.627 -0.2777 -0.3459  0.4058
23220SOL    HW171101   5.123   5.184   8.624 -0.2486 -1.0602 -0.5278
23220SOL    HW271102   5.009   5.085   8.614 -1.1245 -0.1166 -0.0669
23221SOL     OW71103   5.359   7.698  11.179 -0.3060  0.2994  0.6144
23221SOL    HW171104   5.333   7.666  11.266 -1.0267  2.0703  1.0928
23221SOL    HW271105   5.352   7.793  11.186 -0.1735  0.4797 -1.3454
23222SOL     OW71106   6.852   5.141  10.880  0.1434 -0.5000  0.1678
23222SOL    HW171107   6.881   5.127  10.789 -0.8425  0.6920 -0.3609
23222SOL    HW271108   6.764   5.179  10.871  0.7083  1.2669  1.5658
23223SOL     OW71109   7.154   0.147  11.019 -0.3939  0.2374  0.0608
23223SOL    HW171110   7.184   0.075  11.074  3.6953  1.8556  0.2768
23223SOL    HW271111   7.114   0.104  10.943 -2.8950 -2.0653  2.4557
23224SOL     OW71112   3.982   6.946   9.316  0.4029 -0.2868 -0.0965
23224SOL    HW171113   3.936   6.955   9.233  1.2189  0.8946 -0.4379
23224SOL    HW271114   3.935   6.876   9.362 -0.1621 -0.8359 -1.4668
23225SOL     OW71115   5.587   7.101  10.949  0.0793 -0.2241 -0.3569
23225SOL    HW171116   5.536   7.117  10.870  0.4573 -0.2705 -0.6113
23225SOL    HW271117   5.594   7.006  10.955  2.1563 -0.2199 -1.6492
23226SOL     OW71118   5.406   6.977  10.498 -0.1535 -0.0412 -0.3680
23226SOL    HW171119   5.402   7.026  10.416  1.0824  1.4340  0.4093
23226SOL    HW271120   5.474   6.911  10.482 -0.6764 -0.4689 -0.8743
23227SOL     OW71121   4.790   4.952   9.450 -0.5349 -0.1063  0.2955
23227SOL    HW171122   4.731   4.983   9.381  0.1534 -0.0788 -0.2867
23227SOL    HW271123   4.851   4.893   9.406  1.3058  1.6090  0.4182
23228SOL     OW71124   6.722   6.097  10.959 -0.1504  0.0884 -0.4154
23228SOL    HW171125   6.750   6.029  10.897 -1.1360 -1.2736  0.5557
23228SOL    HW271126   6.756   6.068  11.043 -1.6488  0.0993  0.2356
23229SOL     OW71127   6.483   7.881   0.372 -0.6682 -0.1665  0.1590
23229SOL    HW171128   6.508   7.963   0.416 -2.1878 -0.8720  2.5282
23229SOL    HW271129   6.391   7.893   0.349 -0.1150 -0.1273 -2.3023
23230SOL     OW71130   6.740   6.956  11.020  0.1135 -0.0273  0.6135
23230SOL    HW171131   6.706   6.869  11.001 -0.2141  0.1868  0.1939
23230SOL    HW271132   6.734   6.965  11.115 -0.4998 -0.1993  0.5922
23231SOL     OW71133   7.065   0.010  10.361 -0.2638 -0.3483 -0.1109
23231SOL    HW171134   7.136   0.020  10.424 -0.2872  1.8891 -0.3376
23231SOL    HW271135   7.104   0.035  10.277 -0.9022 -0.6844 -0.5149
23232SOL     OW71136   1.993   0.006  10.857 -0.0118 -0.1004 -0.4463
23232SOL    HW171137   1.988   0.056  10.939 -0.7785 -2.9562  1.4165
23232SOL    HW271138   1.957   0.065  10.791 -2.2398  1.3632  1.8492
23233SOL     OW71139   6.370   5.236  10.083 -0.0969 -0.5955 -0.3047
23233SOL    HW171140   6.414   5.232  10.168 -1.0082 -0.6975  0.1657
23233SOL    HW271141   6.404   5.316  10.043  1.8217 -1.5276 -0.6916
23234SOL     OW71142   0.344   7.610  10.471 -0.3458 -0.1884 -0.2529
23234SOL    HW171143   0.293   7.551  10.415 -0.0085  0.9136 -1.7982
23234SOL    HW271144   0.431   7.570  10.475 -0.2645 -0.0884 -0.8575
23235SOL     OW71145   6.296   5.816  10.292  0.0341 -0.4675 -0.4382
23235SOL    HW171146   6.372   5.871  10.311 -0.1118 -0.2567 -0.4628
23235SOL    HW271147   6.292   5.756  10.367 -0.9298  0.7937  0.5774
23236SOL     OW71148   0.381   6.493  10.578  0.5383  0.1172  0.0889
23236SOL    HW171149   0.433   6.513  10.655  0.7895  2.0417 -0.5182
23236SOL    HW271150   0.291   6.515  10.603  0.5962  0.5797 -0.0953
23237SOL     OW71151   5.846   7.909  11.733 -0.3571  0.2483 -0.1434
23237SOL    HW171152   5.923   7.859  11.760 -0.1636  1.0606  0.8671
23237SOL    HW271153   5.778   7.884  11.795 -1.0063 -0.6596 -1.1887
23238SOL     OW71154   6.859   5.363  10.343  0.0309  0.5614 -1.0668
23238SOL    HW171155   6.882   5.406  10.425  0.4169  0.3139 -1.0440
23238SOL    HW271156   6.796   5.422  10.302 -1.4066 -0.0456  0.1463
23239SOL     OW71157   6.997   6.850  10.878 -0.0122 -0.5028  0.8163
23239SOL    HW171158   6.976   6.898  10.958  0.2598 -0.3835  0.8173
23239SOL    HW271159   6.919   6.797  10.860 -0.5280  0.3431  0.5116
23240SOL     OW71160   5.684   6.067  10.866 -0.2149  0.5546  0.5966
23240SOL    HW171161   5.738   6.096  10.939  0.4469 -0.6242  0.5871
23240SOL    HW271162   5.608   6.026  10.906  0.0164  0.1519  0.6247
23241SOL     OW71163   6.093   5.757  10.123  0.0588 -0.1130 -0.0370
23241SOL    HW171164   6.127   5.709  10.047  0.5996  0.1176  0.0530
23241SOL    HW271165   6.170   5.774  10.177 -0.2391  0.2187  0.2897
23242SOL     OW71166   6.368   5.671  10.514  0.0309  0.5332  0.2353
23242SOL    HW171167   6.370   5.579  10.487  1.3299  0.4984  0.3731
23242SOL    HW271168   6.289   5.679  10.568  0.0616 -0.5710  0.4675
23243SOL     OW71169   6.136   6.402  10.679 -0.1595  0.0140  0.3632
23243SOL    HW171170   6.174   6.319  10.648 -0.2305 -0.2908  1.0599
23243SOL    HW271171   6.042   6.386  10.681 -0.1275 -0.1614  1.2130
23244SOL     OW71172   5.128   5.084   9.667  0.7532 -0.2287  0.3835
23244SOL    HW171173   5.141   5.023   9.594  1.0183 -0.1383  0.3551
23244SOL    HW271174   5.209   5.135   9.671  0.1024  0.8965 -0.3066
23245SOL     OW71175   7.454   0.087   9.961  0.3010  0.7984  0.3980
23245SOL    HW171176   7.523   0.032   9.999  1.6814  2.5748  0.6242
23245SOL    HW271177   7.501   0.154   9.912 -1.3510  1.0535 -0.9253
23246SOL     OW71178   5.824   6.401  12.447  0.7112 -0.2318  0.0555
23246SOL    HW171179   5.912   6.420  12.416  1.2174 -2.1102  0.2171
23246SOL    HW271180   5.827   6.309  12.474 -1.3446 -0.4102 -0.1469
23247SOL     OW71181   4.556   4.725   0.396 -0.2866 -0.4013 -0.0007
23247SOL    HW171182   4.494   4.727   0.470 -0.3378 -1.3138 -0.0103
23247SOL    HW271183   4.532   4.647   0.347 -1.1547  0.9092 -1.7807
23248SOL     OW71184   6.614   7.607   0.217  0.1026 -0.0500 -0.6400
23248SOL    HW171185   6.659   7.645   0.141  2.7960  0.3008  0.9796
23248SOL    HW271186   6.601   7.681   0.276  2.2848 -0.9397  1.1097
23249SOL     OW71187   6.810   5.909  12.029  0.8990  0.0991 -0.3418
23249SOL    HW171188   6.863   5.933  12.105 -0.2012 -0.2084  0.5523
23249SOL    HW271189   6.721   5.933  12.054  0.3757 -0.9523 -1.1170
23250SOL     OW71190   0.310   6.594   0.072  0.1002  0.4603  0.1092
23250SOL    HW171191   0.394   6.566   0.036  0.2328  0.2912  0.5444
23250SOL    HW271192   0.289   6.674   0.024  1.6703  1.8434  1.5854
23251SOL     OW71193   5.272   5.800   0.031 -0.0458  0.6975  0.0723
23251SOL    HW171194   5.292   5.712  -0.003  0.0728  0.7810 -0.0771
23251SOL    HW271195   5.185   5.791   0.070 -0.0934  0.5446 -0.0639
23252SOL     OW71196   6.814   5.463  10.966 -0.1012  0.0476 -0.1483
23252SOL    HW171197   6.736   5.453  10.911  0.4179  1.2594 -1.1662
23252SOL    HW271198   6.779   5.474  11.054 -1.0290 -0.5298 -0.4282
23253SOL     OW71199   5.472   6.428   0.112 -0.2950  0.7422  0.1685
23253SOL    HW171200   5.457   6.430   0.206  3.4612  2.6149  0.9334
23253SOL    HW271201   5.431   6.509   0.080 -0.2949  0.8483  0.4363
23254SOL     OW71202   6.224   7.350  10.596 -0.2274  0.1508 -0.3911
23254SOL    HW171203   6.236   7.391  10.511 -0.4061  0.2516 -0.3676
23254SOL    HW271204   6.235   7.256  10.579 -0.1149  0.1821 -0.4965
23255SOL     OW71205   6.848   7.151   0.177  0.0565  0.1301 -0.6181
23255SOL    HW171206   6.933   7.173   0.139  0.6139 -0.7106  0.0910
23255SOL    HW271207   6.793   7.227   0.159  1.9633  2.3502  2.0340
23256SOL     OW71208   7.610   5.639  11.987  0.4489 -0.1336 -0.0873
23256SOL    HW171209   7.602   5.574  11.918  0.6350 -2.2292  1.7354
23256SOL    HW271210   7.704   5.655  11.994  0.3327  1.1964 -1.2392
23257SOL     OW71211   5.627   5.795   0.043 -0.1707  0.4796  0.1227
23257SOL    HW171212   5.609   5.776   0.135 -1.7318  1.8731  0.1543
23257SOL    HW271213   5.598   5.885   0.031  2.2468  1.1843 -1.1805
23258SOL     OW71214   4.570   6.743   0.780  0.0911  0.9074 -0.2637
23258SOL    HW171215   4.525   6.716   0.860  0.0211  1.6888 -0.0330
23258SOL    HW271216   4.639   6.677   0.768  1.1309  1.6390  1.3267
23259SOL     OW71217   5.695   6.599   0.516  0.4265  0.2906 -0.3656
23259SOL    HW171218   5.687   6.544   0.439 -0.3743 -0.8035  0.4623
23259SOL    HW271219   5.750   6.672   0.488 -0.3030  0.2148 -2.1162
23260SOL     OW71220   7.012   0.048   9.486  0.2220  0.5962 -0.1536
23260SOL    HW171221   7.076   0.054   9.415  1.5864  3.2480  1.1524
23260SOL    HW271222   7.049  -0.017   9.546  0.1727 -0.0423 -0.8039
23261SOL     OW71223   4.763   6.608   0.121  0.1976  0.0137 -0.7526
23261SOL    HW171224   4.841   6.580   0.072  1.1720 -0.5851  1.0408
23261SOL    HW271225   4.782   6.698   0.146  0.0739  0.0366 -0.7402
23262SOL     OW71226   0.925   0.236  11.661 -0.2662 -0.0831 -0.7634
23262SOL    HW171227   0.844   0.256  11.708 -0.1661 -0.2013 -0.5437
23262SOL    HW271228   0.899   0.169  11.597 -0.1355 -0.8564 -0.0235
23263SOL     OW71229   6.891   7.532   0.710 -0.1643 -0.0323  0.2460
23263SOL    HW171230   6.846   7.503   0.631 -0.0415  0.2232  0.0807
23263SOL    HW271231   6.912   7.624   0.693  0.2179 -0.0869  0.4149
23264SOL     OW71232   7.583   7.393  11.433  0.2495 -0.1027  0.0376
23264SOL    HW171233   7.622   7.369  11.517  0.8002 -0.2561 -0.2556
23264SOL    HW271234   7.536   7.314  11.405 -0.0588 -0.0027  0.2708
23265SOL     OW71235   6.691   4.188  11.059  0.2303 -0.6468  0.3241
23265SOL    HW171236   6.748   4.259  11.028 -0.3532  0.3949  1.5399
23265SOL    HW271237   6.751   4.117  11.081  0.8621 -0.3889 -0.5058
23266SOL     OW71238   6.039   5.573  12.279  0.8053  0.1257  0.2540
23266SOL    HW171239   6.001   5.583  12.366 -2.9382  0.5697 -1.2495
23266SOL    HW271240   6.032   5.479  12.260  0.9659  0.1327  0.1575
23267SOL     OW71241   6.741   7.602  11.439 -0.0993 -0.2002 -0.5747
23267SOL    HW171242   6.658   7.561  11.414 -0.3112 -0.0416 -0.1506
23267SOL    HW271243   6.799   7.529  11.462 -1.3236 -0.2957  2.8819
23268SOL     OW71244   7.518   7.097  11.326  0.0453  0.0666 -0.1027
23268SOL    HW171245   7.545   7.005  11.326  0.8752  0.2766 -1.7970
23268SOL    HW271246   7.511   7.120  11.234 -0.5371  1.6076  0.2954
23269SOL     OW71247   5.637   6.734   0.842 -0.1115 -0.0516 -0.6431
23269SOL    HW171248   5.710   6.761   0.787 -0.3349 -2.2343 -2.1429
23269SOL    HW271249   5.679   6.705   0.923  0.4136  1.1349 -0.4617
23270SOL     OW71250   1.229   7.644  11.798  0.3729  0.1827 -0.0909
23270SOL    HW171251   1.202   7.626  11.708  1.5931 -0.5061 -0.3400
23270SOL    HW271252   1.287   7.571  11.821  0.7391  0.7820  0.9638
23271SOL     OW71253   6.918   0.593  11.560 -0.2137 -0.1809  0.0721
23271SOL    HW171254   6.949   0.565  11.474  0.8927  0.7128  0.1550
23271SOL    HW271255   6.832   0.631  11.544  0.4025  0.8858 -0.8198
23272SOL     OW71256   7.612   5.967  11.203 -0.0845 -0.1584  0.1881
23272SOL    HW171257   7.543   5.901  11.189  0.1120 -0.2987 -0.1121
23272SOL    HW271258   7.570   6.033  11.257  0.1746 -1.3059  1.8673
23273SOL     OW71259   5.926   5.776   0.570  0.4642 -0.0171 -0.0171
23273SOL    HW171260   5.968   5.721   0.636  0.5506  1.2530  1.0286
23273SOL    HW271261   5.996   5.796   0.508  0.4028 -1.1514 -0.4772
23274SOL     OW71262   6.790   6.009  11.226  0.7044  0.0185 -0.1782
23274SOL    HW171263   6.847   5.933  11.235 -0.8607 -1.0268  1.6002
23274SOL    HW271264   6.760   6.028  11.315 -3.7190 -1.1226 -1.1800
23275SOL     OW71265   0.430   7.167  10.466  0.5352 -0.7009  0.1730
23275SOL    HW171266   0.367   7.239  10.457  0.3037 -1.0285 -0.9658
23275SOL    HW271267   0.496   7.201  10.526 -0.3210 -0.0648  0.7706
23276SOL     OW71268   6.774   0.035  12.482 -0.0494  0.0723 -0.3472
23276SOL    HW171269   6.766   0.125  12.514 -1.2844 -1.1583  3.2583
23276SOL    HW271270   6.853   0.001  12.523  1.1094 -0.2435 -2.6615
23277SOL     OW71271   6.413   7.985   0.712  0.0178  0.2058 -0.0018
23277SOL    HW171272   6.463   8.054   0.668  0.8386 -0.6662 -0.4769
23277SOL    HW271273   6.477   7.916   0.729 -0.8498 -0.5846  0.1386
23278SOL     OW71274   6.550   6.509   1.843 -0.4933 -0.1268  0.1210
23278SOL    HW171275   6.484   6.447   1.875  0.2102 -0.6316  0.6242
23278SOL    HW271276   6.580   6.471   1.760  0.3548 -0.7869  0.7121
23279SOL     OW71277   7.459   6.979  11.734  0.4192 -0.1869  0.5239
23279SOL    HW171278   7.530   6.932  11.692 -0.5148 -0.7031 -0.5363
23279SOL    HW271279   7.447   6.935  11.818  1.7188  0.2875  0.9794
23280SOL     OW71280   0.693   0.123  10.960  0.0048  0.1874 -0.1031
23280SOL    HW171281   0.648   0.068  10.896 -0.3843  1.5240 -1.0298
23280SOL    HW271282   0.623   0.171  11.004  0.3348 -0.0552  0.7096
23281SOL     OW71283   0.842   6.299  11.229  0.5815  0.3920 -0.1137
23281SOL    HW171284   0.829   6.278  11.322  1.5693 -4.0612 -0.7335
23281SOL    HW271285   0.760   6.339  11.201 -1.4814 -2.1721  1.8181
23282SOL     OW71286   7.002   0.149  11.837 -0.0781 -0.1791  0.0400
23282SOL    HW171287   6.931   0.196  11.793 -0.3840  0.7978  1.5132
23282SOL    HW271288   7.041   0.095  11.768 -0.0894  1.7911 -1.5947
23283SOL     OW71289   5.358   7.452   1.110 -0.0520  0.0411  0.5173
23283SOL    HW171290   5.401   7.526   1.153 -1.8501  0.9264  0.9148
23283SOL    HW271291   5.350   7.385   1.178 -3.1372  1.5364  1.8225
23284SOL     OW71292   7.968   6.391  12.381 -0.5543 -0.0179 -0.2366
23284SOL    HW171293   7.979   6.349  12.295 -0.1103  1.0016 -0.6882
23284SOL    HW271294   8.035   6.351  12.436  0.9392  1.1929 -1.0975
23285SOL     OW71295   0.454   7.509   0.046  0.2366 -0.7253 -0.5418
23285SOL    HW171296   0.491   7.572  -0.015  0.0303  0.0531  0.1288
23285SOL    HW271297   0.382   7.555   0.088  0.4435 -1.2117  0.3700
23286SOL     OW71298   0.074   4.820   9.866  0.3309 -0.0368 -0.1790
23286SOL    HW171299   0.051   4.887   9.802 -0.1089  0.9462  0.9635
23286SOL    HW271300  -0.008   4.774   9.883  0.6233 -0.8702 -0.9303
23287SOL     OW71301   7.919   1.481  11.034  0.7065  0.4064 -0.8763
23287SOL    HW171302   7.843   1.537  11.017  0.2223 -0.0103 -0.1212
23287SOL    HW271303   7.992   1.542  11.041 -0.0511  1.1457  1.5058
23288SOL     OW71304   0.398   6.169  11.090 -0.5840 -0.1380  0.0943
23288SOL    HW171305   0.334   6.098  11.094  0.6519 -1.2321  2.3442
23288SOL    HW271306   0.422   6.185  11.182  2.1878  0.3325 -0.6127
23289SOL     OW71307   6.050   7.413   9.830 -0.1351  0.2126  0.0554
23289SOL    HW171308   6.136   7.445   9.859 -1.1071  1.3630  1.8319
23289SOL    HW271309   6.055   7.415   9.735  1.5608  0.9237  0.1155
23290SOL     OW71310   7.951   5.704  10.360  0.5414 -0.2153 -0.5256
23290SOL    HW171311   7.937   5.792  10.324  0.6385 -0.4126 -1.0506
23290SOL    HW271312   8.016   5.664  10.302  1.1952 -0.3092  0.2523
23291SOL     OW71313   5.216   5.723   0.459  0.3313 -0.1736 -0.1451
23291SOL    HW171314   5.292   5.666   0.453  0.1440 -0.9241  2.9315
23291SOL    HW271315   5.180   5.706   0.546 -0.4955  3.7342  0.4486
23292SOL     OW71316   5.393   0.229   0.921 -0.1816  0.6164  0.1742
23292SOL    HW171317   5.345   0.301   0.963 -1.5884 -0.3676  0.3028
23292SOL    HW271318   5.393   0.252   0.828 -1.3096  0.4328  0.1108
23293SOL     OW71319   7.906   6.886  11.453 -0.0283 -0.1806  0.2545
23293SOL    HW171320   7.875   6.894  11.363 -0.0412  0.2923  0.2961
23293SOL    HW271321   7.962   6.808  11.453  1.6379  0.9489 -0.6619
23294SOL     OW71322   6.348   7.767  11.838  0.4478 -0.2996 -0.0243
23294SOL    HW171323   6.407   7.708  11.885 -0.5476 -0.9422  0.4571
23294SOL    HW271324   6.349   7.734  11.748 -0.5329 -1.4468  0.3537
23295SOL     OW71325   6.941   7.795  10.430 -0.0712  0.1152 -0.9400
23295SOL    HW171326   6.999   7.738  10.379  0.4179  1.9517 -2.5569
23295SOL    HW271327   6.973   7.883  10.413  0.0166  0.8834  2.5098
23296SOL     OW71328   6.331   7.625   0.655  0.1495  0.2421  0.2274
23296SOL    HW171329   6.248   7.631   0.702  0.4220 -1.9092  1.1037
23296SOL    HW271330   6.328   7.540   0.611  1.2829  0.7760 -0.9708
23297SOL     OW71331   7.158   0.100  12.250  0.7254  0.2093  0.2084
23297SOL    HW171332   7.107   0.176  12.222  1.8035  0.6944 -0.4924
23297SOL    HW271333   7.105   0.060  12.319  0.9166  2.6032  1.8557
23298SOL     OW71334   4.483   5.897   9.291  0.0712  0.7346 -0.0902
23298SOL    HW171335   4.416   5.904   9.223 -0.7413  1.6308  0.7661
23298SOL    HW271336   4.438   5.857   9.366  0.2159  2.1701  0.7987
23299SOL     OW71337   5.572   7.211  10.160  0.0368  0.5179 -0.5983
23299SOL    HW171338   5.540   7.207  10.070  0.0102 -0.2334 -0.5570
23299SOL    HW271339   5.631   7.136  10.168 -1.3820 -0.5352  0.5702
23300SOL     OW71340   7.933   7.579   0.028  0.2936  0.0331 -0.4877
23300SOL    HW171341   7.845   7.605   0.054  1.2881  1.3749  1.7737
23300SOL    HW271342   7.957   7.640  -0.041  0.0954  0.7826  0.1022
23301SOL     OW71343   5.094   6.531   2.612  0.1664 -0.2347 -0.1741
23301SOL    HW171344   5.056   6.462   2.558  0.3727 -0.2119 -0.3467
23301SOL    HW271345   5.076   6.612   2.564  0.8634 -0.2693 -0.5002
23302SOL     OW71346   7.819   5.880  10.677  0.5715 -0.2953 -0.3264
23302SOL    HW171347   7.847   5.924  10.756  0.7971  0.7332 -0.9599
23302SOL    HW271348   7.886   5.813  10.661  0.4608 -0.5848  0.3954
23303SOL     OW71349   6.136   6.860  10.677  0.1677 -0.0172  0.2217
23303SOL    HW171350   6.207   6.907  10.719  0.2917 -0.1331  0.1439
23303SOL    HW271351   6.176   6.818  10.601 -0.5460  2.2240 -1.4943
23304SOL     OW71352   6.407   5.613  11.600  0.1010 -0.0002 -0.1248
23304SOL    HW171353   6.393   5.669  11.524 -0.0120 -0.8965 -0.7800
23304SOL    HW271354   6.385   5.668  11.675  0.1606  0.8786 -0.7367
23305SOL     OW71355   6.389   6.281  12.263  0.0211 -0.5574 -0.2301
23305SOL    HW171356   6.346   6.225  12.328 -0.7622  0.7133  0.4054
23305SOL    HW271357   6.331   6.279  12.187  1.0317 -2.1928 -0.9999
23306SOL     OW71358   7.089   7.635  11.479  0.2442 -0.4963  0.2399
23306SOL    HW171359   7.106   7.729  11.476 -1.0350 -0.2581 -1.4801
23306SOL    HW271360   7.053   7.620  11.566  2.1361  0.2494  1.2103
23307SOL     OW71361   6.896   6.228  12.434  0.1477 -0.2868  0.4760
23307SOL    HW171362   6.933   6.282  12.504  0.5691  0.0299  0.0156
23307SOL    HW271363   6.826   6.281  12.397  0.8982  0.1794 -0.3168
23308SOL     OW71364   7.858   7.894  10.606 -0.4999 -0.3180 -0.1300
23308SOL    HW171365   7.921   7.854  10.547 -1.5747  0.6728 -2.0387
23308SOL    HW271366   7.775   7.851  10.585 -0.6796 -1.0070  1.7540
23309SOL     OW71367   1.046   6.440  11.130  0.0683 -0.3710 -0.7560
23309SOL    HW171368   1.116   6.421  11.191  0.5230 -1.5457 -1.6089
23309SOL    HW271369   0.969   6.397  11.167 -0.3033  1.1319  0.3101
23310SOL     OW71370   4.792   5.910   0.874 -0.2057  0.4024  0.2847
23310SOL    HW171371   4.765   5.979   0.935  0.4821  1.0538 -0.1298
23310SOL    HW271372   4.850   5.954   0.812  1.3720 -0.8181  0.8206
23311SOL     OW71373   7.017   6.208  11.278  0.0379 -0.5425 -0.3890
23311SOL    HW171374   7.041   6.174  11.364  1.2682  1.3804  0.1065
23311SOL    HW271375   6.925   6.232  11.286 -0.0517 -1.0561  0.1604
23312SOL     OW71376   6.602   7.604  10.739  0.0914 -0.4254  0.1600
23312SOL    HW171377   6.611   7.544  10.665 -0.1035 -1.3185  0.8432
23312SOL    HW271378   6.541   7.671  10.708  1.5803  0.3756 -1.1904
23313SOL     OW71379   7.015   6.773   0.960 -0.3756 -0.0149 -0.3275
23313SOL    HW171380   6.970   6.791   0.877 -2.8629  0.8753  1.1166
23313SOL    HW271381   6.978   6.691   0.991  1.1399 -0.7784 -0.4238
23314SOL     OW71382   4.989   7.223   1.266 -0.2908  0.1606 -0.2310
23314SOL    HW171383   4.959   7.312   1.249 -0.8825 -0.2977 -1.7457
23314SOL    HW271384   4.908   7.173   1.276  0.0353 -0.3597 -0.1811
23315SOL     OW71385   6.005   6.758  12.457  0.0670  0.4030 -0.1935
23315SOL    HW171386   5.935   6.764  12.392 -0.4155  0.7626  0.3495
23315SOL    HW271387   5.966   6.710  12.530  1.1114 -1.4484 -0.8112
23316SOL     OW71388   4.854   4.884  10.993 -0.3611  0.4525 -0.2293
23316SOL    HW171389   4.907   4.889  10.913  0.9156  1.1656  0.6316
23316SOL    HW271390   4.866   4.794  11.024 -1.5105 -0.0751 -1.2461
23317SOL     OW71391   5.107   0.024   2.160  0.3383 -0.6364  0.2473
23317SOL    HW171392   5.152  -0.007   2.081  1.4692 -1.5496  1.2260
23317SOL    HW271393   5.019   0.046   2.129  1.1102  0.2399 -1.5263
23318SOL     OW71394   7.582   6.524  12.139 -0.3064 -0.1401  0.1007
23318SOL    HW171395   7.623   6.591  12.085 -1.0106 -0.0239 -0.3061
23318SOL    HW271396   7.634   6.445  12.124  1.4084  0.6216  1.6722
23319SOL     OW71397   7.797   6.852  10.372  0.4166 -0.3846  0.0046
23319SOL    HW171398   7.800   6.790  10.300 -1.5355  0.3234 -0.7691
23319SOL    HW271399   7.733   6.814  10.433  2.1162 -1.0263  1.4588
23320SOL     OW71400   6.348   7.665  12.496 -0.0366 -0.0668 -0.3646
23320SOL    HW171401   6.255   7.673  12.478  0.2524  0.1308 -1.8891
23320SOL    HW271402   6.379   7.755  12.502 -0.6112  0.0711  4.4117
23321SOL     OW71403   7.562   0.639  10.911  0.7163  0.1587  0.3951
23321SOL    HW171404   7.484   0.612  10.862  1.1698 -0.6120  0.0857
23321SOL    HW271405   7.630   0.649  10.845  1.9707 -3.1315  1.0076
23322SOL     OW71406   7.351   7.866  12.497  0.4245  0.0244 -0.4580
23322SOL    HW171407   7.298   7.798  12.539  0.5292 -0.7640 -1.5650
23322SOL    HW271408   7.435   7.862  12.543  0.2145 -0.1544 -0.0857
23323SOL     OW71409   0.045   6.233  10.815 -0.5460  0.8532 -0.3810
23323SOL    HW171410   0.066   6.141  10.798 -1.8798  0.5290 -0.3445
23323SOL    HW271411   0.056   6.242  10.910 -0.6191  0.6776 -0.3547
23324SOL     OW71412   5.724   7.964  12.431 -0.4942  0.1118 -0.0800
23324SOL    HW171413   5.685   8.007  12.507  0.0772 -0.7430  0.7272
23324SOL    HW271414   5.655   7.906  12.398 -0.6112  0.1864  0.0347
23325SOL     OW71415   6.013   7.386   0.805  0.3571  0.5107 -0.1145
23325SOL    HW171416   6.080   7.318   0.803  1.4098  1.5180 -0.8568
23325SOL    HW271417   5.936   7.345   0.765  0.5453 -0.6287  0.6407
23326SOL     OW71418   7.275   6.475   0.043 -0.0866  0.2311  0.3938
23326SOL    HW171419   7.201   6.532   0.061 -0.1235  0.4165 -0.3295
23326SOL    HW271420   7.238   6.387   0.038 -0.2594  0.3305 -0.0198
23327SOL     OW71421   7.171   6.440  11.604 -0.3753  0.3346 -0.1954
23327SOL    HW171422   7.119   6.518  11.621 -0.6057  0.4300 -1.2677
23327SOL    HW271423   7.204   6.413  11.690 -2.7789 -0.1526  0.6478
23328SOL     OW71424   0.345   6.004   0.948  0.0518 -0.2480 -0.0074
23328SOL    HW171425   0.306   5.924   0.912 -1.0523  0.1717  0.2247
23328SOL    HW271426   0.361   6.059   0.871  0.5138 -0.5563 -0.1363
23329SOL     OW71427   7.469   7.570   2.496 -0.0311 -1.0468 -0.0492
23329SOL    HW171428   7.377   7.583   2.520 -0.7136 -2.0655 -1.9750
23329SOL    HW271429   7.475   7.479   2.467  1.4715 -0.8474 -0.4861
23330SOL     OW71430   5.600   6.761  11.862 -0.1976 -0.8660 -0.2736
23330SOL    HW171431   5.551   6.711  11.798 -0.7220 -1.8871  0.8756
23330SOL    HW271432   5.639   6.695  11.920 -0.1584  0.0145  0.7398
23331SOL     OW71433   5.793   6.915  11.344 -0.5050 -0.0804 -0.1773
23331SOL    HW171434   5.860   6.923  11.412  1.2434 -1.0838 -1.6883
23331SOL    HW271435   5.747   6.999  11.345 -0.2105  0.1078  1.8727
23332SOL     OW71436   1.860   6.385  11.529 -0.0985  0.1202 -0.0881
23332SOL    HW171437   1.794   6.424  11.472 -0.8562 -0.0892  0.6282
23332SOL    HW271438   1.817   6.378  11.614  0.8575  0.0052  0.4000
23333SOL     OW71439   6.283   6.988   0.388 -0.7057 -0.1294 -0.6678
23333SOL    HW171440   6.347   7.032   0.332  0.4764 -1.8904 -0.8078
23333SOL    HW271441   6.277   6.900   0.351 -2.3181 -0.3666  0.0960
23334SOL     OW71442   7.584   6.535  11.727 -0.5886 -0.0868  0.1527
23334SOL    HW171443   7.516   6.484  11.683 -0.4702  0.6098 -0.8809
23334SOL    HW271444   7.654   6.542  11.662 -0.3511  0.8599  0.4907
23335SOL     OW71445   7.861   7.114  11.177 -0.3368 -0.4373 -0.7310
23335SOL    HW171446   7.782   7.061  11.172 -0.3394 -0.3591 -1.5260
23335SOL    HW271447   7.931   7.058  11.144  0.0414 -0.6760  0.4194
23336SOL     OW71448   6.004   7.882   0.004  0.3460 -0.1508 -0.4018
23336SOL    HW171449   6.064   7.944   0.045  0.9828 -0.1818 -1.2613
23336SOL    HW271450   5.933   7.937  -0.030  0.3634 -0.0139 -0.2228
23337SOL     OW71451   5.347   5.682  11.765  0.0593  0.0165  0.2277
23337SOL    HW171452   5.329   5.590  11.744  1.2469 -0.0661 -0.4929
23337SOL    HW271453   5.364   5.682  11.859  2.3889 -0.9324 -0.1208
23338SOL     OW71454   5.626   4.936  10.918  0.0446  0.2499  0.1256
23338SOL    HW171455   5.678   4.867  10.959  2.1431  0.5330 -1.8682
23338SOL    HW271456   5.617   4.909  10.827 -2.4333  0.8019  0.1119
23339SOL     OW71457   6.773   5.827   0.117  0.1791  0.7971  0.3833
23339SOL    HW171458   6.850   5.771   0.127  0.2768  0.8160 -0.2027
23339SOL    HW271459   6.726   5.818   0.200 -0.3646 -0.9982 -0.0650
23340SOL     OW71460   5.501   5.716   0.246 -0.1605  0.6329 -0.3506
23340SOL    HW171461   5.490   5.631   0.202 -0.0150 -1.2119  2.8579
23340SOL    HW271462   5.411   5.744   0.264 -0.2004  0.9189 -0.9916
23341SOL     OW71463   4.765   1.499  11.556  0.3305 -0.4028  0.4012
23341SOL    HW171464   4.856   1.505  11.585  0.7064 -1.2527 -0.5295
23341SOL    HW271465   4.770   1.514  11.461 -0.8724  2.4832  0.7030
23342SOL     OW71466   0.436   6.603  10.815  0.6660 -0.2458  0.4381
23342SOL    HW171467   0.467   6.691  10.838 -1.4758  0.9446 -0.8618
23342SOL    HW271468   0.423   6.559  10.899  0.4574  1.2026  1.2032
23343SOL     OW71469   0.067   5.537   0.952 -0.0644  0.1333  0.1354
23343SOL    HW171470   0.016   5.606   0.994 -0.2305  0.2916 -0.3205
23343SOL    HW271471   0.044   5.544   0.859  1.4373  0.7761 -0.2123
23344SOL     OW71472   4.943   5.661  11.627  0.0569 -0.0846 -0.8066
23344SOL    HW171473   4.912   5.599  11.561  0.9475 -1.0413 -0.3611
23344SOL    HW271474   4.953   5.608  11.706  0.1478  0.7912 -0.2219
23345SOL     OW71475   5.365   7.067  11.371 -0.1562 -0.3192  0.5101
23345SOL    HW171476   5.420   7.001  11.329  0.0909 -0.1149  0.5098
23345SOL    HW271477   5.364   7.141  11.309 -1.7321 -0.9178 -0.2373
23346SOL     OW71478   7.210   5.711  11.031 -0.6223 -0.3396  0.4511
23346SOL    HW171479   7.131   5.720  11.085 -0.5034 -2.1501  0.9932
23346SOL    HW271480   7.189   5.641  10.970 -0.1555  0.5928 -0.8173
23347SOL     OW71481   6.007   7.010   0.673  0.1609 -0.0779  0.6756
23347SOL    HW171482   6.050   7.077   0.620 -0.5245 -1.3033 -1.6018
23347SOL    HW271483   5.935   7.055   0.716 -0.8324  0.5676 -1.4944
23348SOL     OW71484   5.780   7.375   0.588 -0.7824 -0.2024 -0.4276
23348SOL    HW171485   5.815   7.288   0.606 -1.3441 -0.6630 -1.4597
23348SOL    HW271486   5.747   7.369   0.498 -1.9743  0.7050 -0.0654
23349SOL     OW71487   6.476   6.910   0.121  0.1563 -0.6492 -0.0267
23349SOL    HW171488   6.509   6.983   0.068 -0.0911 -0.0912  0.5734
23349SOL    HW271489   6.488   6.833   0.066 -0.0520 -0.0885 -0.8769
23350SOL     OW71490   0.956   7.234  10.683  0.0398 -0.2107  0.6971
23350SOL    HW171491   1.008   7.185  10.747  1.1718  1.2527  0.9549
23350SOL    HW271492   0.886   7.174  10.659  1.7327 -2.2224  0.4673
23351SOL     OW71493   6.373   5.949   1.477  0.2415 -0.1624  0.3697
23351SOL    HW171494   6.463   5.981   1.468  0.1439  0.5456  1.6866
23351SOL    HW271495   6.355   5.955   1.570 -2.1576  2.4436 -0.1492
23352SOL     OW71496   0.193   7.333  10.658  0.0643  0.1631  0.5813
23352SOL    HW171497   0.139   7.254  10.662 -0.5972  0.4787 -1.1092
23352SOL    HW271498   0.153   7.385  10.589  3.5349 -0.3902 -2.1487
23353SOL     OW71499   6.118   5.854   0.816  0.2516 -0.1469  0.0296
23353SOL    HW171500   6.161   5.860   0.731 -1.5122 -0.6044 -0.9425
23353SOL    HW271501   6.072   5.938   0.825 -0.6021 -0.5900 -0.0847
23354SOL     OW71502   4.742   7.051   0.522 -0.1511  0.0444 -0.2715
23354SOL    HW171503   4.791   7.098   0.589  0.3167 -0.8780  0.0617
23354SOL    HW271504   4.743   7.108   0.445  3.0115 -0.6703 -0.8821
23355SOL     OW71505   5.767   5.807  10.414  0.3219  0.0016  0.0077
23355SOL    HW171506   5.785   5.872  10.482 -0.3150  0.0655  0.1152
23355SOL    HW271507   5.796   5.724  10.452 -1.0787 -0.1472  0.8266
23356SOL     OW71508   7.252   6.348  11.356  0.9356 -0.6264  0.0991
23356SOL    HW171509   7.237   6.368  11.448  1.7338  0.8151 -0.0532
23356SOL    HW271510   7.167   6.321  11.323  0.6777 -1.3632  1.2853
23357SOL     OW71511   0.410   1.055  11.205 -0.5373  0.0408 -0.3702
23357SOL    HW171512   0.343   1.113  11.168 -0.9305 -1.0960 -1.4957
23357SOL    HW271513   0.370   0.968  11.205 -0.6046 -0.0357  2.9298
23358SOL     OW71514   4.850   0.291  11.645  0.0598  0.1224  0.9817
23358SOL    HW171515   4.865   0.238  11.567 -1.8199  0.2819  0.4827
23358SOL    HW271516   4.933   0.285  11.694  0.7926 -1.0868 -0.3389
23359SOL     OW71517   7.151   1.343  12.324  0.5962 -0.0669  0.3589
23359SOL    HW171518   7.209   1.267  12.332 -0.5625 -1.4934 -2.8695
23359SOL    HW271519   7.063   1.304  12.320 -0.2164  1.6634  0.7142
23360SOL     OW71520   5.841   5.599  11.708 -0.7046  0.5014 -0.4560
23360SOL    HW171521   5.758   5.631  11.743 -0.6937 -0.1010  0.1549
23360SOL    HW271522   5.875   5.541  11.776 -1.7043 -2.4532 -2.2322
23361SOL     OW71523   7.004   6.478  11.917  0.4746 -0.1839 -0.8656
23361SOL    HW171524   6.921   6.448  11.955 -0.6615  1.0368 -2.2415
23361SOL    HW271525   7.056   6.398  11.907 -0.5854 -0.9972 -0.0817
23362SOL     OW71526   5.972   6.894  11.564 -0.6824 -0.4029  0.2128
23362SOL    HW171527   5.982   6.809  11.606  2.1555 -0.6278 -0.7132
23362SOL    HW271528   5.976   6.957  11.636 -1.1748 -0.9531  0.7358
23363SOL     OW71529   6.436   7.425  11.750  0.2432  0.4286  0.3124
23363SOL    HW171530   6.468   7.448  11.837 -0.2171  0.3033  0.5153
23363SOL    HW271531   6.379   7.349  11.764  1.1941 -0.4278 -0.2615
23364SOL     OW71532   7.272   0.262   0.030 -0.3218  0.4709  0.1586
23364SOL    HW171533   7.313   0.202   0.093 -1.7916 -1.5833 -0.7185
23364SOL    HW271534   7.339   0.276  -0.037  0.4110  0.7088  0.9264
23365SOL     OW71535   0.676   7.775  11.175  0.1611  0.3651  0.7219
23365SOL    HW171536   0.706   7.865  11.185  1.6629  0.2479 -1.7498
23365SOL    HW271537   0.753   7.721  11.197 -0.1211 -0.2188  0.3164
23366SOL     OW71538   5.664   0.264   9.333 -0.1538  0.1484 -0.1838
23366SOL    HW171539   5.577   0.304   9.336 -0.0712  0.3509  2.3729
23366SOL    HW271540   5.652   0.183   9.285 -1.7926  0.1299  0.1992
23367SOL     OW71541   5.647   5.832  11.437  0.0027 -0.4248 -0.2266
23367SOL    HW171542   5.593   5.785  11.373 -2.8769  0.8861  1.0163
23367SOL    HW271543   5.629   5.925  11.419  1.8248  0.0681  0.3309
23368SOL     OW71544   6.113   7.540   1.095 -0.9763 -0.1574  0.2587
23368SOL    HW171545   6.194   7.509   1.054 -0.6508  0.6642  0.2667
23368SOL    HW271546   6.099   7.479   1.168  0.2704  0.3456  0.9556
23369SOL     OW71547   7.633   6.722  10.563  0.4553  0.1774 -0.0352
23369SOL    HW171548   7.554   6.675  10.590 -0.0345  0.7173 -0.4945
23369SOL    HW271549   7.705   6.674  10.604 -0.1279 -0.1780  0.5863
23370SOL     OW71550   5.501   0.037   0.381  0.0533  0.3029 -0.1744
23370SOL    HW171551   5.408   0.014   0.378  0.2338 -0.5074  0.2103
23370SOL    HW271552   5.542  -0.033   0.432  1.0026  0.2234 -1.0076
23371SOL     OW71553   4.583   5.704  11.863 -0.2413  0.6869  0.3402
23371SOL    HW171554   4.584   5.711  11.959  2.5518  1.3180  0.3638
23371SOL    HW271555   4.601   5.612  11.846 -0.3248  0.6504  0.4511
23372SOL     OW71556   6.732   7.782  10.922 -0.3335 -0.2384  0.0970
23372SOL    HW171557   6.671   7.730  10.870  0.2031 -1.7110  0.8931
23372SOL    HW271558   6.806   7.798  10.862 -0.9459  0.5257 -0.4791
23373SOL     OW71559   7.922   6.093   8.497  0.6328  0.2429 -0.1025
23373SOL    HW171560   7.937   6.056   8.410 -1.5725 -0.5894 -0.2023
23373SOL    HW271561   8.003   6.077   8.545  1.0452 -1.4668 -1.2875
23374SOL     OW71562   0.802   7.874  11.720 -0.5548  0.4743  0.4034
23374SOL    HW171563   0.897   7.869  11.717 -0.4782  1.1053  1.5002
23374SOL    HW271564   0.777   7.808  11.784 -0.9494 -0.4832 -0.7006
23375SOL     OW71565   0.026   4.952   0.922 -0.6177 -0.0226  0.0003
23375SOL    HW171566  -0.044   5.016   0.934 -0.6359  0.0707 -0.5596
23375SOL    HW271567   0.022   4.896   0.999 -1.6480 -0.3449 -0.2767
23376SOL     OW71568   6.340   6.735   0.318  0.2522 -0.3766  0.6590
23376SOL    HW171569   6.398   6.663   0.343  0.9278  0.3570  1.2756
23376SOL    HW271570   6.370   6.761   0.231 -0.0046 -0.8429  0.4280
23377SOL     OW71571   5.713   6.806   0.086 -0.1379  0.2981  0.2234
23377SOL    HW171572   5.723   6.898   0.063 -1.3519  0.3559 -0.0982
23377SOL    HW271573   5.620   6.794   0.103  0.2842 -0.4148  2.3043
23378SOL     OW71574   0.129   5.436   0.585 -0.1127 -0.2464  0.2088
23378SOL    HW171575   0.060   5.375   0.561  1.4769 -1.7737 -0.6679
23378SOL    HW271576   0.190   5.385   0.637  1.3231  0.5376 -0.6420
23379SOL     OW71577   6.652   0.676  11.517  0.1870  0.8108  0.0847
23379SOL    HW171578   6.586   0.631  11.465 -0.5378  2.1963 -0.2434
23379SOL    HW271579   6.621   0.668  11.608 -0.4930  1.5446 -0.0783
23380SOL     OW71580   6.042   7.962  11.364  0.3145 -0.0774  0.2814
23380SOL    HW171581   6.008   7.923  11.284 -0.7139 -0.5828  0.9457
23380SOL    HW271582   6.095   7.893  11.404 -0.6530 -0.4606  0.9327
23381SOL     OW71583   7.924   0.581  12.499  0.5963  0.2790  0.5821
23381SOL    HW171584   7.996   0.615  12.446 -1.3957  1.7158 -1.3723
23381SOL    HW271585   7.963   0.565  12.585  3.5913 -0.5512 -0.7907
23382SOL     OW71586   4.486   5.641  10.101 -0.3422 -0.1228  0.3383
23382SOL    HW171587   4.538   5.650  10.021 -0.8331  0.5130  0.0833
23382SOL    HW271588   4.537   5.582  10.156 -0.6002 -1.5982 -0.9360
23383SOL     OW71589   7.204   6.715  12.322  0.1075 -0.4533 -0.2736
23383SOL    HW171590   7.238   6.804  12.315  0.1128 -0.5579 -1.7725
23383SOL    HW271591   7.275   6.665  12.363  0.8272 -0.1536 -1.1308
23384SOL     OW71592   5.785   7.122   0.778  0.2907  0.6648  0.0300
23384SOL    HW171593   5.789   7.115   0.873 -0.2377 -1.1164 -0.0412
23384SOL    HW271594   5.693   7.144   0.760 -0.0001 -0.5323 -0.0913
23385SOL     OW71595   4.609   4.590  11.187  0.1877  0.0824  0.1704
23385SOL    HW171596   4.592   4.684  11.182  0.1559  0.1072  0.7357
23385SOL    HW271597   4.527   4.552  11.220  1.4597  0.3349  4.1269
23386SOL     OW71598   6.202   7.749  12.180 -0.0386  0.0521  0.1776
23386SOL    HW171599   6.251   7.823  12.143 -1.0014  0.3547 -0.5253
23386SOL    HW271600   6.252   7.672  12.154  1.6986  0.4744  2.0148
23387SOL     OW71601   7.920   0.931  11.137  0.1851 -0.4617 -0.6149
23387SOL    HW171602   7.918   0.835  11.135 -0.8436 -0.4634  0.2156
23387SOL    HW271603   7.944   0.953  11.227  2.2410  0.0782 -1.2264
23388SOL     OW71604   5.714   7.508  11.992  0.0526 -0.0293 -0.0164
23388SOL    HW171605   5.669   7.482  11.911  2.2072 -0.7933 -1.0554
23388SOL    HW271606   5.722   7.603  11.985 -0.0233 -0.0584 -0.5785
23389SOL     OW71607   0.406   7.204  11.424 -0.0022 -0.4873 -0.2096
23389SOL    HW171608   0.399   7.299  11.414  0.7694 -0.2995  0.8235
23389SOL    HW271609   0.336   7.182  11.485 -1.5690 -0.9234 -2.0720
23390SOL     OW71610   6.619   5.622  10.649 -0.4262 -0.4117 -0.0950
23390SOL    HW171611   6.545   5.660  10.695 -2.3546 -1.1677 -2.3981
23390SOL    HW271612   6.622   5.531  10.679  1.6182  0.3134  2.2966
23391SOL     OW71613   4.921   7.906  10.971  0.0020 -0.0697 -0.9036
23391SOL    HW171614   4.861   7.859  11.028  1.4061 -0.2807  0.4761
23391SOL    HW271615   4.902   7.999  10.987  1.0670 -0.1089  0.7155
23392SOL     OW71616   6.061   6.178   9.849  0.6952  0.1194 -0.1272
23392SOL    HW171617   6.119   6.126   9.905 -0.3468  0.6364  1.4947
23392SOL    HW271618   5.993   6.116   9.822  0.8356  0.0344 -0.2910
23393SOL     OW71619   5.403   7.229   1.285 -0.4882  0.1091 -0.2439
23393SOL    HW171620   5.350   7.160   1.324  0.2952 -0.1714  0.3431
23393SOL    HW271621   5.478   7.184   1.247 -1.0243  0.4135 -1.7566
23394SOL     OW71622   7.028   7.402   1.151  0.1173 -0.8767 -0.7285
23394SOL    HW171623   6.966   7.469   1.122  0.9905  0.6467  0.7149
23394SOL    HW271624   7.110   7.424   1.107  1.0803  0.6234  1.6295
23395SOL     OW71625   5.362   5.824  12.256 -0.1112 -0.2337  0.2086
23395SOL    HW171626   5.329   5.825  12.345  1.2195  1.0852  0.7281
23395SOL    HW271627   5.432   5.890  12.255 -0.2842  0.0035 -1.8735
23396SOL     OW71628   6.522   0.250  10.238 -0.2481 -0.0625  0.5049
23396SOL    HW171629   6.542   0.314  10.307 -0.5378 -0.3944  0.9062
23396SOL    HW271630   6.481   0.177  10.285 -0.1483 -0.4338  0.0177
23397SOL     OW71631   4.751   7.914   1.592 -0.3644  0.7894  0.4199
23397SOL    HW171632   4.681   7.860   1.555  1.4779 -0.7707 -0.9908
23397SOL    HW271633   4.800   7.855   1.649  1.8661  0.7859 -1.3735
23398SOL     OW71634   5.081   1.334   2.180  0.0764 -0.3027  0.0845
23398SOL    HW171635   5.087   1.240   2.167 -0.3887 -0.2163 -0.9030
23398SOL    HW271636   5.065   1.369   2.092  1.4526  0.8142  0.2457
23399SOL     OW71637   1.507   7.486  11.321 -0.3125  0.3231  0.0649
23399SOL    HW171638   1.488   7.576  11.296  0.2546  0.2621 -0.6034
23399SOL    HW271639   1.553   7.494  11.405  1.4147  0.7905 -0.8875
23400SOL     OW71640   6.675   0.293   1.546 -0.2536  0.4022  0.3240
23400SOL    HW171641   6.739   0.272   1.615 -0.1378  0.6406  0.2891
23400SOL    HW271642   6.625   0.366   1.581 -1.2415 -0.4803  0.8125
23401SOL     OW71643   7.986   0.103   0.392 -0.5383  0.3317  0.6418
23401SOL    HW171644   7.906   0.154   0.389 -1.7773 -1.5325 -0.2877
23401SOL    HW271645   7.986   0.053   0.310  0.1402 -1.7256  1.7985
23402SOL     OW71646   7.320   1.601   2.332  0.0008  0.1074  0.1905
23402SOL    HW171647   7.289   1.566   2.415  2.1739 -0.9151  0.6345
23402SOL    HW271648   7.293   1.537   2.266 -0.1496  0.0074  0.3500
23403SOL     OW71649   4.800   0.709   1.454 -0.1733  0.5446 -0.0902
23403SOL    HW171650   4.799   0.622   1.415 -2.1729  0.4711  0.0161
23403SOL    HW271651   4.776   0.768   1.382 -3.4319  0.4549  0.7407
23404SOL     OW71652   5.253   6.341   2.222  0.1051  0.1415  0.3291
23404SOL    HW171653   5.310   6.263   2.221 -0.3172 -0.1984  1.3338
23404SOL    HW271654   5.276   6.388   2.142  1.1384 -0.4685  0.2423
23405SOL     OW71655   6.295   6.600   2.468 -0.1079  0.1104  0.6063
23405SOL    HW171656   6.243   6.602   2.388 -0.0634  0.0073  0.5737
23405SOL    HW271657   6.236   6.632   2.536  0.2502  1.4264  0.3198
23406SOL     OW71658   5.788   6.331   0.833  0.3071 -0.0709 -0.4323
23406SOL    HW171659   5.745   6.302   0.914  1.3605  1.0724  0.5691
23406SOL    HW271660   5.716   6.359   0.776 -0.3442  2.1629  1.3408
23407SOL     OW71661   5.025   1.155   2.476 -0.1560  0.6922  0.2534
23407SOL    HW171662   5.044   1.197   2.392 -0.6612 -0.2068 -0.3207
23407SOL    HW271663   4.931   1.137   2.473 -0.2439  0.9445  1.1575
23408SOL     OW71664   6.621   2.076  12.478  0.0205 -0.4995  0.0956
23408SOL    HW171665   6.564   2.060  12.403 -2.0112 -0.4340  1.5311
23408SOL    HW271666   6.608   1.999  12.534  1.7432 -0.6992  0.2647
23409SOL     OW71667   6.607   0.897   0.811 -0.4652  0.6049 -0.2873
23409SOL    HW171668   6.546   0.959   0.850 -0.5883  0.0587  0.4055
23409SOL    HW271669   6.590   0.815   0.856  0.9831  0.5094  0.1278
23410SOL     OW71670   5.221   6.372  11.577  0.0886  0.3360  0.1499
23410SOL    HW171671   5.211   6.390  11.671  3.1362  1.8319  0.3302
23410SOL    HW271672   5.210   6.458  11.536 -1.0727 -0.2885 -0.8892
23411SOL     OW71673   7.296   1.469   3.706  0.1072  0.0450  0.2837
23411SOL    HW171674   7.309   1.420   3.625 -0.7499  1.0989 -0.5259
23411SOL    HW271675   7.237   1.415   3.759  1.5528 -1.1699  0.7104
23412SOL     OW71676   4.651   7.583   2.126 -0.3213 -0.6276 -0.1208
23412SOL    HW171677   4.601   7.569   2.207 -2.9648 -0.2897 -1.5794
23412SOL    HW271678   4.656   7.496   2.086 -2.3665 -0.2423 -1.3415
23413SOL     OW71679   6.011   6.046   3.015  0.4356  0.2768  0.0762
23413SOL    HW171680   6.046   6.072   2.930  1.0541  1.4993  0.6760
23413SOL    HW271681   6.037   6.117   3.074  0.6192 -0.8728  1.4340
23414SOL     OW71682   5.702   6.113   1.640 -0.1982  0.2326  0.3192
23414SOL    HW171683   5.748   6.081   1.563 -0.4397  0.5573  0.0391
23414SOL    HW271684   5.729   6.053   1.710  0.7033  0.4615  0.1756
23415SOL     OW71685   7.015   1.479   2.729 -0.2528  0.0365  0.0903
23415SOL    HW171686   7.029   1.568   2.763 -0.4586 -0.5412  1.7374
23415SOL    HW271687   7.073   1.424   2.781 -0.3501 -0.8487 -0.7202
23416SOL     OW71688   6.862   7.569   0.989  0.6019  0.0564 -0.0740
23416SOL    HW171689   6.842   7.659   0.963 -1.5896  0.0061  1.1432
23416SOL    HW271690   6.881   7.524   0.907 -4.0966  0.3466 -1.6283
23417SOL     OW71691   5.902   0.769   2.557 -0.4051 -0.1484  0.0567
23417SOL    HW171692   5.940   0.853   2.532 -0.9630 -0.7073 -3.1438
23417SOL    HW271693   5.822   0.792   2.604 -0.8631  1.1535 -1.2894
23418SOL     OW71694   7.729   1.332   2.197 -0.2787 -0.1053 -0.0563
23418SOL    HW171695   7.788   1.332   2.122  1.4945 -0.3042  1.2709
23418SOL    HW271696   7.684   1.247   2.192 -3.3676  1.4715 -3.1410
23419SOL     OW71697   5.025   7.648   0.771 -0.7754 -0.6027 -0.2310
23419SOL    HW171698   5.012   7.591   0.695  0.2033  0.6404 -1.3818
23419SOL    HW271699   5.120   7.657   0.777 -0.9022  0.7286  0.0465
23420SOL     OW71700   5.013   6.902   1.337  0.4520 -0.3650 -0.1561
23420SOL    HW171701   5.012   6.936   1.248  0.2215 -0.4916 -0.2017
23420SOL    HW271702   5.075   6.829   1.335  1.0935  0.1663 -0.0149
23421SOL     OW71703   6.542   7.929  11.041 -0.5611 -0.2317 -0.0415
23421SOL    HW171704   6.601   7.894  10.975 -0.5606 -0.1046 -0.1084
23421SOL    HW271705   6.596   7.935  11.120 -0.0394  1.3177 -0.4760
23422SOL     OW71706   5.319   1.248   1.522 -0.4444 -1.0142  0.3227
23422SOL    HW171707   5.349   1.159   1.506  0.2005 -0.8871  0.7773
23422SOL    HW271708   5.247   1.261   1.461  0.8665 -1.0954 -1.3055
23423SOL     OW71709   5.626   6.924   3.150 -0.0078 -0.1670  0.4017
23423SOL    HW171710   5.590   6.878   3.075 -1.0430 -0.8563  1.2971
23423SOL    HW271711   5.700   6.973   3.114 -0.7389 -0.1301 -1.1428
23424SOL     OW71712   6.917   6.132   1.392  0.1957 -0.0015 -0.8871
23424SOL    HW171713   7.012   6.134   1.375  0.2146 -2.0624 -1.3073
23424SOL    HW271714   6.877   6.136   1.305  0.0868 -3.2868 -1.1129
23425SOL     OW71715   1.225   0.576   2.128 -0.2579  0.1418  0.1570
23425SOL    HW171716   1.178   0.550   2.049 -1.2504  0.6966  0.5482
23425SOL    HW271717   1.312   0.600   2.098 -0.8596  1.0987 -0.8926
23426SOL     OW71718   6.050   1.217   1.205 -0.5020  0.3216  0.3995
23426SOL    HW171719   6.004   1.208   1.288  0.4888  1.0755  1.0438
23426SOL    HW271720   6.052   1.312   1.189 -0.4829  0.1954 -0.3745
23427SOL     OW71721   6.267   0.699   0.993 -0.5080  0.1853 -0.2672
23427SOL    HW171722   6.329   0.730   1.060  0.9464 -0.6214 -1.1912
23427SOL    HW271723   6.218   0.777   0.968  1.2853  1.2334 -0.6911
23428SOL     OW71724   6.790   0.682   2.869 -0.2384 -0.4519 -0.2787
23428SOL    HW171725   6.764   0.642   2.952  0.8607  1.3297  1.0038
23428SOL    HW271726   6.877   0.717   2.887  0.8233 -1.6039 -2.7858
23429SOL     OW71727   5.692   7.588   1.868  0.1247 -0.4663  0.1262
23429SOL    HW171728   5.640   7.668   1.877 -2.0630 -1.6376 -1.3703
23429SOL    HW271729   5.754   7.592   1.941 -0.3896  2.2201  0.5210
23430SOL     OW71730   5.020   7.104   3.069 -0.3863  0.0719 -0.0430
23430SOL    HW171731   5.040   7.189   3.109 -1.5413  0.3531 -0.0186
23430SOL    HW271732   5.105   7.061   3.060  0.1371  0.9238  0.6341
23431SOL     OW71733   6.064   7.599   2.516 -0.3974  0.6551 -0.2496
23431SOL    HW171734   6.015   7.562   2.590  0.3426 -0.8599 -0.4941
23431SOL    HW271735   6.035   7.549   2.440  0.2695  0.8971 -0.6734
23432SOL     OW71736   5.302   7.898   1.956 -0.3924  0.1678  0.1071
23432SOL    HW171737   5.293   7.842   1.880 -0.6470 -0.7879  0.8191
23432SOL    HW271738   5.311   7.987   1.921  2.7788 -0.5359 -1.1898
23433SOL     OW71739   7.562   0.985   0.001 -0.3208  0.2806  0.2285
23433SOL    HW171740   7.599   0.905  -0.037  1.1041  0.5416  0.9778
23433SOL    HW271741   7.602   0.991   0.088 -1.6629  0.9560  0.8297
23434SOL     OW71742   6.909   6.734  12.381 -0.4638  0.5208 -0.1174
23434SOL    HW171743   6.907   6.669  12.452 -1.1429 -0.2159 -0.7926
23434SOL    HW271744   7.000   6.734  12.352 -0.6406 -0.8540 -0.7450
23435SOL     OW71745   7.380   0.657   0.094  0.0516 -0.1362  0.1103
23435SOL    HW171746   7.388   0.676   0.000  1.6082 -0.0536  0.2386
23435SOL    HW271747   7.437   0.721   0.136  0.8937 -1.4156  0.9722
23436SOL     OW71748   5.314   7.777   2.196 -0.0103 -0.2744  0.2543
23436SOL    HW171749   5.311   7.806   2.105  1.1432 -0.3814  0.1708
23436SOL    HW271750   5.294   7.855   2.247  0.5517  0.0706 -0.0500
23437SOL     OW71751   6.997   7.432   1.450 -0.3926  0.4535  0.1352
23437SOL    HW171752   7.066   7.493   1.474 -1.3041  1.7054 -0.3134
23437SOL    HW271753   7.027   7.391   1.370  0.4595 -0.0903  0.7188
23438SOL     OW71754   6.092   6.951   1.909 -0.1414 -0.2147  0.2489
23438SOL    HW171755   6.159   6.907   1.962 -0.1804 -1.1895 -0.4832
23438SOL    HW271756   6.132   6.961   1.823  0.0508  1.6823  0.5376
23439SOL     OW71757   4.605   7.031   2.433 -0.9625 -0.3496 -0.6452
23439SOL    HW171758   4.574   7.116   2.463  1.8993  1.0121 -1.2947
23439SOL    HW271759   4.642   6.989   2.511  0.4798  0.3850 -0.9074
23440SOL     OW71760   4.850   7.208   1.658  0.2060  0.3079  0.5484
23440SOL    HW171761   4.930   7.183   1.612  0.0367  0.4500  0.1718
23440SOL    HW271762   4.780   7.191   1.595 -0.0348  0.4211  0.7848
23441SOL     OW71763   7.087   6.855   1.641  0.2913  0.0963 -0.4164
23441SOL    HW171764   7.156   6.789   1.639  0.6516  0.4719 -0.3795
23441SOL    HW271765   7.064   6.868   1.549  1.8376  1.6088 -0.6229
23442SOL     OW71766   6.120   0.192   0.661 -0.2924  0.1318  0.2501
23442SOL    HW171767   6.204   0.235   0.679 -0.1877  0.2878 -0.5605
23442SOL    HW271768   6.142   0.099   0.655 -0.0295  0.2386 -0.6942
23443SOL     OW71769   4.601   0.144   2.351 -0.0568 -0.4063  0.3709
23443SOL    HW171770   4.673   0.182   2.400  0.3392  1.6153 -1.6257
23443SOL    HW271771   4.611   0.049   2.364  2.7498 -0.1948  0.4817
23444SOL     OW71772   6.083   7.194   0.482 -0.3771  0.1373  0.3199
23444SOL    HW171773   6.089   7.265   0.418 -0.1924 -0.4844 -0.3640
23444SOL    HW271774   6.146   7.128   0.452 -2.7949 -1.7780 -0.9483
23445SOL     OW71775   6.656   7.634   1.192  0.1619 -0.0525 -0.1002
23445SOL    HW171776   6.593   7.570   1.161  0.5747  0.5714 -2.4108
23445SOL    HW271777   6.738   7.612   1.147  1.6235 -0.7001  2.6351
23446SOL     OW71778   0.433   7.955   1.745  0.7484  0.0653 -0.5056
23446SOL    HW171779   0.340   7.960   1.766  1.1364 -0.1990  1.4744
23446SOL    HW271780   0.439   7.887   1.678 -0.1934 -2.2862  1.6207
23447SOL     OW71781   6.530   0.344   2.965 -0.0846 -0.0073  0.1724
23447SOL    HW171782   6.552   0.258   2.930  1.5372  0.8170 -0.9581
23447SOL    HW271783   6.434   0.345   2.968 -0.1571 -2.5707  2.1597
23448SOL     OW71784   6.612   7.919   1.866 -0.0460  0.5395  0.0980
23448SOL    HW171785   6.601   7.930   1.771 -0.8826 -2.2138 -0.1959
23448SOL    HW271786   6.526   7.889   1.896  0.7274 -0.3851  1.4407
23449SOL     OW71787   6.854   6.975   1.303  0.3676  0.1768 -0.2047
23449SOL    HW171788   6.767   6.934   1.308  0.1492  0.7281  0.8653
23449SOL    HW271789   6.865   7.017   1.388  2.4563 -1.3950  0.3651
23450SOL     OW71790   6.219   7.400   1.520 -0.2675  0.1208 -0.1332
23450SOL    HW171791   6.237   7.377   1.429 -0.4712  1.2240 -0.4725
23450SOL    HW271792   6.153   7.338   1.548  1.1341 -1.4380 -0.1247
23451SOL     OW71793   7.001   7.940   0.222  0.6152 -0.1665 -0.2994
23451SOL    HW171794   6.942   7.941   0.297 -0.5928 -1.0175 -1.1927
23451SOL    HW271795   7.036   8.029   0.218 -0.8673  0.4665  0.0744
23452SOL     OW71796   5.235   0.142   1.859  0.4474 -0.2856  0.3910
23452SOL    HW171797   5.273   0.205   1.798 -0.8246  0.4536  0.3313
23452SOL    HW271798   5.176   0.088   1.805  0.7563 -0.8686  0.6277
23453SOL     OW71799   5.405   6.799   2.564  0.2185 -0.1369  0.6695
23453SOL    HW171800   5.495   6.816   2.538  0.6691 -0.3951  1.9669
23453SOL    HW271801   5.409   6.716   2.612 -0.4987  0.4271  1.7566
23454SOL     OW71802   5.165   6.954   0.574  0.2298  0.0761  0.3712
23454SOL    HW171803   5.202   6.965   0.662  1.9069  1.2447 -0.4279
23454SOL    HW271804   5.207   7.022   0.522  0.5765 -1.6702 -1.7482
23455SOL     OW71805   6.355   0.323   0.674  0.0672 -0.8189 -0.3340
23455SOL    HW171806   6.443   0.310   0.709  0.0970 -0.0602 -0.1279
23455SOL    HW271807   6.360   0.406   0.626 -0.6788 -0.4935  0.1464
23456SOL     OW71808   0.632   0.413   0.755 -0.6574 -0.3902 -0.5332
23456SOL    HW171809   0.605   0.484   0.814 -0.4242  0.0379 -0.9295
23456SOL    HW271810   0.712   0.379   0.795 -0.0929  0.3835 -0.9708
23457SOL     OW71811   5.901   7.582   2.071 -0.0049  0.8235  0.3118
23457SOL    HW171812   5.881   7.529   2.148  0.4545 -1.6192 -1.1554
23457SOL    HW271813   5.961   7.649   2.103 -0.4825  0.3949  2.2289
23458SOL     OW71814   7.041   0.051   1.457 -0.1847  0.1558 -0.3651
23458SOL    HW171815   7.099  -0.023   1.474  1.6565  1.0987 -2.0239
23458SOL    HW271816   7.078   0.123   1.509 -0.5768  0.4792 -0.5244
23459SOL     OW71817   5.322   7.230   0.588  0.8071 -0.7412 -0.4173
23459SOL    HW171818   5.259   7.277   0.643  0.6498 -1.2624 -0.1511
23459SOL    HW271819   5.312   7.270   0.502  0.1367 -0.7903 -0.3703
23460SOL     OW71820   6.321   7.992  12.067 -0.6439 -0.4634  0.2822
23460SOL    HW171821   6.375   8.008  11.989 -1.2924 -1.7681 -0.4805
23460SOL    HW271822   6.264   8.069  12.073  1.7631  1.3351  1.5863
23461SOL     OW71823   6.263   0.025   1.540  0.1562  0.2425 -0.3985
23461SOL    HW171824   6.201   0.029   1.468 -0.4841  0.3410  0.1438
23461SOL    HW271825   6.224  -0.037   1.602  1.8775 -1.7589 -1.2136
23462SOL     OW71826   6.457   6.508   1.103  0.4108  0.4696  0.0323
23462SOL    HW171827   6.462   6.429   1.050  2.3372 -0.0817  0.9161
23462SOL    HW271828   6.504   6.575   1.052  1.2149  0.2608  0.4747
23463SOL     OW71829   3.271   7.716   2.675  0.1185  0.6911  0.2390
23463SOL    HW171830   3.179   7.693   2.666 -0.1783  1.7236  0.5909
23463SOL    HW271831   3.301   7.664   2.750 -0.1814  0.3911  0.1555
23464SOL     OW71832   4.286   6.979   3.042 -0.2814 -0.5445 -0.3532
23464SOL    HW171833   4.328   7.047   3.093 -0.1122 -0.1199 -1.0447
23464SOL    HW271834   4.222   7.025   2.988 -0.9119 -1.0607 -0.0693
23465SOL     OW71835   5.450   6.964   4.080 -0.3536  0.2831 -0.5389
23465SOL    HW171836   5.392   6.970   4.003 -0.2455  1.4943 -0.5467
23465SOL    HW271837   5.537   6.952   4.043 -0.5224 -1.0445 -0.5407
23466SOL     OW71838   6.470   1.197   1.997  0.5037  0.3012 -0.0914
23466SOL    HW171839   6.409   1.155   1.937 -0.8233  0.7155  0.9201
23466SOL    HW271840   6.477   1.137   2.072  2.2943 -0.3059 -0.6887
23467SOL     OW71841   6.356   6.641   2.829  0.0427  0.3734 -0.2998
23467SOL    HW171842   6.276   6.673   2.869  1.3663  0.1064  2.8809
23467SOL    HW271843   6.351   6.545   2.838 -0.0247  0.2321 -1.6871
23468SOL     OW71844   6.900   0.228   3.771  0.1498 -0.2396  0.1943
23468SOL    HW171845   6.944   0.146   3.747 -0.5859 -0.5479 -0.1178
23468SOL    HW271846   6.832   0.201   3.832  1.6046  0.4639  2.2257
23469SOL     OW71847   5.268   1.561   2.023 -0.5422  0.1265  0.2048
23469SOL    HW171848   5.328   1.626   1.986 -1.5574  0.4353 -0.9649
23469SOL    HW271849   5.192   1.563   1.966 -1.1914 -1.1003  0.9723
23470SOL     OW71850   5.069   6.629   6.033  0.0511  0.5836  0.4463
23470SOL    HW171851   5.040   6.674   5.954  0.1627 -2.0237 -1.2165
23470SOL    HW271852   5.140   6.682   6.067  0.4492  1.4480 -1.6195
23471SOL     OW71853   7.919   6.940   2.624  0.7933  0.0902 -0.1750
23471SOL    HW171854   7.900   6.846   2.623 -2.1607  0.5963 -1.7879
23471SOL    HW271855   7.870   6.973   2.700  1.6130  0.4137  0.2323
23472SOL     OW71856   7.154   7.152   4.305 -0.3519  0.2376 -0.1068
23472SOL    HW171857   7.210   7.211   4.356 -1.5118  1.3351 -0.0699
23472SOL    HW271858   7.216   7.090   4.266  0.5435 -1.7653  3.9118
23473SOL     OW71859   6.049   1.549   2.282  0.3870  0.7205  0.2080
23473SOL    HW171860   6.134   1.535   2.324  0.3001  1.4096  0.6306
23473SOL    HW271861   5.986   1.505   2.339  0.4587  0.1501 -0.1416
23474SOL     OW71862   6.886   7.941   4.109 -0.0389 -0.5760 -0.3634
23474SOL    HW171863   6.850   7.923   4.196  1.1176 -2.5874 -0.2371
23474SOL    HW271864   6.942   8.018   4.121 -3.5529  2.2711 -0.4329
23475SOL     OW71865   7.623   7.054   1.969  0.3923  1.0320 -0.3658
23475SOL    HW171866   7.672   7.136   1.978  0.0300  1.0430  2.2974
23475SOL    HW271867   7.538   7.073   2.008  0.6849 -0.8569  1.3880
23476SOL     OW71868   0.727   0.383   2.819  0.4758  0.0297 -0.2081
23476SOL    HW171869   0.756   0.415   2.905  0.7275 -0.1184 -0.2370
23476SOL    HW271870   0.661   0.446   2.791 -0.5761 -0.6340  0.6915
23477SOL     OW71871   6.568   0.228   3.258 -0.2744 -0.4423  0.0880
23477SOL    HW171872   6.508   0.274   3.317 -1.8365 -0.5920 -1.2858
23477SOL    HW271873   6.510   0.187   3.193  1.0912 -3.4855  0.6045
23478SOL     OW71874   6.714   7.016   2.501 -0.1465 -0.3121 -0.5274
23478SOL    HW171875   6.675   6.935   2.467 -1.8698  0.0284  0.5473
23478SOL    HW271876   6.660   7.086   2.465 -1.8375  0.0757  2.4692
23479SOL     OW71877   7.670   1.433   1.877 -0.7618  0.3250 -0.5047
23479SOL    HW171878   7.594   1.491   1.872  0.0926  1.5821  0.4070
23479SOL    HW271879   7.738   1.487   1.917  0.8989 -0.4775 -2.1468
23480SOL     OW71880   5.046   6.697   3.179 -0.2902 -0.2925 -0.0571
23480SOL    HW171881   4.954   6.722   3.169 -0.3072 -0.1990  0.3498
23480SOL    HW271882   5.080   6.700   3.089 -0.3636  0.8991 -0.0623
23481SOL     OW71883   5.339   6.225   1.631 -0.0747 -0.1645  0.0524
23481SOL    HW171884   5.250   6.200   1.603  0.0569 -2.1063  1.1619
23481SOL    HW271885   5.359   6.164   1.702  2.3932 -0.1774 -0.5651
23482SOL     OW71886   4.885   7.081   3.822 -0.4231 -0.3379  0.0265
23482SOL    HW171887   4.802   7.117   3.793 -0.7304 -0.3225  0.9075
23482SOL    HW271888   4.862   7.023   3.895  0.0884 -2.0385 -1.0940
23483SOL     OW71889   7.227   1.218   3.098 -0.1569  0.6297  0.1084
23483SOL    HW171890   7.246   1.311   3.106 -0.7017  0.6902  0.7707
23483SOL    HW271891   7.313   1.177   3.087  0.1070  1.1862  0.0666
23484SOL     OW71892   7.521   1.210   3.374 -0.1924  0.5352 -0.7489
23484SOL    HW171893   7.600   1.225   3.322 -0.2734 -0.1209 -1.0666
23484SOL    HW271894   7.482   1.130   3.338 -1.0040  0.8441 -0.5984
23485SOL     OW71895   5.108   0.318   2.019 -0.1258  0.1881 -0.0201
23485SOL    HW171896   5.142   0.277   1.940  0.3640  1.5679 -0.5576
23485SOL    HW271897   5.049   0.253   2.057  2.1549 -1.8039  0.2835
23486SOL     OW71898   7.757   7.858   1.298 -0.1995  0.3594 -0.3079
23486SOL    HW171899   7.802   7.774   1.310  1.2008  1.1033 -0.1943
23486SOL    HW271900   7.706   7.846   1.218  0.0398 -0.5839 -0.3312
23487SOL     OW71901   4.087   6.161   2.834 -0.1611  0.1976 -0.0995
23487SOL    HW171902   4.127   6.074   2.834  0.5465  0.5182  0.0501
23487SOL    HW271903   4.159   6.221   2.814 -0.3863  0.8739  1.0466
23488SOL     OW71904   7.001   7.944   3.156  0.7582 -0.9043 -0.0063
23488SOL    HW171905   7.012   7.955   3.250  1.1646  1.0514 -0.2451
23488SOL    HW271906   6.925   7.998   3.133  0.7061 -1.2928 -0.8135
23489SOL     OW71907   5.876   0.206   4.007  0.0020  0.3324 -0.0639
23489SOL    HW171908   5.849   0.298   4.010 -2.3982 -0.3365  1.9441
23489SOL    HW271909   5.928   0.194   4.087 -0.4250 -0.2482  0.1292
23490SOL     OW71910   7.209   0.611   1.403 -0.0469  0.0705 -0.0495
23490SOL    HW171911   7.140   0.677   1.390 -0.2941 -0.3801 -1.1193
23490SOL    HW271912   7.285   0.647   1.357  0.3387  0.3902  0.8135
23491SOL     OW71913   5.719   7.267   1.243  0.2934 -0.4783 -0.2587
23491SOL    HW171914   5.669   7.333   1.194 -0.9555 -1.5176 -0.4449
23491SOL    HW271915   5.703   7.288   1.335  0.5039 -0.0890 -0.3073
23492SOL     OW71916   5.674   7.444   2.361 -0.0893 -0.4710  0.5144
23492SOL    HW171917   5.617   7.517   2.384  0.6073  1.7541 -3.7525
23492SOL    HW271918   5.621   7.390   2.302  0.4650 -1.6327  1.0415
23493SOL     OW71919   6.939   5.879   3.426 -0.0097  0.4989 -0.1962
23493SOL    HW171920   6.986   5.798   3.406 -0.4145  0.2961 -0.3348
23493SOL    HW271921   6.862   5.851   3.476  0.4295  0.9024  0.7203
23494SOL     OW71922   6.397   7.787   3.575 -0.0177  0.4434  0.1954
23494SOL    HW171923   6.340   7.832   3.637  0.2510  0.8812  0.1284
23494SOL    HW271924   6.445   7.857   3.531 -0.8529  0.2036 -1.1546
23495SOL     OW71925   5.181   7.138   3.426  0.4015 -0.2718  0.9270
23495SOL    HW171926   5.245   7.069   3.441  0.8858 -0.1709 -0.5365
23495SOL    HW271927   5.099   7.090   3.410  0.9787 -0.6501 -1.3559
23496SOL     OW71928   6.474   7.887   4.188  0.1456 -0.6331  0.0793
23496SOL    HW171929   6.429   7.970   4.178 -0.6157 -1.1538 -0.9679
23496SOL    HW271930   6.497   7.884   4.281  0.1954  0.7337  0.1323
23497SOL     OW71931   6.544   6.853   4.232 -0.2594 -0.1813 -0.3322
23497SOL    HW171932   6.575   6.913   4.299 -0.6650 -0.1197 -0.1978
23497SOL    HW271933   6.483   6.905   4.179  1.1298  0.1857 -1.6307
23498SOL     OW71934   4.963   5.979   4.107 -0.4018 -0.5381 -0.4704
23498SOL    HW171935   4.950   5.885   4.120 -2.9824 -0.2025 -0.2799
23498SOL    HW271936   5.038   6.001   4.163 -0.3836 -2.2863  0.2429
23499SOL     OW71937   4.629   5.245   2.753 -0.2596  0.2056 -0.2926
23499SOL    HW171938   4.712   5.213   2.716 -0.9154 -0.9136 -0.8355
23499SOL    HW271939   4.641   5.239   2.848  0.0137 -0.6897 -0.3733
23500SOL     OW71940   6.591   0.757   2.632  0.1152 -0.2164  0.0973
23500SOL    HW171941   6.672   0.709   2.648 -1.3573 -2.7552  0.4338
23500SOL    HW271942   6.572   0.800   2.715  1.2581  0.6906 -0.0879
23501SOL     OW71943   0.139   6.911   1.359  0.2474 -0.3974  0.7054
23501SOL    HW171944   0.050   6.945   1.362 -0.1824 -1.4030  0.1186
23501SOL    HW271945   0.178   6.934   1.443  0.4259  2.6011 -0.0752
23502SOL     OW71946   6.813   7.292   2.866  0.0425 -0.0341  0.2735
23502SOL    HW171947   6.721   7.318   2.879 -0.6120 -1.9613 -0.1076
23502SOL    HW271948   6.844   7.269   2.953 -1.3145 -3.6522 -0.0210
23503SOL     OW71949   6.215   0.698   2.896 -0.0242  0.4336  0.0867
23503SOL    HW171950   6.128   0.667   2.920  0.2572 -0.1033  0.4454
23503SOL    HW271951   6.247   0.635   2.832  2.0170 -2.3237  3.4544
23504SOL     OW71952   5.702   1.661   3.795 -0.1372  0.2635 -0.5703
23504SOL    HW171953   5.749   1.590   3.839 -1.8800 -0.8843 -0.4494
23504SOL    HW271954   5.713   1.642   3.701  2.2037  1.7946 -0.6975
23505SOL     OW71955   4.517   7.588   2.938 -0.0451  0.6340 -0.3824
23505SOL    HW171956   4.596   7.582   2.885 -0.0561 -1.4145 -0.2463
23505SOL    HW271957   4.447   7.608   2.876  0.2026 -0.0523 -0.8922
23506SOL     OW71958   5.352   7.353   3.406  0.5695 -0.2807 -0.2576
23506SOL    HW171959   5.270   7.307   3.423  1.0652 -1.4964 -1.0404
23506SOL    HW271960   5.342   7.437   3.451 -1.2530 -0.2373 -0.6778
23507SOL     OW71961   6.677   0.523   3.327  0.3924  1.0559  0.4166
23507SOL    HW171962   6.744   0.456   3.338 -0.7302 -0.1931  0.0026
23507SOL    HW271963   6.673   0.539   3.232 -0.5381  0.3826  0.3214
23508SOL     OW71964   5.816   0.441   2.728  0.2101  0.3954  0.6341
23508SOL    HW171965   5.881   0.389   2.680 -1.2534  0.3481 -1.4665
23508SOL    HW271966   5.774   0.378   2.786 -0.4308 -0.4594 -0.6998
23509SOL     OW71967   5.881   0.089   2.820  0.4711 -0.1101 -0.1711
23509SOL    HW171968   5.945   0.037   2.869  0.8575  0.4132 -0.1112
23509SOL    HW271969   5.930   0.166   2.790  0.0114  0.0196 -0.6071
23510SOL     OW71970   4.934   0.871   4.300  1.0236 -0.8989 -0.1550
23510SOL    HW171971   4.960   0.788   4.259 -1.0687 -2.5262  1.5798
23510SOL    HW271972   4.875   0.912   4.237 -0.7411 -2.5086  0.3663
23511SOL     OW71973   0.782   1.129   2.531 -0.5636 -0.2272 -0.0463
23511SOL    HW171974   0.771   1.190   2.605 -0.4518  0.9105 -0.9399
23511SOL    HW271975   0.874   1.136   2.508 -0.6339 -0.4637 -0.3970
23512SOL     OW71976   7.953   7.963   3.341  0.3403  0.2265  0.3319
23512SOL    HW171977   7.902   7.984   3.419 -0.0511 -0.7016  0.3458
23512SOL    HW271978   7.900   7.995   3.268  0.0465 -0.1349  0.3824
23513SOL     OW71979   6.343   7.692   2.313 -0.1436 -0.4969 -0.3832
23513SOL    HW171980   6.326   7.785   2.323  1.1745 -0.3994  1.3457
23513SOL    HW271981   6.292   7.666   2.236  0.8024  1.9978 -1.9600
23514SOL     OW71982   7.041   0.254   2.117 -0.0021 -0.1691  0.3142
23514SOL    HW171983   7.104   0.287   2.053  1.1331 -1.5980  0.6284
23514SOL    HW271984   6.979   0.201   2.066  0.1711 -0.2960  0.2346
23515SOL     OW71985   6.675   7.749   2.839 -0.2233 -0.1461 -0.0956
23515SOL    HW171986   6.619   7.793   2.903 -0.0243  2.5589 -1.6048
23515SOL    HW271987   6.621   7.677   2.806 -0.6497 -1.0583  2.3854
23516SOL     OW71988   5.730   6.611   4.197  0.0291  0.3212 -0.2706
23516SOL    HW171989   5.799   6.644   4.254  0.4043 -1.5683  0.4593
23516SOL    HW271990   5.777   6.564   4.128 -0.4851 -0.3263 -0.1977
23517SOL     OW71991   5.836   0.189   3.172  0.4780 -0.4428  0.9475
23517SOL    HW171992   5.859   0.096   3.170  1.8316 -0.1248  0.6856
23517SOL    HW271993   5.915   0.232   3.203  0.6304  0.8276 -1.0067
23518SOL     OW71994   5.132   6.615   2.238  0.4791  0.0582 -0.0229
23518SOL    HW171995   5.192   6.541   2.249 -1.6841 -1.9650 -1.0623
23518SOL    HW271996   5.110   6.641   2.327  0.9877 -0.8096  0.3743
23519SOL     OW71997   7.506   0.552   3.716  0.1256 -0.7888 -0.2220
23519SOL    HW171998   7.500   0.496   3.793 -0.7064 -0.5372 -0.0964
23519SOL    HW271999   7.587   0.601   3.727  1.3641 -2.6164 -0.7821
23520SOL     OW72000   6.356   7.764   1.838 -0.4614 -0.1379  0.3754
23520SOL    HW172001   6.278   7.806   1.802 -2.0132 -2.0811  1.2304
23520SOL    HW272002   6.368   7.686   1.784  2.1823  1.1164 -1.0228
23521SOL     OW72003   5.994   0.076   3.742 -0.4748  0.2671 -1.1602
23521SOL    HW172004   5.969   0.127   3.665 -2.7111 -0.6306 -1.1227
23521SOL    HW272005   5.924   0.093   3.806 -0.5054 -1.6262 -0.6267
23522SOL     OW72006   6.674   0.132   2.893 -0.2097  0.3295 -0.4362
23522SOL    HW172007   6.740   0.092   2.837  2.0087  0.4449  1.9230
23522SOL    HW272008   6.634   0.059   2.939  1.4410  0.4561  1.3396
23523SOL     OW72009   7.067   6.783   2.108  0.5357 -0.0632  0.0508
23523SOL    HW172010   7.041   6.802   2.198 -1.0009  0.3775 -0.4573
23523SOL    HW272011   7.095   6.868   2.072 -0.6556  0.1509 -0.4280
23524SOL     OW72012   7.090   1.121   3.612  0.0791 -0.7693 -0.2787
23524SOL    HW172013   7.042   1.185   3.665  2.6252 -0.3733  1.7280
23524SOL    HW272014   7.032   1.104   3.537 -2.2844  1.0737  0.9868
23525SOL     OW72015   6.501   0.305   3.827 -0.3827  0.1121 -0.6713
23525SOL    HW172016   6.486   0.399   3.814  0.3717  0.2683 -0.4534
23525SOL    HW272017   6.595   0.298   3.841 -0.4724 -0.6558 -0.4403
23526SOL     OW72018   6.830   7.024   1.689  0.0469 -0.0419  0.2441
23526SOL    HW172019   6.783   6.941   1.702  0.7654 -0.8321 -1.7719
23526SOL    HW272020   6.777   7.073   1.627  1.3794 -0.5738 -1.3773
23527SOL     OW72021   4.770   7.919   2.741 -0.1242  0.2724 -0.8444
23527SOL    HW172022   4.695   7.868   2.711 -1.0088  0.7804  0.4463
23527SOL    HW272023   4.820   7.858   2.794 -0.5310  0.4026 -0.3081
23528SOL     OW72024   0.160   6.278   3.276  0.2217  0.1083  0.1840
23528SOL    HW172025   0.176   6.188   3.248 -0.0873 -0.3840  1.5140
23528SOL    HW272026   0.222   6.331   3.225  0.5913 -0.8773 -0.4159
23529SOL     OW72027   3.881   6.965   6.224 -0.1749 -0.1557  0.0942
23529SOL    HW172028   3.831   7.020   6.285  0.0090 -0.7230  0.7640
23529SOL    HW272029   3.863   6.876   6.252  1.6237 -0.3600  0.6727
23530SOL     OW72030   4.194   0.239   5.225  0.3782  0.3305 -0.3965
23530SOL    HW172031   4.100   0.255   5.235  0.6112  2.1872 -0.9428
23530SOL    HW272032   4.198   0.162   5.167 -0.7984  0.6881 -0.9941
23531SOL     OW72033   6.595   0.903   3.798  0.4914 -0.6305 -0.0565
23531SOL    HW172034   6.628   0.844   3.866 -1.8264 -1.6116  0.2982
23531SOL    HW272035   6.585   0.847   3.721  1.3353  0.0701 -0.6969
23532SOL     OW72036   6.960   7.594   4.302  0.5220  0.2196 -0.4447
23532SOL    HW172037   6.880   7.647   4.304  1.0090  0.9569  0.4079
23532SOL    HW272038   7.021   7.640   4.360  0.9807 -1.2505  0.2986
23533SOL     OW72039   6.810   7.905   4.354 -0.0924  0.0910 -0.0449
23533SOL    HW172040   6.844   7.990   4.380  0.4107  0.2159 -1.0556
23533SOL    HW272041   6.743   7.884   4.419  1.1198  0.3640  1.3251
23534SOL     OW72042   5.955   7.920   5.403 -0.0991  0.6634 -0.5910
23534SOL    HW172043   5.874   7.876   5.431  0.2330  1.8450  2.6741
23534SOL    HW272044   6.024   7.857   5.423  0.0896  1.3025  0.9475
23535SOL     OW72045   4.856   7.077   5.369 -0.1641 -0.0378  0.2471
23535SOL    HW172046   4.868   6.982   5.365 -2.0996 -0.2905 -0.7152
23535SOL    HW272047   4.765   7.089   5.397  0.2217  1.5615  0.9373
23536SOL     OW72048   4.794   7.167   6.270  0.7492  0.4119  0.1326
23536SOL    HW172049   4.833   7.244   6.312  0.5998  0.8081 -0.4548
23536SOL    HW272050   4.862   7.135   6.211 -0.0025  1.4415 -1.3225
23537SOL     OW72051   7.912   6.820   4.880  0.4223  0.4938 -0.1987
23537SOL    HW172052   7.993   6.793   4.838  0.1299  0.9985 -1.1394
23537SOL    HW272053   7.915   6.916   4.878  0.2804  0.5254  0.7208
23538SOL     OW72054   7.094   6.865   5.341 -0.4541 -0.1630 -0.0627
23538SOL    HW172055   7.036   6.794   5.315  1.8249 -1.8959 -0.8264
23538SOL    HW272056   7.086   6.929   5.270 -1.4263 -0.3531 -0.1376
23539SOL     OW72057   7.315   6.299   6.181  0.0678 -0.5692 -0.2941
23539SOL    HW172058   7.329   6.222   6.126 -0.6816 -0.9205 -0.0053
23539SOL    HW272059   7.392   6.303   6.237  0.4306 -0.7023 -0.7721
23540SOL     OW72060   7.491   0.071   3.808 -0.2238 -0.8129 -0.3958
23540SOL    HW172061   7.440   0.149   3.833  1.0337 -0.4907  1.3805
23540SOL    HW272062   7.582   0.099   3.816  0.2470 -2.2461 -0.5227
23541SOL     OW72063   6.655   6.997   3.757 -0.2801 -0.7330 -0.1758
23541SOL    HW172064   6.576   6.944   3.746 -1.2073  0.4779  0.4635
23541SOL    HW272065   6.713   6.942   3.808 -0.5067 -1.8233 -1.0431
23542SOL     OW72066   4.776   5.544   4.143 -0.2200 -0.3682  0.7890
23542SOL    HW172067   4.755   5.463   4.096  0.5155 -0.0521 -0.1433
23542SOL    HW272068   4.757   5.614   4.079 -2.3695  0.3406  2.1116
23543SOL     OW72069   7.746   0.151   3.826  0.2169  0.1723 -0.2753
23543SOL    HW172070   7.795   0.070   3.829 -0.1983 -0.0734  2.4366
23543SOL    HW272071   7.811   0.220   3.842  0.5199  0.4260 -2.2880
23544SOL     OW72072   4.127   7.042   4.187  0.6787  0.2087  0.0715
23544SOL    HW172073   4.129   7.036   4.282  1.3759 -0.4298  0.0293
23544SOL    HW272074   4.034   7.042   4.164  0.5108  0.3389  0.7463
23545SOL     OW72075   6.324   0.122   4.174  0.5603  0.1662  0.6445
23545SOL    HW172076   6.306   0.145   4.083 -0.0643 -1.0765  0.4299
23545SOL    HW272077   6.238   0.113   4.215  0.8021 -0.3895  1.0565
23546SOL     OW72078   6.282   7.330   3.575 -0.3369  0.6996  0.6413
23546SOL    HW172079   6.206   7.300   3.524  0.0567  0.0197  0.4488
23546SOL    HW272080   6.275   7.282   3.657 -1.3706  2.3187  1.5598
23547SOL     OW72081   7.016   6.451   7.135  0.4295 -0.1712  0.1804
23547SOL    HW172082   6.999   6.357   7.140 -1.1077  0.1239  1.7462
23547SOL    HW272083   7.037   6.476   7.225  0.1745  1.0756 -0.0856
23548SOL     OW72084   4.531   4.926   2.243  0.4227  0.0398 -0.3955
23548SOL    HW172085   4.521   4.841   2.201 -1.4004  0.2803 -0.5303
23548SOL    HW272086   4.447   4.970   2.229  0.3917  0.8451  1.8940
23549SOL     OW72087   4.781   6.288   5.826  0.1463  0.0768 -0.8386
23549SOL    HW172088   4.775   6.280   5.921  0.3521  1.8947 -0.6545
23549SOL    HW272089   4.726   6.216   5.793 -0.5324 -0.1245  0.6422
23550SOL     OW72090   4.995   0.062   6.809  0.2691  0.4134  0.0919
23550SOL    HW172091   5.013   0.100   6.895 -0.0143  0.4954  0.1163
23550SOL    HW272092   4.908   0.094   6.787  0.0331 -0.2102  0.1022
23551SOL     OW72093   5.857   5.321   3.437  0.0244  0.0569  0.5501
23551SOL    HW172094   5.900   5.268   3.370  0.5145  0.2765  0.6878
23551SOL    HW272095   5.913   5.398   3.446 -0.7854  0.7072  0.2003
23552SOL     OW72096   5.594   6.238   5.494 -0.1023 -0.3332 -0.5114
23552SOL    HW172097   5.512   6.190   5.497 -0.9776  1.1682  1.4505
23552SOL    HW272098   5.660   6.174   5.522 -0.7061 -1.2668 -1.1352
23553SOL     OW72099   6.832   7.730   7.151  0.2273  0.1590 -0.6577
23553SOL    HW172100   6.850   7.687   7.068 -1.1354 -0.9306 -0.4144
23553SOL    HW272101   6.873   7.675   7.218 -1.1785 -0.5931 -0.3805
23554SOL     OW72102   4.255   7.638   4.524 -0.4948 -0.5135 -0.2974
23554SOL    HW172103   4.290   7.679   4.604 -0.5770  1.5277 -1.2480
23554SOL    HW272104   4.330   7.592   4.487  0.2952  0.8561 -0.4630
23555SOL     OW72105   5.743   7.807   5.489 -0.0333  0.0163 -0.2684
23555SOL    HW172106   5.683   7.815   5.562 -0.5431 -1.0392 -0.5518
23555SOL    HW272107   5.701   7.853   5.417 -0.4743 -0.6260 -0.4351
23556SOL     OW72108   6.435   0.256   5.270 -0.4107 -0.6641 -0.1538
23556SOL    HW172109   6.374   0.325   5.296 -0.7208 -0.9932 -0.0152
23556SOL    HW272110   6.381   0.179   5.254  0.0821 -1.3224  1.2270
23557SOL     OW72111   7.908   7.644   2.191  0.5133 -0.0374 -0.6074
23557SOL    HW172112   7.819   7.611   2.204  1.0279 -1.1895  0.1547
23557SOL    HW272113   7.923   7.704   2.264 -0.0703  1.1418 -1.4378
23558SOL     OW72114   6.033   0.540   3.885  0.6978 -0.0103  0.2783
23558SOL    HW172115   6.064   0.461   3.930  0.7642  0.4493  1.0721
23558SOL    HW272116   6.105   0.603   3.895  0.7132  0.1007 -0.4863
23559SOL     OW72117   6.503   7.492   5.574  0.1587 -0.0822  0.1608
23559SOL    HW172118   6.463   7.579   5.579 -0.2473 -0.3322  1.8242
23559SOL    HW272119   6.431   7.434   5.548 -0.0911 -0.2249  1.1418
23560SOL     OW72120   6.793   6.832   4.501 -0.5141 -0.2813  0.1418
23560SOL    HW172121   6.709   6.869   4.474 -0.2580  0.0607 -0.1995
23560SOL    HW272122   6.835   6.807   4.419 -1.1863 -2.4825  0.4062
23561SOL     OW72123   7.533   0.145   3.352 -0.0716 -0.3683  0.2661
23561SOL    HW172124   7.478   0.068   3.370 -3.0456  0.8547 -2.5855
23561SOL    HW272125   7.516   0.204   3.425 -0.6114 -0.9834  0.6574
23562SOL     OW72126   6.919   0.360   3.328 -0.0354 -0.5164  0.1407
23562SOL    HW172127   6.964   0.321   3.253  0.2894 -1.0683  0.6217
23562SOL    HW272128   6.987   0.368   3.395 -0.3024  0.0649  0.3545
23563SOL     OW72129   5.799   1.578   5.557  0.1984 -0.0658  0.2137
23563SOL    HW172130   5.767   1.578   5.647  0.6558 -0.5276  0.3824
23563SOL    HW272131   5.729   1.618   5.506 -0.2902 -0.2984  0.6967
23564SOL     OW72132   4.916   0.454   5.012 -0.1152  0.0720  0.2674
23564SOL    HW172133   4.903   0.545   4.986  0.0194  0.0431  0.0975
23564SOL    HW272134   4.828   0.417   5.014 -0.0012 -0.4170 -1.9500
23565SOL     OW72135   4.547   7.062   4.782  0.6740 -0.1744  0.0481
23565SOL    HW172136   4.522   6.970   4.774  0.5231 -0.0487 -0.9744
23565SOL    HW272137   4.621   7.072   4.722 -0.9149  0.9522 -1.8331
23566SOL     OW72138   3.939   0.348   4.596 -0.3114 -0.1976 -0.4344
23566SOL    HW172139   3.887   0.426   4.618 -1.0707 -0.7808 -0.1220
23566SOL    HW272140   3.951   0.303   4.680  0.9663  0.0724 -0.4513
23567SOL     OW72141   5.574   0.196   5.474 -0.8728 -0.3657  0.1510
23567SOL    HW172142   5.667   0.200   5.496 -0.8357  0.1989 -0.1142
23567SOL    HW272143   5.566   0.245   5.392 -0.9767 -2.6021 -1.2559
23568SOL     OW72144   7.481   0.417   2.691  0.4622  0.3966 -0.6662
23568SOL    HW172145   7.389   0.393   2.700  0.6289 -0.7285 -1.6874
23568SOL    HW272146   7.524   0.336   2.662  1.9575  0.6009  0.8154
23569SOL     OW72147   5.726   7.276   4.013 -0.1507 -0.2899  0.0024
23569SOL    HW172148   5.641   7.259   3.972  0.1476 -0.0125 -0.7476
23569SOL    HW272149   5.789   7.232   3.956  0.3663  0.9225 -0.3923
23570SOL     OW72150   5.313   0.169   4.554  0.5084 -0.5550  0.7132
23570SOL    HW172151   5.226   0.142   4.525  0.3294 -0.4215  1.1082
23570SOL    HW272152   5.362   0.186   4.474 -0.2852  0.8040  0.4827
23571SOL     OW72153   7.024   7.843   6.241 -0.0597 -0.2625 -0.2377
23571SOL    HW172154   7.118   7.829   6.256 -0.1159  1.4409  2.1238
23571SOL    HW272155   7.012   7.818   6.149  2.7923 -0.0746 -0.7774
23572SOL     OW72156   5.297   0.065   3.781 -0.7787 -0.1551 -0.1233
23572SOL    HW172157   5.246   0.054   3.700 -1.8699  2.6173  0.0806
23572SOL    HW272158   5.387   0.079   3.750 -1.3770  2.1298 -1.0363
23573SOL     OW72159   4.851   5.874   6.053  0.7215  0.0263 -0.1239
23573SOL    HW172160   4.881   5.913   5.971  0.4526  2.1191  0.7025
23573SOL    HW272161   4.785   5.936   6.086  0.3437 -1.1038  1.3363
23574SOL     OW72162   6.349   1.306   6.304  0.0282 -0.1695 -0.4093
23574SOL    HW172163   6.415   1.354   6.354  0.6801  0.7638 -2.0925
23574SOL    HW272164   6.399   1.239   6.256 -0.2523  0.3892 -1.5112
23575SOL     OW72165   7.532   7.827   3.831  0.3860 -0.1754  0.3922
23575SOL    HW172166   7.507   7.918   3.815 -1.2568 -0.2740  2.0843
23575SOL    HW272167   7.454   7.776   3.808  0.7899 -1.0094  0.8299
23576SOL     OW72168   7.346   0.033   4.183 -0.0687  0.2045 -0.2931
23576SOL    HW172169   7.410   0.004   4.118  0.5378 -2.3831  1.3228
23576SOL    HW272170   7.396   0.046   4.263 -1.1861  0.7276  0.3529
23577SOL     OW72171   5.118   0.819   5.778  0.5507 -0.6156  0.0041
23577SOL    HW172172   5.209   0.806   5.807  0.6003  0.3880  0.3613
23577SOL    HW272173   5.073   0.853   5.855 -0.4772 -2.3816  0.2185
23578SOL     OW72174   5.216   7.010   6.244 -0.1879  0.1368  0.4154
23578SOL    HW172175   5.297   6.965   6.220 -0.0960 -0.2874  1.4386
23578SOL    HW272176   5.239   7.103   6.246 -0.3305  0.2562 -1.5303
23579SOL     OW72177   7.839   7.168   4.211  0.2538  0.1896  0.0497
23579SOL    HW172178   7.867   7.245   4.261 -0.7490  0.3448  0.3939
23579SOL    HW272179   7.779   7.203   4.146 -2.2534 -0.5402  1.8229
23580SOL     OW72180   6.724   5.976   6.225  0.3527 -0.2800 -0.1348
23580SOL    HW172181   6.790   6.041   6.203  1.1068 -1.1880 -0.6503
23580SOL    HW272182   6.687   6.005   6.308  1.6423  0.0635  0.3375
23581SOL     OW72183   6.561   7.322   4.622  0.5750 -0.1887  0.3446
23581SOL    HW172184   6.575   7.255   4.688 -0.5654 -0.8784 -0.0818
23581SOL    HW272185   6.478   7.363   4.647  0.7256  0.3435 -0.0077
23582SOL     OW72186   6.829   0.534   5.278 -0.4256  0.2608  0.3389
23582SOL    HW172187   6.920   0.537   5.305 -0.6097  1.2508  0.8837
23582SOL    HW272188   6.801   0.445   5.300  0.0234  0.3907  1.5000
23583SOL     OW72189   3.640   7.160   5.824  0.0961  0.2363 -1.6830
23583SOL    HW172190   3.693   7.230   5.861 -2.5256  0.1015  3.1074
23583SOL    HW272191   3.694   7.081   5.833  0.0191  0.4069  1.2089
23584SOL     OW72192   4.599   0.277   2.713  0.7949  0.1446 -0.0322
23584SOL    HW172193   4.552   0.201   2.679  0.4881 -0.7217  2.1828
23584SOL    HW272194   4.669   0.241   2.767  2.8841  1.4448 -1.7154
23585SOL     OW72195   6.068   7.055   4.829 -0.2879  0.2777 -0.5195
23585SOL    HW172196   6.032   7.136   4.794 -1.5872  0.3723  0.9217
23585SOL    HW272197   6.000   7.022   4.888 -0.2837 -2.4468 -1.8520
23586SOL     OW72198   5.539   0.720   5.754 -0.7433  0.1286 -0.2419
23586SOL    HW172199   5.545   0.792   5.691 -0.0801 -0.1759 -0.5336
23586SOL    HW272200   5.447   0.720   5.781 -0.9281  0.5754 -0.8415
23587SOL     OW72201   6.293   7.721   3.011 -0.1046  0.3493  0.6838
23587SOL    HW172202   6.365   7.783   3.024  0.4837 -0.4659  1.3378
23587SOL    HW272203   6.294   7.703   2.917 -0.8395  1.9782  0.3101
23588SOL     OW72204   7.386   6.539   4.180  0.8657 -0.0487 -0.5409
23588SOL    HW172205   7.467   6.574   4.143  0.8171  1.6253  0.8314
23588SOL    HW272206   7.377   6.582   4.265  0.4726 -3.0076  1.0523
23589SOL     OW72207   0.919   0.209   5.666  0.6166 -0.1268  0.6246
23589SOL    HW172208   0.840   0.257   5.692 -0.0706 -1.0242  0.2458
23589SOL    HW272209   0.887   0.134   5.615  1.7348 -0.3159  0.1581
23590SOL     OW72210   6.479   5.333   3.631  0.4821 -0.4130 -0.1208
23590SOL    HW172211   6.452   5.318   3.722 -0.5745  1.0029 -0.1707
23590SOL    HW272212   6.471   5.247   3.590 -1.2343 -0.6428  0.5922
23591SOL     OW72213   6.513   0.016   5.452  0.1972 -0.2766  0.3553
23591SOL    HW172214   6.595  -0.011   5.494  1.2766 -0.3761 -1.6663
23591SOL    HW272215   6.542   0.076   5.383 -1.6383  1.2952  0.8816
23592SOL     OW72216   6.789   0.348   5.041 -0.7558 -0.2106 -0.7024
23592SOL    HW172217   6.850   0.282   5.075 -1.5362 -0.1362  0.9339
23592SOL    HW272218   6.844   0.424   5.022 -0.0532 -0.8328 -1.2617
23593SOL     OW72219   5.752   6.224   7.337  0.7536  0.1349 -0.4205
23593SOL    HW172220   5.757   6.273   7.420 -1.5582 -0.1855 -0.0279
23593SOL    HW272221   5.728   6.290   7.272  3.2752  0.5305 -1.0701
23594SOL     OW72222   4.988   7.427   2.806  0.0316  0.4686  0.0798
23594SOL    HW172223   5.081   7.408   2.814 -0.2578 -2.8300 -2.3033
23594SOL    HW272224   4.953   7.418   2.895  1.6056 -1.0327  0.5952
23595SOL     OW72225   7.230   7.562   4.192  0.3645  0.1210 -0.9079
23595SOL    HW172226   7.312   7.611   4.196  0.3735  0.0310  0.6553
23595SOL    HW272227   7.175   7.602   4.260 -0.5157 -0.4663 -1.2568
23596SOL     OW72228   6.736   0.147   3.478 -0.2695 -0.0214 -0.3558
23596SOL    HW172229   6.672   0.172   3.413  0.3387  1.1798 -0.5161
23596SOL    HW272230   6.775   0.229   3.507 -0.8231 -0.4706  1.8501
23597SOL     OW72231   5.683   0.257   6.559 -0.3727  0.2644  0.1084
23597SOL    HW172232   5.649   0.265   6.648 -0.3911  0.0845  0.1188
23597SOL    HW272233   5.774   0.288   6.565 -0.8162  1.6523 -0.1198
23598SOL     OW72234   4.712   7.783   6.437  0.4909 -0.2186 -0.0825
23598SOL    HW172235   4.626   7.775   6.395  0.5453  2.0696 -0.7655
23598SOL    HW272236   4.721   7.702   6.487 -2.0947 -0.5183  0.0797
23599SOL     OW72237   6.713   0.721   5.112 -0.2787  0.7489  0.0717
23599SOL    HW172238   6.734   0.655   5.178  0.9026  0.6789 -0.3617
23599SOL    HW272239   6.789   0.779   5.111 -1.2163  2.0454  0.3265
23600SOL     OW72240   7.882   7.679   7.611  0.2405  0.3102 -0.2886
23600SOL    HW172241   7.875   7.588   7.585 -0.5730  0.3249 -0.1624
23600SOL    HW272242   7.975   7.694   7.625  0.2799 -0.8118  0.8025
23601SOL     OW72243   6.019   7.212   5.642 -0.1980  0.5696  0.8398
23601SOL    HW172244   5.980   7.218   5.555 -0.6485 -1.2076  0.8803
23601SOL    HW272245   5.945   7.197   5.700  0.2677 -0.1325  1.2688
23602SOL     OW72246   4.619   7.419   6.721 -0.5777 -0.1497 -0.2899
23602SOL    HW172247   4.654   7.363   6.790 -0.8248  0.7379  0.5657
23602SOL    HW272248   4.581   7.358   6.658  1.7599 -1.1025 -0.8560
23603SOL     OW72249   6.667   5.736   6.148 -0.0986  0.1755  0.0134
23603SOL    HW172250   6.665   5.660   6.206 -0.6556 -0.2293 -0.5233
23603SOL    HW272251   6.686   5.809   6.206  1.0064 -0.4423  0.4580
23604SOL     OW72252   5.041   2.010   5.691  0.2369  0.0922 -0.1840
23604SOL    HW172253   5.024   1.917   5.677  0.4169  0.1259 -0.6534
23604SOL    HW272254   5.120   2.028   5.639 -0.2335  0.6752 -0.7086
23605SOL     OW72255   5.611   6.381   6.797 -0.2505 -0.2963 -0.5871
23605SOL    HW172256   5.692   6.335   6.822  1.8529  2.6252 -1.4494
23605SOL    HW272257   5.615   6.387   6.702  1.4298  4.3092 -0.4859
23606SOL     OW72258   5.897   7.630   5.966  0.2587  0.3731 -0.9181
23606SOL    HW172259   5.851   7.574   5.903 -0.8764 -1.4429  1.3884
23606SOL    HW272260   5.829   7.684   6.005  0.5153 -0.2782  0.4734
23607SOL     OW72261   6.145   0.618   7.716 -0.4563 -0.0550 -0.1546
23607SOL    HW172262   6.076   0.634   7.652  0.4793  1.0536 -0.9243
23607SOL    HW272263   6.129   0.529   7.748 -2.5985  0.3814  0.1524
23608SOL     OW72264   5.465   7.643   6.449  0.0621  0.5630 -0.4132
23608SOL    HW172265   5.520   7.596   6.386  1.0054  0.8356  0.1990
23608SOL    HW272266   5.407   7.576   6.484  0.2643  0.1934 -0.7751
23609SOL     OW72267   6.100   5.796   4.421  0.4600 -0.3850 -0.1738
23609SOL    HW172268   6.029   5.735   4.440  0.2003 -0.1708 -0.4419
23609SOL    HW272269   6.087   5.868   4.483 -0.6130  0.4956 -1.3789
23610SOL     OW72270   0.539   1.177   6.334 -0.2268 -0.0362  0.3351
23610SOL    HW172271   0.612   1.233   6.358 -0.1324 -0.4710  1.1214
23610SOL    HW272272   0.532   1.115   6.407 -1.3690 -0.0063  0.2723
23611SOL     OW72273   5.893   7.872   5.127 -0.2635  0.5580  1.1473
23611SOL    HW172274   5.921   7.898   5.215  2.9398 -0.0380  0.4236
23611SOL    HW272275   5.943   7.792   5.109 -1.7495 -0.0013 -0.7899
23612SOL     OW72276   3.286   0.677   7.274 -0.4997 -0.0501 -0.2258
23612SOL    HW172277   3.298   0.715   7.360 -1.7658 -0.4158  0.1444
23612SOL    HW272278   3.304   0.748   7.213  0.7008  0.1240  0.3225
23613SOL     OW72279   5.265   7.471   4.321  0.3106 -0.7336 -0.0346
23613SOL    HW172280   5.183   7.481   4.371  0.3219 -0.6689 -0.0295
23613SOL    HW272281   5.237   7.474   4.229  0.5540  1.6434 -0.0981
23614SOL     OW72282   7.579   7.590   7.452 -0.1448  0.5504 -0.4969
23614SOL    HW172283   7.585   7.676   7.493  0.8480  1.3108 -2.1213
23614SOL    HW272284   7.660   7.546   7.476 -1.2342 -0.5270  1.4629
23615SOL     OW72285   5.355   7.421   5.737 -0.0723 -0.2785 -0.4889
23615SOL    HW172286   5.355   7.494   5.676  0.6042 -0.9265 -1.2779
23615SOL    HW272287   5.317   7.348   5.688  0.9850 -0.9498 -0.3358
23616SOL     OW72288   5.428   6.840   6.688  0.5204 -0.2827 -0.4135
23616SOL    HW172289   5.413   6.906   6.619  0.2131  0.4929  0.3762
23616SOL    HW272290   5.385   6.877   6.765 -0.0174 -1.6139 -0.0540
23617SOL     OW72291   6.214   7.135   6.812 -0.6946 -0.1689  0.1443
23617SOL    HW172292   6.128   7.103   6.787 -1.1592 -0.0175  1.5132
23617SOL    HW272293   6.261   7.058   6.844 -1.0275  0.0833  1.2848
23618SOL     OW72294   5.404   6.111   8.030  0.2545 -0.0647  0.3836
23618SOL    HW172295   5.399   6.077   8.120  0.7856 -0.4998  0.2565
23618SOL    HW272296   5.445   6.197   8.040  0.9605 -0.4021  0.5022
23619SOL     OW72297   5.710   1.005   5.250  0.2251 -0.0205  0.0775
23619SOL    HW172298   5.799   1.001   5.216  0.2336 -0.3969  0.1400
23619SOL    HW272299   5.718   1.052   5.333  0.3766 -0.1301  0.1244
23620SOL     OW72300   7.070   7.762   3.999  0.2405 -0.9437  0.2935
23620SOL    HW172301   7.011   7.813   4.055  1.2699 -0.7312  1.2265
23620SOL    HW272302   7.069   7.674   4.036  2.9347 -0.2335  2.4239
23621SOL     OW72303   4.641   0.533   6.448 -0.3144  0.0525 -0.3675
23621SOL    HW172304   4.583   0.514   6.522 -0.3264  1.4760  0.0073
23621SOL    HW272305   4.665   0.625   6.458  0.8769 -0.1207 -1.3165
23622SOL     OW72306   5.707   7.822   7.927 -0.5761 -0.2940  0.3454
23622SOL    HW172307   5.776   7.847   7.987 -0.2031 -0.3774 -0.0428
23622SOL    HW272308   5.749   7.761   7.866 -0.9764 -0.3124  0.0813
23623SOL     OW72309   5.970   0.361   6.808 -0.1387 -0.5515  0.1402
23623SOL    HW172310   6.007   0.313   6.734  1.2006 -0.0661  0.4639
23623SOL    HW272311   6.031   0.433   6.822  0.0863 -1.0890  2.2137
23624SOL     OW72312   6.630   6.462   5.754 -0.4770  0.3784  0.1830
23624SOL    HW172313   6.684   6.390   5.786 -0.0956  1.3569  1.8387
23624SOL    HW272314   6.567   6.477   5.825 -0.1835  2.0404  0.1132
23625SOL     OW72315   5.212   7.469   6.009 -0.4525 -0.6529  0.1754
23625SOL    HW172316   5.271   7.420   6.067  1.0062 -1.2777 -1.7375
23625SOL    HW272317   5.238   7.443   5.921 -2.1357  0.7874 -0.8121
23626SOL     OW72318   7.042   6.479   5.685 -0.5198 -0.0485  0.2688
23626SOL    HW172319   7.059   6.392   5.721  0.4099 -0.9171 -2.0806
23626SOL    HW272320   7.083   6.539   5.747  2.4716 -1.5552 -0.0755
23627SOL     OW72321   7.193   6.468   6.696 -0.0723 -0.4221 -0.0323
23627SOL    HW172322   7.182   6.495   6.787  0.2193  1.1836 -0.4496
23627SOL    HW272323   7.277   6.506   6.669 -0.5214 -0.2196 -1.1940
23628SOL     OW72324   4.281   1.523   6.041 -0.0436  0.2430 -0.3125
23628SOL    HW172325   4.194   1.564   6.036 -0.5488 -0.8445 -0.8326
23628SOL    HW272326   4.300   1.519   6.135 -0.8949 -0.1693 -0.1458
23629SOL     OW72327   0.791   7.918   7.754  0.0039  0.2598  0.4283
23629SOL    HW172328   0.764   7.997   7.707 -1.2321 -1.2143 -1.4888
23629SOL    HW272329   0.815   7.949   7.841  0.9586  2.9341 -0.6875
23630SOL     OW72330   4.638   0.089   7.507  0.4438  0.9519 -0.5978
23630SOL    HW172331   4.565   0.043   7.466  1.0651 -0.3667 -0.2728
23630SOL    HW272332   4.700   0.103   7.436  0.5830  0.6062 -0.5449
23631SOL     OW72333   5.993   7.112   6.295  0.2393  0.1314 -0.3408
23631SOL    HW172334   5.946   7.119   6.377 -0.8893 -0.9679 -0.8665
23631SOL    HW272335   6.060   7.180   6.300 -0.6323  0.9367  0.9323
23632SOL     OW72336   5.336   7.974   6.764  0.3989  0.5284 -0.0581
23632SOL    HW172337   5.373   7.957   6.851  0.1465  0.0777 -0.0365
23632SOL    HW272338   5.412   7.982   6.707  0.5565  0.4292  0.1354
23633SOL     OW72339   5.487   6.465   5.051 -0.2107  0.4078  0.3952
23633SOL    HW172340   5.483   6.438   5.143  1.3831 -0.0429  0.3711
23633SOL    HW272341   5.518   6.387   5.005 -0.0751  0.9140 -0.3870
23634SOL     OW72342   5.537   6.800   5.243  0.3123  0.5275 -0.3409
23634SOL    HW172343   5.528   6.754   5.326  0.8904 -0.8076 -0.9829
23634SOL    HW272344   5.577   6.884   5.266 -2.9860  1.8553  1.1710
23635SOL     OW72345   6.191   0.226   6.681 -0.1303  0.2128 -0.3202
23635SOL    HW172346   6.232   0.140   6.670  0.5219  0.2433  1.5808
23635SOL    HW272347   6.264   0.286   6.697 -0.7815  0.1651  3.7719
23636SOL     OW72348   6.715   0.213   7.118  0.8004 -0.0769  0.4050
23636SOL    HW172349   6.804   0.229   7.089  1.1968 -1.9186  0.4672
23636SOL    HW272350   6.690   0.131   7.075 -1.0955  0.6922 -0.0838
23637SOL     OW72351   6.924   0.490   8.832  0.5222  0.1100  0.0046
23637SOL    HW172352   6.891   0.545   8.760 -0.8164 -0.2707  0.3022
23637SOL    HW272353   6.913   0.400   8.800  1.4729 -0.0230  0.0378
23638SOL     OW72354   7.587   7.598   6.867 -0.0715  0.1333 -0.6032
23638SOL    HW172355   7.516   7.578   6.927 -0.2293 -0.6452 -1.0429
23638SOL    HW272356   7.629   7.676   6.905 -0.8395  0.3010 -0.0795
23639SOL     OW72357   5.287   6.554   8.786  0.5614 -0.3291  0.7440
23639SOL    HW172358   5.204   6.509   8.802  0.9207 -1.4542 -0.3769
23639SOL    HW272359   5.353   6.485   8.786  0.8882 -0.2627 -3.0486
23640SOL     OW72360   4.024   0.198   8.932 -0.2967  0.6534  0.4776
23640SOL    HW172361   3.959   0.191   9.001 -0.3556  0.5713  0.4132
23640SOL    HW272362   4.005   0.281   8.889 -0.3396  0.6436  0.4784
23641SOL     OW72363   6.100   7.547   5.649  0.3456 -0.4967 -0.2152
23641SOL    HW172364   6.026   7.489   5.631  0.8454 -1.4414  0.6663
23641SOL    HW272365   6.165   7.491   5.690  1.5317  0.3460 -0.9002
23642SOL     OW72366   6.719   7.491   5.726 -0.1163  0.6333 -0.1755
23642SOL    HW172367   6.696   7.468   5.816  0.7260 -1.8744 -0.5169
23642SOL    HW272368   6.640   7.471   5.676  0.1166 -0.0443 -0.2729
23643SOL     OW72369   5.846   7.733   7.706  0.7681 -0.5542  0.2375
23643SOL    HW172370   5.807   7.660   7.658 -1.0508 -0.8908  2.0636
23643SOL    HW272371   5.931   7.700   7.736  0.5330 -1.4437 -0.0512
23644SOL     OW72372   6.394   6.751   5.698 -0.0587 -0.0772 -0.5651
23644SOL    HW172373   6.407   6.662   5.666 -1.5828 -0.5790  0.1085
23644SOL    HW272374   6.402   6.744   5.793  1.9965  0.9376 -0.6195
23645SOL     OW72375   7.795   7.137   6.141  0.3192 -0.4989  0.6829
23645SOL    HW172376   7.842   7.220   6.146  0.0051 -0.3013  0.4228
23645SOL    HW272377   7.754   7.127   6.228  3.2247 -2.1412  2.0114
23646SOL     OW72378   7.129   0.181   6.568 -0.1252 -0.7583 -0.1189
23646SOL    HW172379   7.075   0.102   6.580 -0.1853 -0.8746 -1.0213
23646SOL    HW272380   7.065   0.251   6.554 -0.0618 -0.7773 -0.5294
23647SOL     OW72381   5.671   0.011   6.892 -0.6059 -0.1178 -0.2766
23647SOL    HW172382   5.587  -0.021   6.927  0.3815 -1.9086  0.5974
23647SOL    HW272383   5.707  -0.063   6.844  1.0079  0.2029  0.3671
23648SOL     OW72384   7.525   1.516   8.306  0.2300  0.2957  0.1373
23648SOL    HW172385   7.602   1.565   8.277  0.2416  0.2226  0.0459
23648SOL    HW272386   7.554   1.425   8.309 -0.1370  0.1360 -0.8759
23649SOL     OW72387   6.827   7.414   6.387  0.0504  0.0645 -0.4867
23649SOL    HW172388   6.738   7.430   6.418  0.4436  0.4009  0.4946
23649SOL    HW272389   6.842   7.320   6.402  0.3098  0.2632  0.5650
23650SOL     OW72390   6.086   0.458   6.304 -0.1518  0.5513  0.8029
23650SOL    HW172391   6.077   0.551   6.327  0.7256  0.5244  1.2693
23650SOL    HW272392   6.012   0.441   6.245 -1.0991  1.2081  1.7661
23651SOL     OW72393   6.166   7.724   5.452  0.3464  0.4150  0.3868
23651SOL    HW172394   6.161   7.654   5.517  1.1783 -1.4390 -1.4391
23651SOL    HW272395   6.249   7.768   5.471  0.7557 -0.3360  0.3815
23652SOL     OW72396   6.198   7.731   8.382 -0.7300  0.5223 -0.7542
23652SOL    HW172397   6.174   7.768   8.467  0.0320 -0.4009 -0.1092
23652SOL    HW272398   6.254   7.798   8.342  1.4097 -0.2108  0.8010
23653SOL     OW72399   7.028   0.059   7.026 -0.1853 -0.2421  0.0061
23653SOL    HW172400   6.969   0.011   6.968 -1.3386  1.0144  0.0910
23653SOL    HW272401   7.092   0.098   6.967 -0.4628 -0.2086 -0.2794
23654SOL     OW72402   5.422   7.419   7.418  0.3706 -0.4345  0.2131
23654SOL    HW172403   5.360   7.392   7.486  0.4025  0.8356  0.7832
23654SOL    HW272404   5.380   7.394   7.336 -0.6449 -0.1242  0.6203
23655SOL     OW72405   6.614   6.794   5.494 -0.1128 -0.1860  0.4340
23655SOL    HW172406   6.576   6.803   5.581 -1.1685 -0.2430 -0.0043
23655SOL    HW272407   6.702   6.760   5.509 -0.1570  0.1292  1.4900
23656SOL     OW72408   7.683   6.853   6.115  0.5084  0.7232 -0.6355
23656SOL    HW172409   7.737   6.927   6.086  0.5222  1.1176  0.3574
23656SOL    HW272410   7.729   6.820   6.192  0.2732 -0.0619 -0.8316
23657SOL     OW72411   5.239   0.070   7.131 -0.1820 -0.4779  0.7150
23657SOL    HW172412   5.198   0.024   7.204 -1.0436 -3.4459 -1.4714
23657SOL    HW272413   5.166   0.113   7.086 -0.3762 -2.2447 -0.7641
23658SOL     OW72414   7.337   6.059   6.513  0.6062 -0.6699  0.4290
23658SOL    HW172415   7.383   6.139   6.486  0.8924 -0.2691  1.9874
23658SOL    HW272416   7.318   6.073   6.606  0.8603 -2.5091  0.7954
23659SOL     OW72417   6.645   5.512   5.596  0.0589 -0.2133 -0.0388
23659SOL    HW172418   6.613   5.422   5.600 -2.8366  0.6792 -0.6732
23659SOL    HW272419   6.584   5.556   5.537  1.7501  2.0556 -0.2235
23660SOL     OW72420   6.374   5.582   3.509 -0.2589 -0.2520 -0.1178
23660SOL    HW172421   6.445   5.604   3.449 -1.4630  1.2188 -1.1027
23660SOL    HW272422   6.396   5.495   3.542  0.0257 -1.5740 -3.4165
23661SOL     OW72423   4.863   1.220   5.189  0.2597 -0.0576  0.0526
23661SOL    HW172424   4.890   1.286   5.125  0.8985  0.8144  1.1810
23661SOL    HW272425   4.882   1.260   5.274 -3.5549  0.2453  0.9785
23662SOL     OW72426   7.364   7.859   6.779  0.0747 -0.0258 -0.1158
23662SOL    HW172427   7.277   7.821   6.764  0.1259 -0.8622  1.4813
23662SOL    HW272428   7.375   7.856   6.874  1.1775  1.6217 -0.1576
23663SOL     OW72429   6.710   0.741   9.011  0.0157 -0.9699 -0.5878
23663SOL    HW172430   6.787   0.726   9.065 -0.6068  0.8049  0.8905
23663SOL    HW272431   6.642   0.685   9.048 -0.3542  0.0959  0.3941
23664SOL     OW72432   5.794   7.991   8.664  0.3089 -0.3806 -0.3487
23664SOL    HW172433   5.779   8.051   8.591 -0.0880 -0.0753 -0.0253
23664SOL    HW272434   5.882   8.013   8.695  1.0129 -1.4167 -1.5569
23665SOL     OW72435   0.090   0.667   6.890 -0.0816  0.1892  0.7790
23665SOL    HW172436   0.111   0.726   6.963 -0.5276  0.4329  0.7111
23665SOL    HW272437   0.134   0.585   6.913  1.2467  0.7958  0.4566
23666SOL     OW72438   0.993   7.382   9.803  1.0248 -0.0265 -0.9709
23666SOL    HW172439   1.087   7.368   9.789  1.2668  0.2295  0.2603
23666SOL    HW272440   0.970   7.320   9.872  1.0935  2.2344  1.2398
23667SOL     OW72441   7.703   0.400   6.247 -0.0228  0.2398  0.2929
23667SOL    HW172442   7.729   0.381   6.337 -0.8605 -0.3530  0.4285
23667SOL    HW272443   7.633   0.465   6.255  0.9988  1.4185 -0.0324
23668SOL     OW72444   1.923   7.384   8.110  0.5645 -0.1184  0.1381
23668SOL    HW172445   1.869   7.450   8.153 -1.1709 -1.2448 -0.2374
23668SOL    HW272446   2.005   7.385   8.160 -1.2026 -1.1387  3.3999
23669SOL     OW72447   4.904   0.332   7.834  0.2589 -0.6338 -0.0476
23669SOL    HW172448   4.826   0.371   7.795  0.5641 -0.7467 -0.7768
23669SOL    HW272449   4.944   0.404   7.883  0.0757 -0.3885 -0.2571
23670SOL     OW72450   7.729   6.279   8.581  0.8487  0.1628  0.3798
23670SOL    HW172451   7.791   6.221   8.537  0.6536 -0.7665  1.2694
23670SOL    HW272452   7.655   6.221   8.603  0.5693  0.7955  1.1269
23671SOL     OW72453   6.588   7.759  10.003 -0.4075  0.5611  0.1251
23671SOL    HW172454   6.546   7.707   9.935 -0.9261  0.0373  0.8237
23671SOL    HW272455   6.557   7.848   9.988  1.1154  0.8607 -1.5777
23672SOL     OW72456   6.978   6.964   8.260  0.6068 -0.1185 -0.1424
23672SOL    HW172457   6.935   7.042   8.294  0.9826 -0.1131  0.3362
23672SOL    HW272458   7.060   6.958   8.309  1.4296  0.1906 -1.4301
23673SOL     OW72459   4.879   0.232   8.632 -0.3262  0.1087  0.4138
23673SOL    HW172460   4.910   0.147   8.600 -3.9509 -1.3412  0.2739
23673SOL    HW272461   4.865   0.284   8.554  0.2214  0.1809  0.3650
23674SOL     OW72462   7.086   1.970   6.406  0.5681  0.0591  0.3851
23674SOL    HW172463   6.998   1.956   6.440  0.6582  0.1478  0.6521
23674SOL    HW272464   7.142   1.975   6.483  0.5670  1.7833  0.3099
23675SOL     OW72465   7.434   7.792   9.171 -0.4044 -0.0281  0.0119
23675SOL    HW172466   7.474   7.740   9.102 -2.1328 -0.0808 -1.0200
23675SOL    HW272467   7.350   7.749   9.187 -0.8993  1.1505  0.7338
23676SOL     OW72468   5.625   7.642   7.089 -0.3636  0.3107 -0.2344
23676SOL    HW172469   5.630   7.559   7.135 -1.9902 -0.0227 -0.5900
23676SOL    HW272470   5.710   7.684   7.104 -0.0661 -0.7506  1.1832
23677SOL     OW72471   6.195   1.508   6.195  0.4625 -0.8113  0.0068
23677SOL    HW172472   6.254   1.436   6.216 -0.7770 -1.5266  1.1459
23677SOL    HW272473   6.222   1.536   6.107  0.2705 -3.4068 -0.9575
23678SOL     OW72474   7.782   6.970   8.025  0.1642 -0.2273 -0.0951
23678SOL    HW172475   7.763   6.876   8.015  0.3318 -0.0847 -2.2995
23678SOL    HW272476   7.697   7.009   8.047 -0.2670 -0.7202 -0.8066
23679SOL     OW72477   7.359   7.855   8.858  0.5399 -0.0501  0.2109
23679SOL    HW172478   7.409   7.934   8.879  1.2930 -0.7031  0.9602
23679SOL    HW272479   7.425   7.785   8.858 -0.0664 -0.6389 -0.7236
23680SOL     OW72480   6.141   0.740   8.111  0.3835 -0.2395  0.2178
23680SOL    HW172481   6.229   0.737   8.074 -0.6768 -2.8201 -2.4145
23680SOL    HW272482   6.090   0.792   8.049  0.1674  2.1486  2.2574
23681SOL     OW72483   5.906   7.053   8.967  0.0978  0.5390  0.3386
23681SOL    HW172484   5.833   6.993   8.985 -0.7552  1.4841  0.1065
23681SOL    HW272485   5.899   7.072   8.873  1.3931 -0.2934  0.0314
23682SOL     OW72486   5.981   0.033   6.787  0.2522  0.3146 -0.3905
23682SOL    HW172487   5.911   0.020   6.723  0.2185  0.9844 -0.4925
23682SOL    HW272488   5.969   0.122   6.819  1.4455  0.6753 -0.8924
23683SOL     OW72489   5.997   5.734   9.658 -0.8431  0.1278  0.4993
23683SOL    HW172490   6.077   5.785   9.669 -1.3325  0.8881  0.6430
23683SOL    HW272491   5.972   5.710   9.747 -1.2510  0.6603  0.5350
23684SOL     OW72492   7.369   0.976   8.007  0.1078 -0.1598  0.2190
23684SOL    HW172493   7.376   0.910   7.938 -0.5855  0.0768 -0.0805
23684SOL    HW272494   7.363   0.926   8.088 -2.4929 -0.5529 -0.1521
23685SOL     OW72495   5.866   1.840   6.108 -0.1070 -0.0657 -1.0628
23685SOL    HW172496   5.816   1.921   6.098  1.6226  1.0973 -0.7010
23685SOL    HW272497   5.898   1.842   6.198  0.8216 -0.6070 -1.3665
23686SOL     OW72498   6.029   6.827   7.490 -0.3038 -0.5544  0.8046
23686SOL    HW172499   5.992   6.754   7.538 -0.4206 -0.2917  1.1215
23686SOL    HW272500   6.101   6.859   7.545 -1.4765  0.7900  1.6436
23687SOL     OW72501   5.409   5.763   9.457 -0.4672 -0.4211  0.4312
23687SOL    HW172502   5.325   5.747   9.413  0.2752  0.8225 -1.5921
23687SOL    HW272503   5.472   5.709   9.409  0.0925 -0.3672  1.1045
23688SOL     OW72504   5.710   6.187   9.311 -0.4653 -0.0351 -0.5727
23688SOL    HW172505   5.631   6.240   9.319  0.5802  1.8927 -2.0500
23688SOL    HW272506   5.683   6.099   9.335 -2.7795  0.7795  0.0374
23689SOL     OW72507   7.037   7.165   8.826 -0.4340  0.2294  0.0450
23689SOL    HW172508   7.104   7.158   8.759  0.1768  2.2318  0.3658
23689SOL    HW272509   7.085   7.163   8.909 -1.1110 -1.5266  0.4385
23690SOL     OW72510   6.067   0.427   7.489  0.6685  0.5681 -0.2523
23690SOL    HW172511   6.073   0.385   7.403  1.5042 -0.7495  0.4084
23690SOL    HW272512   6.049   0.519   7.470  0.3702  0.2125 -1.8187
23691SOL     OW72513   7.316   7.330   9.021  0.3403  1.0996 -0.1411
23691SOL    HW172514   7.341   7.252   9.071  0.3012 -0.3429 -2.2648
23691SOL    HW272515   7.252   7.374   9.077 -0.4300 -0.9646  0.7079
23692SOL     OW72516   5.045   6.819   7.515 -0.4337 -0.6966  0.5552
23692SOL    HW172517   5.096   6.755   7.466 -0.4973  0.0753 -0.5396
23692SOL    HW272518   5.072   6.806   7.606  0.3508 -1.5323  0.2196
23693SOL     OW72519   5.518   7.911   8.329  0.6813 -0.3885 -0.1069
23693SOL    HW172520   5.460   7.978   8.365  1.6734  0.5010 -0.0937
23693SOL    HW272521   5.606   7.946   8.343  1.3329 -2.4019  1.2969
23694SOL     OW72522   5.439   0.943   8.142 -0.3926 -0.4338  0.1069
23694SOL    HW172523   5.441   0.891   8.222  0.8178 -0.2777  0.2033
23694SOL    HW272524   5.372   0.901   8.088  0.6916 -2.2544  0.0943
23695SOL     OW72525   7.367   7.095   9.162 -0.1514  0.4826 -0.0382
23695SOL    HW172526   7.277   7.074   9.136 -0.7532  0.2781  2.0015
23695SOL    HW272527   7.378   7.049   9.246  2.2793 -0.4629 -0.8044
23696SOL     OW72528   7.268   6.404   8.828  0.3892  0.4538 -0.1391
23696SOL    HW172529   7.338   6.456   8.788  1.6427 -0.9265  0.2146
23696SOL    HW272530   7.284   6.409   8.922  0.4036 -0.3950 -0.0892
23697SOL     OW72531   7.489   7.037  10.100  0.7400 -0.4881 -0.0420
23697SOL    HW172532   7.580   7.058  10.082  0.2238  1.9503 -0.1809
23697SOL    HW272533   7.456   7.113  10.148 -0.9979 -1.7139  0.8292
23698SOL     OW72534   5.545   7.936   9.689 -0.2918 -0.4692  0.0232
23698SOL    HW172535   5.620   7.952   9.746 -0.4378 -1.6031  0.5755
23698SOL    HW272536   5.508   8.022   9.672 -0.8363 -0.1698  2.4613
23699SOL     OW72537   5.770   6.380   8.466  0.3357 -0.5570 -0.5953
23699SOL    HW172538   5.769   6.299   8.518  0.9698 -0.8186 -0.9729
23699SOL    HW272539   5.862   6.406   8.464 -0.0243  0.9294  0.6442
23700SOL     OW72540   5.390   7.737   9.181 -0.1486 -0.8086 -0.8974
23700SOL    HW172541   5.469   7.752   9.129 -0.4345 -1.6969 -1.5998
23700SOL    HW272542   5.383   7.815   9.237  3.1860 -2.1862  1.7974
23701SOL     OW72543   7.639   6.923   9.404 -0.4062 -0.2205 -0.1232
23701SOL    HW172544   7.676   6.967   9.327  0.5204 -0.7027  0.0285
23701SOL    HW272545   7.684   6.964   9.478  1.1394 -1.9631 -0.0102
23702SOL     OW72546   6.664   7.967   7.019 -0.2891  0.0222 -0.3587
23702SOL    HW172547   6.708   7.966   6.934 -1.4702  5.0296 -1.3673
23702SOL    HW272548   6.581   7.922   7.003  1.5838 -3.8814 -0.1472
23703SOL     OW72549   6.634   7.076   6.823  0.2746  0.7176  0.3233
23703SOL    HW172550   6.670   7.050   6.738  1.1973  0.5473  0.7651
23703SOL    HW272551   6.554   7.023   6.831 -0.1842  1.2120 -0.7188
23704SOL     OW72552   7.176   0.427   8.287  0.3378  0.0374  0.5236
23704SOL    HW172553   7.170   0.389   8.199 -1.5144 -1.1529  1.1030
23704SOL    HW272554   7.268   0.416   8.312  0.5185 -1.2288 -0.5855
23705SOL     OW72555   6.390   6.917  10.745 -0.3564  0.1829  0.2741
23705SOL    HW172556   6.454   6.927  10.674  1.4423 -1.9133  1.4744
23705SOL    HW272557   6.420   6.978  10.812  0.0202 -0.3179  0.5699
23706SOL     OW72558   7.973   6.617   8.127 -0.0610 -0.2865  0.3029
23706SOL    HW172559   7.899   6.617   8.067  0.2182  0.5533 -0.0502
23706SOL    HW272560   7.970   6.530   8.169 -1.6683 -0.0169  0.8233
23707SOL     OW72561   4.756   7.240   8.604 -0.3225 -0.1163  0.5350
23707SOL    HW172562   4.769   7.318   8.549 -0.9902 -0.2669  0.1469
23707SOL    HW272563   4.717   7.274   8.684  0.0374  0.0281  0.6512
23708SOL     OW72564   7.213   7.751  10.137  0.1148  0.4623 -0.1043
23708SOL    HW172565   7.141   7.723  10.192  1.7770  1.5722  2.8656
23708SOL    HW272566   7.287   7.695  10.163  0.5353 -0.3081 -2.6852
23709SOL     OW72567   5.219   7.470   8.237  0.1126  0.0096  0.7944
23709SOL    HW172568   5.219   7.551   8.186  1.2877  0.1863  1.0457
23709SOL    HW272569   5.304   7.429   8.217  0.0647 -0.5286  1.6502
23710SOL     OW72570   7.215   6.892   8.700  0.1570  0.1976 -0.0080
23710SOL    HW172571   7.265   6.870   8.778  1.5389  1.9355 -0.3278
23710SOL    HW272572   7.262   6.849   8.628 -1.9655 -2.6698  0.1668
23711SOL     OW72573   7.503   7.259   9.623 -0.2388 -0.0993  0.2393
23711SOL    HW172574   7.591   7.253   9.586 -0.7975  0.6318 -1.2732
23711SOL    HW272575   7.447   7.220   9.557 -1.1175 -0.1583  1.0054
23712SOL     OW72576   7.388   0.961   6.191 -0.5654  0.1084 -0.3563
23712SOL    HW172577   7.399   0.870   6.161  0.3430  0.0328  0.1725
23712SOL    HW272578   7.312   0.993   6.142 -0.7924 -0.8813 -0.6779
23713SOL     OW72579   7.254   0.243   8.833  0.1543  0.1192  0.4391
23713SOL    HW172580   7.275   0.320   8.781  1.1133  0.3908  1.1943
23713SOL    HW272581   7.171   0.212   8.798  0.6286  0.4677 -1.0357
23714SOL     OW72582   6.445   7.296   7.169  0.0122 -0.2350 -0.1376
23714SOL    HW172583   6.514   7.357   7.142 -0.2502  1.0906  1.9736
23714SOL    HW272584   6.378   7.304   7.100  1.1191 -0.1457 -1.2420
23715SOL     OW72585   7.821   0.214   8.152  0.4237 -0.1198  0.3341
23715SOL    HW172586   7.766   0.183   8.080 -0.1973 -0.3053  0.8779
23715SOL    HW272587   7.899   0.159   8.148  0.5847  0.1509 -0.4515
23716SOL     OW72588   7.343   1.713   9.252 -0.2519  0.1946  0.0550
23716SOL    HW172589   7.336   1.741   9.161  0.0923 -0.2810 -0.1208
23716SOL    HW272590   7.265   1.749   9.294  0.1619  1.3917 -0.1648
23717SOL     OW72591   0.143   7.071   7.664 -0.4349  0.3004  0.0735
23717SOL    HW172592   0.171   7.147   7.613  0.7673  1.1673  1.9202
23717SOL    HW272593   0.189   6.997   7.624 -1.8591  0.4291 -1.9419
23718SOL     OW72594   4.438   6.753   9.082  0.2019 -0.6891  0.0333
23718SOL    HW172595   4.465   6.710   9.162  0.5279  0.0069  0.3134
23718SOL    HW272596   4.518   6.758   9.029  0.2944  0.0298  0.2273
23719SOL     OW72597   5.687   6.755   7.253 -0.0007  0.2617  0.0630
23719SOL    HW172598   5.661   6.715   7.336  0.5747 -1.5350 -0.5786
23719SOL    HW272599   5.762   6.810   7.275 -0.3662  0.4544  0.8610
23720SOL     OW72600   7.416   0.075   9.540  0.5131 -0.4767  0.5420
23720SOL    HW172601   7.451   0.163   9.549  1.1360 -0.8167  1.6726
23720SOL    HW272602   7.489   0.023   9.507 -0.2227 -0.3391 -1.4447
23721SOL     OW72603   0.216   7.693   7.893  0.7319 -0.3637  0.3776
23721SOL    HW172604   0.149   7.746   7.936  0.1247 -0.4602 -0.4184
23721SOL    HW272605   0.260   7.647   7.965 -0.8145 -1.1711  0.8575
23722SOL     OW72606   5.955   7.173   7.999 -0.2290 -0.2073 -0.0963
23722SOL    HW172607   5.938   7.225   7.920  0.1010 -1.1086 -0.7820
23722SOL    HW272608   5.869   7.157   8.036 -0.3051  1.2283  0.4058
23723SOL     OW72609   7.278   6.871  10.878 -0.2675  0.3262  0.9639
23723SOL    HW172610   7.314   6.821  10.951 -0.5657 -0.9616  0.2683
23723SOL    HW272611   7.184   6.861  10.887 -0.3754  1.5043  1.2920
23724SOL     OW72612   6.725   7.727   7.696  0.1119 -0.0894 -0.1597
23724SOL    HW172613   6.651   7.698   7.749  0.1599 -0.4736 -0.2956
23724SOL    HW272614   6.685   7.753   7.612  0.1611 -0.6245 -0.3562
23725SOL     OW72615   4.378   6.414   9.263  0.0790 -0.1201  0.2306
23725SOL    HW172616   4.395   6.387   9.173 -1.4884  0.6912 -0.3404
23725SOL    HW272617   4.354   6.333   9.309  2.2311 -0.7662  0.3056
23726SOL     OW72618   1.188   6.936   7.476  0.6588 -0.1137  0.3910
23726SOL    HW172619   1.212   7.025   7.503 -0.8177  0.7181 -0.9439
23726SOL    HW272620   1.222   6.927   7.387  1.4779 -1.1918  0.7858
23727SOL     OW72621   5.856   6.270   9.094 -0.4206 -0.7459 -0.0204
23727SOL    HW172622   5.830   6.241   9.182 -1.1498 -0.5932 -0.1793
23727SOL    HW272623   5.884   6.360   9.106 -1.2328 -0.4820 -0.0644
23728SOL     OW72624   6.741   7.413   7.107 -0.7965  0.1916 -0.1752
23728SOL    HW172625   6.751   7.387   7.198 -1.9849 -1.3617 -0.4398
23728SOL    HW272626   6.830   7.411   7.071 -0.5539 -1.3747  0.4144
23729SOL     OW72627   7.798   0.513   8.929 -0.3228  0.2576  0.2060
23729SOL    HW172628   7.725   0.566   8.961 -0.8673  0.0317 -0.6479
23729SOL    HW272629   7.831   0.469   9.008 -1.5073 -0.1329  0.5116
23730SOL     OW72630   0.026   7.747   8.813 -0.3850 -0.5590 -0.1064
23730SOL    HW172631   0.036   7.830   8.765 -0.4308 -1.0599 -1.0145
23730SOL    HW272632  -0.040   7.765   8.879 -1.3870 -0.2337 -1.1675
23731SOL     OW72633   5.313   6.002   9.602  0.1619 -0.3079  0.4034
23731SOL    HW172634   5.339   5.931   9.544 -0.3126  0.7482 -1.1944
23731SOL    HW272635   5.374   5.998   9.675  1.8201 -0.7360 -0.9532
23732SOL     OW72636   4.986   6.578   9.878 -0.1643 -0.1731  0.0769
23732SOL    HW172637   4.988   6.651   9.816  0.2307 -1.0794 -1.0198
23732SOL    HW272638   5.052   6.600   9.944  0.1515  0.3208 -0.3986
23733SOL     OW72639   0.725   0.743  10.507  0.5864 -0.0432 -0.0337
23733SOL    HW172640   0.781   0.796  10.451  1.0659  0.3566  0.8067
23733SOL    HW272641   0.773   0.661  10.520  0.4762 -0.1350 -0.1987
23734SOL     OW72642   5.651   0.173  10.189 -0.7002  0.4437  0.3704
23734SOL    HW172643   5.695   0.235  10.131  0.6196 -0.5389  0.2552
23734SOL    HW272644   5.704   0.173  10.268  0.6564 -2.0863 -0.4284
23735SOL     OW72645   1.953   7.550   9.789  0.6707  0.5477 -0.0171
23735SOL    HW172646   1.858   7.549   9.783  0.6989  0.8512 -0.4930
23735SOL    HW272647   1.980   7.626   9.739  1.3432 -1.2382 -2.5639
23736SOL     OW72648   6.143   7.176  11.260 -0.2786  0.0807 -0.0276
23736SOL    HW172649   6.181   7.152  11.175  2.0340  1.2379  0.5957
23736SOL    HW272650   6.167   7.104  11.318 -0.9115 -0.1886 -0.0898
23737SOL     OW72651   6.466   7.505   9.187  0.4095 -0.2412 -0.2211
23737SOL    HW172652   6.455   7.441   9.117  0.7963  0.4052 -0.8798
23737SOL    HW272653   6.558   7.497   9.213  1.1300  1.6888 -1.9602
23738SOL     OW72654   6.338   0.236   9.796  0.1740 -0.2355  0.0774
23738SOL    HW172655   6.343   0.270   9.885 -2.2193  0.4699  0.0104
23738SOL    HW272656   6.419   0.266   9.754  1.7394 -1.2639  2.1696
23739SOL     OW72657   1.569   7.937  10.507  0.1897  0.2447 -0.2122
23739SOL    HW172658   1.636   7.992  10.466  0.3658 -0.2151 -0.5529
23739SOL    HW272659   1.520   7.899  10.434 -0.4881  0.6208  0.0328
23740SOL     OW72660   0.064   6.957  11.053  0.4808 -0.1780  0.0768
23740SOL    HW172661   0.025   6.919  10.974 -1.9126 -0.1073  1.1399
23740SOL    HW272662   0.112   6.885  11.094 -0.1291 -0.8021 -0.2965
23741SOL     OW72663   6.164   1.070  11.138 -0.5729  0.6483 -0.3584
23741SOL    HW172664   6.079   1.080  11.094 -1.5484  1.4526  1.5882
23741SOL    HW272665   6.168   1.143  11.200  0.9151 -0.1710  0.5761
23742SOL     OW72666   7.117   0.980   9.593 -0.0661  0.5596  0.1542
23742SOL    HW172667   7.175   1.035   9.646 -1.7988  1.0880  1.5809
23742SOL    HW272668   7.060   1.042   9.548  0.4947  0.0498 -1.3187
23743SOL     OW72669   0.245   0.333  10.512 -0.2595  0.1235 -0.4010
23743SOL    HW172670   0.176   0.398  10.525 -0.0909 -0.0003  1.2763
23743SOL    HW272671   0.274   0.311  10.600  1.1071 -0.7169 -1.0368
23744SOL     OW72672   0.171   7.630  12.088 -0.3191 -0.0917  0.4728
23744SOL    HW172673   0.222   7.693  12.138  1.0150 -0.4930 -0.3471
23744SOL    HW272674   0.229   7.554  12.078 -1.5324 -1.0695  0.5926
23745SOL     OW72675   6.291   7.522  10.358  0.8117 -0.0937  0.4671
23745SOL    HW172676   6.218   7.538  10.298  1.6888 -0.5938 -0.7625
23745SOL    HW272677   6.355   7.590  10.338  1.4511 -0.7395  0.2728
23746SOL     OW72678   7.984   7.857  11.706 -0.3791 -0.2898  0.0259
23746SOL    HW172679   7.980   7.790  11.774  0.2676 -1.2166 -0.8407
23746SOL    HW272680   8.028   7.816  11.632 -0.3407  0.9551 -0.6844
23747SOL     OW72681   0.026   6.923   7.879  0.4958 -0.8552 -0.2992
23747SOL    HW172682   0.050   6.972   7.800  1.1033  0.5832  0.7367
23747SOL    HW272683  -0.064   6.952   7.898 -0.5784 -2.9870 -1.7413
23748SOL     OW72684   6.729   0.600  11.946  0.0819 -0.1903  0.1831
23748SOL    HW172685   6.800   0.658  11.920 -0.9119  0.4227 -1.3633
23748SOL    HW272686   6.656   0.625  11.889 -0.2290 -3.3756 -0.9969
23749SOL     OW72687   7.723   6.352  10.830  0.1336  0.1675  0.1458
23749SOL    HW172688   7.665   6.278  10.813  0.7334 -0.0967 -0.8348
23749SOL    HW272689   7.811   6.315  10.823  0.4518  1.0670 -0.8577
23750SOL     OW72690   5.996   7.564  11.035  0.4713  0.0374 -0.0092
23750SOL    HW172691   5.927   7.602  11.088 -0.7841 -0.3954 -1.2562
23750SOL    HW272692   6.071   7.623  11.046 -0.6263  1.4547  0.0615
23751SOL     OW72693   7.273   0.419   9.921 -0.3904  0.2770 -0.2741
23751SOL    HW172694   7.248   0.443   9.832  1.0818  0.4926 -0.6593
23751SOL    HW272695   7.350   0.362   9.910  0.0441  0.6140  0.8570
23752SOL     OW72696   6.833   7.042  10.352 -0.8322 -0.2333  0.2381
23752SOL    HW172697   6.819   7.043  10.447  0.6002  0.5596  0.4705
23752SOL    HW272698   6.917   6.996  10.341 -0.2486  0.9505 -0.5104
23753SOL     OW72699   5.954   1.309   9.527  0.1986 -0.4018 -0.4187
23753SOL    HW172700   5.897   1.301   9.450 -1.1700  1.5125  0.3082
23753SOL    HW272701   5.929   1.237   9.584 -0.6830 -0.2556 -0.6123
23754SOL     OW72702   5.771   1.548   9.211 -0.8257  0.1006  0.0312
23754SOL    HW172703   5.710   1.579   9.277  0.8446  0.8896  1.2678
23754SOL    HW272704   5.827   1.623   9.192  0.1941 -0.7714 -0.5599
23755SOL     OW72705   5.175   2.009  10.493  0.2942  0.3336 -0.1233
23755SOL    HW172706   5.143   1.970  10.574  2.3441  1.0495  1.1291
23755SOL    HW272707   5.188   1.935  10.434  2.4547 -0.7693  1.5958
23756SOL     OW72708   5.348   7.208   9.307  0.7421  0.1575  0.7291
23756SOL    HW172709   5.269   7.222   9.360 -0.2092 -2.4967  0.1927
23756SOL    HW272710   5.381   7.296   9.288 -2.9013  1.4916 -0.2423
23757SOL     OW72711   7.164   0.462   9.280 -0.0579  0.4543 -0.7965
23757SOL    HW172712   7.168   0.405   9.203  2.9872 -1.6284  0.7342
23757SOL    HW272713   7.200   0.545   9.248  1.4267 -0.4550 -1.6118
23758SOL     OW72714   7.481   0.032  11.703 -0.1660  0.7669 -0.1281
23758SOL    HW172715   7.535   0.006  11.778 -0.1991  0.5568 -0.1778
23758SOL    HW272716   7.406  -0.028  11.706  0.4635 -0.0940 -1.0925
23759SOL     OW72717   5.252   7.999  11.289 -0.5792 -0.2586  0.0121
23759SOL    HW172718   5.203   7.922  11.317 -1.1699 -0.2667 -0.9801
23759SOL    HW272719   5.202   8.073  11.321  0.7420 -0.2439  2.2303
23760SOL     OW72720   5.881   6.674   0.266  0.0991 -0.2147 -0.0486
23760SOL    HW172721   5.830   6.751   0.241 -0.9281 -0.3762  1.4296
23760SOL    HW272722   5.831   6.600   0.230 -0.6649 -0.3658  1.2884
23761SOL     OW72723   6.402   0.019  11.819 -0.3038  0.0124 -0.3915
23761SOL    HW172724   6.387  -0.075  11.834 -0.2754 -0.1412 -1.2455
23761SOL    HW272725   6.497   0.026  11.808 -0.3381  0.0884 -0.6473
23762SOL     OW72726   6.757   0.734  10.452  0.1751 -0.1696  0.0782
23762SOL    HW172727   6.819   0.752  10.381 -0.7176 -1.6916 -1.1407
23762SOL    HW272728   6.709   0.816  10.463  1.0872  0.4358 -0.2686
23763SOL     OW72729   7.262   7.317  10.657  0.2321 -0.0450  0.2629
23763SOL    HW172730   7.181   7.271  10.676 -0.3099 -0.5359 -2.8002
23763SOL    HW272731   7.258   7.396  10.711 -2.6695  0.3225 -0.3464
23764SOL     OW72732   6.943   0.280   9.352  0.1267  0.0243  0.1579
23764SOL    HW172733   6.981   0.211   9.407 -0.3557  0.9012  1.6594
23764SOL    HW272734   7.012   0.347   9.347  1.0622 -1.0110 -2.3036
23765SOL     OW72735   5.773   7.691   8.562 -0.0560  0.2135 -0.2712
23765SOL    HW172736   5.793   7.771   8.611 -0.8479  0.8623 -0.9635
23765SOL    HW272737   5.721   7.722   8.487 -0.3641 -0.9531 -0.5534
23766SOL     OW72738   6.773   6.984   9.956  0.3157  0.9638  0.6833
23766SOL    HW172739   6.733   6.901   9.931  0.8872  0.7609  0.4408
23766SOL    HW272740   6.862   6.961   9.982  0.5444  1.5319  0.4058
23767SOL     OW72741   6.649   1.210   8.940  0.2692 -0.4201  0.3327
23767SOL    HW172742   6.678   1.183   8.854  0.5798  1.2029 -0.1061
23767SOL    HW272743   6.678   1.140   8.999 -0.9353 -2.1023 -0.9844
23768SOL     OW72744   0.733   7.296   9.553 -0.7685  0.1610 -0.0088
23768SOL    HW172745   0.657   7.253   9.514  0.0534 -1.5563  0.1782
23768SOL    HW272746   0.804   7.279   9.491 -0.3622  1.0601  0.2043
23769SOL     OW72747   6.933   7.795  10.713  0.2447  0.3627  0.3040
23769SOL    HW172748   6.932   7.789  10.618 -0.0078 -0.0432  0.3310
23769SOL    HW272749   6.963   7.709  10.743 -0.9538  0.0386  0.6221
23770SOL     OW72750   5.691   0.069   9.159  0.2541 -0.1216 -0.4027
23770SOL    HW172751   5.674  -0.023   9.136  0.5750 -0.1469 -0.5391
23770SOL    HW272752   5.784   0.071   9.181  0.9909  0.7530 -3.1962
23771SOL     OW72753   0.574   0.437  10.229  0.2394 -0.2622 -0.5944
23771SOL    HW172754   0.572   0.371  10.298  0.3051  0.1008 -0.2460
23771SOL    HW272755   0.647   0.411  10.173  0.5290 -0.2463 -0.2227
23772SOL     OW72756   0.578   6.631  12.032  0.3171  0.0830 -0.0538
23772SOL    HW172757   0.646   6.698  12.046  0.0467  0.5409 -0.8210
23772SOL    HW272758   0.503   6.662  12.083  0.4240 -0.0058  0.1579
23773SOL     OW72759   7.204   0.719  11.356 -0.5375  0.5765 -0.3746
23773SOL    HW172760   7.145   0.795  11.356  0.0431  1.0320 -0.0050
23773SOL    HW272761   7.224   0.704  11.448 -0.7770 -0.1356 -0.4309
23774SOL     OW72762   5.821   0.652  12.115 -0.3018 -0.0872 -0.1029
23774SOL    HW172763   5.756   0.716  12.140 -0.7401 -0.5550 -0.0362
23774SOL    HW272764   5.785   0.609  12.037  0.5802  0.6442 -0.9425
23775SOL     OW72765   6.599   2.003   8.612 -0.0150  0.2773  0.1591
23775SOL    HW172766   6.602   1.965   8.524  0.7362  0.3726  0.1331
23775SOL    HW272767   6.537   1.949   8.660 -1.9940  1.4230 -0.9854
23776SOL     OW72768   7.746   1.700  10.990  0.0754  0.2562 -0.3353
23776SOL    HW172769   7.805   1.750  10.934  0.3756 -0.5976 -0.7942
23776SOL    HW272770   7.702   1.766  11.044 -0.1652  1.0965 -1.5217
23777SOL     OW72771   6.664   7.856  10.323 -0.0718 -0.0444  0.1061
23777SOL    HW172772   6.721   7.778  10.323 -0.5901 -0.4285  0.3644
23777SOL    HW272773   6.700   7.912  10.255  0.6311 -0.2791  0.2747
23778SOL     OW72774   1.364   7.463   9.144  0.1015 -0.5548  0.3095
23778SOL    HW172775   1.283   7.418   9.120 -0.0610  0.7183 -1.7256
23778SOL    HW272776   1.376   7.529   9.076  1.7728  0.6556  1.6972
23779SOL     OW72777   7.783   6.898  10.724  0.1186  0.0162 -0.2510
23779SOL    HW172778   7.721   6.894  10.798 -1.0015  0.1414 -1.1562
23779SOL    HW272779   7.736   6.857  10.652  0.5473  1.3722 -1.3407
23780SOL     OW72780   5.276   0.837  10.086 -0.0286  0.0093  0.0082
23780SOL    HW172781   5.276   0.741  10.088 -0.2889 -0.0346  3.6086
23780SOL    HW272782   5.289   0.858   9.993 -0.6558 -3.4651 -1.0426
23781SOL     OW72783   7.187   0.172   9.717  0.2556 -0.0247  0.0236
23781SOL    HW172784   7.178   0.261   9.681  0.2338  0.8313  1.9979
23781SOL    HW272785   7.276   0.146   9.692  0.9395  1.3103  0.9200
23782SOL     OW72786   7.411   5.546  11.437  0.3556 -0.1439 -0.3617
23782SOL    HW172787   7.375   5.632  11.461  0.7038  0.2834 -1.3289
23782SOL    HW272788   7.343   5.484  11.463  0.6335  0.2897  1.5494
23783SOL     OW72789   5.327   7.284  11.546 -0.2554 -0.3562  0.0181
23783SOL    HW172790   5.367   7.204  11.511  0.3574  0.0844 -0.2970
23783SOL    HW272791   5.315   7.266  11.639  1.1421 -0.3229  0.2265
23784SOL     OW72792   3.156   6.744  10.446  0.1227  0.2682  0.1000
23784SOL    HW172793   3.179   6.836  10.460 -2.8380  1.2225 -0.6295
23784SOL    HW272794   3.126   6.741  10.355 -3.1496 -0.5757  1.0891
23785SOL     OW72795   6.062   7.369  11.593  0.2857  0.9769 -0.7506
23785SOL    HW172796   6.024   7.433  11.653 -1.3139  0.0199 -0.6752
23785SOL    HW272797   6.109   7.308  11.649 -1.1901  0.0967 -0.4009
23786SOL     OW72798   4.460   7.858   9.341  0.1017 -0.2497  0.0378
23786SOL    HW172799   4.385   7.844   9.284  0.0006  0.4583 -0.0169
23786SOL    HW272800   4.422   7.883   9.425  0.2768  0.3193 -0.0497
23787SOL     OW72801   1.426   7.365  11.612  0.8090  0.1116  0.3606
23787SOL    HW172802   1.499   7.424  11.594  0.5954  0.4121  0.4755
23787SOL    HW272803   1.385   7.401  11.690  0.2353  0.2367  0.0095
23788SOL     OW72804   6.443   1.313   6.940  0.4096  0.0889  0.6660
23788SOL    HW172805   6.458   1.396   6.894  1.8809 -0.4860  0.0696
23788SOL    HW272806   6.404   1.256   6.874 -1.0987  0.4307  1.2166
23789SOL     OW72807   0.673   7.492  10.821 -0.1432  0.5836  0.0258
23789SOL    HW172808   0.584   7.486  10.787 -0.3845  1.6627  0.4208
23789SOL    HW272809   0.670   7.445  10.904  0.6537 -2.7865 -1.6898
23790SOL     OW72810   1.224   7.890  10.414  0.0835 -0.1743  0.3162
23790SOL    HW172811   1.135   7.902  10.445 -0.1314  2.6354 -1.0127
23790SOL    HW272812   1.252   7.806  10.449 -3.0571 -1.1199  0.7722
23791SOL     OW72813   4.986   6.828   8.845  0.3633 -0.3210 -0.0722
23791SOL    HW172814   5.038   6.808   8.767  1.3422  0.3053  0.4069
23791SOL    HW272815   5.045   6.811   8.918 -0.0036  0.6717  0.4682
23792SOL     OW72816   6.270   7.127  11.017 -0.2863 -0.0012  0.0007
23792SOL    HW172817   6.224   7.045  11.032 -0.4012 -0.1882 -1.2638
23792SOL    HW272818   6.362   7.103  11.009 -0.2088  0.1134  0.5326
23793SOL     OW72819   5.536   6.596   9.486  0.0490  0.0701 -0.0944
23793SOL    HW172820   5.615   6.589   9.540  0.4749  0.3811 -0.6690
23793SOL    HW272821   5.466   6.562   9.542  0.7033 -0.8793  0.1734
23794SOL     OW72822   6.772   7.686   9.153 -0.5088 -0.1111 -0.4172
23794SOL    HW172823   6.799   7.699   9.062 -1.7406 -0.9930 -0.9316
23794SOL    HW272824   6.777   7.592   9.166  0.6431  0.0893  0.7782
23795SOL     OW72825   0.829   0.063  11.508 -0.2047 -0.4180  0.5001
23795SOL    HW172826   0.758   0.003  11.531 -0.9932  0.2443 -0.1326
23795SOL    HW272827   0.862   0.030  11.425 -0.1975 -0.3649  0.4816
23796SOL     OW72828   0.771   7.808   9.044  0.2112 -0.2384 -0.0518
23796SOL    HW172829   0.827   7.732   9.058  0.3042  0.1517  1.9500
23796SOL    HW272830   0.832   7.877   9.017  0.4334 -0.3254  0.2161
23797SOL     OW72831   5.537   1.075  12.085  0.2666  0.0445  0.0253
23797SOL    HW172832   5.442   1.060  12.089  0.0972  0.9852 -0.2626
23797SOL    HW272833   5.575   0.990  12.104 -0.6471 -0.6355 -1.0778
23798SOL     OW72834   4.582   0.682  12.137 -0.3318  0.3406 -0.1370
23798SOL    HW172835   4.544   0.622  12.073 -0.7901  1.1502 -0.6543
23798SOL    HW272836   4.539   0.659  12.219 -1.7139  0.9671 -0.6334
23799SOL     OW72837   7.536   6.572  11.311  0.3499  0.3234  0.1331
23799SOL    HW172838   7.445   6.575  11.283  0.4896  0.0214 -0.3749
23799SOL    HW272839   7.576   6.505  11.255  0.4186 -1.0520  1.7370
23800SOL     OW72840   7.373   0.011   0.631 -0.3844  0.1246 -0.3172
23800SOL    HW172841   7.455  -0.020   0.669 -0.6332  0.1953  0.2892
23800SOL    HW272842   7.386   0.003   0.536  0.1653 -0.2524 -0.2159
23801SOL     OW72843   6.546   6.699  10.866 -0.6129 -0.7987 -0.3420
23801SOL    HW172844   6.485   6.769  10.841 -0.2984 -1.0272 -1.8907
23801SOL    HW272845   6.501   6.652  10.936 -1.2217  0.3960  0.1038
23802SOL     OW72846   7.719   7.910  11.797  0.6165  0.6502  0.2854
23802SOL    HW172847   7.809   7.888  11.772  0.3095  0.2863 -0.5101
23802SOL    HW272848   7.730   7.969  11.872  1.5235  0.8143  0.0411
23803SOL     OW72849   6.994   0.424  10.412 -0.0808 -0.2771  0.1439
23803SOL    HW172850   7.083   0.406  10.380 -0.6622 -1.2622 -0.9890
23803SOL    HW272851   6.937   0.374  10.354 -1.5733  2.1317 -0.6040
23804SOL     OW72852   7.024   0.304   1.281  0.4475 -0.1024 -0.0608
23804SOL    HW172853   7.082   0.272   1.350 -0.0436 -0.2093  0.3009
23804SOL    HW272854   7.084   0.330   1.210  0.8431 -2.4176 -0.6388
23805SOL     OW72855   5.804   0.150  12.242  0.7163  0.0539 -0.5512
23805SOL    HW172856   5.796   0.083  12.310  0.5964 -1.2328 -1.7911
23805SOL    HW272857   5.835   0.227  12.289 -1.0885 -0.2322  1.2975
23806SOL     OW72858   5.648   0.243   1.266 -0.4634 -0.0792 -0.2804
23806SOL    HW172859   5.621   0.327   1.231 -2.4455 -0.7274 -0.4193
23806SOL    HW272860   5.654   0.186   1.189  2.7423  0.3126 -0.4553
23807SOL     OW72861   0.035   0.556  10.452  0.2452 -0.6155 -0.0051
23807SOL    HW172862  -0.042   0.610  10.435 -0.4393 -1.6732 -0.4381
23807SOL    HW272863   0.059   0.574  10.543 -0.6562 -0.4396  0.2035
23808SOL     OW72864   5.308   0.922  12.121 -0.1320  0.0510 -0.6879
23808SOL    HW172865   5.274   0.960  12.203  0.8541 -1.4518  0.4776
23808SOL    HW272866   5.241   0.941  12.056 -0.7983  1.5975  0.3813
23809SOL     OW72867   5.011   6.087   0.771 -0.4633 -0.3031 -0.2386
23809SOL    HW172868   4.980   6.120   0.687  1.1087 -0.7683 -1.0420
23809SOL    HW272869   5.050   6.163   0.814 -0.4555 -0.2581 -0.3261
23810SOL     OW72870   5.691   7.183  11.408 -0.0795 -0.1159  0.5060
23810SOL    HW172871   5.769   7.238  11.397  0.2467 -0.3757  1.4762
23810SOL    HW272872   5.640   7.199  11.328  0.2808  1.1509  0.5012
23811SOL     OW72873   5.857   7.745   9.101  0.3300 -0.5346 -0.2635
23811SOL    HW172874   5.880   7.760   9.009 -0.1754  0.3981 -0.2489
23811SOL    HW272875   5.936   7.707   9.140  0.6073 -0.7659 -1.0368
23812SOL     OW72876   5.666   5.829   2.070  0.1204 -0.3122  0.2550
23812SOL    HW172877   5.689   5.802   2.158 -0.7970  0.6595  0.8141
23812SOL    HW272878   5.575   5.858   2.076  0.6639  1.7737 -0.5296
23813SOL     OW72879   6.284   7.357  11.429 -0.2353  0.2758 -0.7043
23813SOL    HW172880   6.248   7.297  11.363  0.2571 -1.1934  0.3137
23813SOL    HW272881   6.208   7.383  11.481 -0.4770  0.6855 -1.2503
23814SOL     OW72882   6.403   1.104  12.454 -0.3451  0.1208  0.3283
23814SOL    HW172883   6.339   1.083  12.523  0.4980 -1.4873  0.6771
23814SOL    HW272884   6.415   1.021  12.408  1.3938  0.4091  0.2064
23815SOL     OW72885   0.522   7.863  10.087 -0.0260  0.2190 -0.2745
23815SOL    HW172886   0.457   7.890  10.152  0.3381  0.9498 -0.2033
23815SOL    HW272887   0.481   7.881  10.002 -0.6648 -1.1184 -0.2773
23816SOL     OW72888   6.556   7.310  10.764  0.1715 -0.4171 -0.3176
23816SOL    HW172889   6.511   7.392  10.786 -0.7576 -0.9412 -0.2129
23816SOL    HW272890   6.504   7.272  10.693 -0.2194 -1.5707  0.5483
23817SOL     OW72891   7.785   7.626  11.155 -0.3791 -0.7174 -0.8719
23817SOL    HW172892   7.799   7.683  11.230 -2.7306  0.5839 -1.3302
23817SOL    HW272893   7.821   7.541  11.181  0.2588  0.1151  1.0807
23818SOL     OW72894   6.408   0.376   0.299  0.5354  0.0308 -0.5667
23818SOL    HW172895   6.390   0.329   0.218 -4.2299 -0.3867  0.4314
23818SOL    HW272896   6.389   0.468   0.279 -0.7254 -0.0812  0.0041
23819SOL     OW72897   5.291   1.165  11.598  0.3477  0.2378  0.1558
23819SOL    HW172898   5.253   1.168  11.510 -0.7659 -1.9387  0.4752
23819SOL    HW272899   5.217   1.184  11.656  0.7826  0.4031  0.6637
23820SOL     OW72900   7.419   0.884  10.637  0.8267  0.0344  0.3125
23820SOL    HW172901   7.407   0.859  10.729  0.0342 -0.5482  0.0608
23820SOL    HW272902   7.442   0.802  10.593 -0.4503 -0.0158 -0.2953
23821SOL     OW72903   7.255   0.398  10.953  0.5223  0.2144 -0.2194
23821SOL    HW172904   7.204   0.446  10.888  0.7321  1.3125  0.3986
23821SOL    HW272905   7.221   0.308  10.949 -0.4546  0.5960 -0.8174
23822SOL     OW72906   7.752   6.607  11.539  0.3731 -0.7280 -0.4436
23822SOL    HW172907   7.697   6.608  11.460 -0.2523 -0.5916 -0.0155
23822SOL    HW272908   7.832   6.562  11.512  0.0799 -0.8635 -1.1035
23823SOL     OW72909   7.862   1.238  10.095  0.3907 -0.8285 -0.1145
23823SOL    HW172910   7.774   1.225  10.058  0.4373 -0.2475 -0.4440
23823SOL    HW272911   7.848   1.234  10.190 -0.2884  0.8506 -0.0977
23824SOL     OW72912   0.167   0.621  10.702  0.0128 -0.7673  0.2228
23824SOL    HW172913   0.154   0.691  10.766 -2.2106 -1.6831  0.8892
23824SOL    HW272914   0.184   0.543  10.755  0.0351 -1.1884 -0.3917
23825SOL     OW72915   4.995   6.099   0.078  0.1246  0.0290  0.2553
23825SOL    HW172916   4.901   6.116   0.076  0.0374  0.0456  2.3065
23825SOL    HW272917   5.005   6.013   0.037 -1.0618 -0.8650  1.7347
23826SOL     OW72918   5.525   7.821  12.285 -0.1838  0.1244 -0.0303
23826SOL    HW172919   5.570   7.744  12.320  0.6880  0.9106  0.6202
23826SOL    HW272920   5.543   7.819  12.191  0.6354  0.0438  0.1250
23827SOL     OW72921   7.369   7.207   0.508  0.6339  0.3357 -0.5743
23827SOL    HW172922   7.391   7.173   0.595  0.6381 -0.0244 -0.7151
23827SOL    HW272923   7.381   7.133   0.449 -2.3104 -0.3290 -0.4868
23828SOL     OW72924   5.952   7.646  10.715 -0.2447 -0.0676  0.3375
23828SOL    HW172925   6.042   7.678  10.715 -0.7053  1.2658  0.5910
23828SOL    HW272926   5.908   7.697  10.648 -1.0921  0.0987  1.0025
23829SOL     OW72927   7.048   0.016  10.811 -0.1388  0.4214 -0.3606
23829SOL    HW172928   7.136  -0.022  10.820 -1.2437 -1.7845  5.2497
23829SOL    HW272929   6.993  -0.058  10.784 -0.9606  0.2937  1.5256
23830SOL     OW72930   6.615   7.289  12.032 -0.8655  0.0056 -0.0229
23830SOL    HW172931   6.586   7.292  12.123 -0.7323  2.8076  0.0113
23830SOL    HW272932   6.578   7.369  11.992 -0.0062 -0.5742 -2.1302
23831SOL     OW72933   7.075   7.918  12.474  0.0351 -0.0401  0.3036
23831SOL    HW172934   7.169   7.903  12.482 -0.3117 -3.3659 -0.1316
23831SOL    HW272935   7.043   7.922  12.564  0.5968  1.6578  0.4628
23832SOL     OW72936   4.049   2.104   0.152 -0.6950 -0.4623  0.0797
23832SOL    HW172937   4.106   2.166   0.106 -0.8796 -0.3451  0.0071
23832SOL    HW272938   4.049   2.134   0.243 -1.2346 -0.0148 -0.0626
23833SOL     OW72939   6.776   6.672   0.527 -0.3825  0.4856 -0.3064
23833SOL    HW172940   6.726   6.673   0.445 -0.6922  0.7536 -0.1215
23833SOL    HW272941   6.756   6.756   0.568  2.5143  1.9332 -1.5761
23834SOL     OW72942   7.027   1.288  10.032  0.0789  0.3292 -0.5236
23834SOL    HW172943   7.062   1.203  10.005 -0.6786  0.0178 -0.5679
23834SOL    HW272944   6.975   1.318   9.957 -1.1206 -0.0163  0.1398
23835SOL     OW72945   5.968   0.189   0.235  0.0272  0.2964 -0.8468
23835SOL    HW172946   6.048   0.214   0.282 -0.3923 -0.7213  0.4732
23835SOL    HW272947   5.909   0.263   0.247  0.2438  0.4217 -0.5405
23836SOL     OW72948   5.249   6.838   0.143  0.2624  0.0193  0.1168
23836SOL    HW172949   5.216   6.882   0.222  2.0518  0.8044  0.4721
23836SOL    HW272950   5.267   6.910   0.082  1.6302 -0.3294  0.0850
23837SOL     OW72951   6.812   0.826  12.393 -0.1239 -0.1935  0.0202
23837SOL    HW172952   6.892   0.813  12.445 -0.2645 -1.7734 -0.1177
23837SOL    HW272953   6.844   0.861  12.309  0.4714 -1.1801 -0.1778
23838SOL     OW72954   5.709   7.978  10.701  0.1676  0.7193 -0.4749
23838SOL    HW172955   5.774   7.910  10.683 -1.0131 -0.6589  0.2246
23838SOL    HW272956   5.654   7.941  10.770  0.9149  3.3799  1.7323
23839SOL     OW72957   7.270   7.555  10.824 -0.1552  0.5334  0.4116
23839SOL    HW172958   7.219   7.591  10.897 -0.6823 -0.7161  0.6867
23839SOL    HW272959   7.338   7.503  10.866 -1.2352 -1.2562  0.0552
23840SOL     OW72960   5.696   7.169  12.030 -0.1922 -0.1576 -0.4276
23840SOL    HW172961   5.646   7.245  12.001 -1.1488  0.1631  1.8062
23840SOL    HW272962   5.768   7.206  12.080  0.4033 -0.7016 -0.8697
23841SOL     OW72963   1.543   0.023  10.901  0.1154 -0.0096 -0.2994
23841SOL    HW172964   1.602  -0.051  10.887  0.1102  0.4169 -3.2136
23841SOL    HW272965   1.461  -0.003  10.860  0.2878  1.7475 -1.8941
23842SOL     OW72966   0.502   7.351  12.322 -0.2378  0.9077 -0.0267
23842SOL    HW172967   0.478   7.400  12.400  0.6076  1.9474 -0.3923
23842SOL    HW272968   0.579   7.301  12.348  0.6473  2.0085 -0.4316
23843SOL     OW72969   0.663   6.486  11.116 -0.0714 -0.7489 -0.0741
23843SOL    HW172970   0.574   6.457  11.100 -0.0787 -0.7668 -0.0046
23843SOL    HW272971   0.653   6.567  11.166 -0.0520 -0.5787 -0.3450
23844SOL     OW72972   5.972   0.085  11.071  0.4649 -0.5360  0.3621
23844SOL    HW172973   5.890   0.052  11.109  0.5293 -1.2804 -0.1012
23844SOL    HW272974   5.946   0.117  10.984  0.6648 -0.7892  0.2080
23845SOL     OW72975   6.704   7.686  12.058 -0.3718 -0.2531  0.1526
23845SOL    HW172976   6.702   7.769  12.107 -1.5124  0.5324 -1.1294
23845SOL    HW272977   6.792   7.652  12.073  0.4286  1.6135  0.0648
23846SOL     OW72978   6.901   2.184  10.935 -0.2167  0.3811 -0.1778
23846SOL    HW172979   6.911   2.180  11.030 -0.3961 -1.0734 -0.1964
23846SOL    HW272980   6.929   2.272  10.911 -2.0775  1.4872  1.4490
23847SOL     OW72981   7.281   1.144  11.915 -0.0611  0.9318 -0.1439
23847SOL    HW172982   7.278   1.239  11.903  0.4696  0.9280 -0.3245
23847SOL    HW272983   7.369   1.126  11.946  0.6656  0.2654 -2.3689
23848SOL     OW72984   7.348   1.476   1.245 -0.3417  0.0011 -0.6681
23848SOL    HW172985   7.332   1.386   1.272 -1.7345 -0.0254 -1.5037
23848SOL    HW272986   7.264   1.507   1.211 -0.2034  1.9867  0.6101
23849SOL     OW72987   7.199   0.600   0.428  0.6260 -0.6737  0.5394
23849SOL    HW172988   7.152   0.608   0.345  0.2618 -1.8439  0.6130
23849SOL    HW272989   7.290   0.619   0.406  0.6610 -1.7480 -0.2942
23850SOL     OW72990   1.620   1.162   2.326  0.2633 -0.3169 -0.1007
23850SOL    HW172991   1.586   1.171   2.415  0.1820 -0.9110 -0.0636
23850SOL    HW272992   1.678   1.085   2.331  0.6230 -0.0693 -0.4521
23851SOL     OW72993   0.719   3.201  12.221 -0.3336 -0.8126  0.6342
23851SOL    HW172994   0.640   3.245  12.252 -0.5685  0.5903 -1.7377
23851SOL    HW272995   0.784   3.215  12.291 -1.6149 -0.4045  1.7902
23852SOL     OW72996   7.637   1.316   0.761 -0.3134 -0.3342 -0.8188
23852SOL    HW172997   7.645   1.335   0.854  1.5898 -0.1111 -1.0046
23852SOL    HW272998   7.664   1.224   0.753  1.8062  0.3007 -1.4216
23853SOL     OW72999   0.271   1.711   1.311  0.3468 -0.3204  0.2526
23853SOL    HW173000   0.312   1.744   1.391 -0.8306 -0.0350  0.7517
23853SOL    HW273001   0.341   1.663   1.267  0.9638 -0.6388  1.5318
23854SOL     OW73002   5.878   0.145  11.574 -0.3469 -0.1821  0.3536
23854SOL    HW173003   5.859   0.080  11.642 -0.0151 -0.5908  0.0670
23854SOL    HW273004   5.891   0.092  11.495  0.7650  0.1612  0.2917
23855SOL     OW73005   6.331   0.614   2.651  0.9980 -0.3634 -0.1961
23855SOL    HW173006   6.281   0.655   2.580  0.1782  0.4511  0.8243
23855SOL    HW273007   6.415   0.659   2.650  1.1708 -0.6881 -0.9484
23856SOL     OW73008   6.115   1.294   2.834  0.0608 -0.6056  0.5663
23856SOL    HW173009   6.023   1.312   2.854 -0.4824 -0.0906 -2.0642
23856SOL    HW273010   6.153   1.379   2.814  0.9723 -0.8935  1.0043
23857SOL     OW73011   0.596   1.067   1.263 -0.2438  0.3157 -0.2954
23857SOL    HW173012   0.595   1.077   1.358 -2.1105 -0.7376 -0.1570
23857SOL    HW273013   0.675   1.016   1.245  0.3201  0.8239  0.6365
23858SOL     OW73014   7.867   7.857   0.765  0.4712  0.1863 -0.5154
23858SOL    HW173015   7.830   7.773   0.791  2.0628 -0.8010 -1.2434
23858SOL    HW273016   7.808   7.922   0.803 -0.1004 -1.2248  1.1946
23859SOL     OW73017   0.152   1.522   0.072  0.4502 -0.2742  0.1085
23859SOL    HW173018   0.067   1.566   0.085  1.3241  1.6317 -0.2320
23859SOL    HW273019   0.137   1.432   0.100 -1.2982  0.3791  1.4629
23860SOL     OW73020   7.717   2.404   2.026 -0.5775  0.2046  0.1986
23860SOL    HW173021   7.628   2.437   2.023 -0.2033  1.3696  0.9932
23860SOL    HW273022   7.708   2.311   2.045 -1.6316  0.1098 -0.6651
23861SOL     OW73023   7.186   7.676   2.185 -0.1029 -0.7773  0.5964
23861SOL    HW173024   7.212   7.743   2.248 -0.0658 -0.2314  0.0096
23861SOL    HW273025   7.097   7.652   2.210 -1.0461  1.1962 -0.5704
23862SOL     OW73026   0.921   2.719   1.347 -0.2542  0.1041 -0.4636
23862SOL    HW173027   0.928   2.762   1.262  1.1756  0.9431  0.0484
23862SOL    HW273028   0.913   2.626   1.326  2.0172  0.0758 -1.5116
23863SOL     OW73029   6.113   7.972   1.281  0.0583  0.5490 -0.1344
23863SOL    HW173030   6.089   8.057   1.244 -1.1965  0.2746 -0.0230
23863SOL    HW273031   6.033   7.943   1.326  0.4255 -0.7301 -0.2684
23864SOL     OW73032   1.003   1.579   0.041 -0.2949 -0.8686 -0.2781
23864SOL    HW173033   0.979   1.486   0.039  2.3066 -1.5916 -1.0119
23864SOL    HW273034   1.090   1.582   0.001  0.3252  1.7056  1.0957
23865SOL     OW73035   6.268   0.355   3.001 -0.6072 -0.3770  0.3230
23865SOL    HW173036   6.214   0.398   2.934 -2.5281  0.2030  2.1521
23865SOL    HW273037   6.271   0.418   3.073  0.2786 -1.5377  1.3296
23866SOL     OW73038   6.985   1.351  11.953  0.4293 -0.5437  0.3052
23866SOL    HW173039   6.967   1.442  11.930  0.9055 -0.9724 -1.9146
23866SOL    HW273040   7.065   1.354  12.005  2.1095  0.1411 -2.1413
23867SOL     OW73041   0.580   1.422   2.052  0.1992 -0.1893 -0.2121
23867SOL    HW173042   0.519   1.350   2.036  0.8659 -1.2528  1.7367
23867SOL    HW273043   0.532   1.482   2.110 -0.2222  0.8149 -1.5368
23868SOL     OW73044   0.890   0.265   0.066  0.4496 -0.2995  0.4257
23868SOL    HW173045   0.861   0.322  -0.006 -0.7602  0.6926  1.6377
23868SOL    HW273046   0.962   0.313   0.106  0.0820 -0.0815  0.8357
23869SOL     OW73047   0.277   1.294  12.329 -0.2900  0.4227  0.4925
23869SOL    HW173048   0.237   1.207  12.330  2.1395 -0.8991 -2.4284
23869SOL    HW273049   0.223   1.344  12.269  0.0315 -0.0575 -0.2110
23870SOL     OW73050   7.433   0.706   1.264 -0.6516  0.4709  0.1753
23870SOL    HW173051   7.492   0.632   1.251 -2.1955 -0.5499 -1.3084
23870SOL    HW273052   7.486   0.783   1.241  0.3581 -0.3294 -0.2491
23871SOL     OW73053   6.466   1.513   1.716 -0.1515 -0.2520  0.3586
23871SOL    HW173054   6.483   1.597   1.758 -2.0795  0.1589  0.4370
23871SOL    HW273055   6.482   1.449   1.785 -2.9275  0.3915  1.7549
23872SOL     OW73056   4.906   0.403   1.716 -0.4262 -0.2301  0.2168
23872SOL    HW173057   4.852   0.331   1.685 -0.4104  0.3700 -1.2862
23872SOL    HW273058   4.843   0.472   1.739 -0.3704  0.3384 -1.1979
23873SOL     OW73059   7.530   0.816   0.262  0.2881  0.2102  0.3138
23873SOL    HW173060   7.547   0.906   0.288  3.3138  0.0406 -0.6082
23873SOL    HW273061   7.587   0.764   0.319 -1.6165 -1.2149  1.0338
23874SOL     OW73062   0.500   0.791  11.890  0.0571  0.0642 -0.1090
23874SOL    HW173063   0.586   0.785  11.932  0.2982 -0.6780 -0.6903
23874SOL    HW273064   0.480   0.702  11.862 -0.8264  0.2571 -0.1466
23875SOL     OW73065   0.084   0.963   2.833  0.2206 -0.7175  0.8334
23875SOL    HW173066   0.122   0.892   2.885 -0.3208 -1.8354 -0.2105
23875SOL    HW273067   0.045   0.918   2.758  1.8228  0.8905 -1.0830
23876SOL     OW73068   7.113   0.677   1.067 -0.0871  0.3895  0.0354
23876SOL    HW173069   7.165   0.703   0.991  2.2942 -1.2473  1.0093
23876SOL    HW273070   7.110   0.581   1.063 -0.6840  0.3220  1.5414
23877SOL     OW73071   7.443   7.112   0.769 -0.3996  0.1537  0.1942
23877SOL    HW173072   7.445   7.025   0.729 -0.1599 -0.1429  0.8429
23877SOL    HW273073   7.377   7.106   0.837 -0.8508  0.6775 -0.1902
23878SOL     OW73074   7.229   7.816   1.346 -0.0677 -0.2967  0.0006
23878SOL    HW173075   7.253   7.867   1.423 -0.8348  0.8460 -0.4962
23878SOL    HW273076   7.260   7.867   1.272 -0.8012 -0.5613 -0.5060
23879SOL     OW73077   5.970   1.701   1.256 -0.1999 -0.1670 -0.0602
23879SOL    HW173078   5.895   1.706   1.196 -0.4885 -2.3935  0.0258
23879SOL    HW273079   5.998   1.792   1.267 -1.9805  0.5833 -1.2339
23880SOL     OW73080   1.631   2.010   1.028  0.5238  0.3144  0.3672
23880SOL    HW173081   1.705   1.952   1.043  2.2557  2.1845 -0.4754
23880SOL    HW273082   1.659   2.094   1.063 -1.4720  0.9368  0.5741
23881SOL     OW73083   1.458   0.275   0.016  0.2233  0.2429 -0.1215
23881SOL    HW173084   1.452   0.348   0.077  0.5993 -0.7356  1.1296
23881SOL    HW273085   1.543   0.234   0.036  0.0526 -0.4913 -0.8437
23882SOL     OW73086   7.081   0.833   1.302 -0.1699  0.5505 -0.1737
23882SOL    HW173087   7.068   0.774   1.228 -0.8732  1.2626 -0.6327
23882SOL    HW273088   6.993   0.844   1.339  0.3054 -0.5589  1.3766
23883SOL     OW73089   7.344   1.124  10.605  0.2989 -0.4022 -0.1336
23883SOL    HW173090   7.340   1.176  10.685 -0.5088 -0.4720 -0.1149
23883SOL    HW273091   7.380   1.040  10.633  1.3647  0.0449 -0.1169
23884SOL     OW73092   7.381   0.881   2.032  0.0937  0.0924  0.6648
23884SOL    HW173093   7.365   0.975   2.044  0.6059  0.0484  1.7709
23884SOL    HW273094   7.476   0.873   2.028  0.0393 -0.0986 -2.0720
23885SOL     OW73095   6.955   1.770  12.130  0.3953  0.3083  0.3377
23885SOL    HW173096   6.882   1.714  12.156  1.2463 -1.0910 -0.2374
23885SOL    HW273097   6.994   1.727  12.054  2.2931  0.6106  1.0815
23886SOL     OW73098   2.287   2.742  12.131  0.1681 -0.3670 -0.1062
23886SOL    HW173099   2.198   2.770  12.110 -0.3479 -0.5149  1.7570
23886SOL    HW273100   2.289   2.649  12.112  0.0722 -0.2782 -0.5685
23887SOL     OW73101   6.551   0.996   0.382  0.2528 -0.1094 -0.2389
23887SOL    HW173102   6.607   1.009   0.306  0.6086 -0.7316 -0.0882
23887SOL    HW273103   6.565   1.073   0.437 -1.1766  1.1254 -1.5108
23888SOL     OW73104   6.934   1.859   0.747 -0.1134  0.1808 -0.3274
23888SOL    HW173105   6.853   1.825   0.709  0.7871 -0.3103 -1.9076
23888SOL    HW273106   6.984   1.891   0.672  0.8050  1.2751  0.7086
23889SOL     OW73107   6.062   7.771   2.135  0.2648  0.2550  0.1758
23889SOL    HW173108   6.063   7.810   2.223 -0.2050  0.3978  0.1214
23889SOL    HW273109   6.030   7.842   2.079  0.0760  0.0054 -0.0320
23890SOL     OW73110   7.629   0.311   1.568 -0.0461 -0.0963 -0.1600
23890SOL    HW173111   7.550   0.338   1.523 -0.6667 -1.7953 -0.1490
23890SOL    HW273112   7.691   0.290   1.498 -0.0092  0.0811 -0.1812
23891SOL     OW73113   0.653   0.517   3.272 -0.3496  0.2963  0.0228
23891SOL    HW173114   0.686   0.594   3.318 -0.8444  0.5222  0.0044
23891SOL    HW273115   0.698   0.520   3.187 -1.0888  1.1182 -0.3587
23892SOL     OW73116   1.030   1.590  11.829  0.7528 -0.1876  0.1051
23892SOL    HW173117   1.051   1.665  11.774 -1.0747  0.5254  0.2981
23892SOL    HW273118   1.032   1.515  11.769  0.4725  0.3319 -0.5680
23893SOL     OW73119   7.293   2.377   0.296  0.2789  0.0533  0.2869
23893SOL    HW173120   7.227   2.309   0.310 -0.2613  0.6138  0.5177
23893SOL    HW273121   7.362   2.357   0.360 -0.0552 -0.0566  0.6194
23894SOL     OW73122   7.908   2.324   1.452 -0.1833  0.9372  0.5237
23894SOL    HW173123   7.943   2.383   1.519  0.2404  1.7637 -0.3977
23894SOL    HW273124   7.928   2.367   1.369 -0.1679 -0.3463 -0.1721
23895SOL     OW73125   0.044   3.142  11.266  0.1017 -0.3766  0.0950
23895SOL    HW173126   0.031   3.166  11.357 -3.0711  1.8660 -0.7795
23895SOL    HW273127  -0.024   3.077  11.249  0.7690 -0.8957 -0.6418
23896SOL     OW73128   7.875   0.685  11.182  0.3975  0.5612 -0.3075
23896SOL    HW173129   7.923   0.605  11.204 -0.9202 -0.3050 -0.4843
23896SOL    HW273130   7.784   0.656  11.170  0.1273  1.8680 -1.6697
23897SOL     OW73131   6.752   7.669   1.897  0.0725 -0.2417 -0.0438
23897SOL    HW173132   6.685   7.737   1.903 -1.4580 -1.7271  0.5632
23897SOL    HW273133   6.711   7.598   1.848  1.0479 -1.3568  0.6782
23898SOL     OW73134   7.487   0.526   0.309  0.0160 -0.2427 -0.3724
23898SOL    HW173135   7.452   0.539   0.222  0.1271 -2.2347 -0.7711
23898SOL    HW273136   7.571   0.572   0.309 -0.0795 -0.0661 -1.2524
23899SOL     OW73137   1.006   1.722  12.293 -0.6329  0.2478  0.5611
23899SOL    HW173138   0.924   1.672  12.292 -0.2163 -0.4989  1.7488
23899SOL    HW273139   1.005   1.768  12.377  1.0892 -1.4072  1.5481
23900SOL     OW73140   6.559   0.453   1.776  0.0777 -0.1824  0.0073
23900SOL    HW173141   6.639   0.469   1.826  0.4083 -1.9043  0.1054
23900SOL    HW273142   6.524   0.372   1.813 -0.8115 -0.3504 -1.1474
23901SOL     OW73143   7.034   1.092   0.084  0.0423 -0.2850  0.8052
23901SOL    HW173144   6.978   1.145   0.027  1.0840  0.5165  0.4934
23901SOL    HW273145   7.026   1.003   0.049 -1.0400 -0.1925  0.7861
23902SOL     OW73146   0.415   1.553   0.976 -0.1539  0.5068  0.4880
23902SOL    HW173147   0.428   1.522   1.065  0.1738  0.5207  0.4483
23902SOL    HW273148   0.485   1.510   0.926 -1.2534 -0.7009 -0.0544
23903SOL     OW73149   0.332   2.214   1.213  0.3187 -0.6035  0.2694
23903SOL    HW173150   0.392   2.140   1.225 -0.8475 -1.4707  0.9543
23903SOL    HW273151   0.254   2.175   1.173 -0.3998  0.2094  0.8404
23904SOL     OW73152   6.420   0.269  10.601  0.6484  0.2306 -0.3763
23904SOL    HW173153   6.401   0.276  10.695  0.2009 -0.3625 -0.4148
23904SOL    HW273154   6.433   0.359  10.572 -1.1766  0.5973 -0.1483
23905SOL     OW73155   7.667   0.878   1.891  1.1011 -0.2895  0.0199
23905SOL    HW173156   7.661   0.867   1.796  0.2591  0.5425 -0.0364
23905SOL    HW273157   7.698   0.968   1.903  1.8944 -0.6189  0.5339
23906SOL     OW73158   0.495   0.977   2.638  0.5483  0.3515 -0.2041
23906SOL    HW173159   0.569   0.929   2.600  0.1203 -2.0906  1.7622
23906SOL    HW273160   0.422   0.958   2.579  0.4291 -1.3880  0.4317
23907SOL     OW73161   7.537   0.181   3.055 -0.3636  0.0033  0.0157
23907SOL    HW173162   7.474   0.252   3.069 -1.0597 -0.3380 -1.2388
23907SOL    HW273163   7.590   0.181   3.135 -1.2483  1.0064  0.6468
23908SOL     OW73164   6.239   2.381   3.523  0.5388  0.0283 -0.0234
23908SOL    HW173165   6.232   2.295   3.481 -1.0715  0.3785 -0.5402
23908SOL    HW273166   6.275   2.437   3.455  1.9783 -0.3018  0.4419
23909SOL     OW73167   1.843   0.021   3.394 -0.0179 -0.1300  0.3192
23909SOL    HW173168   1.830  -0.072   3.410 -1.4423 -0.1104 -0.5377
23909SOL    HW273169   1.853   0.027   3.299  0.1547  0.5924  0.3777
23910SOL     OW73170   2.005   2.260   3.156 -0.3862 -0.2692  0.4204
23910SOL    HW173171   1.990   2.232   3.066 -1.3486  1.6375 -0.0584
23910SOL    HW273172   2.039   2.350   3.149 -1.7795  0.4476  1.9559
23911SOL     OW73173   7.928   0.040   1.686  0.2401  0.0388  0.0447
23911SOL    HW173174   7.935   0.060   1.593  0.6161  0.1228  0.0891
23911SOL    HW273175   7.859   0.097   1.718 -0.3750 -0.4879 -0.3211
23912SOL     OW73176   0.614   1.166   2.799 -0.0834 -0.2239  0.2458
23912SOL    HW173177   0.604   1.253   2.760  0.9113  0.0330  0.5415
23912SOL    HW273178   0.598   1.106   2.726  1.3376  0.2504 -0.5040
23913SOL     OW73179   7.020   1.831   3.759 -0.2254 -0.4254  0.1479
23913SOL    HW173180   6.961   1.759   3.738  0.5825 -1.0159 -0.1747
23913SOL    HW273181   7.002   1.850   3.851  0.1779 -1.6702  0.5067
23914SOL     OW73182   7.687   2.347   1.706  0.1143 -0.9042 -0.3163
23914SOL    HW173183   7.677   2.276   1.769 -0.2424 -1.4021 -0.9237
23914SOL    HW273184   7.636   2.319   1.630 -1.5084  0.7953  0.0743
23915SOL     OW73185   0.655   7.768   2.753  0.1323 -0.2605  0.3800
23915SOL    HW173186   0.647   7.858   2.785  0.7565 -0.3874  0.9172
23915SOL    HW273187   0.662   7.715   2.833 -2.2608 -1.0265  0.1584
23916SOL     OW73188   1.056   1.806   3.696 -0.2811  0.2629  0.5048
23916SOL    HW173189   1.135   1.770   3.736 -0.0161  1.2763  0.9182
23916SOL    HW273190   1.012   1.853   3.766 -0.2552  1.3363 -0.1774
23917SOL     OW73191   6.459   6.717   2.279 -0.1379 -0.2717  0.1851
23917SOL    HW173192   6.541   6.750   2.315  0.3304 -0.7595 -0.4083
23917SOL    HW273193   6.424   6.660   2.347  1.3366 -2.1526 -0.5444
23918SOL     OW73194   4.232   0.599   3.683 -0.4015  0.0731 -0.1041
23918SOL    HW173195   4.278   0.660   3.626 -0.9936  0.4636 -0.1694
23918SOL    HW273196   4.191   0.654   3.749 -0.5173 -0.3010  0.1400
23919SOL     OW73197   6.195   2.665   2.494 -0.3253 -0.4871 -0.0549
23919SOL    HW173198   6.168   2.726   2.425  0.1963 -0.0535  0.1221
23919SOL    HW273199   6.146   2.693   2.571 -1.0743 -1.1057 -0.2849
23920SOL     OW73200   6.675   4.020   3.341 -0.8447 -0.3830  0.2833
23920SOL    HW173201   6.748   3.986   3.393  1.3550  0.9330 -1.7215
23920SOL    HW273202   6.603   4.028   3.403  1.2936  0.1179  2.8899
23921SOL     OW73203   7.364   1.490   3.402  0.1809  0.0800  0.3223
23921SOL    HW173204   7.282   1.440   3.401 -0.1347  0.5876 -0.0153
23921SOL    HW273205   7.426   1.434   3.355 -0.5952  0.6785 -1.5013
23922SOL     OW73206   0.297   3.784   1.702 -0.7507  0.1315  0.3016
23922SOL    HW173207   0.350   3.707   1.684 -0.4846  0.7641 -1.9911
23922SOL    HW273208   0.215   3.769   1.654 -0.2485  1.7117 -1.1544
23923SOL     OW73209   7.522   2.353   1.186  0.5799  0.6197  0.2874
23923SOL    HW173210   7.445   2.394   1.148  1.0504  2.0767  0.8199
23923SOL    HW273211   7.496   2.330   1.276  1.0818  2.2670  0.9035
23924SOL     OW73212   0.403   6.982   2.107  0.2191  0.3571 -0.1175
23924SOL    HW173213   0.422   7.056   2.165  1.5817  0.2612 -0.4063
23924SOL    HW273214   0.321   7.005   2.064 -0.4312  0.7676  1.2890
23925SOL     OW73215   1.558   7.612   3.710 -0.1237  0.1928 -0.1653
23925SOL    HW173216   1.597   7.631   3.625 -0.0177 -0.7519 -0.3370
23925SOL    HW273217   1.572   7.692   3.761  1.2788  0.1838 -0.4939
23926SOL     OW73218   7.123   0.865   0.276 -0.7427  0.2543 -0.3972
23926SOL    HW173219   7.167   0.920   0.340 -0.9789 -0.0794  0.0614
23926SOL    HW273220   7.136   0.910   0.192 -0.3180  0.6249 -0.1375
23927SOL     OW73221   0.939   1.089   1.709 -0.2303 -0.3928 -0.1365
23927SOL    HW173222   0.938   1.152   1.637  0.5499 -0.6682 -0.3941
23927SOL    HW273223   0.944   1.143   1.788 -2.8131  0.0018 -0.1301
23928SOL     OW73224   7.344   7.417   0.020  0.5826  0.2222 -0.8542
23928SOL    HW173225   7.276   7.484   0.025 -0.4164 -0.8216  0.3962
23928SOL    HW273226   7.417   7.460  -0.026 -0.6204  1.6112 -1.5461
23929SOL     OW73227   7.576   2.191   2.166  0.1232 -0.5573 -0.7494
23929SOL    HW173228   7.541   2.117   2.216 -1.2867  0.6958  0.2126
23929SOL    HW273229   7.563   2.267   2.224 -0.1388  0.7208 -2.4227
23930SOL     OW73230   0.652   1.415   0.917  0.4229  0.1822 -0.4616
23930SOL    HW173231   0.739   1.434   0.951 -0.1845 -0.4180  1.5704
23930SOL    HW273232   0.645   1.320   0.920 -0.7558  0.2749  0.6883
23931SOL     OW73233   7.876   3.187   1.504  0.0647  0.0253 -0.3008
23931SOL    HW173234   7.809   3.128   1.468  0.3635 -0.2149 -0.4687
23931SOL    HW273235   7.853   3.195   1.596 -1.4358  1.6172 -0.7539
23932SOL     OW73236   7.393   1.702   3.631  0.1742  0.1446 -0.1476
23932SOL    HW173237   7.360   1.613   3.646 -0.3600  0.1542 -1.1837
23932SOL    HW273238   7.381   1.746   3.714 -0.3026 -0.5269  0.1513
23933SOL     OW73239   7.077   2.525   2.553 -0.0039  0.1283 -0.3314
23933SOL    HW173240   7.159   2.522   2.504  1.4174  0.0836  1.9032
23933SOL    HW273241   7.060   2.618   2.566  0.5077  0.1253  0.4326
23934SOL     OW73242   7.796   3.526   1.722 -0.1935  0.5105 -0.3080
23934SOL    HW173243   7.713   3.480   1.707 -0.3300  0.9072 -0.7737
23934SOL    HW273244   7.801   3.535   1.817 -1.7690  2.4462 -0.3405
23935SOL     OW73245   7.227   1.417   1.781 -0.2802 -0.2261  0.3807
23935SOL    HW173246   7.149   1.465   1.752 -0.1576 -0.0564  0.3299
23935SOL    HW273247   7.295   1.484   1.786 -0.2424 -0.2973  0.8456
23936SOL     OW73248   0.906   2.723   2.330  0.2101 -0.9426  0.0884
23936SOL    HW173249   0.864   2.739   2.246 -1.5829  0.0713  1.1087
23936SOL    HW273250   0.864   2.644   2.363 -2.1148  0.8177  1.7283
23937SOL     OW73251   7.254   1.429   2.143 -0.0820 -0.6263  0.2476
23937SOL    HW173252   7.295   1.403   2.060 -1.0595 -1.1311 -0.0898
23937SOL    HW273253   7.182   1.487   2.118 -0.7675 -1.2600  0.6842
23938SOL     OW73254   7.873   0.507   2.964 -0.0142  0.0629  0.4909
23938SOL    HW173255   7.823   0.464   2.895  1.4700 -0.0078 -0.5898
23938SOL    HW273256   7.930   0.438   2.998  2.3710  1.0457 -1.2398
23939SOL     OW73257   0.025   1.757   4.141  0.7613 -0.2380 -0.2827
23939SOL    HW173258  -0.056   1.789   4.101  1.0539 -0.7057 -1.2868
23939SOL    HW273259   0.010   1.765   4.235 -0.1924  0.3146 -0.4689
23940SOL     OW73260   7.642   1.532   3.408 -0.6504  0.9415  0.1079
23940SOL    HW173261   7.551   1.525   3.436 -0.4658 -1.0728  0.3546
23940SOL    HW273262   7.681   1.448   3.432  1.2381  1.6934 -0.1514
23941SOL     OW73263   0.409   2.848   3.223 -0.5389  0.3115  0.1221
23941SOL    HW173264   0.464   2.914   3.181  1.0636 -0.1010  1.4814
23941SOL    HW273265   0.415   2.772   3.165 -0.4024  0.5500 -0.1815
23942SOL     OW73266   0.296   0.113   2.037  0.5944 -0.0850 -0.2024
23942SOL    HW173267   0.259   0.181   1.980  1.5563 -0.2725 -1.0723
23942SOL    HW273268   0.268   0.031   1.997  0.9067 -0.2145 -0.1561
23943SOL     OW73269   7.619   6.355   3.751 -0.1496 -0.0872 -0.3725
23943SOL    HW173270   7.554   6.285   3.745 -0.8665  0.3021  1.8135
23943SOL    HW273271   7.616   6.383   3.843  2.8058  0.2619 -0.2749
23944SOL     OW73272   7.229   2.160   2.935  0.0414 -0.6493  0.0656
23944SOL    HW173273   7.298   2.203   2.884 -0.6700  0.6437  0.1485
23944SOL    HW273274   7.267   2.149   3.022  1.1274 -2.5322 -0.5780
23945SOL     OW73275   7.881   0.007   2.134  0.6207  0.3172  0.1218
23945SOL    HW173276   7.830   0.023   2.214  1.1670  3.6235 -0.0615
23945SOL    HW273277   7.961   0.057   2.145  1.8033 -1.0621 -1.5634
23946SOL     OW73278   7.982   0.958   1.691 -0.4461  0.1334  0.3132
23946SOL    HW173279   7.920   0.917   1.631  0.4058 -2.6422  1.1613
23946SOL    HW273280   7.974   1.052   1.674  0.4014 -0.4403 -4.7804
23947SOL     OW73281   0.994   0.837   1.519  0.5181  0.3148 -0.3024
23947SOL    HW173282   0.936   0.913   1.514 -0.0883 -0.0871  0.4709
23947SOL    HW273283   1.077   0.872   1.551  0.2932  0.6818 -0.1167
23948SOL     OW73284   6.439   2.068   2.967 -0.3140  0.3613 -0.4088
23948SOL    HW173285   6.398   2.154   2.975  3.4266  2.3107 -0.3579
23948SOL    HW273286   6.478   2.051   3.052 -1.2343 -1.6131 -0.3226
23949SOL     OW73287   0.504   1.188   4.709 -0.6207 -0.2920  0.2895
23949SOL    HW173288   0.412   1.214   4.716 -0.7071 -0.3923 -0.3802
23949SOL    HW273289   0.514   1.163   4.617 -0.3489 -1.8813  0.7201
23950SOL     OW73290   0.897   1.752   2.196  0.1438 -0.5849 -0.1128
23950SOL    HW173291   0.987   1.783   2.202 -0.3574  1.0381 -0.4483
23950SOL    HW273292   0.904   1.661   2.168  1.7283 -1.0745  1.6542
23951SOL     OW73293   6.126   6.074   3.492  0.3201  0.4500  0.3564
23951SOL    HW173294   6.055   6.050   3.551  0.4805  0.2677  0.4776
23951SOL    HW273295   6.187   6.000   3.496  0.5790  0.6598  0.3566
23952SOL     OW73296   7.043   1.354   3.807 -0.1188 -0.1514 -0.0441
23952SOL    HW173297   6.983   1.373   3.735 -0.6943  2.0481  0.9394
23952SOL    HW273298   6.987   1.324   3.878  0.5004 -2.8464 -0.6023
23953SOL     OW73299   0.274   2.052   2.339 -0.1998 -0.2612 -0.7972
23953SOL    HW173300   0.200   1.997   2.311 -0.5385  0.7164 -1.8815
23953SOL    HW273301   0.235   2.137   2.357  0.4589 -0.1215  0.0286
23954SOL     OW73302   1.346   2.656   0.816 -0.4493 -0.5008  0.2688
23954SOL    HW173303   1.253   2.678   0.828 -0.2384  0.1452  0.8081
23954SOL    HW273304   1.363   2.675   0.724 -0.2038  2.0501  0.7640
23955SOL     OW73305   6.150   3.521   4.309 -0.6411 -0.0832 -0.0796
23955SOL    HW173306   6.082   3.472   4.263 -0.8809 -0.2504  0.4506
23955SOL    HW273307   6.194   3.455   4.363 -0.2389  0.0766 -0.2141
23956SOL     OW73308   6.809   0.582   2.539 -0.4377 -0.3037  0.0558
23956SOL    HW173309   6.769   0.541   2.462 -0.0724  0.7402 -0.7058
23956SOL    HW273310   6.792   0.520   2.610 -0.9906 -1.1746 -0.8086
23957SOL     OW73311   4.588   2.075   2.972  0.2166  0.3804  0.0408
23957SOL    HW173312   4.521   2.024   2.928  0.4917  0.5522 -0.5863
23957SOL    HW273313   4.546   2.159   2.992 -0.3179 -0.1745  1.3141
23958SOL     OW73314   6.506   1.746   1.849  0.2806 -0.1445 -0.6678
23958SOL    HW173315   6.552   1.783   1.774  1.7005  1.5166  0.9170
23958SOL    HW273316   6.419   1.783   1.846  0.9344  1.4886 -0.4703
23959SOL     OW73317   7.591   0.076   1.908 -0.0525 -0.5964 -0.2189
23959SOL    HW173318   7.569   0.118   1.991 -1.7596 -1.0647 -0.4089
23959SOL    HW273319   7.669   0.124   1.877 -0.0528  0.3074  1.0926
23960SOL     OW73320   7.826   0.961   3.771  0.0348 -0.5984  0.1883
23960SOL    HW173321   7.904   1.006   3.737  0.4383 -0.5331  1.1839
23960SOL    HW273322   7.809   1.003   3.855 -2.5770  1.1487 -1.0427
23961SOL     OW73323   7.306   0.194   1.956 -0.3563  0.1590 -0.5257
23961SOL    HW173324   7.274   0.274   1.916 -0.4510 -0.5054 -1.8270
23961SOL    HW273325   7.274   0.124   1.899 -2.0898 -1.0025  1.6922
23962SOL     OW73326   6.870   1.031   3.809  0.1902  0.4012 -0.3776
23962SOL    HW173327   6.855   1.108   3.864  1.1287 -0.2190  0.7876
23962SOL    HW273328   6.785   0.988   3.805  0.2610  0.0179  1.3115
23963SOL     OW73329   7.147   1.027   3.878 -0.9213 -0.3243 -0.5929
23963SOL    HW173330   7.145   1.041   3.783 -2.7945  0.2989 -0.4937
23963SOL    HW273331   7.065   0.982   3.898 -1.6512  1.5284  0.9884
23964SOL     OW73332   6.455   1.343   4.451  0.2018  0.5614 -0.0383
23964SOL    HW173333   6.475   1.420   4.397  0.0056  0.8973  0.3569
23964SOL    HW273334   6.541   1.309   4.475  0.2982 -0.0465 -1.1752
23965SOL     OW73335   5.895   2.407   2.315  0.5095 -0.0182  0.5430
23965SOL    HW173336   5.828   2.377   2.376  0.5770 -0.1488  0.5523
23965SOL    HW273337   5.860   2.489   2.280 -0.9691 -1.4479 -1.5411
23966SOL     OW73338   7.364   2.518   2.487 -0.0114 -0.0371 -0.0931
23966SOL    HW173339   7.390   2.558   2.570  1.4249  1.0395 -1.0067
23966SOL    HW273340   7.426   2.446   2.475  0.8927  0.8630 -1.0038
23967SOL     OW73341   6.938   0.404   4.338  0.1584 -0.0333  0.6219
23967SOL    HW173342   6.954   0.498   4.345  0.2583 -0.0777  0.9873
23967SOL    HW273343   6.920   0.390   4.245  3.5746 -0.1629 -0.1442
23968SOL     OW73344   5.246   7.403   2.890  0.2123 -0.0405  0.0600
23968SOL    HW173345   5.216   7.482   2.934 -2.1185  0.1248 -1.6544
23968SOL    HW273346   5.276   7.346   2.961 -1.6159  0.9353  1.7066
23969SOL     OW73347   7.695   1.632   5.033 -0.0504  0.0602  0.6133
23969SOL    HW173348   7.725   1.692   5.101 -1.3189  1.5585 -0.0975
23969SOL    HW273349   7.773   1.614   4.980  0.3268  1.2133  0.7565
23970SOL     OW73350   6.882   0.451   4.624 -0.1302 -0.3231 -0.1429
23970SOL    HW173351   6.977   0.438   4.635  0.1576  1.9879  0.6722
23970SOL    HW273352   6.870   0.463   4.530  0.3878 -0.5935 -0.2490
23971SOL     OW73353   0.134   0.509   3.291  0.3955 -0.4211 -1.0602
23971SOL    HW173354   0.223   0.529   3.320 -0.6404 -0.2030  2.3869
23971SOL    HW273355   0.085   0.590   3.306 -0.7768 -1.0907 -1.1479
23972SOL     OW73356   1.124   1.593   4.977  0.5969 -0.0571 -0.0599
23972SOL    HW173357   1.204   1.549   5.005  1.5751  1.5644 -0.1568
23972SOL    HW273358   1.104   1.556   4.892  0.3406 -1.5892  0.6410
23973SOL     OW73359   7.510   0.298   5.177  0.2515 -0.1432 -0.0809
23973SOL    HW173360   7.599   0.293   5.210  0.1500  0.8273  0.3809
23973SOL    HW273361   7.460   0.335   5.250 -0.4813 -0.4300 -0.4263
23974SOL     OW73362   7.347   2.315   3.896  0.1002  0.5226 -0.0586
23974SOL    HW173363   7.291   2.252   3.942  0.2743  0.1040 -0.4233
23974SOL    HW273364   7.286   2.378   3.857 -0.0479  0.9847  0.8781
23975SOL     OW73365   7.386   1.722   2.869  0.0032  0.0845  0.2977
23975SOL    HW173366   7.292   1.708   2.856  0.0677 -1.5501  1.3060
23975SOL    HW273367   7.427   1.680   2.794 -0.0241 -0.5307  0.6213
23976SOL     OW73368   7.716   1.369   4.589 -0.3554 -0.1615 -0.6017
23976SOL    HW173369   7.649   1.347   4.525 -0.9199 -0.0761 -0.0515
23976SOL    HW273370   7.667   1.398   4.666  0.3323  1.2335 -0.6629
23977SOL     OW73371   6.799   1.016   4.669 -0.0029 -0.2996  0.1948
23977SOL    HW173372   6.884   1.036   4.709  0.5574 -0.2431 -1.0018
23977SOL    HW273373   6.746   0.983   4.742  1.2011 -0.8272  0.8631
23978SOL     OW73374   7.653   2.496   4.506 -0.3133 -0.3977  0.6421
23978SOL    HW173375   7.702   2.433   4.453  1.4481  0.1204  1.5674
23978SOL    HW273376   7.571   2.451   4.528  0.1849 -1.7183 -0.0897
23979SOL     OW73377   5.987   1.651   3.137 -0.1421  0.4905  0.5165
23979SOL    HW173378   5.982   1.719   3.204  0.0425 -0.9922  2.0997
23979SOL    HW273379   5.902   1.607   3.142 -0.2332  0.5440 -0.4447
23980SOL     OW73380   6.476   7.121   5.878  0.2177 -0.4566 -0.0978
23980SOL    HW173381   6.462   7.169   5.960 -0.6283  0.2531 -0.6306
23980SOL    HW273382   6.515   7.038   5.905  0.2160 -0.1246  0.9945
23981SOL     OW73383   7.957   0.674   4.402  0.1487  0.2678 -0.3002
23981SOL    HW173384   7.988   0.664   4.312 -0.8311 -0.8417 -0.5509
23981SOL    HW273385   8.002   0.605   4.451  0.4585  0.6824  0.0039
23982SOL     OW73386   6.984   7.441   5.829  0.0072 -0.0536  0.2611
23982SOL    HW173387   6.902   7.468   5.788  0.0924  0.7118  0.5712
23982SOL    HW273388   6.970   7.453   5.923 -0.4265 -2.4432  0.5739
23983SOL     OW73389   0.776   0.621   4.879 -0.1216 -0.4512  0.2348
23983SOL    HW173390   0.693   0.637   4.833 -0.6893 -2.0051  0.6406
23983SOL    HW273391   0.834   0.586   4.812 -0.3939 -1.0733  0.3125
23984SOL     OW73392   7.169   7.371   4.961  0.1442 -0.2841  0.6451
23984SOL    HW173393   7.123   7.441   4.915  0.1013 -1.2275 -0.8261
23984SOL    HW273394   7.105   7.339   5.025 -0.7931 -0.6523 -0.4265
23985SOL     OW73395   7.543   1.378   4.820 -0.1527  0.5053 -0.5087
23985SOL    HW173396   7.482   1.444   4.854 -0.6021  0.0093 -0.3296
23985SOL    HW273397   7.548   1.312   4.889  0.0769  0.2173 -0.7961
23986SOL     OW73398   0.923   1.638   4.007 -0.1864  0.2925  0.3519
23986SOL    HW173399   0.851   1.593   4.051 -1.3754  1.6447 -0.1066
23986SOL    HW273400   0.915   1.614   3.915 -0.1927  0.6038  0.2673
23987SOL     OW73401   7.694   2.896   2.955  0.0395 -0.3934  0.2132
23987SOL    HW173402   7.625   2.915   2.891  1.5973  0.9566 -1.1476
23987SOL    HW273403   7.653   2.914   3.039 -1.5360 -0.4870 -0.4901
23988SOL     OW73404   0.754   2.531   4.248 -0.5481  0.0730  0.2041
23988SOL    HW173405   0.782   2.496   4.163  1.0186  0.4479  0.5309
23988SOL    HW273406   0.808   2.610   4.260 -0.0561 -0.4861  1.9599
23989SOL     OW73407   7.379   6.913   3.508 -0.0015 -0.7633 -0.6592
23989SOL    HW173408   7.420   6.945   3.428  0.7730  0.8962  0.3490
23989SOL    HW273409   7.451   6.908   3.571 -1.0225  0.6844  0.7087
23990SOL     OW73410   6.635   2.139   4.023 -0.3334  0.1157  0.6476
23990SOL    HW173411   6.681   2.096   4.094  0.7237  3.4902  2.2051
23990SOL    HW273412   6.550   2.163   4.060 -0.6765 -0.0675  0.0034
23991SOL     OW73413   6.897   1.255   5.173  0.4795  0.0329  0.2014
23991SOL    HW173414   6.852   1.290   5.250  1.6943  0.0775  0.9370
23991SOL    HW273415   6.839   1.187   5.139 -0.3803  0.4718  0.7606
23992SOL     OW73416   7.299   7.929   3.620 -0.7468 -0.5133  0.6287
23992SOL    HW173417   7.297   7.852   3.676 -1.8252 -0.1000  1.1831
23992SOL    HW273418   7.346   7.995   3.671  0.8310 -0.9857 -0.1353
23993SOL     OW73419   6.132   7.333   4.994 -0.0294  0.0729 -0.0668
23993SOL    HW173420   6.215   7.370   4.965 -0.1715  0.5678  0.1448
23993SOL    HW273421   6.076   7.335   4.916  0.6205 -1.6630 -0.6120
23994SOL     OW73422   6.986   2.332   3.920 -0.3664 -0.0015  0.3562
23994SOL    HW173423   6.930   2.289   3.855 -1.5134  1.8713  0.0476
23994SOL    HW273424   7.021   2.409   3.874  0.6084  0.1251  1.2782
23995SOL     OW73425   6.976   1.228   4.881  0.1099 -0.1160 -0.5666
23995SOL    HW173426   6.969   1.321   4.861 -1.1049  0.1759  0.9810
23995SOL    HW273427   6.911   1.214   4.950  1.4511 -1.7670  0.4188
23996SOL     OW73428   6.801   0.033   5.273  0.3107  0.2075  0.1447
23996SOL    HW173429   6.866   0.090   5.233  1.4381 -0.7742  0.5250
23996SOL    HW273430   6.848  -0.047   5.293 -0.2916  0.4596  2.9827
23997SOL     OW73431   7.576   3.467   6.943  0.1014  0.6457 -0.4282
23997SOL    HW173432   7.595   3.473   6.850  2.0972 -1.4745 -0.2434
23997SOL    HW273433   7.635   3.532   6.983  3.5762 -2.2525 -0.3196
23998SOL     OW73434   7.201   1.872   4.063 -0.6457 -0.6130 -0.1505
23998SOL    HW173435   7.109   1.853   4.044 -0.6182 -2.0392  0.9392
23998SOL    HW273436   7.224   1.810   4.132  1.0628 -0.0845 -0.2033
23999SOL     OW73437   7.358   1.784   3.123  0.3711 -0.2328 -0.5121
23999SOL    HW173438   7.444   1.777   3.166 -0.3327 -0.2514  0.9465
23999SOL    HW273439   7.377   1.771   3.030  1.9988  0.1357 -0.2609
24000SOL     OW73440   7.580   2.302   5.527  0.5601  0.2773 -0.0881
24000SOL    HW173441   7.496   2.256   5.530  0.8784 -0.2437  2.0840
24000SOL    HW273442   7.560   2.391   5.556  0.8176  0.0161  0.9197
24001SOL     OW73443   7.530   0.292   3.576 -0.6039  0.0359  0.2025
24001SOL    HW173444   7.444   0.332   3.578 -0.4383  0.4772 -0.7145
24001SOL    HW273445   7.588   0.356   3.617 -0.5393  0.2313 -0.1825
24002SOL     OW73446   6.354   0.583   5.068 -0.2085 -0.5106  0.2321
24002SOL    HW173447   6.425   0.532   5.029 -0.2520 -0.6696  0.3579
24002SOL    HW273448   6.314   0.524   5.132 -1.5980 -1.0472 -1.0759
24003SOL     OW73449   7.175   0.362   5.160  0.1892 -0.0482 -0.4203
24003SOL    HW173450   7.204   0.383   5.249  1.6644 -0.5528 -0.7557
24003SOL    HW273451   7.129   0.441   5.131  0.2447  0.3606  0.5635
24004SOL     OW73452   5.934   0.961   6.312 -0.2220  0.2155  0.2348
24004SOL    HW173453   5.921   1.051   6.282 -0.0897  0.1936  0.1138
24004SOL    HW273454   5.998   0.969   6.383 -0.0015  0.1847  0.0399
24005SOL     OW73455   6.033   0.750   6.049  0.2663 -0.3831 -0.3431
24005SOL    HW173456   6.077   0.832   6.069  1.2129 -1.1067  0.6665
24005SOL    HW273457   5.955   0.750   6.104 -0.5134  0.4573 -1.4049
24006SOL     OW73458   7.973   1.289   3.423 -0.3923  0.0709 -0.3283
24006SOL    HW173459   7.904   1.264   3.485  0.6987 -0.0474  0.8991
24006SOL    HW273460   7.931   1.353   3.366 -2.1344 -1.5936 -1.0402
24007SOL     OW73461   7.410   0.371   4.176  0.0839 -0.2951 -0.1512
24007SOL    HW173462   7.355   0.448   4.190  1.0869  0.1446  1.7089
24007SOL    HW273463   7.485   0.404   4.127 -0.4051 -0.5111 -1.0611
24008SOL     OW73464   1.419   0.276   6.576 -0.1723  0.3020  0.0986
24008SOL    HW173465   1.513   0.288   6.588  0.4049 -2.5395 -0.8006
24008SOL    HW273466   1.404   0.296   6.484 -0.5254  1.0408  0.3116
24009SOL     OW73467   4.118   0.467   3.446  0.1072  0.0156 -0.2805
24009SOL    HW173468   4.185   0.471   3.514  1.0881 -0.5916 -1.1604
24009SOL    HW273469   4.091   0.558   3.432  2.4099  0.6064 -1.4524
24010SOL     OW73470   6.231   2.450   3.014  0.2326 -0.1955 -0.0824
24010SOL    HW173471   6.318   2.413   3.028 -0.7306 -1.8454  2.2687
24010SOL    HW273472   6.175   2.374   2.995 -1.0917  0.5080  0.8381
24011SOL     OW73473   0.279   1.612   4.183 -0.5376  0.6276 -0.3840
24011SOL    HW173474   0.185   1.619   4.167 -0.2754  1.6218 -1.5707
24011SOL    HW273475   0.319   1.680   4.129  1.0446 -1.1575 -1.5977
24012SOL     OW73476   7.967   7.440   4.139  0.4643 -0.3894 -0.3052
24012SOL    HW173477   7.898   7.500   4.113  1.0446  0.4008 -0.0532
24012SOL    HW273478   8.013   7.419   4.058 -0.5721 -1.5831 -0.6075
24013SOL     OW73479   7.733   0.556   4.839 -0.0181 -0.1701 -0.5775
24013SOL    HW173480   7.704   0.549   4.748 -0.0840 -0.0199 -0.5679
24013SOL    HW273481   7.673   0.619   4.878  0.3515  0.1825 -0.5714
24014SOL     OW73482   7.715   7.575   4.057 -0.1725  0.6226  0.5582
24014SOL    HW173483   7.625   7.598   4.081 -0.6200  0.0151 -0.4534
24014SOL    HW273484   7.712   7.480   4.042  0.2362  0.8225 -1.0644
24015SOL     OW73485   7.101   1.402   4.608 -0.3307 -0.0632  0.4447
24015SOL    HW173486   7.147   1.318   4.615  0.3095  0.0243 -1.9445
24015SOL    HW273487   7.157   1.464   4.655  0.1450 -0.6242  0.6287
24016SOL     OW73488   0.479   0.310   4.176  0.1424 -0.3830 -0.7953
24016SOL    HW173489   0.547   0.245   4.193  0.3991  0.4659  1.9244
24016SOL    HW273490   0.397   0.265   4.197  0.2959  0.0027  0.7639
24017SOL     OW73491   7.077   1.728   4.841  0.2405 -0.4441  0.0814
24017SOL    HW173492   7.105   1.814   4.810 -0.3438 -0.0579  0.6130
24017SOL    HW273493   6.989   1.741   4.874 -0.1784 -1.4331 -0.5961
24018SOL     OW73494   0.853   2.023   5.334 -0.2240 -0.0284 -0.4090
24018SOL    HW173495   0.864   1.970   5.413  1.4108  0.3902 -0.3157
24018SOL    HW273496   0.931   2.078   5.331 -1.1507  1.3146 -1.3204
24019SOL     OW73497   6.230   2.855   7.026  0.1743  0.0232 -0.2090
24019SOL    HW173498   6.184   2.849   6.943 -0.0024  0.1760 -0.1231
24019SOL    HW273499   6.323   2.856   7.002  0.2612 -2.5689 -0.2759
24020SOL     OW73500   7.031   1.059   2.757 -0.1544 -0.1287  0.0932
24020SOL    HW173501   7.046   1.076   2.664  2.1010  0.6340  0.5461
24020SOL    HW273502   6.935   1.060   2.766 -0.3975  0.9002 -1.9914
24021SOL     OW73503   0.340   0.636   5.962  0.1501 -0.4097 -0.0893
24021SOL    HW173504   0.271   0.688   5.920  1.9260  1.3430 -1.0216
24021SOL    HW273505   0.362   0.686   6.041  0.5476 -0.7995  0.0450
24022SOL     OW73506   0.279   1.502   3.736  0.4339  0.6998  0.5295
24022SOL    HW173507   0.366   1.542   3.744 -0.1957  2.0542  0.7808
24022SOL    HW273508   0.221   1.562   3.782 -0.5780 -0.4291  0.7538
24023SOL     OW73509   7.894   1.169   4.735  0.1030 -0.6018 -0.1172
24023SOL    HW173510   7.848   1.086   4.720 -2.0337  0.2676  1.0673
24023SOL    HW273511   7.841   1.234   4.688 -0.8657  0.6690  2.5682
24024SOL     OW73512   6.955   0.859   5.119 -0.0808 -0.4574 -0.0975
24024SOL    HW173513   7.046   0.866   5.090 -0.0717 -1.8639 -0.4984
24024SOL    HW273514   6.910   0.930   5.073  0.7618  0.1397 -0.0428
24025SOL     OW73515   7.859   0.381   3.951  0.4561  0.0845 -0.6741
24025SOL    HW173516   7.898   0.350   4.033  0.6866  1.1582 -0.3604
24025SOL    HW273517   7.925   0.441   3.915 -0.0630  0.3714 -1.1484
24026SOL     OW73518   7.353   0.677   4.222 -0.1817  0.6716 -0.2005
24026SOL    HW173519   7.264   0.683   4.255 -0.1613  0.9754 -0.2036
24026SOL    HW273520   7.359   0.746   4.156 -0.0621  0.4058 -0.4756
24027SOL     OW73521   7.804   1.479   5.301 -0.1981  0.8389 -0.0212
24027SOL    HW173522   7.859   1.557   5.290  1.3065 -0.0641  0.8486
24027SOL    HW273523   7.769   1.486   5.389  0.3959  0.2559  0.2642
24028SOL     OW73524   7.183   1.151   4.689  0.5862 -0.4142  0.1884
24028SOL    HW173525   7.119   1.168   4.759  1.4235 -0.3340  0.9598
24028SOL    HW273526   7.165   1.062   4.661  0.7848 -0.7547  1.1098
24029SOL     OW73527   6.316   0.755   4.443 -1.0319  0.0835 -0.1083
24029SOL    HW173528   6.309   0.806   4.362 -3.1007  0.1478  0.0636
24029SOL    HW273529   6.268   0.806   4.508 -0.0185 -0.3308  0.9959
24030SOL     OW73530   7.003   0.550   5.025  0.1926  0.4541 -0.3488
24030SOL    HW173531   7.073   0.571   4.963  1.7057 -0.3557  1.0039
24030SOL    HW273532   6.980   0.634   5.065  0.9475  0.6242 -0.2545
24031SOL     OW73533   0.076   1.618   3.465 -0.1077 -0.1911  0.3860
24031SOL    HW173534   0.130   1.674   3.521  1.3669 -0.3723 -0.7783
24031SOL    HW273535  -0.008   1.614   3.509 -0.2069  2.7138  0.6921
24032SOL     OW73536   0.167   1.271   4.723  0.9596 -0.3624 -0.2623
24032SOL    HW173537   0.074   1.253   4.731  0.8600 -0.6653 -1.8234
24032SOL    HW273538   0.195   1.294   4.812 -0.8275  0.8503  0.0355
24033SOL     OW73539   0.525   1.700   5.391 -0.0510  0.0512 -0.1806
24033SOL    HW173540   0.536   1.767   5.324  0.3561  0.4044  0.2379
24033SOL    HW273541   0.574   1.732   5.467  0.0436 -0.6547  0.0697
24034SOL     OW73542   7.415   0.148   6.711  0.4143 -0.0817  0.7952
24034SOL    HW173543   7.391   0.168   6.621  1.0170  2.4674  1.1356
24034SOL    HW273544   7.382   0.059   6.725 -2.8769  0.7344 -0.7980
24035SOL     OW73545   0.964   7.113   7.967  0.0425  0.5389  0.0009
24035SOL    HW173546   1.050   7.145   7.992 -0.6029  2.6968 -0.2979
24035SOL    HW273547   0.968   7.106   7.871 -0.1526  0.7956 -0.0275
24036SOL     OW73548   0.144   0.914   7.472 -0.1738 -0.2456  0.1042
24036SOL    HW173549   0.093   0.844   7.432 -1.6701  0.9752 -0.2442
24036SOL    HW273550   0.109   0.994   7.433  3.8654  0.6479 -2.2906
24037SOL     OW73551   7.290   1.172   5.678 -0.1661 -0.2155  0.0776
24037SOL    HW173552   7.297   1.244   5.740  1.1672  1.0856 -1.4980
24037SOL    HW273553   7.198   1.174   5.649 -0.4321  0.0712  0.9053
24038SOL     OW73554   7.332   1.316   5.417  0.2419  0.0079 -0.1172
24038SOL    HW173555   7.297   1.260   5.486  0.2334 -0.0370 -0.1574
24038SOL    HW273556   7.283   1.290   5.338 -0.9010  1.1417  0.1713
24039SOL     OW73557   6.989   0.641   5.927  0.2931 -0.0927 -0.1153
24039SOL    HW173558   6.970   0.670   6.017  0.2529 -2.2541  0.6402
24039SOL    HW273559   7.055   0.573   5.938 -0.2243 -0.8765 -1.6787
24040SOL     OW73560   6.491   0.141   6.732 -0.3485  0.0665 -0.4312
24040SOL    HW173561   6.579   0.119   6.700  0.2246 -0.8153  1.5828
24040SOL    HW273562   6.440   0.061   6.719 -0.3244 -0.0370  0.0806
24041SOL     OW73563   5.758   1.998   7.266 -0.3568 -0.1314  0.0484
24041SOL    HW173564   5.762   2.031   7.176  0.7963 -0.9150 -0.2021
24041SOL    HW273565   5.781   1.906   7.259 -1.2008 -0.4306  1.0455
24042SOL     OW73566   6.548   7.802   6.598  0.0012 -0.6297 -0.1784
24042SOL    HW173567   6.587   7.756   6.523 -0.4398 -1.0461 -0.1582
24042SOL    HW273568   6.612   7.870   6.620  0.2574 -0.6692 -0.7684
24043SOL     OW73569   0.301   1.463   6.243 -0.1927  0.0293  0.4612
24043SOL    HW173570   0.294   1.379   6.198 -0.0205  1.4145 -2.4484
24043SOL    HW273571   0.350   1.518   6.182  0.9567  1.8677  2.8861
24044SOL     OW73572   5.952   0.858   7.103  0.0656 -0.0795  0.5733
24044SOL    HW173573   6.003   0.778   7.089 -1.5351 -0.8681 -1.1932
24044SOL    HW273574   6.018   0.927   7.113  1.4813 -1.3269  0.1742
24045SOL     OW73575   1.185   7.334   6.817  0.7376  0.1621 -0.3286
24045SOL    HW173576   1.224   7.249   6.798  0.8755  0.3964 -1.1564
24045SOL    HW273577   1.214   7.390   6.745 -1.6322  0.1888 -1.3695
24046SOL     OW73578   0.450   0.777   6.425  0.3442 -0.4901 -0.3551
24046SOL    HW173579   0.501   0.702   6.395 -1.0269 -1.3530 -0.6134
24046SOL    HW273580   0.425   0.754   6.514  0.7216  0.0935 -0.0994
24047SOL     OW73581   7.413   7.843   7.298  0.2759 -1.2280 -0.2526
24047SOL    HW173582   7.337   7.872   7.348  0.0462 -2.1528 -0.0479
24047SOL    HW273583   7.485   7.844   7.360 -0.1927 -3.2788  0.3994
24048SOL     OW73584   7.660   7.129   7.740 -0.0689 -0.4812 -0.3245
24048SOL    HW173585   7.636   7.206   7.791  1.1271 -1.1479  1.3360
24048SOL    HW273586   7.656   7.158   7.649  2.0091  2.0852  0.3043
24049SOL     OW73587   0.493   0.977   4.888 -0.6647 -0.0684  0.3349
24049SOL    HW173588   0.498   1.047   4.823  0.2870 -0.5446 -0.1238
24049SOL    HW273589   0.550   1.005   4.959 -1.3373  0.2333  0.7676
24050SOL     OW73590   7.186   0.261   6.912 -1.0319 -0.4940  0.1804
24050SOL    HW173591   7.241   0.317   6.966 -3.8354  0.5683  2.2187
24050SOL    HW273592   7.223   0.268   6.824  2.3312 -0.3896  1.4552
24051SOL     OW73593   7.763   0.936   7.984 -0.0803  0.4145  0.1025
24051SOL    HW173594   7.846   0.981   7.970  1.3791 -1.8714  0.8248
24051SOL    HW273595   7.739   0.900   7.899 -0.2868  0.9841 -0.0829
24052SOL     OW73596   7.343   7.733   4.608 -0.6273 -0.7517  0.2985
24052SOL    HW173597   7.353   7.665   4.675 -0.6737 -0.4179  0.6467
24052SOL    HW273598   7.419   7.721   4.551 -0.3377 -0.7433  0.6785
24053SOL     OW73599   6.703   1.939   7.770 -0.7152 -0.1943  0.6237
24053SOL    HW173600   6.748   1.887   7.703 -0.0838  0.7682  0.2810
24053SOL    HW273601   6.611   1.935   7.746 -0.5263 -0.1039 -0.1394
24054SOL     OW73602   7.581   1.261   5.270  0.4387  0.1367 -0.2024
24054SOL    HW173603   7.499   1.306   5.249  0.6666  0.9548  0.5987
24054SOL    HW273604   7.649   1.319   5.236  0.7418  0.4426  0.8941
24055SOL     OW73605   0.021   0.770   6.482 -0.0592  0.0363 -0.3780
24055SOL    HW173606   0.077   0.846   6.466  0.1375 -0.2255 -0.9611
24055SOL    HW273607   0.062   0.699   6.433 -1.2554 -0.0096 -1.3644
24056SOL     OW73608   0.824   1.482   5.828 -0.4809  0.5726  0.0847
24056SOL    HW173609   0.877   1.440   5.896 -1.4131  1.6685  1.5505
24056SOL    HW273610   0.884   1.543   5.786 -0.0232  0.2516  0.2526
24057SOL     OW73611   7.655   1.035   6.792  0.1110  0.3689  0.1779
24057SOL    HW173612   7.672   0.941   6.798  1.2496  0.5623  0.1446
24057SOL    HW273613   7.688   1.060   6.706  1.4296  1.1006  0.8607
24058SOL     OW73614   7.245   1.894   8.346  0.1533 -0.3916  0.3798
24058SOL    HW173615   7.315   1.960   8.338  0.8197 -1.0819  0.4470
24058SOL    HW273616   7.178   1.924   8.285  1.1287 -0.4849 -0.7842
24059SOL     OW73617   7.243   1.728   5.901  0.2768  0.2032 -0.5947
24059SOL    HW173618   7.216   1.708   5.990  1.5514  1.3915  0.0868
24059SOL    HW273619   7.219   1.819   5.888  0.9719  0.3265 -1.1093
24060SOL     OW73620   7.758   7.567   6.057  0.2352  0.3108 -0.0878
24060SOL    HW173621   7.777   7.638   5.995 -1.3530  0.3186 -0.5910
24060SOL    HW273622   7.714   7.611   6.130 -0.6142 -0.1291 -0.3301
24061SOL     OW73623   7.279   7.831   6.380  0.4318 -0.6379  0.5626
24061SOL    HW173624   7.207   7.849   6.440 -0.3773 -0.0801 -0.5289
24061SOL    HW273625   7.319   7.751   6.413  0.2948 -0.1154  2.0791
24062SOL     OW73626   0.503   2.923   6.738 -0.0958 -0.3401 -0.3294
24062SOL    HW173627   0.443   2.953   6.807 -1.1121 -0.1496 -1.2698
24062SOL    HW273628   0.482   2.830   6.728  0.4318 -0.4953 -0.0110
24063SOL     OW73629   6.331   7.546   8.122  0.0488 -0.3072  0.1699
24063SOL    HW173630   6.285   7.629   8.109  0.1961 -0.2198  0.2063
24063SOL    HW273631   6.375   7.555   8.206 -0.6967 -0.7782  0.6318
24064SOL     OW73632   7.777   7.032   8.331 -0.3949 -0.2330 -0.2307
24064SOL    HW173633   7.829   6.953   8.332  0.1827 -0.0157 -3.4320
24064SOL    HW273634   7.828   7.096   8.382  1.9272 -0.3892 -2.2222
24065SOL     OW73635   0.254   0.411   6.921 -0.5141 -0.2396  0.6839
24065SOL    HW173636   0.329   0.468   6.939 -0.7718 -0.0101  1.0440
24065SOL    HW273637   0.293   0.328   6.892 -0.0887  1.2393 -3.7494
24066SOL     OW73638   1.127   1.102   8.767  0.1664  0.4212  0.4408
24066SOL    HW173639   1.112   1.160   8.692 -1.5074  0.8546  1.0633
24066SOL    HW273640   1.158   1.160   8.836  0.4864  0.2313  0.4574
24067SOL     OW73641   7.630   6.789   5.806  0.6979 -0.1246  0.0373
24067SOL    HW173642   7.566   6.787   5.877 -0.2634  2.1429 -0.6514
24067SOL    HW273643   7.584   6.750   5.731 -0.0125  1.6400 -0.4979
24068SOL     OW73644   0.203   0.099   4.838 -0.4901  0.3867 -0.3668
24068SOL    HW173645   0.187   0.013   4.876 -0.8069  0.3654 -0.5473
24068SOL    HW273646   0.128   0.152   4.865 -0.6653  0.3990 -0.8653
24069SOL     OW73647   6.983   1.370   8.452 -0.5673  0.8627 -0.3366
24069SOL    HW173648   6.967   1.276   8.457  2.3707  0.2854  0.1310
24069SOL    HW273649   7.039   1.389   8.527  2.7275  2.0121 -2.8495
24070SOL     OW73650   7.157   0.817   6.481  0.0671 -0.9128 -0.2164
24070SOL    HW173651   7.148   0.731   6.442  2.9626 -0.8982 -1.1155
24070SOL    HW273652   7.138   0.878   6.409 -1.1051 -0.7673  0.1918
24071SOL     OW73653   5.701   7.232   6.210 -0.1861  0.5069  0.3303
24071SOL    HW173654   5.784   7.231   6.164  0.4524 -0.7034  1.4330
24071SOL    HW273655   5.636   7.203   6.145 -0.0307  2.7796 -0.9335
24072SOL     OW73656   6.475   1.087   5.077 -0.4473 -0.2423  0.1421
24072SOL    HW173657   6.412   1.111   5.145  0.3269  1.4289  0.3188
24072SOL    HW273658   6.456   0.995   5.059 -0.7586 -0.7371  2.5491
24073SOL     OW73659   0.825   0.708   5.544  0.2702  0.2290  0.1554
24073SOL    HW173660   0.810   0.615   5.523  1.7008 -0.5488  2.2433
24073SOL    HW273661   0.879   0.740   5.471  0.5197 -0.8328 -0.1491
24074SOL     OW73662   7.269   7.361   6.008  0.4159 -1.4887 -0.0809
24074SOL    HW173663   7.359   7.391   5.997  0.2737 -0.8393  0.4696
24074SOL    HW273664   7.240   7.339   5.920 -0.7821  3.7685 -1.3366
24075SOL     OW73665   7.732   1.437   7.209  0.1397 -0.1356  0.1543
24075SOL    HW173666   7.654   1.488   7.228  0.2598  0.1877 -0.2175
24075SOL    HW273667   7.751   1.453   7.117 -0.4312 -1.6847 -0.2752
24076SOL     OW73668   1.152   0.004   4.823  0.2661 -0.3766  0.1755
24076SOL    HW173669   1.068  -0.042   4.819  0.8335 -1.4250  0.0416
24076SOL    HW273670   1.141   0.067   4.894 -0.6304 -0.5102  0.1677
24077SOL     OW73671   7.398   1.122   8.337 -0.1798  0.3435 -0.3366
24077SOL    HW173672   7.422   1.182   8.408 -1.1732  2.9882 -2.0643
24077SOL    HW273673   7.482   1.095   8.299  0.3000  0.6166  0.5035
24078SOL     OW73674   6.542   1.453   5.256  0.1756  0.2876  0.6086
24078SOL    HW173675   6.633   1.425   5.260  0.5048  1.0030 -1.1667
24078SOL    HW273676   6.512   1.425   5.170 -1.4303 -0.3279  1.3343
24079SOL     OW73677   7.452   1.366   7.658 -0.0439  0.3858 -0.6442
24079SOL    HW173678   7.410   1.283   7.636  2.0344 -1.4255  1.5898
24079SOL    HW273679   7.475   1.357   7.751  2.4570  2.4354 -0.9474
24080SOL     OW73680   0.347   7.785   5.676 -0.0069 -0.4804 -0.2774
24080SOL    HW173681   0.403   7.710   5.652  0.3338  0.1934 -1.6719
24080SOL    HW273682   0.258   7.753   5.664 -0.0131 -1.6981  2.3528
24081SOL     OW73683   1.015   0.932   8.047  0.2127 -0.3906  0.1655
24081SOL    HW173684   0.959   0.868   8.092  0.7006 -0.1076  1.1991
24081SOL    HW273685   1.058   0.882   7.979 -1.7929 -0.4924 -1.1214
24082SOL     OW73686   7.858   1.228   8.073  1.0570  0.6299  0.0506
24082SOL    HW173687   7.889   1.147   8.032 -1.6653 -0.1898 -0.6123
24082SOL    HW273688   7.902   1.230   8.158  4.6660  0.9000 -1.6439
24083SOL     OW73689   0.486   0.915   6.942  0.2271 -0.0343 -0.2466
24083SOL    HW173690   0.512   0.853   6.874  0.1412 -0.0166 -0.2966
24083SOL    HW273691   0.469   0.997   6.895  0.8422  0.1713 -0.1126
24084SOL     OW73692   0.569   1.719   3.699 -0.1249 -0.1482  0.1262
24084SOL    HW173693   0.654   1.683   3.675  0.3193  0.6519  0.4411
24084SOL    HW273694   0.571   1.723   3.795 -0.0890  0.8388  0.1014
24085SOL     OW73695   6.049   1.450   5.640  0.3715 -0.4929  0.4895
24085SOL    HW173696   6.022   1.480   5.727 -0.1358  1.6219 -0.3252
24085SOL    HW273697   5.969   1.457   5.587  0.2158 -3.4426  0.2050
24086SOL     OW73698   5.869   0.305   7.093 -0.4448  0.0877 -0.5067
24086SOL    HW173699   5.788   0.351   7.116  1.1791  2.5205  0.8152
24086SOL    HW273700   5.886   0.330   7.002 -0.7632  0.2120 -0.5341
24087SOL     OW73701   6.511   1.038   4.234 -0.6748 -0.3588  0.5904
24087SOL    HW173702   6.432   1.042   4.287  0.2539  0.6198  1.9843
24087SOL    HW273703   6.495   1.101   4.163 -0.0074  2.2660  2.6149
24088SOL     OW73704   0.889   6.023   6.683  0.3134 -0.3856 -0.1283
24088SOL    HW173705   0.964   6.057   6.732 -0.9287  1.5106  0.5627
24088SOL    HW273706   0.923   6.008   6.594  1.3066  1.3394 -0.0795
24089SOL     OW73707   0.087   2.397   8.874  0.4751 -0.0354  0.0269
24089SOL    HW173708   0.092   2.488   8.902  1.8438  0.3025 -1.1892
24089SOL    HW273709   0.172   2.380   8.832  0.0769 -1.7324 -0.1699
24090SOL     OW73710   6.448   1.867   5.583 -0.1822 -0.4353  0.4772
24090SOL    HW173711   6.358   1.834   5.593 -0.4577 -0.1265 -0.8347
24090SOL    HW273712   6.497   1.792   5.549  0.1082 -0.6564  1.3659
24091SOL     OW73713   7.135   0.193   5.737  0.8177 -0.4819 -0.3655
24091SOL    HW173714   7.051   0.153   5.714  0.1789  0.9911 -0.7662
24091SOL    HW273715   7.199   0.149   5.682 -0.2457  0.8896 -2.8604
24092SOL     OW73716   0.158   2.910   6.692 -0.3269  0.3044 -0.2068
24092SOL    HW173717   0.219   2.933   6.622  0.2119  0.7636  0.3908
24092SOL    HW273718   0.194   2.955   6.769 -1.4428  0.6080  0.1484
24093SOL     OW73719   7.417   7.933   5.755 -0.0094  0.0087 -0.9510
24093SOL    HW173720   7.497   7.889   5.726  1.4987  0.2425  2.3751
24093SOL    HW273721   7.363   7.863   5.791 -0.3636  0.1467 -1.2018
24094SOL     OW73722   6.559   1.250   5.627  0.2391 -0.1767 -0.3739
24094SOL    HW173723   6.465   1.269   5.628  0.3858  0.7389 -1.5442
24094SOL    HW273724   6.594   1.295   5.704 -0.0725  0.7649 -0.7688
24095SOL     OW73725   5.571   1.278   6.615 -0.3250  0.1359  0.3479
24095SOL    HW173726   5.633   1.225   6.564  1.2363  0.4015  1.8927
24095SOL    HW273727   5.520   1.324   6.549  0.0338 -1.2927 -1.0031
24096SOL     OW73728   7.730   7.410  10.095  0.1108  0.2940 -0.3508
24096SOL    HW173729   7.800   7.421  10.031  0.3869 -1.1153 -0.3399
24096SOL    HW273730   7.740   7.482  10.156  2.1648 -0.3946  0.1919
24097SOL     OW73731   1.067   1.427   7.285 -0.0105  0.3641 -0.1870
24097SOL    HW173732   1.095   1.386   7.204  0.8808 -1.2151  0.8625
24097SOL    HW273733   1.121   1.506   7.292  0.6156 -0.0220 -0.6277
24098SOL     OW73734   6.710   1.106   8.509  0.1101  0.3785 -0.0418
24098SOL    HW173735   6.806   1.104   8.508  0.1414 -0.0721  1.5893
24098SOL    HW273736   6.687   1.150   8.427  1.7091  0.7233 -0.3508
24099SOL     OW73737   7.591   7.349   8.778 -0.1410 -0.2194  0.3848
24099SOL    HW173738   7.574   7.255   8.783 -0.6067 -0.1596 -0.0017
24099SOL    HW273739   7.670   7.356   8.724  1.6576 -0.5403  2.7825
24100SOL     OW73740   7.140   0.489   6.688  0.0155 -0.2689  0.5988
24100SOL    HW173741   7.052   0.526   6.678  1.5352  3.4258 -0.6405
24100SOL    HW273742   7.180   0.540   6.758  2.1300  0.2504 -0.8998
24101SOL     OW73743   6.527   0.971   7.766 -0.3380  0.6064 -0.0339
24101SOL    HW173744   6.449   0.918   7.782  1.5178 -2.4198 -0.1717
24101SOL    HW273745   6.530   0.983   7.671 -1.0769  1.5387  0.0478
24102SOL     OW73746   7.579   1.755  10.202  0.1293  0.1015  0.1886
24102SOL    HW173747   7.621   1.724  10.282 -0.1353 -0.9635 -0.0752
24102SOL    HW273748   7.650   1.797  10.152  0.8245 -1.3298 -0.0792
24103SOL     OW73749   7.608   1.297   7.406  0.1077 -0.6368  0.2509
24103SOL    HW173750   7.527   1.343   7.387 -0.0348 -0.5556  1.0250
24103SOL    HW273751   7.663   1.312   7.329  0.6657  2.1277  1.0966
24104SOL     OW73752   5.325   2.106   5.073 -0.6418 -0.3609  0.4508
24104SOL    HW173753   5.364   2.186   5.038 -0.6267 -0.2779  0.6562
24104SOL    HW273754   5.355   2.102   5.164 -0.5612 -0.6528  0.4114
24105SOL     OW73755   0.111   2.030  10.599 -0.3252  0.3981  0.3216
24105SOL    HW173756   0.095   1.973  10.524  0.1113 -0.5604  0.9296
24105SOL    HW273757   0.207   2.035  10.605 -0.3584  0.6651  0.6557
24106SOL     OW73758   0.072   1.234   9.808 -0.1642 -0.1137 -0.4762
24106SOL    HW173759   0.049   1.247   9.716 -0.8398 -0.5102 -0.3768
24106SOL    HW273760   0.132   1.305   9.828 -0.3080  0.2039 -1.1208
24107SOL     OW73761   0.217   0.966   8.968 -0.2850  0.6047 -0.1416
24107SOL    HW173762   0.262   0.958   9.052  0.5208 -3.0224 -0.7421
24107SOL    HW273763   0.272   1.026   8.918  1.6367 -0.4548  0.5695
24108SOL     OW73764   7.805   0.207   8.974  0.5601  0.4305 -0.7645
24108SOL    HW173765   7.751   0.156   9.034  0.8284 -0.9724 -1.6510
24108SOL    HW273766   7.893   0.204   9.012  0.8517 -0.9450 -1.4444
24109SOL     OW73767   7.724   2.040   8.950 -0.1273  0.1838  0.4123
24109SOL    HW173768   7.678   2.018   9.031 -0.3410 -1.3173 -0.0991
24109SOL    HW273769   7.741   1.956   8.908  2.8718  0.6613  0.4369
24110SOL     OW73770   6.693   2.973   9.767 -0.4460  0.1400  0.0360
24110SOL    HW173771   6.735   3.051   9.729  0.7609 -0.5115 -0.0219
24110SOL    HW273772   6.634   3.008   9.834  0.7514  1.0804  0.6436
24111SOL     OW73773   7.641   0.688   8.649  0.4334 -0.2113 -0.0387
24111SOL    HW173774   7.584   0.749   8.603 -1.0090 -2.0540 -0.8130
24111SOL    HW273775   7.630   0.710   8.742  1.9614  2.3356 -0.3626
24112SOL     OW73776   7.474   2.323   9.942 -0.0650 -0.4167  0.3569
24112SOL    HW173777   7.498   2.317   9.850  0.7887  0.4537  0.5216
24112SOL    HW273778   7.432   2.239   9.961  0.4037 -0.8838 -0.6342
24113SOL     OW73779   0.251   0.436   8.639 -0.1006  0.1601  0.2455
24113SOL    HW173780   0.271   0.513   8.585  1.9431 -0.5464 -0.1019
24113SOL    HW273781   0.308   0.367   8.605 -0.3195 -0.9145  1.9331
24114SOL     OW73782   2.265   1.844   7.537 -0.6038 -0.0395  0.8001
24114SOL    HW173783   2.273   1.899   7.459 -0.9866 -0.3331  0.5536
24114SOL    HW273784   2.295   1.901   7.609 -0.7158  0.3925  0.5097
24115SOL     OW73785   6.807   7.224   8.665  0.2289  0.5513  0.3104
24115SOL    HW173786   6.763   7.141   8.682  0.1208  0.4048 -0.5984
24115SOL    HW273787   6.885   7.223   8.720  1.0228 -0.8225 -0.7882
24116SOL     OW73788   7.149   2.510   7.098 -0.0954  0.4680  0.2805
24116SOL    HW173789   7.193   2.442   7.046 -0.1609 -0.2406  1.1305
24116SOL    HW273790   7.191   2.505   7.184 -1.4261  0.1687  0.9455
24117SOL     OW73791   7.694   0.886   7.710 -0.0606 -0.1847  0.3875
24117SOL    HW173792   7.746   0.858   7.634 -0.6331  1.2246 -0.5768
24117SOL    HW273793   7.710   0.981   7.716  0.9457 -0.4582  2.8324
24118SOL     OW73794   1.034   0.645   8.595  0.0940  0.5269  0.1530
24118SOL    HW173795   1.114   0.615   8.552  0.2924  3.3453 -1.6967
24118SOL    HW273796   0.965   0.592   8.554  0.8796 -1.5430  1.3745
24119SOL     OW73797   6.980   0.031   7.295  0.3899  0.0187 -0.1031
24119SOL    HW173798   6.976   0.122   7.323 -2.5194  0.0910 -0.4874
24119SOL    HW273799   7.019   0.035   7.208 -0.4685  1.0049 -0.4628
24120SOL     OW73800   7.260   2.520   9.016 -0.1998 -0.3813  0.3105
24120SOL    HW173801   7.182   2.506   8.963 -1.1799  2.6469  0.7832
24120SOL    HW273802   7.333   2.500   8.957 -1.2784  1.1469 -1.6660
24121SOL     OW73803   0.902   1.575   9.364  0.5504 -0.3954  0.1110
24121SOL    HW173804   0.938   1.610   9.282  1.2821 -0.1609  0.5176
24121SOL    HW273805   0.979   1.562   9.420  0.0722 -0.6643  0.7182
24122SOL     OW73806   0.302   1.352   9.358 -0.7378 -0.4677  0.0273
24122SOL    HW173807   0.374   1.328   9.300 -1.1375  0.9007 -1.0838
24122SOL    HW273808   0.299   1.447   9.355 -1.2984 -0.3987  1.6782
24123SOL     OW73809   6.692   1.354   6.668  0.3096  0.3022 -0.0778
24123SOL    HW173810   6.649   1.270   6.684 -0.3107  0.8137  1.0868
24123SOL    HW273811   6.637   1.418   6.712  1.3700  1.1880  0.0097
24124SOL     OW73812   6.312   2.235   8.563  0.2606 -0.2257 -0.4311
24124SOL    HW173813   6.313   2.280   8.479 -0.1327 -4.1165 -2.7732
24124SOL    HW273814   6.403   2.233   8.591  0.3878  1.1371 -0.6800
24125SOL     OW73815   7.883   1.520   9.325  0.1028  0.1589 -0.1354
24125SOL    HW173816   7.938   1.472   9.386 -0.4998 -0.9770 -0.4485
24125SOL    HW273817   7.812   1.554   9.378  0.2451  0.2434  0.0005
24126SOL     OW73818   0.820   1.768  10.188 -0.5989  0.4019  0.2205
24126SOL    HW173819   0.840   1.842  10.246  2.5997  1.1713 -1.6233
24126SOL    HW273820   0.799   1.808  10.104  1.7819 -0.6776 -0.9761
24127SOL     OW73821   7.567   1.457  10.211 -0.0867 -0.1222 -1.0788
24127SOL    HW173822   7.613   1.384  10.171  0.0987 -0.9856  0.6240
24127SOL    HW273823   7.632   1.527  10.215  0.6005 -0.7804 -0.2411
24128SOL     OW73824   7.386   6.982   9.802 -0.1275  0.3087 -0.6353
24128SOL    HW173825   7.370   7.013   9.713  0.9788  1.6219 -0.4171
24128SOL    HW273826   7.477   7.007   9.820 -0.7902  1.4968  1.4024
24129SOL     OW73827   7.010   2.654   8.313 -0.2581 -0.2053 -0.2076
24129SOL    HW173828   7.039   2.569   8.281 -0.0401 -0.2395  0.0814
24129SOL    HW273829   6.967   2.635   8.397  0.3739  0.0419  0.1787
24130SOL     OW73830   0.575   0.740   8.157  0.2388  0.5818 -0.3422
24130SOL    HW173831   0.547   0.771   8.243 -0.5352  0.3461 -0.5044
24130SOL    HW273832   0.639   0.805   8.128  0.0399  1.0008  0.1391
24131SOL     OW73833   7.474   0.893   8.542 -0.0533  0.1125  0.1094
24131SOL    HW173834   7.476   0.941   8.459  1.0869 -1.1533 -0.6200
24131SOL    HW273835   7.508   0.955   8.606 -0.9103  1.0964 -0.3561
24132SOL     OW73836   0.634   0.562   8.595  0.4225  0.2383 -0.0793
24132SOL    HW173837   0.679   0.625   8.651 -0.3671  1.2110 -0.4965
24132SOL    HW273838   0.704   0.515   8.550  1.0620 -0.3254  1.4433
24133SOL     OW73839   0.258   2.347   8.658  0.3285  0.3684 -0.2688
24133SOL    HW173840   0.284   2.271   8.605 -2.1937 -1.6130  1.0733
24133SOL    HW273841   0.213   2.405   8.596  0.4362 -0.2545 -0.9455
24134SOL     OW73842   0.593   1.103  10.454  0.0597  0.5736  0.1829
24134SOL    HW173843   0.630   1.089  10.367 -1.3727  1.1852 -0.5421
24134SOL    HW273844   0.670   1.117  10.510  1.0174 -0.2021 -0.8883
24135SOL     OW73845   1.068   0.256   8.763  0.1370 -0.2741  0.7024
24135SOL    HW173846   1.096   0.286   8.677  1.1042 -3.0970 -0.0869
24135SOL    HW273847   1.143   0.207   8.797  0.3130  1.8353  3.8203
24136SOL     OW73848   5.308   1.662   7.505  0.0249 -0.0444  0.5050
24136SOL    HW173849   5.352   1.583   7.477 -0.5707  0.4824 -2.1436
24136SOL    HW273850   5.216   1.648   7.484 -0.2572  0.9486  0.9779
24137SOL     OW73851   7.202   1.727  10.762  0.4110  0.2985 -0.1836
24137SOL    HW173852   7.207   1.814  10.723  0.0386  0.3091 -0.2139
24137SOL    HW273853   7.177   1.743  10.853  3.3076  0.4146  0.6911
24138SOL     OW73854   6.979   0.080   7.680  0.2449  0.3697 -0.1934
24138SOL    HW173855   6.920   0.110   7.750  1.7007  1.0471  0.8029
24138SOL    HW273856   7.055   0.043   7.727  0.3156 -1.1717 -1.4248
24139SOL     OW73857   6.404   1.997   8.029  0.1045  1.1038 -0.3391
24139SOL    HW173858   6.471   2.057   8.061  2.5547 -0.0600 -2.8259
24139SOL    HW273859   6.382   2.029   7.942 -0.6973  0.0085 -0.5603
24140SOL     OW73860   6.668   7.744   8.659  0.2222  0.1106  0.3109
24140SOL    HW173861   6.589   7.691   8.641 -1.1786  1.5166  1.9367
24140SOL    HW273862   6.649   7.829   8.620  0.0980  1.0366  2.2801
24141SOL     OW73863   7.849   0.986   8.396  0.2813  0.8942  0.4439
24141SOL    HW173864   7.830   1.079   8.389  2.4068  1.4746  1.6991
24141SOL    HW273865   7.874   0.972   8.487  1.8585 -0.4840 -0.1322
24142SOL     OW73866   1.538   1.523   8.191 -0.0746 -0.1372  0.2716
24142SOL    HW173867   1.516   1.431   8.202  0.8855 -0.1443  2.5082
24142SOL    HW273868   1.473   1.569   8.244  0.4776  0.3660  0.5142
24143SOL     OW73869   7.253   2.360   8.643  0.0729 -0.4257 -0.4584
24143SOL    HW173870   7.180   2.371   8.703  2.1790 -0.4604  2.3024
24143SOL    HW273871   7.247   2.269   8.614 -3.1164  0.5539 -3.4915
24144SOL     OW73872   6.711   7.459   8.573  0.4848 -0.3740  0.0159
24144SOL    HW173873   6.750   7.537   8.614 -1.2597 -0.4515  2.0127
24144SOL    HW273874   6.764   7.387   8.606  0.7823 -0.2064 -0.0905
24145SOL     OW73875   1.178   0.330  10.570  0.2253  0.7644 -0.0891
24145SOL    HW173876   1.097   0.373  10.597  0.0610  0.4247 -0.0338
24145SOL    HW273877   1.217   0.299  10.652  0.5473  1.1613 -0.0907
24146SOL     OW73878   0.739   1.214   8.454 -0.3859 -0.0742  0.6551
24146SOL    HW173879   0.752   1.121   8.437  2.9622  0.5676 -1.1233
24146SOL    HW273880   0.666   1.239   8.398 -0.7907 -1.4441  0.5356
24147SOL     OW73881   0.784   1.350   9.303 -0.7326 -0.3168 -0.3117
24147SOL    HW173882   0.769   1.439   9.334 -1.5213 -0.6976  0.4279
24147SOL    HW273883   0.878   1.336   9.312 -0.6962  0.2231  0.1442
24148SOL     OW73884   7.804   1.866   7.979 -0.0789  0.5236  0.1841
24148SOL    HW173885   7.871   1.931   8.000 -0.5328  1.3488 -0.8476
24148SOL    HW273886   7.816   1.848   7.886  0.3000 -1.1949  0.5277
24149SOL     OW73887   6.677   0.206   5.779  0.2666 -0.3397 -0.2455
24149SOL    HW173888   6.750   0.268   5.770  0.4700 -0.6095 -0.4584
24149SOL    HW273889   6.719   0.120   5.778  0.3647 -0.4786  3.1219
24150SOL     OW73890   1.236   1.923  10.070 -0.4667  0.5041  0.1015
24150SOL    HW173891   1.188   1.998  10.105  0.3759  1.7040 -1.2168
24150SOL    HW273892   1.292   1.894  10.142 -1.7288  0.2983  1.0318
24151SOL     OW73893   7.172   0.613   6.928  0.0714 -0.0704  0.1702
24151SOL    HW173894   7.133   0.650   7.007  1.1816 -0.5527  0.9625
24151SOL    HW273895   7.200   0.688   6.876 -0.6406  0.2460  0.2362
24152SOL     OW73896   0.768   7.703   8.225  0.0462 -0.1468 -0.2429
24152SOL    HW173897   0.768   7.716   8.130 -0.5096 -2.3955 -0.5975
24152SOL    HW273898   0.746   7.611   8.237 -0.4126  0.2032  2.1024
24153SOL     OW73899   7.972   1.609   9.688 -0.0556 -0.0602  0.1399
24153SOL    HW173900   7.986   1.515   9.682  0.1465 -0.0188 -0.0189
24153SOL    HW273901   8.059   1.646   9.699  0.0031  0.2075 -1.0735
24154SOL     OW73902   7.529   2.245   9.226  0.2264  0.1457  0.1954
24154SOL    HW173903   7.481   2.182   9.280 -0.2641  1.8032  1.7754
24154SOL    HW273904   7.609   2.263   9.276 -0.1350  1.5476  0.3107
24155SOL     OW73905   7.269   2.549   7.742  0.3626 -0.0245  0.0863
24155SOL    HW173906   7.261   2.609   7.668 -0.4145 -0.6246 -0.3334
24155SOL    HW273907   7.187   2.499   7.741  0.1470  0.2484  1.6190
24156SOL     OW73908   2.736   1.634   9.084  0.2538  0.7374 -0.1479
24156SOL    HW173909   2.806   1.569   9.074 -1.2810 -1.2027  1.0710
24156SOL    HW273910   2.677   1.618   9.010  0.6919  1.8902 -0.7702
24157SOL     OW73911   1.090   0.716   9.216  0.1716  0.1588 -0.1758
24157SOL    HW173912   1.084   0.641   9.276  0.8104  0.0543 -0.2323
24157SOL    HW273913   1.184   0.736   9.213  0.2334 -0.2547 -1.6340
24158SOL     OW73914   1.513   0.842   7.130 -0.2924 -0.3719  0.2584
24158SOL    HW173915   1.573   0.796   7.189 -1.3505 -2.2517 -0.0273
24158SOL    HW273916   1.569   0.878   7.062  1.0669  2.5962  2.7365
24159SOL     OW73917   6.988   1.044  10.874 -0.1385 -0.9580 -0.6249
24159SOL    HW173918   6.974   1.076  10.785 -0.9066  1.0178  0.1560
24159SOL    HW273919   6.908   1.067  10.920  0.5200 -1.3381  0.7488
24160SOL     OW73920   1.942   0.762   9.332 -0.4109  0.1686  0.2564
24160SOL    HW173921   1.918   0.677   9.294 -0.1303 -0.3304  1.1401
24160SOL    HW273922   1.859   0.805   9.351 -0.6290 -0.7800  1.6434
24161SOL     OW73923   7.370   2.097   9.031 -0.1075  0.1155 -0.5202
24161SOL    HW173924   7.288   2.146   9.036 -0.2875 -0.0601 -1.5321
24161SOL    HW273925   7.416   2.120   9.111 -1.3674 -0.1997  0.3344
24162SOL     OW73926   6.865   1.384   7.352 -0.1730  0.4702  0.0820
24162SOL    HW173927   6.801   1.450   7.326 -0.7132  0.2071  0.7275
24162SOL    HW273928   6.894   1.410   7.439 -0.4884 -0.1928  0.4007
24163SOL     OW73929   7.767   6.704   9.544  0.2743  0.1437  0.8141
24163SOL    HW173930   7.690   6.723   9.491  0.4187 -0.4681  0.3690
24163SOL    HW273931   7.740   6.724   9.634 -0.5550 -0.4940  0.7172
24164SOL     OW73932   7.575   1.759  10.743  0.1747 -0.7368  0.0891
24164SOL    HW173933   7.545   1.674  10.776  0.8676 -0.9314  0.2304
24164SOL    HW273934   7.658   1.775  10.788 -0.2137  0.2791  0.4771
24165SOL     OW73935   1.379   1.218   9.486  0.8965  0.2293  0.4015
24165SOL    HW173936   1.380   1.241   9.578 -0.9631 -1.6118  0.9480
24165SOL    HW273937   1.348   1.298   9.442  0.0339  0.5818  1.5816
24166SOL     OW73938   0.260   3.067  10.145  0.2463 -0.3999  0.1002
24166SOL    HW173939   0.228   2.979  10.163 -0.7716  0.2023  1.3894
24166SOL    HW273940   0.298   3.097  10.227  0.3660  0.4474 -0.2467
24167SOL     OW73941   6.478   1.428   8.958  0.7506  0.2319 -0.3550
24167SOL    HW173942   6.540   1.355   8.960  2.7800  1.8344  0.1534
24167SOL    HW273943   6.436   1.425   9.044  1.9287  0.4815  0.2665
24168SOL     OW73944   6.053   1.780   9.213  0.2975  0.2030 -0.7493
24168SOL    HW173945   6.074   1.872   9.198 -0.3111  0.4295 -0.2472
24168SOL    HW273946   5.974   1.765   9.160  1.4212 -0.5375 -2.3120
24169SOL     OW73947   0.249   7.672   0.113 -0.0873 -0.1082 -0.4014
24169SOL    HW173948   0.198   7.653   0.192 -1.7906 -1.6059 -1.7679
24169SOL    HW273949   0.187   7.718   0.056  0.6633 -0.3188 -1.4147
24170SOL     OW73950   6.296   0.732  10.424  0.3897  0.0375  0.3158
24170SOL    HW173951   6.284   0.714  10.331 -1.7026 -1.5072  0.8137
24170SOL    HW273952   6.240   0.808  10.441  1.8606  1.2282  0.1000
24171SOL     OW73953   7.294   7.890  10.853 -0.2064  0.2506 -0.8564
24171SOL    HW173954   7.359   7.936  10.907 -1.2442  0.9015 -0.1192
24171SOL    HW273955   7.257   7.823  10.911  0.0383 -0.3513 -1.3786
24172SOL     OW73956   7.520   2.021   9.589  0.2383 -0.7503  0.1268
24172SOL    HW173957   7.529   2.081   9.662 -1.1391  0.3145 -0.5295
24172SOL    HW273958   7.588   1.955   9.603 -0.3572 -0.9012  2.6475
24173SOL     OW73959   1.222   1.497   9.065  0.5779  0.6564 -0.0413
24173SOL    HW173960   1.154   1.564   9.056  0.7284  0.6819 -1.2168
24173SOL    HW273961   1.256   1.508   9.153 -1.4710  0.1328  0.8963
24174SOL     OW73962   0.547   7.924  10.806  0.2382 -0.1796  0.2151
24174SOL    HW173963   0.630   7.876  10.810  0.3972  0.0995  0.2752
24174SOL    HW273964   0.481   7.855  10.804  0.4875 -0.4138 -0.3693
24175SOL     OW73965   7.884   1.512  10.177  0.5390  0.3817  0.1757
24175SOL    HW173966   7.890   1.446  10.109 -2.0764 -0.8165  1.0208
24175SOL    HW273967   7.922   1.591  10.137  1.1398 -0.8621 -1.8304
24176SOL     OW73968   6.985   2.444   9.266  0.1134 -0.3277 -0.2507
24176SOL    HW173969   6.960   2.523   9.313  0.4306 -0.1275 -0.4196
24176SOL    HW273970   7.004   2.474   9.177 -0.8353 -0.7536 -0.6120
24177SOL     OW73971   0.401   0.829  10.820  0.1151 -0.2778 -0.8589
24177SOL    HW173972   0.493   0.854  10.820  0.0137  0.3063  1.2183
24177SOL    HW273973   0.391   0.772  10.744  1.9720  0.3506 -1.6276
24178SOL     OW73974   0.178   1.160  11.054 -0.5555 -0.2305 -0.5046
24178SOL    HW173975   0.147   1.245  11.085 -0.5022  0.1279 -1.4055
24178SOL    HW273976   0.251   1.181  10.996  1.5154 -1.0594  1.6392
24179SOL     OW73977   7.685   6.866  11.638 -0.4665 -0.1613 -0.5668
24179SOL    HW173978   7.750   6.907  11.581 -0.3991 -0.4453 -0.6933
24179SOL    HW273979   7.690   6.773  11.618 -1.3273 -0.1243 -0.9997
24180SOL     OW73980   6.626   2.420  10.350  0.3301 -0.3356  0.2129
24180SOL    HW173981   6.663   2.335  10.328 -1.2186 -0.9948  0.0641
24180SOL    HW273982   6.673   2.446  10.429  1.7768 -0.6789 -0.5068
24181SOL     OW73983   6.581   1.054   9.670  0.2253 -0.1171 -0.1115
24181SOL    HW173984   6.513   1.089   9.728 -0.0947 -0.3833 -0.3208
24181SOL    HW273985   6.601   1.128   9.611 -0.8594 -0.4306 -0.9180
24182SOL     OW73986   0.725   1.592   8.811  0.3866  0.2581  0.5001
24182SOL    HW173987   0.721   1.635   8.726 -0.5026 -0.9971 -0.1389
24182SOL    HW273988   0.801   1.534   8.805  0.4586  0.3364  0.6480
24183SOL     OW73989   5.313   5.940  10.426  0.6842 -0.5669 -0.2019
24183SOL    HW173990   5.348   5.870  10.371  0.5515 -0.4742 -0.4107
24183SOL    HW273991   5.374   5.947  10.499  1.0330 -0.4951 -0.4944
24184SOL     OW73992   7.375   2.974   9.381  0.6464 -0.0400 -0.1286
24184SOL    HW173993   7.357   2.903   9.319 -0.3070 -1.3252  1.5319
24184SOL    HW273994   7.378   3.053   9.327  2.7987 -1.3845 -2.2219
24185SOL     OW73995   1.302   6.979  11.240 -0.0602 -0.1190 -0.2717
24185SOL    HW173996   1.358   7.044  11.282  0.0070 -0.5824  0.3617
24185SOL    HW273997   1.249   6.942  11.311  1.0393 -1.9017 -0.3210
24186SOL     OW73998   7.915   2.067  11.594  0.1680 -0.1800  0.2163
24186SOL    HW173999   7.925   2.062  11.499  3.6788 -1.6886  0.5376
24186SOL    HW274000   7.904   2.160  11.612 -1.2195  0.0850 -1.6560
24187SOL     OW74001   7.578   2.532   9.438  0.5279 -0.1737 -0.4196
24187SOL    HW174002   7.647   2.476   9.403 -0.2247 -0.5467 -1.3439
24187SOL    HW274003   7.498   2.481   9.428  0.0933  0.2907  0.5457
24188SOL     OW74004   0.808   0.794   9.460 -0.0112  0.1289  0.1806
24188SOL    HW174005   0.757   0.870   9.432  1.1383 -0.1186 -3.0996
24188SOL    HW274006   0.746   0.722   9.458 -0.4161  0.4694  0.2339
24189SOL     OW74007   7.252   0.028  10.154  0.1106 -0.0363  0.4930
24189SOL    HW174008   7.338   0.047  10.116 -0.4361  0.8993 -0.3449
24189SOL    HW274009   7.240  -0.066  10.141  0.4668  0.0481 -0.5673
24190SOL     OW74010   0.744   4.015  10.717 -0.5284  0.0754 -0.0411
24190SOL    HW174011   0.832   3.992  10.690 -1.1337 -1.3488 -0.8756
24190SOL    HW274012   0.703   4.051  10.639 -1.1789 -0.7684 -0.1015
24191SOL     OW74013   1.083   0.700  11.725 -0.2752  0.1282  0.3933
24191SOL    HW174014   1.004   0.748  11.749 -1.8526 -1.1879 -1.7396
24191SOL    HW274015   1.099   0.724  11.634  0.8661 -0.8240  0.3159
24192SOL     OW74016   7.220   3.042  12.044 -0.0840 -0.0590 -0.1993
24192SOL    HW174017   7.137   3.017  12.006 -0.7702  0.4334  0.9094
24192SOL    HW274018   7.201   3.122  12.093  0.9517 -0.1410  0.3794
24193SOL     OW74019   0.332   7.938  10.293 -0.0383 -0.3542 -0.0232
24193SOL    HW174020   0.356   8.029  10.313 -0.0132 -0.0448 -1.3997
24193SOL    HW274021   0.379   7.886  10.359  0.8193  0.5542  0.1077
24194SOL     OW74022   7.631   0.982  10.805  0.4710 -0.0606 -0.3123
24194SOL    HW174023   7.563   1.024  10.753  2.1059  1.2042 -1.5161
24194SOL    HW274024   7.690   0.943  10.740  1.8592  0.4337  0.6183
24195SOL     OW74025   0.622   0.496  10.718  0.5409  0.0469 -0.1589
24195SOL    HW174026   0.629   0.520  10.810  0.1443  1.7240 -0.5392
24195SOL    HW274027   0.548   0.546  10.685  1.3056  0.2882 -1.6219
24196SOL     OW74028   7.228   0.794  11.821  0.1095 -0.2814  0.4241
24196SOL    HW174029   7.269   0.738  11.754  0.7087 -0.4285  0.8965
24196SOL    HW274030   7.252   0.883  11.795 -2.4938 -0.0066 -1.4536
24197SOL     OW74031   7.749   1.194  10.336 -0.0908  0.0412 -0.2370
24197SOL    HW174032   7.771   1.215  10.427 -0.5923 -1.3551  0.2485
24197SOL    HW274033   7.657   1.167  10.340  0.0248 -0.5115 -1.0589
24198SOL     OW74034   7.998   7.706  10.059  0.4500 -0.3878 -0.0902
24198SOL    HW174035   8.037   7.785  10.097 -0.9295  1.4851 -2.2913
24198SOL    HW274036   8.066   7.639  10.069  1.5338  0.9096  2.2011
24199SOL     OW74037   7.769   1.837   8.755  0.0920 -0.0080 -0.2586
24199SOL    HW174038   7.677   1.814   8.741  0.2028  1.3080 -4.4726
24199SOL    HW274039   7.817   1.759   8.728  0.2118  0.6411 -2.0418
24200SOL     OW74040   0.073   7.229   9.270  0.1541 -0.5680 -0.1509
24200SOL    HW174041   0.074   7.285   9.348 -0.1472 -2.0801  0.9724
24200SOL    HW274042   0.122   7.279   9.204 -1.2258  1.5970  0.3629
24201SOL     OW74043   0.471   1.515  11.212  0.0485 -0.1436  0.1455
24201SOL    HW174044   0.476   1.543  11.303 -1.4719  1.2140 -0.1271
24201SOL    HW274045   0.562   1.505  11.184  0.5617 -2.7615  2.3829
24202SOL     OW74046   0.343   7.884   9.868 -0.5440  0.3195 -0.0915
24202SOL    HW174047   0.322   7.790   9.871  2.3049 -0.4071  2.6122
24202SOL    HW274048   0.384   7.897   9.782 -1.2079 -0.8373 -0.6067
24203SOL     OW74049   7.358   0.146   8.203 -0.6815 -0.1630  0.2830
24203SOL    HW174050   7.373   0.217   8.141 -0.1102  0.4995  1.1633
24203SOL    HW274051   7.404   0.071   8.166 -3.1315 -0.7953 -1.8292
24204SOL     OW74052   7.199   0.624   9.724 -0.4025  0.5887  0.4022
24204SOL    HW174053   7.129   0.669   9.771 -0.3334  0.6256  0.4696
24204SOL    HW274054   7.264   0.692   9.706  0.3057  0.2720  1.6412
24205SOL     OW74055   0.586   1.907  10.388 -0.2390  0.5058 -0.3742
24205SOL    HW174056   0.663   1.953  10.355  0.6615  0.1426  1.1268
24205SOL    HW274057   0.621   1.837  10.442 -1.5971  1.0765  1.3450
24206SOL     OW74058   6.310   0.247  10.077 -0.1737  0.2392  0.3320
24206SOL    HW174059   6.379   0.302  10.114  1.3453 -1.4528  0.1092
24206SOL    HW274060   6.244   0.242  10.147  1.2101 -0.3432  1.6630
24207SOL     OW74061   0.550   0.895  10.007  0.0403  0.0481  0.6431
24207SOL    HW174062   0.549   0.814  10.059 -0.9032 -0.9097 -0.7977
24207SOL    HW274063   0.478   0.947  10.043 -2.5843 -1.8589 -1.4717
24208SOL     OW74064   7.424   1.463  10.424  0.4892  0.2347  0.0771
24208SOL    HW174065   7.475   1.458  10.505  3.0493 -1.7859 -1.4597
24208SOL    HW274066   7.489   1.450  10.355 -1.9112 -0.7715 -2.1659
24209SOL     OW74067   7.799   7.130  10.354 -0.2419  0.2412  0.6035
24209SOL    HW174068   7.782   7.122  10.260 -0.7055  1.7407  0.5336
24209SOL    HW274069   7.773   7.045  10.390 -0.7391 -0.1047 -0.5195
24210SOL     OW74070   7.237   0.763  10.378 -0.2187 -0.3418  0.2617
24210SOL    HW174071   7.205   0.847  10.413 -0.0020  0.2025 -0.7976
24210SOL    HW274072   7.296   0.788  10.307  0.1032 -1.3988  0.1404
24211SOL     OW74073   7.878   0.859   9.956  0.1732  0.1101  0.5372
24211SOL    HW174074   7.878   0.888  10.047 -1.1862 -0.3846  0.7229
24211SOL    HW274075   7.869   0.764   9.961  0.6503  0.0253 -0.1112
24212SOL     OW74076   0.513   2.236   9.218 -0.7784 -0.3865  0.4510
24212SOL    HW174077   0.421   2.208   9.215 -1.2271  1.0147  0.3341
24212SOL    HW274078   0.528   2.275   9.131 -0.4838  0.5830  0.9250
24213SOL     OW74079   6.991   1.396   0.211 -0.0713  0.1738  0.8344
24213SOL    HW174080   7.044   1.475   0.199 -0.0340 -0.0361 -0.5635
24213SOL    HW274081   7.053   1.324   0.203 -0.6501 -0.1392 -2.2301
24214SOL     OW74082   1.556   0.037   8.798 -0.1142  0.2107  0.3680
24214SOL    HW174083   1.625  -0.010   8.846  0.7368  0.5808 -0.4369
24214SOL    HW274084   1.604   0.099   8.744 -0.9246 -0.8724 -1.7219
24215SOL     OW74085   7.264   0.017   9.290  0.1149 -0.1883  0.1931
24215SOL    HW174086   7.298  -0.056   9.238 -2.6117 -1.0096 -0.6290
24215SOL    HW274087   7.307   0.009   9.375  3.0271 -0.1594 -1.1610
24216SOL     OW74088   0.371   1.309  10.278 -0.2994 -0.0768  0.1205
24216SOL    HW174089   0.292   1.291  10.226  0.5897 -1.6855 -0.7386
24216SOL    HW274090   0.337   1.339  10.362 -1.9186 -2.0536  0.2687
24217SOL     OW74091   0.424   1.273  10.949 -0.4634 -0.4319 -0.1085
24217SOL    HW174092   0.481   1.219  11.003 -1.9506 -1.2791  0.6976
24217SOL    HW274093   0.478   1.300  10.875  1.2939 -0.1776  1.2353
24218SOL     OW74094   5.792   1.612  11.359  0.2059 -0.4171 -0.0822
24218SOL    HW174095   5.751   1.697  11.371  0.7264 -0.3312  1.2627
24218SOL    HW274096   5.777   1.566  11.441 -0.2492 -1.7256 -0.8568
24219SOL     OW74097   7.159   1.078  12.145 -0.1334 -0.0398  0.2983
24219SOL    HW174098   7.240   1.066  12.195  0.4874  0.9613 -0.4414
24219SOL    HW274099   7.187   1.105  12.058 -1.2078 -1.7929 -0.6520
24220SOL     OW74100   0.400   7.806   9.399 -0.3917  0.3154  0.3857
24220SOL    HW174101   0.383   7.712   9.389 -0.3568  0.3093  0.3849
24220SOL    HW274102   0.426   7.835   9.312 -0.5428  0.3555  0.3533
24221SOL     OW74103   7.959   1.486  10.738  0.4878 -0.4725  0.3140
24221SOL    HW174104   7.920   1.455  10.820 -1.3505 -0.5446 -0.5386
24221SOL    HW274105   8.040   1.437  10.730  0.6109 -0.5991  1.9965
24222SOL     OW74106   0.056   2.078  12.112 -0.3332  0.4559  0.6400
24222SOL    HW174107  -0.014   2.090  12.048  0.1243  2.5907  0.4611
24222SOL    HW274108   0.009   2.061  12.194 -0.9778 -0.4129  0.1097
24223SOL     OW74109   0.716   1.431  12.420 -0.1523  0.2229  0.0989
24223SOL    HW174110   0.767   1.418  12.500 -0.9595 -1.3263  0.4098
24223SOL    HW274111   0.625   1.419  12.447 -0.3018 -4.2587 -1.6215
24224SOL     OW74112   7.064   1.606  11.128  0.2559  0.5230 -0.8662
24224SOL    HW174113   7.084   1.513  11.137  1.2044  0.6034 -1.9866
24224SOL    HW274114   6.972   1.608  11.100  0.0086 -0.0355 -0.1186
24225SOL     OW74115   6.277   0.435  11.613 -0.1808  0.3513 -0.7753
24225SOL    HW174116   6.321   0.476  11.539 -0.5432  0.4977 -0.9118
24225SOL    HW274117   6.346   0.385  11.658 -0.1770 -0.6376 -1.8351
24226SOL     OW74118   7.922   3.383  10.681 -0.1072  0.5395  0.0427
24226SOL    HW174119   7.915   3.325  10.757  0.2216  0.9449  0.3907
24226SOL    HW274120   8.007   3.424  10.690  0.1196  0.2720 -0.7879
24227SOL     OW74121   6.802   1.266  11.449  0.2047 -0.7251  0.0856
24227SOL    HW174122   6.897   1.277  11.461  0.4645 -0.6411 -1.7406
24227SOL    HW274123   6.766   1.277  11.537  1.8257 -0.0436  0.7214
24228SOL     OW74124   7.719   1.078  11.536 -0.7628  0.1693 -0.1458
24228SOL    HW174125   7.661   1.008  11.506 -0.0886 -0.3822 -0.2044
24228SOL    HW274126   7.751   1.048  11.621 -1.5890  1.0883  0.5089
24229SOL     OW74127   7.519   1.242  11.215  0.7657 -0.0607 -0.0315
24229SOL    HW174128   7.535   1.157  11.174 -0.1272  0.3663 -1.3288
24229SOL    HW274129   7.587   1.250  11.281  4.2175  0.4603 -3.2914
24230SOL     OW74130   6.736   1.331  11.717 -0.3410  0.1526 -0.0924
24230SOL    HW174131   6.655   1.381  11.711 -1.6503 -1.6909  1.1699
24230SOL    HW274132   6.786   1.374  11.786 -0.2405  1.2567 -0.8280
24231SOL     OW74133   5.881   7.945   0.354  0.2451 -0.2438 -0.0669
24231SOL    HW174134   5.910   8.022   0.306 -0.7813 -0.5797 -1.2831
24231SOL    HW274135   5.883   7.971   0.446  0.3720  1.0673 -0.4288
24232SOL     OW74136   1.189   7.532  10.077  0.2111 -0.1766  0.1109
24232SOL    HW174137   1.157   7.452  10.036 -1.3622  0.7103 -0.4924
24232SOL    HW274138   1.171   7.520  10.170 -0.5167 -0.3378 -0.0396
24233SOL     OW74139   0.144   1.654  11.440 -0.2842  0.1791  0.1328
24233SOL    HW174140   0.159   1.661  11.346  0.5971  0.2462  0.2686
24233SOL    HW274141   0.121   1.742  11.468 -0.1553  0.2427  0.0411
24234SOL     OW74142   0.270   0.737   9.824  0.1909  0.3497 -1.0068
24234SOL    HW174143   0.359   0.709   9.804  0.1842  0.6596 -1.4883
24234SOL    HW274144   0.231   0.663   9.871  1.7595  1.4608  2.3456
24235SOL     OW74145   1.409   0.983  12.193  0.2454  0.2126 -0.4223
24235SOL    HW174146   1.420   1.017  12.104  1.7083 -1.8073 -1.0789
24235SOL    HW274147   1.497   0.964  12.224 -0.3853 -2.3123  0.0998
24236SOL     OW74148   0.217   1.394  10.755 -0.5926 -0.2323 -0.0132
24236SOL    HW174149   0.263   1.311  10.764  2.1645  1.2940  1.2990
24236SOL    HW274150   0.280   1.460  10.784 -2.5624  2.3732 -1.1962
24237SOL     OW74151   0.298   2.045  11.793  0.3425  0.4716  0.2324
24237SOL    HW174152   0.275   2.092  11.713  1.2089  1.7827  0.7244
24237SOL    HW274153   0.385   2.077  11.816  1.0581 -1.5204  0.5194
24238SOL     OW74154   0.729   0.874  12.078  0.1964 -0.0176 -0.1423
24238SOL    HW174155   0.690   0.812  12.140 -1.3145  0.8011 -0.2277
24238SOL    HW274156   0.737   0.955  12.128  2.6637 -0.3417  0.1333
24239SOL     OW74157   0.434   7.686  11.326  0.9319 -0.2497  0.5519
24239SOL    HW174158   0.347   7.691  11.287  0.9547  0.0239  0.5372
24239SOL    HW274159   0.490   7.735  11.266  1.1482 -0.6470  0.4217
24240SOL     OW74160   0.107   0.109  12.183  0.4113  0.0773  0.8542
24240SOL    HW174161   0.066   0.133  12.266 -0.0114 -0.7129  0.8826
24240SOL    HW274162   0.191   0.071  12.208  0.1756 -0.3934  0.9433
24241SOL     OW74163   0.323   0.911  11.659 -0.3345 -1.3101 -0.1280
24241SOL    HW174164   0.398   0.888  11.604  1.5879  1.8160  0.8954
24241SOL    HW274165   0.333   0.858  11.738  1.2211 -0.5606  0.2238
24242SOL     OW74166   7.613   1.542  11.938 -0.6534 -0.0681 -0.0982
24242SOL    HW174167   7.639   1.454  11.910 -2.0476 -0.0682 -1.5573
24242SOL    HW274168   7.549   1.528  12.008  0.7670 -0.1268  1.2423
24243SOL     OW74169   2.755   2.816  12.161  0.4022  0.4858  0.5473
24243SOL    HW174170   2.816   2.869  12.110  1.1500 -0.9801 -0.1479
24243SOL    HW274171   2.669   2.853  12.142  0.9936  2.3708  1.2773
24244SOL     OW74172   6.654   6.328  10.488  0.0325  0.1508 -0.4863
24244SOL    HW174173   6.653   6.423  10.502 -0.1015 -0.0437  1.1092
24244SOL    HW274174   6.737   6.300  10.527 -0.3825 -0.4869 -0.0495
24245SOL     OW74175   7.383   2.683   0.411 -0.2030  0.1058 -0.3796
24245SOL    HW174176   7.373   2.625   0.487  0.9580 -0.7328 -0.8568
24245SOL    HW274177   7.375   2.771   0.448  1.6716 -0.2313  0.9639
24246SOL     OW74178   0.147   2.016   1.132 -0.5149 -0.8450  0.2258
24246SOL    HW174179   0.180   1.949   1.073  2.0798 -0.9542  1.6562
24246SOL    HW274180   0.091   1.969   1.194 -2.5485 -0.8551 -1.5156
24247SOL     OW74181   7.903   0.968  11.935  0.4591 -0.1343  0.7385
24247SOL    HW174182   7.862   0.882  11.947 -0.3845  0.0540 -0.6766
24247SOL    HW274183   7.997   0.950  11.939  0.3451 -1.4064 -1.0911
24248SOL     OW74184   7.354   0.492  12.122  0.4722  0.3712 -0.1530
24248SOL    HW174185   7.425   0.495  12.058  0.2026 -0.3096 -0.4912
24248SOL    HW274186   7.274   0.505  12.071 -0.0198 -3.0207 -0.4618
24249SOL     OW74187   7.755   3.319  10.486  0.5486  0.5599  0.4077
24249SOL    HW174188   7.827   3.333  10.548  1.1856  2.8478 -0.7544
24249SOL    HW274189   7.692   3.389  10.505 -0.1486  0.1548 -0.3100
24250SOL     OW74190   0.578   7.754  11.984 -0.1910 -0.2434  0.4189
24250SOL    HW174191   0.556   7.668  12.021  0.6805 -0.6686 -0.0415
24250SOL    HW274192   0.508   7.772  11.922 -1.6823  0.4681  2.1905
24251SOL     OW74193   7.900   7.994  12.032 -0.1602  0.3403  0.4215
24251SOL    HW174194   7.931   7.920  11.980 -0.4136  0.0594  0.6702
24251SOL    HW274195   7.979   8.044  12.052  0.0838 -0.1819  0.7555
24252SOL     OW74196   0.472   2.845  11.988 -0.1655 -0.3838 -0.4742
24252SOL    HW174197   0.480   2.749  11.992 -0.2226 -0.3633  0.5523
24252SOL    HW274198   0.542   2.872  11.928  2.7624 -0.8034  2.4301
24253SOL     OW74199   7.890   2.091   1.568  0.6708  0.0973  0.7088
24253SOL    HW174200   7.799   2.079   1.598  0.4710 -1.6318 -0.3990
24253SOL    HW274201   7.889   2.174   1.521 -0.6330 -0.3831 -0.1828
24254SOL     OW74202   0.273   0.826  11.329 -0.6763 -0.0295  0.4433
24254SOL    HW174203   0.340   0.757  11.328 -1.6617 -1.0097 -0.7236
24254SOL    HW274204   0.213   0.802  11.258 -2.6898  0.4223  1.9244
24255SOL     OW74205   0.548   1.979  11.969  0.3110  0.9356 -0.2906
24255SOL    HW174206   0.509   2.000  12.054 -1.7468 -2.4260 -0.2373
24255SOL    HW274207   0.552   2.063  11.924 -1.3742  2.3874  2.0050
24256SOL     OW74208   1.185   0.338  10.871 -0.2163  0.0343  0.3138
24256SOL    HW174209   1.212   0.289  10.949  0.4423  1.4064  0.9701
24256SOL    HW274210   1.095   0.310  10.855 -0.6412  0.3292  2.0482
24257SOL     OW74211   6.762   1.938  11.477  0.2233 -0.0574  0.2960
24257SOL    HW174212   6.756   2.026  11.513  0.7191  0.6330 -1.1936
24257SOL    HW274213   6.780   1.952  11.384  1.9710 -1.7273  0.3253
24258SOL     OW74214   6.864   0.619   9.570 -0.5271 -0.0491 -0.5230
24258SOL    HW174215   6.805   0.560   9.522  0.3341 -0.6018 -0.9274
24258SOL    HW274216   6.910   0.562   9.631 -0.4765  0.3945 -0.1460
24259SOL     OW74217   0.931   1.026  11.317 -0.9866  0.1789 -0.2398
24259SOL    HW174218   0.950   1.112  11.278  1.0730 -0.4403 -0.7349
24259SOL    HW274219   0.969   0.963  11.256  3.9018 -0.8287  3.2674
24260SOL     OW74220   1.696   7.595  11.871  0.5341  0.2166 -0.3184
24260SOL    HW174221   1.791   7.587  11.868  0.4738 -0.4086 -0.7919
24260SOL    HW274222   1.675   7.658  11.803  0.6376  0.7313  0.1146
24261SOL     OW74223   0.383   0.468   9.642  0.3557 -0.6225 -0.1195
24261SOL    HW174224   0.453   0.490   9.703  2.8024 -0.0444 -2.8956
24261SOL    HW274225   0.423   0.408   9.580 -2.4082 -2.3296 -0.4446
24262SOL     OW74226   7.117   7.706  10.975 -0.2487  0.5479 -0.0148
24262SOL    HW174227   7.110   7.736  11.066  0.3399 -2.7824  1.2721
24262SOL    HW274228   7.033   7.665  10.957  0.9595 -2.3707  0.5542
24263SOL     OW74229   0.343   2.358   0.829  0.0640  0.2791  0.0138
24263SOL    HW174230   0.405   2.376   0.900 -0.7595  1.1737  0.5237
24263SOL    HW274231   0.311   2.444   0.802 -0.3696 -0.1185 -0.7856
24264SOL     OW74232   0.714   1.811  11.274 -0.1268  0.3088 -0.1780
24264SOL    HW174233   0.642   1.851  11.227 -0.8790 -1.0686 -0.2611
24264SOL    HW274234   0.684   1.805  11.365  1.0958  2.4396  0.4301
24265SOL     OW74235   0.014   1.954  11.254  0.2805  0.2129 -0.4395
24265SOL    HW174236   0.011   2.045  11.225  0.6628  0.2921 -0.2338
24265SOL    HW274237   0.067   1.955  11.333  0.0850 -0.1554 -0.2967
24266SOL     OW74238   6.370   2.264   0.406 -0.1418  0.1873 -0.1896
24266SOL    HW174239   6.318   2.300   0.477 -0.0631 -0.2714  0.1030
24266SOL    HW274240   6.378   2.171   0.426 -0.6848 -0.0808 -1.1492
24267SOL     OW74241   7.426   2.997   0.998  0.5273 -0.4133 -0.2100
24267SOL    HW174242   7.366   3.071   1.005  1.6803  1.1509 -3.9921
24267SOL    HW274243   7.369   2.921   0.988 -0.7010 -0.4414  4.5754
24268SOL     OW74244   7.003   4.150  12.495  0.6883 -0.0266 -0.0230
24268SOL    HW174245   7.036   4.229  12.453  0.0540  0.3573  0.1817
24268SOL    HW274246   7.062   4.080  12.467  0.2739  0.2122 -1.5502
24269SOL     OW74247   0.550   2.252  12.413  0.2038  0.0839  0.1692
24269SOL    HW174248   0.456   2.252  12.401  0.1747 -1.1548  0.3042
24269SOL    HW274249   0.575   2.160  12.412  1.1008  0.2239  2.3810
24270SOL     OW74250   7.376   1.140  12.368  0.0310  0.4481 -0.3704
24270SOL    HW174251   7.353   1.178  12.453  0.6531 -1.1736  0.5675
24270SOL    HW274252   7.442   1.074  12.389 -0.1186 -0.2763 -2.0732
24271SOL     OW74253   7.238   5.799   1.904 -0.1856  0.8970  0.2071
24271SOL    HW174254   7.209   5.787   1.813 -1.4555  1.0503  0.5655
24271SOL    HW274255   7.323   5.755   1.908 -0.0444  0.9935 -1.0826
24272SOL     OW74256   7.287   4.537  11.571 -0.1157 -0.1919  0.6478
24272SOL    HW174257   7.282   4.444  11.594 -0.8774 -0.5854 -1.0035
24272SOL    HW274258   7.264   4.540  11.478 -0.7863  1.7376  0.8450
24273SOL     OW74259   7.757   3.509   1.227  0.3422  0.1215  0.3177
24273SOL    HW174260   7.796   3.449   1.163 -0.2989 -0.8979  0.8647
24273SOL    HW274261   7.811   3.498   1.306 -0.0379 -0.0751  0.5555
24274SOL     OW74262   0.598   3.157   0.090 -0.9442 -0.0288  0.4361
24274SOL    HW174263   0.534   3.152   0.161 -1.6557  1.4337 -0.0794
24274SOL    HW274264   0.648   3.075   0.098 -2.0002 -0.5934  1.6608
24275SOL     OW74265   0.453   2.895   0.477 -0.0617  0.0969 -0.0267
24275SOL    HW174266   0.422   2.950   0.548  1.7514  0.8287  0.2499
24275SOL    HW274267   0.508   2.829   0.519 -1.5851 -1.4989 -0.4357
24276SOL     OW74268   0.912   3.378   1.546  0.6275  0.2608  0.1625
24276SOL    HW174269   0.859   3.448   1.508  1.2165  0.3105 -0.5888
24276SOL    HW274270   0.909   3.395   1.641  1.4924  1.8593 -0.0429
24277SOL     OW74271   6.195   3.076   0.093  0.5755  0.0129  0.1166
24277SOL    HW174272   6.177   3.132   0.169 -1.3874  0.7363 -0.8103
24277SOL    HW274273   6.159   3.125   0.019 -0.7463 -2.2243 -0.7942
24278SOL     OW74274   0.280   2.235   1.569  0.4284  0.1375 -0.2951
24278SOL    HW174275   0.300   2.226   1.476 -1.1092  0.4930 -0.6816
24278SOL    HW274276   0.228   2.315   1.575  0.9171  0.3837  0.9490
24279SOL     OW74277   7.696   3.873  12.277 -0.1272  0.1217 -0.7108
24279SOL    HW174278   7.735   3.952  12.313 -0.6317  0.3925 -0.7461
24279SOL    HW274279   7.761   3.840  12.216  0.2684  0.2689 -0.3729
24280SOL     OW74280   7.949   3.140   2.230  0.1346 -0.0588 -0.1638
24280SOL    HW174281   7.999   3.071   2.274 -1.1092  0.2845  1.9847
24280SOL    HW274282   7.920   3.197   2.302 -0.3916  1.6859 -1.6876
24281SOL     OW74283   6.908   2.721   0.554 -0.0999  0.5794  0.4149
24281SOL    HW174284   6.908   2.760   0.466  1.4056  1.0442  0.6035
24281SOL    HW274285   6.831   2.760   0.596 -0.3358  1.0393 -0.3975
24282SOL     OW74286   0.296   3.708   4.452  0.3603 -0.5737 -0.0692
24282SOL    HW174287   0.392   3.708   4.454  0.3466 -0.2537  1.6995
24282SOL    HW274288   0.270   3.735   4.539 -1.3689 -1.7923 -0.1562
24283SOL     OW74289   6.491   1.861   0.170 -0.0521  0.0850 -0.1615
24283SOL    HW174290   6.409   1.899   0.140 -0.2522 -0.1178  0.1286
24283SOL    HW274291   6.465   1.786   0.223  0.3448 -1.2482 -1.7460
24284SOL     OW74292   7.661   3.304   2.808 -0.5699 -0.7087  0.4031
24284SOL    HW174293   7.598   3.276   2.874 -0.8799  0.9185  0.8441
24284SOL    HW274294   7.690   3.390   2.838  1.7919 -1.3563  0.1390
24285SOL     OW74295   7.471   3.417   1.230  0.2884  0.2512 -0.3518
24285SOL    HW174296   7.466   3.357   1.304  1.4041  0.4146 -0.1231
24285SOL    HW274297   7.563   3.443   1.227  0.4358 -0.3161 -2.2325
24286SOL     OW74298   0.584   4.933   1.257  0.0234 -0.2863 -0.1980
24286SOL    HW174299   0.507   4.987   1.274  0.1195 -0.0527 -0.5074
24286SOL    HW274300   0.617   4.963   1.173 -1.6259 -2.7998 -1.9049
24287SOL     OW74301   0.356   3.130   1.704 -0.8059 -0.3431  0.0661
24287SOL    HW174302   0.437   3.080   1.704 -0.6952 -0.1630  0.3054
24287SOL    HW274303   0.383   3.222   1.707 -0.9903 -0.2294 -1.3235
24288SOL     OW74304   7.874   3.280  11.741 -0.5558 -0.0790  0.1581
24288SOL    HW174305   7.791   3.237  11.722 -0.4435 -0.3845  0.3412
24288SOL    HW274306   7.923   3.215  11.792  1.1589 -1.2612 -2.7481
24289SOL     OW74307   0.006   1.842  11.781  0.2393 -0.2302  0.3084
24289SOL    HW174308   0.051   1.869  11.860 -2.0849  0.6658  1.4032
24289SOL    HW274309  -0.066   1.904  11.771 -0.8865 -1.6759 -1.2260
24290SOL     OW74310   7.267   2.436   1.053  0.2942 -0.0539 -0.1031
24290SOL    HW174311   7.198   2.413   0.991  0.5136  0.0811 -0.3979
24290SOL    HW274312   7.221   2.480   1.124 -0.2129 -1.7874  0.7138
24291SOL     OW74313   0.708   3.849   1.813  0.4417 -0.2198 -0.2061
24291SOL    HW174314   0.665   3.911   1.755 -0.6529  1.0645  1.8615
24291SOL    HW274315   0.775   3.808   1.759 -0.8938  0.4604 -2.4992
24292SOL     OW74316   1.624   2.408   2.382 -0.3559  0.4814  0.0967
24292SOL    HW174317   1.660   2.494   2.360 -1.8113  0.6725 -1.6966
24292SOL    HW274318   1.621   2.361   2.299 -1.7519 -0.4601  0.6446
24293SOL     OW74319   6.899   3.215   3.261  0.2235 -0.0661 -0.7716
24293SOL    HW174320   6.922   3.130   3.298  0.5184  0.3595  0.0614
24293SOL    HW274321   6.902   3.202   3.166  0.6587 -0.8819 -0.6535
24294SOL     OW74322   6.988   4.353  12.136 -0.3472  0.4440 -0.1815
24294SOL    HW174323   7.062   4.292  12.130 -1.8741 -1.4736 -0.6864
24294SOL    HW274324   6.965   4.371  12.045 -0.8916  0.5378 -0.0265
24295SOL     OW74325   7.046   2.344   1.387 -0.0591 -0.4426 -0.2311
24295SOL    HW174326   7.087   2.427   1.365  2.7345 -1.9954 -1.4459
24295SOL    HW274327   6.979   2.331   1.319 -0.2928  0.6385 -0.2140
24296SOL     OW74328   7.108   4.691   0.627 -0.1051  0.2137  0.0264
24296SOL    HW174329   7.051   4.700   0.551 -0.7324 -2.1690  0.1483
24296SOL    HW274330   7.174   4.627   0.601 -0.0306 -0.2671  1.3124
24297SOL     OW74331   1.364   2.186   2.337 -0.2664 -0.0368 -1.1444
24297SOL    HW174332   1.439   2.239   2.364 -1.1441  0.3011  0.7532
24297SOL    HW274333   1.291   2.218   2.389 -0.4395 -4.4429  1.8468
24298SOL     OW74334   1.735   2.267   1.106  0.2902 -0.8746 -0.1770
24298SOL    HW174335   1.750   2.312   1.023 -0.1828  0.3615  0.3865
24298SOL    HW274336   1.788   2.315   1.169 -0.2823 -1.0573  0.4540
24299SOL     OW74337   0.143   3.099   0.716  0.2790 -0.0292 -0.0341
24299SOL    HW174338   0.103   3.126   0.633 -1.1122 -0.2939  0.5139
24299SOL    HW274339   0.099   3.152   0.782  0.5164 -0.6563  0.6407
24300SOL     OW74340   6.369   4.221   1.955  0.2797  0.6038  0.1573
24300SOL    HW174341   6.432   4.267   1.900 -0.6175  0.7242 -0.8011
24300SOL    HW274342   6.418   4.148   1.993  0.7925  0.1713 -1.2710
24301SOL     OW74343   7.813   3.789   3.375 -0.0195 -0.2581 -0.4339
24301SOL    HW174344   7.848   3.875   3.350  0.8879 -0.7584 -0.9503
24301SOL    HW274345   7.743   3.809   3.437 -0.1125  0.8741 -0.8712
24302SOL     OW74346   7.903   2.814   1.297  0.3857 -0.3219  0.1022
24302SOL    HW174347   7.950   2.843   1.375  0.4264  2.0998 -0.7313
24302SOL    HW274348   7.854   2.737   1.325  0.7734  0.1871  2.3569
24303SOL     OW74349   0.288   4.133  11.550  0.2578  0.1619  0.2470
24303SOL    HW174350   0.202   4.099  11.525 -0.1981  0.9084  0.7383
24303SOL    HW274351   0.322   4.172  11.469  0.8869 -1.6148 -0.3719
24304SOL     OW74352   0.052   2.508   1.125  0.7097 -0.1756  0.0847
24304SOL    HW174353  -0.015   2.442   1.108  0.3945 -0.0278  0.7375
24304SOL    HW274354   0.135   2.460   1.118  0.7294  0.1363 -3.2251
24305SOL     OW74355   6.897   4.417  11.889 -0.2507 -0.1759  0.4672
24305SOL    HW174356   6.858   4.377  11.811  0.5204  0.5512 -0.3094
24305SOL    HW274357   6.958   4.482  11.854  0.7810 -0.4787  1.6652
24306SOL     OW74358   0.381   4.317  12.139 -0.0722  0.3233  0.2718
24306SOL    HW174359   0.368   4.266  12.059 -0.2681 -1.3455  1.3367
24306SOL    HW274360   0.476   4.333  12.140 -0.0180  0.0683 -0.1247
24307SOL     OW74361   1.219   5.570   2.319  0.2811 -0.2427  0.3823
24307SOL    HW174362   1.290   5.631   2.336  1.4580 -1.1394 -0.9705
24307SOL    HW274363   1.198   5.583   2.226  0.4543 -1.7507  0.1035
24308SOL     OW74364   6.945   2.802   1.049  0.2970 -0.4131 -0.1984
24308SOL    HW174365   6.865   2.757   1.074 -1.2245  1.5267 -1.2458
24308SOL    HW274366   6.969   2.853   1.127  0.7972 -1.3433  0.2676
24309SOL     OW74367   7.120   3.871   1.939  0.5695 -0.1601  0.0420
24309SOL    HW174368   7.104   3.927   2.015 -0.7812  0.2933 -0.5436
24309SOL    HW274369   7.167   3.926   1.877  0.0506  0.0539 -0.1682
24310SOL     OW74370   7.956   4.151   4.125 -0.0292 -0.2287 -0.0230
24310SOL    HW174371   8.043   4.147   4.165  0.3239  1.1278 -0.5966
24310SOL    HW274372   7.927   4.241   4.138 -0.1518  0.1197 -2.2326
24311SOL     OW74373   0.390   0.712   0.403 -0.3804 -0.1243 -0.2510
24311SOL    HW174374   0.423   0.744   0.486 -1.7366  1.2721 -0.1848
24311SOL    HW274375   0.454   0.648   0.373  1.5648  1.3625  0.5359
24312SOL     OW74376   6.751   2.834  11.796 -0.4919 -0.6748  0.1679
24312SOL    HW174377   6.718   2.916  11.760 -0.8216 -0.0478  1.8182
24312SOL    HW274378   6.711   2.766  11.741 -0.9227  0.2358 -0.6707
24313SOL     OW74379   6.274   4.125   1.100  0.3483 -0.3424  0.4066
24313SOL    HW174380   6.291   4.031   1.102 -0.5569 -0.5509  3.1685
24313SOL    HW274381   6.249   4.146   1.190 -1.1801  2.2163 -0.5125
24314SOL     OW74382   7.823   4.517   1.752  0.1268  0.1931  0.3127
24314SOL    HW174383   7.744   4.473   1.719  0.1328 -0.2228  0.8429
24314SOL    HW274384   7.863   4.556   1.674  0.2533 -0.9477 -0.2198
24315SOL     OW74385   7.584   0.127  12.442 -0.0597  0.3047  0.0922
24315SOL    HW174386   7.572   0.164  12.355 -0.7239 -1.2604 -0.5299
24315SOL    HW274387   7.600   0.034  12.426 -1.7045 -0.3225  1.6978
24316SOL     OW74388   6.942   3.046   2.562  0.3063 -0.0259 -0.6624
24316SOL    HW174389   6.892   3.048   2.481 -0.2390  0.8262 -0.3169
24316SOL    HW274390   7.014   3.107   2.548  0.2732  0.0415 -0.5427
24317SOL     OW74391   7.246   4.308   0.726 -0.3278  0.1859  0.3874
24317SOL    HW174392   7.275   4.220   0.749 -0.6104  0.2019  0.8124
24317SOL    HW274393   7.175   4.327   0.787  0.1281  0.9428  0.6984
24318SOL     OW74394   7.616   4.594  12.494  0.4307  0.3466 -0.2104
24318SOL    HW174395   7.654   4.525  12.549 -0.2340  0.4226  0.3612
24318SOL    HW274396   7.625   4.562  12.405 -1.2859 -1.2387  0.1160
24319SOL     OW74397   7.726   2.959   0.716 -0.1340  1.0414 -0.1400
24319SOL    HW174398   7.769   3.014   0.782  1.3515  0.6429 -0.7398
24319SOL    HW274399   7.779   2.879   0.714 -1.0664  0.4283 -0.7308
24320SOL     OW74400   7.725   2.749   0.305 -0.2425 -0.1552  0.0751
24320SOL    HW174401   7.668   2.716   0.375  0.0589  0.4442  0.6092
24320SOL    HW274402   7.727   2.843   0.318 -0.3922 -0.0001 -0.9137
24321SOL     OW74403   7.775   4.964   3.045  0.2046  0.1521 -0.3137
24321SOL    HW174404   7.714   5.022   3.091 -0.4022 -1.8120  1.5158
24321SOL    HW274405   7.718   4.899   3.004  0.9805 -0.8068  0.1039
24322SOL     OW74406   7.270   2.971   2.309  0.0550  0.6634 -0.4369
24322SOL    HW174407   7.240   2.895   2.260 -2.0066  1.3293 -0.3135
24322SOL    HW274408   7.285   2.940   2.398 -1.7761  0.5636 -0.1329
24323SOL     OW74409   6.594   3.411   1.830 -0.0449 -0.1893  0.0481
24323SOL    HW174410   6.666   3.418   1.893 -1.1015  1.0410  1.1867
24323SOL    HW274411   6.628   3.354   1.761  0.8393 -2.4670  2.1767
24324SOL     OW74412   0.501   4.088   3.648 -0.0268  0.0982 -0.5803
24324SOL    HW174413   0.484   4.029   3.722  0.5811  0.7233  0.0760
24324SOL    HW274414   0.533   4.030   3.579 -1.1087 -0.5669 -0.5520
24325SOL     OW74415   6.744   2.880   1.635 -0.0006  0.2221 -0.1107
24325SOL    HW174416   6.680   2.886   1.564  0.9200 -1.6141 -1.1835
24325SOL    HW274417   6.713   2.808   1.690  1.4809 -1.2981 -1.1326
24326SOL     OW74418   7.755   4.541   1.224 -0.0081  0.9834 -0.8006
24326SOL    HW174419   7.698   4.543   1.147 -0.0378 -0.6794 -0.8484
24326SOL    HW274420   7.817   4.470   1.206 -0.3729  0.1813  0.9462
24327SOL     OW74421   0.074   3.076   3.534  0.1279  0.0892  0.2364
24327SOL    HW174422   0.017   3.033   3.598  1.4355 -1.7187  0.2703
24327SOL    HW274423   0.055   3.169   3.543 -1.6551 -0.3369  1.3387
24328SOL     OW74424   7.644   2.140   1.901  0.1567 -0.0867  0.1381
24328SOL    HW174425   7.552   2.141   1.876  0.0382 -2.6207  0.1883
24328SOL    HW274426   7.643   2.147   1.996  0.1314  1.3239  0.0514
24329SOL     OW74427   1.005   3.519   0.638  0.4237  0.6990  0.3832
24329SOL    HW174428   0.933   3.497   0.578  1.3504 -0.3621 -0.3799
24329SOL    HW274429   0.992   3.611   0.659 -1.3515  0.4555  0.5310
24330SOL     OW74430   0.959   2.910   2.539 -0.3709  0.2697 -0.1529
24330SOL    HW174431   0.948   2.834   2.483 -0.4288  1.0656 -1.2517
24330SOL    HW274432   0.894   2.899   2.608  0.7416 -1.5047  0.6890
24331SOL     OW74433   6.525   1.558   3.733 -0.1126 -0.3027  0.4483
24331SOL    HW174434   6.604   1.600   3.767  1.4450  1.0050 -4.1081
24331SOL    HW274435   6.553   1.471   3.707 -0.7938 -0.6538  0.8648
24332SOL     OW74436   0.391   3.672   3.248 -0.9259 -0.3778  0.2199
24332SOL    HW174437   0.309   3.708   3.282 -1.4180 -1.5988  0.3723
24332SOL    HW274438   0.364   3.621   3.171 -0.3554 -1.0245  0.4406
24333SOL     OW74439   7.558   2.993   3.177 -0.2201  0.3442  0.3878
24333SOL    HW174440   7.605   3.009   3.259  1.2279  1.5056 -0.6136
24333SOL    HW274441   7.509   2.913   3.192  0.7803  0.0080  2.0611
24334SOL     OW74442   1.078   3.019   0.411  0.0433  0.5108  0.3884
24334SOL    HW174443   1.133   2.964   0.354 -0.3751  0.8632 -0.3633
24334SOL    HW274444   1.067   3.100   0.363 -0.7065  0.6451  0.7746
24335SOL     OW74445   7.045   3.235   3.532 -0.4579 -0.3442  0.0289
24335SOL    HW174446   7.133   3.210   3.502 -0.4033 -1.6723  1.2176
24335SOL    HW274447   6.987   3.209   3.460 -0.5555 -5.2561  1.5817
24336SOL     OW74448   1.605   3.459   2.691 -0.1311  0.2271  0.0002
24336SOL    HW174449   1.579   3.453   2.782  1.2105  0.4442  0.4154
24336SOL    HW274450   1.647   3.545   2.683 -0.4939  0.3330 -0.8870
24337SOL     OW74451   1.865   3.357   3.324  0.4922  0.8537  0.1507
24337SOL    HW174452   1.801   3.311   3.270  1.0038 -0.8248  0.9199
24337SOL    HW274453   1.817   3.382   3.402  0.3492  1.1575 -0.0325
24338SOL     OW74454   6.929   3.928   1.292  0.0610 -0.3959  0.1007
24338SOL    HW174455   6.974   3.912   1.374  0.3956  0.9445  0.2098
24338SOL    HW274456   6.999   3.935   1.227  0.0577  1.6313  0.2603
24339SOL     OW74457   0.721   2.067   3.984 -0.1655  0.7362  0.8964
24339SOL    HW174458   0.741   2.110   3.901  1.1656 -2.9752 -0.9158
24339SOL    HW274459   0.627   2.051   3.981 -0.0367  0.1483 -0.1643
24340SOL     OW74460   7.317   3.394   2.235  0.1811  0.3042 -0.0104
24340SOL    HW174461   7.393   3.433   2.277 -0.5288  0.6961  0.9553
24340SOL    HW274462   7.313   3.434   2.149  0.6245  0.8515  0.2229
24341SOL     OW74463   7.736   2.590   3.761 -0.1807 -0.2622  0.4377
24341SOL    HW174464   7.689   2.509   3.740  0.2635 -0.0594 -1.4987
24341SOL    HW274465   7.688   2.627   3.835 -2.6514 -0.4354 -0.9776
24342SOL     OW74466   7.228   3.165   4.925 -0.4034 -0.0609  0.1189
24342SOL    HW174467   7.181   3.082   4.928 -0.0812 -0.5033 -3.1204
24342SOL    HW274468   7.161   3.231   4.939 -0.7254 -0.7792  2.3825
24343SOL     OW74469   7.890   1.510   2.628 -0.3965 -0.0937 -0.1473
24343SOL    HW174470   7.984   1.527   2.638 -0.5218 -0.3333  1.7510
24343SOL    HW274471   7.850   1.597   2.626 -0.1138  0.0328 -1.6223
24344SOL     OW74472   7.792   4.928   1.816 -0.2946 -0.1292 -0.3862
24344SOL    HW174473   7.709   4.971   1.797  0.2813  0.5837 -1.3695
24344SOL    HW274474   7.771   4.866   1.886 -1.0931  1.9403  1.3114
24345SOL     OW74475   6.761   2.262   3.714 -0.1300  0.0373  0.2373
24345SOL    HW174476   6.774   2.186   3.658 -0.8466  1.9167 -2.6808
24345SOL    HW274477   6.665   2.271   3.721 -0.0816 -0.3439  2.1809
24346SOL     OW74478   0.402   3.957   3.868  0.1279 -0.3372 -0.7232
24346SOL    HW174479   0.335   4.024   3.885  0.9020 -0.0215  1.3236
24346SOL    HW274480   0.364   3.876   3.901  0.4687 -0.2841 -0.1910
24347SOL     OW74481   7.897   2.934   3.720  0.3205  0.1506 -0.7017
24347SOL    HW174482   7.848   2.872   3.665  0.1681 -0.1963 -0.1788
24347SOL    HW274483   7.988   2.903   3.715  0.3308  0.2021 -0.8636
24348SOL     OW74484   0.680   2.583   3.861 -0.2127 -0.2454 -0.4330
24348SOL    HW174485   0.735   2.640   3.808  0.1407 -0.3895 -0.2263
24348SOL    HW274486   0.591   2.599   3.829 -0.2676  1.2508  0.3666
24349SOL     OW74487   0.878   1.724   2.944  0.4204 -0.6857  0.2052
24349SOL    HW174488   0.892   1.634   2.915 -0.4138 -1.5988  2.4014
24349SOL    HW274489   0.961   1.768   2.927  0.2932 -1.3477 -2.5117
24350SOL     OW74490   6.791   2.163   0.660  0.3700 -0.1571  0.0436
24350SOL    HW174491   6.785   2.084   0.605  0.5727 -0.0806 -0.0894
24350SOL    HW274492   6.722   2.220   0.628  1.0148  0.2333 -0.6925
24351SOL     OW74493   7.820   1.786   0.639  0.0781  0.3781  0.1384
24351SOL    HW174494   7.906   1.786   0.680  0.6445 -1.0652 -0.9894
24351SOL    HW274495   7.772   1.855   0.686  0.7442 -0.9908  3.0748
24352SOL     OW74496   1.950   1.237   0.758 -0.4123  0.0824 -0.5205
24352SOL    HW174497   1.962   1.327   0.786 -0.1774  0.3967 -1.5988
24352SOL    HW274498   1.971   1.237   0.665  0.6904 -1.3096 -0.3111
24353SOL     OW74499   1.413   3.727   2.863 -0.0559  0.1340  0.0325
24353SOL    HW174500   1.466   3.651   2.887 -1.3114 -0.6890  0.2695
24353SOL    HW274501   1.419   3.731   2.768  0.1401 -0.1624  0.0305
24354SOL     OW74502   7.024   1.977   0.500  0.7248  0.1587  0.6529
24354SOL    HW174503   7.063   2.058   0.532  1.2918  0.1891 -0.0899
24354SOL    HW274504   6.949   2.005   0.448  1.0923  0.2322  0.1541
24355SOL     OW74505   0.205   2.988   3.042  0.1112  0.4294 -0.2372
24355SOL    HW174506   0.200   2.919   2.975  0.3184  1.2604 -1.1439
24355SOL    HW274507   0.272   2.959   3.103  0.1431 -0.2094 -0.5711
24356SOL     OW74508   0.910   1.827   3.434  0.1140 -0.4686  0.5614
24356SOL    HW174509   0.870   1.914   3.438 -0.0396 -0.5521  0.9346
24356SOL    HW274510   0.971   1.826   3.508 -0.8518 -1.1427  1.3814
24357SOL     OW74511   7.835   1.589   4.467 -0.7135  0.5401  0.3218
24357SOL    HW174512   7.774   1.610   4.397 -3.0876  2.5182  2.7925
24357SOL    HW274513   7.799   1.510   4.508 -0.9457  1.0060  1.0321
24358SOL     OW74514   7.994   3.188   4.235 -0.0143  0.0942  0.1805
24358SOL    HW174515   7.935   3.135   4.289  1.1816 -0.9508  0.5085
24358SOL    HW274516   8.020   3.260   4.291  0.8367 -0.7230  0.8742
24359SOL     OW74517   1.920   3.745   3.785  0.1148  0.3843 -0.3630
24359SOL    HW174518   1.915   3.799   3.706 -0.2387  2.2359  0.8622
24359SOL    HW274519   1.830   3.745   3.819  0.5801  1.0391  0.9213
24360SOL     OW74520   1.345   2.049   3.253  0.1854 -0.0554  0.1190
24360SOL    HW174521   1.262   2.096   3.242 -0.0668 -0.4609  0.2275
24360SOL    HW274522   1.400   2.079   3.181 -0.4098 -0.5224 -0.5488
24361SOL     OW74523   7.053   1.019   1.683  0.4574  0.1158  0.3519
24361SOL    HW174524   7.090   1.059   1.761  0.1721 -0.5437  0.8283
24361SOL    HW274525   7.121   0.958   1.652 -0.8480 -2.5063  2.2859
24362SOL     OW74526   1.392   4.318   2.976  0.4066 -0.1457  0.1079
24362SOL    HW174527   1.374   4.377   2.903 -0.3244  1.5095  1.5610
24362SOL    HW274528   1.364   4.232   2.945  0.4009  0.4579 -1.6517
24363SOL     OW74529   5.104   1.996   3.557  0.0294 -0.9970  0.1571
24363SOL    HW174530   5.171   2.063   3.543 -0.2323 -0.8755 -0.5931
24363SOL    HW274531   5.042   2.036   3.617 -0.2352 -0.4725 -0.4461
24364SOL     OW74532   0.605   2.930   2.546 -0.0213 -0.5006  0.1614
24364SOL    HW174533   0.667   2.893   2.608 -1.0561 -1.7517  0.4990
24364SOL    HW274534   0.527   2.948   2.598  0.0932  1.2693 -0.2021
24365SOL     OW74535   6.430   0.777   1.877  0.0864 -0.1554 -0.8972
24365SOL    HW174536   6.367   0.787   1.948 -0.0576 -0.0745 -1.0356
24365SOL    HW274537   6.434   0.683   1.861 -0.4501 -0.1155 -1.2902
24366SOL     OW74538   2.246   2.095   5.032 -0.2024 -0.7345 -0.2494
24366SOL    HW174539   2.219   2.172   5.083  1.0733 -0.2762 -0.2179
24366SOL    HW274540   2.272   2.131   4.947  2.6830 -0.7320  0.5292
24367SOL     OW74541   0.067   2.604   4.560  0.1488  0.0155  0.4163
24367SOL    HW174542   0.122   2.675   4.593  0.5579 -0.4786  0.8134
24367SOL    HW274543  -0.016   2.646   4.536  0.9194  0.8973 -0.8343
24368SOL     OW74544   7.648   0.893   3.034  0.1815 -0.2743  0.2759
24368SOL    HW174545   7.703   0.971   3.029  0.2827 -0.1642  2.2720
24368SOL    HW274546   7.708   0.823   3.058 -0.0985 -0.7505 -0.3907
24369SOL     OW74547   0.686   4.638   3.699 -0.6164  0.2429  0.6921
24369SOL    HW174548   0.713   4.569   3.638 -0.6382  0.7403  0.1125
24369SOL    HW274549   0.684   4.594   3.784  2.5351  0.2752  0.9129
24370SOL     OW74550   0.365   3.342   3.405 -0.3178 -0.0261 -0.0614
24370SOL    HW174551   0.434   3.406   3.424 -0.9389  0.2250  1.5129
24370SOL    HW274552   0.301   3.391   3.353  0.0767  0.1115 -0.4201
24371SOL     OW74553   6.158   1.789   2.768  0.0909 -0.9652 -0.2505
24371SOL    HW174554   6.097   1.782   2.694  1.0202 -1.7650 -0.9623
24371SOL    HW274555   6.213   1.865   2.746 -0.3261 -0.5393  0.1576
24372SOL     OW74556   7.206   3.223   4.286  0.0727 -0.5169 -0.3667
24372SOL    HW174557   7.184   3.153   4.347 -1.4032  0.6539  0.5181
24372SOL    HW274558   7.144   3.294   4.307  1.4182  1.0150 -1.3003
24373SOL     OW74559   1.651   1.617  12.026 -0.1644 -0.3202 -0.3749
24373SOL    HW174560   1.608   1.537  12.056 -1.3721  0.2344 -0.5961
24373SOL    HW274561   1.628   1.683  12.091 -0.1977  0.1359 -0.8465
24374SOL     OW74562   7.725   3.927   4.685 -0.5052  0.0105  0.1354
24374SOL    HW174563   7.661   3.867   4.723 -1.1785  0.6324  0.0084
24374SOL    HW274564   7.678   3.971   4.614 -0.1901  1.0684  0.5653
24375SOL     OW74565   0.440   1.784   1.873  0.1728 -0.3528  0.6005
24375SOL    HW174566   0.485   1.838   1.808 -0.4348 -1.2075 -0.5616
24375SOL    HW274567   0.448   1.833   1.954 -0.0732  1.3187 -0.3515
24376SOL     OW74568   7.580   4.480   4.107 -0.4317  0.2463 -0.3893
24376SOL    HW174569   7.486   4.465   4.112 -0.4156 -1.3230 -2.7574
24376SOL    HW274570   7.592   4.528   4.025  0.7235  2.2284  0.8544
24377SOL     OW74571   0.033   3.678   3.560  0.3057  0.7205  0.1802
24377SOL    HW174572  -0.062   3.681   3.561  0.3420  2.3723  1.0789
24377SOL    HW274573   0.058   3.713   3.475  0.1169 -0.9277 -0.5891
24378SOL     OW74574   7.568   0.759   4.662  0.4269 -0.3301  0.5832
24378SOL    HW174575   7.485   0.718   4.638  0.0681  1.1709 -0.9478
24378SOL    HW274576   7.634   0.716   4.607  0.3821 -0.3320  0.5313
24379SOL     OW74577   7.230   1.939   1.521 -0.1705 -0.1289  0.6129
24379SOL    HW174578   7.164   1.885   1.564  0.3782 -1.3692 -0.0624
24379SOL    HW274579   7.313   1.892   1.535  0.2654  0.3511 -0.2838
24380SOL     OW74580   7.468   3.199   4.124  0.1576  0.2190 -0.0851
24380SOL    HW174581   7.380   3.219   4.157  0.2957  1.5306 -0.4549
24380SOL    HW274582   7.508   3.145   4.192  0.4497  2.8452  1.9872
24381SOL     OW74583   7.412   4.623   2.484 -0.2449  0.5101 -0.2986
24381SOL    HW174584   7.328   4.666   2.500 -0.5097 -0.2148  0.3177
24381SOL    HW274585   7.473   4.695   2.465 -1.0164  1.0393 -0.8501
24382SOL     OW74586   0.323   4.372   3.871  0.1582 -0.7671 -0.1301
24382SOL    HW174587   0.340   4.355   3.964  0.4146  1.0141  0.1945
24382SOL    HW274588   0.373   4.452   3.853 -2.1662  0.5706 -1.0333
24383SOL     OW74589   6.650   3.354   3.306 -0.0707  0.0547  0.1309
24383SOL    HW174590   6.737   3.315   3.301  0.3565  0.8364  0.9968
24383SOL    HW274591   6.667   3.444   3.335 -1.1697  0.1894  0.3799
24384SOL     OW74592   7.365   2.324   0.622 -0.1526 -0.3491 -0.2143
24384SOL    HW174593   7.453   2.287   0.618  0.1741  0.3673  0.2921
24384SOL    HW274594   7.365   2.381   0.698 -0.7032  0.5485 -0.8583
24385SOL     OW74595   7.356   2.492   2.937  0.3660  0.0718  0.1388
24385SOL    HW174596   7.273   2.483   2.890  0.3701 -0.0940  0.1620
24385SOL    HW274597   7.423   2.495   2.869  0.3580 -0.0063  0.1271
24386SOL     OW74598   7.180   1.204   4.080  0.0185  0.1020  0.3235
24386SOL    HW174599   7.089   1.219   4.105  0.2009  1.0487  0.4749
24386SOL    HW274600   7.175   1.142   4.007 -0.7301  0.0107  0.4431
24387SOL     OW74601   7.261   4.261   4.655 -0.5506 -0.4504  0.0150
24387SOL    HW174602   7.230   4.307   4.734 -2.7121 -0.1747 -0.9368
24387SOL    HW274603   7.311   4.328   4.607 -2.2951  0.5131 -0.5612
24388SOL     OW74604   0.176   3.138   3.801  0.3624  0.1203 -0.4253
24388SOL    HW174605   0.217   3.071   3.747  0.0668 -0.6727  0.3163
24388SOL    HW274606   0.193   3.220   3.754  3.3471 -0.0667  0.1597
24389SOL     OW74607   0.357   2.669   2.521  0.0580 -0.3545 -0.2194
24389SOL    HW174608   0.409   2.607   2.469  0.2009 -1.0768  0.7463
24389SOL    HW274609   0.315   2.614   2.587  1.6357  0.7914  1.8352
24390SOL     OW74610   0.895   3.255   4.520  0.0850  0.0740  0.0433
24390SOL    HW174611   0.971   3.196   4.524 -0.7995 -1.1277 -0.2144
24390SOL    HW274612   0.932   3.342   4.532  1.5216 -0.4713 -0.1610
24391SOL     OW74613   7.738   3.505   3.440  0.4715  0.4399 -0.1138
24391SOL    HW174614   7.727   3.455   3.359  0.4500  0.8566 -0.3709
24391SOL    HW274615   7.712   3.594   3.416  0.2805  0.5235  0.4013
24392SOL     OW74616   2.019   1.672   3.452 -0.1826 -0.6810  0.0380
24392SOL    HW174617   1.963   1.722   3.393  0.7739 -0.6604 -0.8894
24392SOL    HW274618   2.076   1.738   3.493  0.9949 -0.9586 -1.0906
24393SOL     OW74619   7.817   1.940   4.343 -0.2990  0.3857 -0.8929
24393SOL    HW174620   7.889   1.971   4.400 -3.1949  1.6135  2.4702
24393SOL    HW274621   7.808   2.008   4.277  2.6657 -0.6940 -2.6452
24394SOL     OW74622   7.208   3.059   6.166  0.9792  0.4202 -0.5041
24394SOL    HW174623   7.122   3.060   6.125  1.1733  0.1982 -0.9274
24394SOL    HW274624   7.203   3.125   6.235 -0.1334 -0.9161  0.7438
24395SOL     OW74625   7.600   3.127   3.882 -0.0359 -0.2294 -0.2796
24395SOL    HW174626   7.537   3.170   3.939 -0.3770 -0.3371 -0.5741
24395SOL    HW274627   7.596   3.034   3.907 -0.2384 -0.2882 -0.5243
24396SOL     OW74628   0.615   3.098   4.747 -0.4703 -0.0657  0.6734
24396SOL    HW174629   0.586   3.128   4.661 -0.5463 -0.2022  0.6504
24396SOL    HW274630   0.700   3.057   4.731 -0.7000 -0.5149  0.5839
24397SOL     OW74631   0.386   3.943   5.044 -0.6060 -0.9223 -0.4280
24397SOL    HW174632   0.375   3.952   4.949 -0.8866 -0.2615 -0.3388
24397SOL    HW274633   0.336   4.016   5.081 -3.5876 -3.2032  0.4058
24398SOL     OW74634   7.224   2.516   4.584  0.0367 -0.3401 -0.5227
24398SOL    HW174635   7.150   2.498   4.525 -0.8280  0.4554  0.2746
24398SOL    HW274636   7.192   2.490   4.670  0.6131  0.2245 -0.1311
24399SOL     OW74637   1.198   3.106   4.477  0.3115 -0.0373  0.7037
24399SOL    HW174638   1.175   3.074   4.564 -0.2522 -0.8901  0.2581
24399SOL    HW274639   1.290   3.130   4.484  0.3320 -0.3216  1.4737
24400SOL     OW74640   0.549   1.902   5.208  0.4794 -0.1867 -0.4615
24400SOL    HW174641   0.538   1.955   5.129  3.5484  1.6395  0.1758
24400SOL    HW274642   0.633   1.858   5.197 -0.5385 -2.5604  0.4446
24401SOL     OW74643   7.036   3.528   3.266  0.3006  0.1886  0.0030
24401SOL    HW174644   7.103   3.551   3.330 -0.1877  1.7946 -0.0277
24401SOL    HW274645   6.955   3.521   3.316  0.0004  0.9904 -0.3568
24402SOL     OW74646   6.311   4.006   5.825 -0.0251  0.1313  0.4442
24402SOL    HW174647   6.280   3.925   5.785 -1.2572  0.8848 -0.1896
24402SOL    HW274648   6.240   4.033   5.883 -0.5889  1.8274 -0.9375
24403SOL     OW74649   6.944   2.688   5.105  0.1359 -0.1867 -0.1902
24403SOL    HW174650   6.980   2.653   5.186  0.5492  0.8984  0.1119
24403SOL    HW274651   6.888   2.761   5.132 -1.0536 -0.8534 -0.7743
24404SOL     OW74652   6.151   1.964   3.883  0.4143  0.4315 -0.4042
24404SOL    HW174653   6.151   1.870   3.867 -1.3510  0.4274 -0.6185
24404SOL    HW274654   6.200   1.974   3.965  0.9977 -0.6102 -0.6020
24405SOL     OW74655   0.446   2.020   3.927  0.9191 -0.0675  0.0260
24405SOL    HW174656   0.371   2.017   3.988 -0.7157 -0.5514 -1.9023
24405SOL    HW274657   0.439   2.106   3.886  2.2599  0.4191  0.7766
24406SOL     OW74658   7.650   3.584   5.647  0.3922 -0.6024  0.0194
24406SOL    HW174659   7.636   3.670   5.609  1.2987 -1.2122 -1.8170
24406SOL    HW274660   7.583   3.529   5.606  0.8742 -1.1097 -0.0984
24407SOL     OW74661   7.231   4.087   5.992 -0.1844 -0.4907  0.3758
24407SOL    HW174662   7.281   4.159   5.954 -3.3564  2.2176  0.8681
24407SOL    HW274663   7.281   4.060   6.069  1.3933  0.7485 -0.1747
24408SOL     OW74664   7.930   3.762   4.881 -0.6351 -0.1713  0.4357
24408SOL    HW174665   7.989   3.771   4.956 -0.5484 -0.9266  0.4643
24408SOL    HW274666   7.878   3.684   4.900 -2.0319  0.7864  0.6654
24409SOL     OW74667   1.059   4.344   5.421 -0.5698 -0.1607 -0.1400
24409SOL    HW174668   1.147   4.354   5.458 -0.5117  0.7645 -0.5022
24409SOL    HW274669   1.048   4.249   5.411  0.2670 -0.3019  0.1773
24410SOL     OW74670   0.583   3.635   3.903 -0.5649  0.1459  0.2290
24410SOL    HW174671   0.523   3.566   3.877 -0.8020  0.0765  0.9411
24410SOL    HW274672   0.581   3.634   3.999  0.6743  0.0455  0.2780
24411SOL     OW74673   0.294   2.507   2.846 -0.2875  0.4339  0.3417
24411SOL    HW174674   0.372   2.457   2.823 -0.0206  1.0161 -0.0438
24411SOL    HW274675   0.221   2.458   2.808  0.0326  0.6948 -0.6404
24412SOL     OW74676   0.106   1.902   3.676  0.6668 -0.1591  0.3574
24412SOL    HW174677   0.020   1.872   3.647  0.4041  0.8762  0.0436
24412SOL    HW274678   0.106   1.996   3.661  2.2628 -0.2822 -0.7268
24413SOL     OW74679   7.721   4.286   5.352 -0.3031 -0.2171 -0.2144
24413SOL    HW174680   7.798   4.299   5.298  1.0043  0.7703  1.7513
24413SOL    HW274681   7.752   4.239   5.429 -1.1319  1.9593  1.5972
24414SOL     OW74682   0.304   3.169   6.428  0.2022  0.0204 -0.1919
24414SOL    HW174683   0.298   3.253   6.383 -1.3218  0.7495  1.2547
24414SOL    HW274684   0.352   3.188   6.508  0.5254 -0.6587 -0.2224
24415SOL     OW74685   6.667   1.318   2.221  0.3667 -0.4582  0.2605
24415SOL    HW174686   6.686   1.410   2.203  2.0828 -0.6825  0.7273
24415SOL    HW274687   6.574   1.308   2.201 -0.6725  2.1034  3.0500
24416SOL     OW74688   1.145   1.556   3.511  0.2788 -0.3679 -0.3402
24416SOL    HW174689   1.148   1.651   3.522 -1.8129 -0.4192  1.3908
24416SOL    HW274690   1.088   1.542   3.435 -0.7251 -0.2162  0.3616
24417SOL     OW74691   6.405   2.539   3.304  0.4241  0.0117  0.2774
24417SOL    HW174692   6.462   2.502   3.237  0.2709  0.9213 -0.3746
24417SOL    HW274693   6.465   2.572   3.371  0.5695 -1.1231  0.7302
24418SOL     OW74694   0.356   1.963   4.336  0.1799  0.1559 -0.3109
24418SOL    HW174695   0.392   2.051   4.347  0.0003  0.4161 -1.5911
24418SOL    HW274696   0.298   1.970   4.260 -0.7517 -0.8052  0.2774
24419SOL     OW74697   7.494   1.678   4.807  0.0398 -0.3717 -0.3331
24419SOL    HW174698   7.468   1.768   4.826 -2.2104 -0.5493 -2.0581
24419SOL    HW274699   7.532   1.646   4.888  1.8024  2.3660  0.0802
24420SOL     OW74700   7.800   1.518   5.600 -0.1565  0.5103  0.0789
24420SOL    HW174701   7.842   1.434   5.581 -1.1815  0.6034 -3.1298
24420SOL    HW274702   7.855   1.583   5.557  0.6513  1.6063  2.5736
24421SOL     OW74703   7.579   2.092   3.985  0.1193 -0.4534  0.0333
24421SOL    HW174704   7.501   2.147   3.979  0.5876  0.1673 -0.4731
24421SOL    HW274705   7.547   2.004   3.964 -0.6025 -0.3579  0.6868
24422SOL     OW74706   7.441   2.066   7.236 -0.3919 -0.0746 -0.5037
24422SOL    HW174707   7.362   2.026   7.274  0.3497  0.0759  1.2743
24422SOL    HW274708   7.429   2.056   7.141 -2.6010  0.0633 -0.2981
24423SOL     OW74709   6.787   1.656   3.723  0.1448  0.0274 -0.3565
24423SOL    HW174710   6.823   1.660   3.635  1.4346  2.3009  0.2016
24423SOL    HW274711   6.739   1.739   3.733  0.7509  0.1997  1.3569
24424SOL     OW74712   1.854   1.761   4.319 -0.7591 -0.2709 -0.3480
24424SOL    HW174713   1.896   1.696   4.263  0.7188  2.0993 -2.1723
24424SOL    HW274714   1.816   1.825   4.259 -2.1594  0.6133  1.3527
24425SOL     OW74715   0.392   2.950   4.814 -0.3911 -0.3321 -0.2773
24425SOL    HW174716   0.478   2.992   4.812 -1.5298  2.4616  2.3799
24425SOL    HW274717   0.330   3.021   4.830 -2.7655 -2.6935  2.1429
24426SOL     OW74718   7.024   1.806   1.640  0.1259 -0.5091  0.2710
24426SOL    HW174719   6.941   1.833   1.602  1.3014  0.4272 -1.8001
24426SOL    HW274720   7.035   1.715   1.611  0.2751 -0.3107 -0.3076
24427SOL     OW74721   6.866   2.353   5.919  0.4761 -0.0679  0.5605
24427SOL    HW174722   6.865   2.396   5.833 -1.2705  1.7871  1.4261
24427SOL    HW274723   6.853   2.260   5.899  0.3483  0.2948 -1.1968
24428SOL     OW74724   6.027   1.218   3.828 -0.1983  0.4259  0.9137
24428SOL    HW174725   6.059   1.185   3.912 -0.8277 -0.7341  0.7221
24428SOL    HW274726   5.988   1.142   3.786  0.6287  0.8556 -0.7035
24429SOL     OW74727   0.408   2.236   5.879 -0.4686  0.9316  0.6454
24429SOL    HW174728   0.487   2.183   5.875 -0.0276  1.5682  0.6599
24429SOL    HW274729   0.439   2.324   5.902 -1.0978  1.3550 -0.0481
24430SOL     OW74730   6.420   3.427   4.701  0.4012  0.5899  0.4419
24430SOL    HW174731   6.375   3.374   4.766 -0.3338  1.8398  0.9723
24430SOL    HW274732   6.431   3.513   4.742  0.2659  1.2916 -0.9237
24431SOL     OW74733   6.581   0.503   4.146 -0.0623 -0.2278  0.0079
24431SOL    HW174734   6.497   0.540   4.117 -0.5024 -0.2825  1.1374
24431SOL    HW274735   6.625   0.576   4.190  0.2500 -0.3381 -0.1243
24432SOL     OW74736   1.729   3.299   6.094  0.7142 -0.1334  0.2922
24432SOL    HW174737   1.796   3.241   6.131  0.4893 -0.0980  0.7688
24432SOL    HW274738   1.655   3.290   6.154  0.2678 -0.2296 -0.2773
24433SOL     OW74739   2.359   1.758   4.232  0.2291  0.0461  0.3568
24433SOL    HW174740   2.305   1.721   4.303 -0.3201 -1.5077 -0.8149
24433SOL    HW274741   2.331   1.849   4.226 -1.4362 -0.4098  0.5640
24434SOL     OW74742   0.240   1.734   4.591 -0.9399 -0.0353  0.1712
24434SOL    HW174743   0.214   1.817   4.631 -0.1721  0.5784 -0.5632
24434SOL    HW274744   0.277   1.759   4.506  0.6132 -1.0093  0.5256
24435SOL     OW74745   6.936   1.767   4.356  0.2702 -0.3126  0.0144
24435SOL    HW174746   7.027   1.768   4.326  0.2339  1.1030 -0.1296
24435SOL    HW274747   6.933   1.833   4.426 -1.0160  1.0627 -1.2486
24436SOL     OW74748   6.954   3.748   4.519 -0.3526 -0.6626  0.1096
24436SOL    HW174749   6.873   3.733   4.470  0.1078 -0.9201 -0.5838
24436SOL    HW274750   6.984   3.834   4.489  0.2288 -1.0697 -0.4944
24437SOL     OW74751   7.840   2.729   4.861 -0.7459 -0.5639 -0.4422
24437SOL    HW174752   7.762   2.775   4.892 -0.4750 -0.3051 -0.1404
24437SOL    HW274753   7.831   2.729   4.765 -0.6003  0.3866 -0.4614
24438SOL     OW74754   1.041   1.237   6.517  0.2126  0.2010 -0.2361
24438SOL    HW174755   1.101   1.213   6.446 -0.8836  0.7414 -1.3750
24438SOL    HW274756   0.954   1.234   6.477 -0.4077  0.7779  1.0238
24439SOL     OW74757   1.398   1.871   4.287  0.6104 -0.6324 -0.0834
24439SOL    HW174758   1.461   1.843   4.354 -1.2357 -1.2440  1.4932
24439SOL    HW274759   1.343   1.936   4.332  0.2568  0.0826 -1.4904
24440SOL     OW74760   0.108   3.739   6.269  0.3990 -0.6857  0.4696
24440SOL    HW174761   0.204   3.746   6.271  0.2962  3.8024  0.3872
24440SOL    HW274762   0.085   3.763   6.179 -0.7654  2.5627  1.4905
24441SOL     OW74763   2.369   1.504   2.740  0.2665 -0.4437  0.2780
24441SOL    HW174764   2.412   1.563   2.678  0.0128  1.5898  1.9348
24441SOL    HW274765   2.429   1.500   2.815  0.1843 -2.1717  0.2923
24442SOL     OW74766   0.365   0.853   5.086 -0.2286 -0.2954 -0.0082
24442SOL    HW174767   0.413   0.872   5.006 -0.8573  1.7255  0.0441
24442SOL    HW274768   0.279   0.893   5.074 -0.6690 -0.7642  1.3051
24443SOL     OW74769   7.144   2.374   4.842  0.8692 -0.2274 -0.7935
24443SOL    HW174770   7.096   2.317   4.902 -0.1726 -0.5990 -1.9361
24443SOL    HW274771   7.233   2.376   4.877  0.7308 -1.8757 -0.2387
24444SOL     OW74772   1.219   0.834   5.651  0.1082  0.5219  0.7188
24444SOL    HW174773   1.158   0.779   5.700 -1.4578 -0.4152 -2.0499
24444SOL    HW274774   1.177   0.921   5.651 -0.3087  0.3241  0.3630
24445SOL     OW74775   7.186   3.392   4.011  0.3888 -0.1886 -0.1027
24445SOL    HW174776   7.113   3.335   3.987  0.6686 -0.5445 -0.1146
24445SOL    HW274777   7.260   3.358   3.961  0.8276 -0.5234  0.7608
24446SOL     OW74778   7.319   4.213   3.604 -0.2049  0.1534 -0.1766
24446SOL    HW174779   7.294   4.140   3.661  1.6142  0.7314  1.4575
24446SOL    HW274780   7.247   4.275   3.611 -0.3812 -0.1517  0.8581
24447SOL     OW74781   7.966   3.688   4.206  0.2427 -0.5339  0.0484
24447SOL    HW174782   7.883   3.690   4.158  0.4768 -3.8755 -0.7581
24447SOL    HW274783   8.020   3.627   4.156  1.9599 -1.0834  2.4271
24448SOL     OW74784   7.817   2.906   4.348 -0.4210 -0.8728  0.2416
24448SOL    HW174785   7.840   2.836   4.287 -0.6259 -0.9853  0.2939
24448SOL    HW274786   7.884   2.903   4.415 -0.5898 -1.2025  0.3951
24449SOL     OW74787   7.955   2.468   5.472 -0.3282 -0.1065 -0.0551
24449SOL    HW174788   8.020   2.472   5.402  0.1734  0.9681  0.4367
24449SOL    HW274789   7.886   2.528   5.444  0.8555  1.9944  1.2703
24450SOL     OW74790   7.576   2.310   3.108 -0.3579 -0.2240  0.7345
24450SOL    HW174791   7.591   2.322   3.201  0.3818  0.2005  0.5706
24450SOL    HW274792   7.497   2.361   3.089  0.5484  1.2645  0.7902
24451SOL     OW74793   6.426   3.341   3.511  0.6225 -0.2293 -0.2482
24451SOL    HW174794   6.477   3.389   3.576  0.8041  0.8391 -1.1550
24451SOL    HW274795   6.341   3.327   3.552  0.2968  1.5800 -0.2497
24452SOL     OW74796   6.303   2.549   4.108 -0.0697  0.2740 -0.1424
24452SOL    HW174797   6.322   2.612   4.178  2.2999 -2.1200  1.5757
24452SOL    HW274798   6.375   2.562   4.045 -0.0783 -0.0965 -0.2288
24453SOL     OW74799   0.267   3.589   5.561 -0.4128 -0.6646 -0.3936
24453SOL    HW174800   0.187   3.556   5.601  0.4617 -3.0180 -0.4332
24453SOL    HW274801   0.319   3.511   5.544  0.9367  0.6024 -2.4756
24454SOL     OW74802   1.102   2.829   3.340  0.1094  0.5960 -0.3393
24454SOL    HW174803   1.124   2.885   3.265  0.3180  1.2230  0.1773
24454SOL    HW274804   1.175   2.768   3.346 -1.0363 -1.0803 -2.1259
24455SOL     OW74805   1.088   3.512   4.308 -0.8056  0.3313  0.2829
24455SOL    HW174806   1.048   3.580   4.253  0.7459  0.4070 -0.8307
24455SOL    HW274807   1.094   3.436   4.251 -1.0342 -0.2434  1.0149
24456SOL     OW74808   0.679   2.118   6.374  0.3849  0.1787  0.4520
24456SOL    HW174809   0.651   2.201   6.412  1.5123  1.2146 -0.8560
24456SOL    HW274810   0.660   2.128   6.280 -0.5996 -1.5523  0.4227
24457SOL     OW74811   6.890   3.913   3.471 -0.4458  0.1157 -0.0935
24457SOL    HW174812   6.912   3.897   3.563 -0.1652  0.1338 -0.1569
24457SOL    HW274813   6.969   3.952   3.434 -1.1374  1.8309  0.0936
24458SOL     OW74814   6.960   3.235   6.499  0.0314  1.6070 -1.0624
24458SOL    HW174815   6.914   3.211   6.419  0.7729 -0.8854 -0.8377
24458SOL    HW274816   6.896   3.284   6.550 -2.9399 -2.5676 -0.2770
24459SOL     OW74817   0.443   0.993   7.595 -0.4206 -0.7366  0.3339
24459SOL    HW174818   0.370   0.971   7.538 -0.6532 -0.7380  0.6284
24459SOL    HW274819   0.500   0.916   7.593 -0.1147 -0.5033 -0.3754
24460SOL     OW74820   6.250   3.079   5.723 -0.3231  0.1573  0.1974
24460SOL    HW174821   6.276   3.002   5.773 -0.4686 -0.1301 -0.1605
24460SOL    HW274822   6.195   3.129   5.783 -1.1502 -0.5772  0.0757
24461SOL     OW74823   6.657   1.213   7.410  0.0426 -0.2084  0.2647
24461SOL    HW174824   6.595   1.235   7.340  0.3740 -0.6544 -0.1748
24461SOL    HW274825   6.709   1.293   7.421 -1.2666  0.5374  1.3604
24462SOL     OW74826   0.255   1.134   6.558  0.3446  0.2924 -0.2447
24462SOL    HW174827   0.167   1.115   6.527  0.4812 -1.5197  0.3509
24462SOL    HW274828   0.268   1.227   6.539 -1.2413  0.3132 -1.4105
24463SOL     OW74829   0.464   1.324   5.535 -0.3239  0.5335  0.1775
24463SOL    HW174830   0.375   1.290   5.547 -0.5011  1.5612  2.1617
24463SOL    HW274831   0.515   1.281   5.603  0.7406 -0.0337 -0.9351
24464SOL     OW74832   6.822   2.015   6.766 -0.5917  0.1123 -0.3741
24464SOL    HW174833   6.843   2.079   6.834  1.0006  1.5857 -2.1398
24464SOL    HW274834   6.904   1.967   6.752 -0.9639 -0.3479 -1.0439
24465SOL     OW74835   0.596   1.455   5.337  0.4211 -0.3756  0.3763
24465SOL    HW174836   0.565   1.545   5.341 -0.7167 -0.7954  1.7656
24465SOL    HW274837   0.564   1.415   5.418  2.2744 -1.6081  0.5378
24466SOL     OW74838   7.025   2.666   5.573 -0.0593  0.0784 -0.4612
24466SOL    HW174839   6.940   2.625   5.591  0.4101 -0.4736  0.5536
24466SOL    HW274840   7.042   2.645   5.481 -0.0412 -1.6695 -0.0899
24467SOL     OW74841   7.747   2.340   8.196 -0.5580  0.3073  0.0927
24467SOL    HW174842   7.762   2.247   8.217  0.9741  0.2574 -1.0652
24467SOL    HW274843   7.652   2.350   8.201 -0.9982 -1.8993 -1.8875
24468SOL     OW74844   0.076   4.143   6.849 -0.4416 -1.1649 -0.5805
24468SOL    HW174845   0.158   4.096   6.867 -1.2329 -2.7829 -1.0257
24468SOL    HW274846   0.020   4.123   6.924  0.3754  2.0582  1.0358
24469SOL     OW74847   6.217   3.763   5.706 -0.4525  0.3181 -0.1325
24469SOL    HW174848   6.122   3.775   5.716 -0.5407 -0.7403  0.4407
24469SOL    HW274849   6.237   3.688   5.762  0.7531  0.6216 -0.1440
24470SOL     OW74850   7.964   1.543   5.930  0.2463 -0.2256 -0.4749
24470SOL    HW174851   8.019   1.589   5.866  0.6574 -2.0434 -1.4765
24470SOL    HW274852   7.887   1.599   5.940  0.9546  0.9282 -1.2557
24471SOL     OW74853   6.619   0.647   5.720  0.2324 -0.1231  0.6240
24471SOL    HW174854   6.709   0.615   5.732  0.7601  1.0016 -0.2121
24471SOL    HW274855   6.612   0.663   5.626  0.0108  2.2201  1.0047
24472SOL     OW74856   7.448   5.200   7.512 -0.3694 -1.0830  0.4827
24472SOL    HW174857   7.480   5.260   7.445 -0.0831 -1.2568  0.4622
24472SOL    HW274858   7.366   5.239   7.542 -0.9932 -1.4827 -0.6366
24473SOL     OW74859   0.595   0.263   4.617  0.1809 -0.4003 -0.0270
24473SOL    HW174860   0.557   0.196   4.561  1.9216 -0.7588 -0.8465
24473SOL    HW274861   0.618   0.334   4.557  1.1070 -0.3418  0.3875
24474SOL     OW74862   7.136   2.204   4.502 -0.4418 -0.4271 -0.8847
24474SOL    HW174863   7.207   2.163   4.453  0.3607 -1.1145  0.7722
24474SOL    HW274864   7.165   2.202   4.593 -1.1658  2.2679 -0.5130
24475SOL     OW74865   7.083   4.662   6.958  0.4128 -0.6392 -0.4460
24475SOL    HW174866   7.086   4.650   6.863 -0.1630 -1.5664 -0.3511
24475SOL    HW274867   7.062   4.755   6.969  0.0733 -0.6178 -1.2238
24476SOL     OW74868   7.851   4.100   7.449 -0.1196 -0.1129 -0.0937
24476SOL    HW174869   7.909   4.111   7.524  0.8285  2.9995 -1.1168
24476SOL    HW274870   7.896   4.038   7.393  0.2627 -0.7510  0.8927
24477SOL     OW74871   0.059   1.345   6.336 -0.3722  0.4108 -0.9358
24477SOL    HW174872   0.094   1.284   6.271 -1.8980 -0.5604 -0.9044
24477SOL    HW274873   0.130   1.359   6.398  0.3318 -0.5625 -1.5045
24478SOL     OW74874   6.388   3.205   6.083  0.2541  0.2521 -0.5672
24478SOL    HW174875   6.351   3.192   6.171  2.3459 -1.0286  0.2137
24478SOL    HW274876   6.410   3.298   6.080 -1.5975  0.7180 -0.5069
24479SOL     OW74877   6.485   0.681   5.950 -0.1874 -0.1956 -0.3473
24479SOL    HW174878   6.545   0.658   5.879 -1.1046 -0.8120 -0.9472
24479SOL    HW274879   6.398   0.667   5.913 -0.6903 -0.0705  0.7545
24480SOL     OW74880   7.008   2.008   6.142  0.2312  0.8597 -0.0608
24480SOL    HW174881   6.926   2.057   6.151 -0.5591 -0.4016 -0.1621
24480SOL    HW274882   7.044   2.004   6.230  1.6103  3.7226 -0.3901
24481SOL     OW74883   0.222   1.230   5.318  0.7786  0.3673  0.3551
24481SOL    HW174884   0.296   1.170   5.316 -0.3756 -1.1078 -1.0616
24481SOL    HW274885   0.255   1.311   5.277  1.3986 -0.5491 -1.0310
24482SOL     OW74886   5.716   4.256   5.229  0.1653 -0.2306  0.1670
24482SOL    HW174887   5.737   4.206   5.150 -1.1316  0.3377 -0.5641
24482SOL    HW274888   5.622   4.243   5.242 -0.8603  3.8551 -1.4988
24483SOL     OW74889   7.238   1.700   5.119 -0.5285  0.4560 -0.3215
24483SOL    HW174890   7.147   1.675   5.139 -0.0444  0.5217  2.1929
24483SOL    HW274891   7.230   1.787   5.080 -1.6592 -0.4008 -2.1775
24484SOL     OW74892   6.387   1.446   7.202 -0.1396 -0.3454 -0.7678
24484SOL    HW174893   6.421   1.365   7.165  0.2543 -1.3199  1.5740
24484SOL    HW274894   6.430   1.515   7.151  1.4411 -1.5867 -1.2105
24485SOL     OW74895   0.475   0.903   7.240  0.2943  0.7415 -1.1665
24485SOL    HW174896   0.441   0.837   7.300  2.1634  0.1494 -0.7058
24485SOL    HW274897   0.450   0.872   7.153  0.3582 -0.1058 -0.8911
24486SOL     OW74898   5.941   3.556   6.205  0.2065  0.4161 -0.0197
24486SOL    HW174899   5.922   3.604   6.286 -0.8521  0.3514 -0.2147
24486SOL    HW274900   5.902   3.610   6.136 -1.2643 -0.8278 -0.2196
24487SOL     OW74901   7.853   1.858   4.652 -0.4179 -0.3443 -0.1464
24487SOL    HW174902   7.773   1.855   4.599  0.7440 -1.2750 -1.8981
24487SOL    HW274903   7.888   1.946   4.637  0.7704 -1.1294 -2.3195
24488SOL     OW74904   7.219   2.977   5.183 -0.0089 -0.9116 -0.2916
24488SOL    HW174905   7.123   2.971   5.182  0.0376 -2.5139 -2.1816
24488SOL    HW274906   7.248   2.886   5.187  1.5129 -0.3978  2.4619
24489SOL     OW74907   7.188   3.393   7.354  0.0218 -1.0799  0.6846
24489SOL    HW174908   7.212   3.309   7.315 -1.0519 -1.1747  0.1931
24489SOL    HW274909   7.098   3.409   7.324 -0.2793 -0.4079  1.8631
24490SOL     OW74910   6.683   2.394   7.575 -0.1889  0.4488 -0.2865
24490SOL    HW174911   6.624   2.398   7.650 -2.4304  1.6016 -1.9813
24490SOL    HW274912   6.728   2.310   7.584 -2.0793 -0.4795  1.1099
24491SOL     OW74913   7.370   1.631   7.695  0.5468 -0.2817 -0.4970
24491SOL    HW174914   7.399   1.630   7.786  1.0348  1.2849 -0.6079
24491SOL    HW274915   7.392   1.544   7.661  2.4216 -0.1246  0.2419
24492SOL     OW74916   7.512   2.842   6.988  0.0143  0.4896 -0.4881
24492SOL    HW174917   7.595   2.804   6.961  0.4020  1.3154 -0.4960
24492SOL    HW274918   7.449   2.770   6.981  0.5531  0.0823 -1.3503
24493SOL     OW74919   6.820   1.198   8.214 -0.0995  0.3431 -0.0186
24493SOL    HW174920   6.745   1.139   8.210 -1.0330  1.5545 -2.9389
24493SOL    HW274921   6.895   1.143   8.190 -0.2657 -0.4909  1.2566
24494SOL     OW74922   5.706   2.551   8.366  0.3689  0.1730 -0.1744
24494SOL    HW174923   5.713   2.500   8.448  1.4800 -0.7012 -0.7843
24494SOL    HW274924   5.615   2.579   8.364  0.0808 -0.5841  0.9085
24495SOL     OW74925   7.065   1.593   7.751  0.3547 -0.1694 -0.6619
24495SOL    HW174926   7.078   1.523   7.814  1.6391  0.6752  0.0411
24495SOL    HW274927   7.151   1.606   7.710  0.2687  1.2909 -0.4435
24496SOL     OW74928   7.384   2.167   7.904  0.0899 -0.3902  0.0783
24496SOL    HW174929   7.403   2.260   7.914  0.4862 -0.6080  1.6147
24496SOL    HW274930   7.458   2.123   7.945 -0.1514 -1.3846 -0.5234
24497SOL     OW74931   7.081   2.483   7.460 -0.2174  0.0167 -0.0694
24497SOL    HW174932   7.128   2.404   7.433  0.5380  0.1184  0.9152
24497SOL    HW274933   7.003   2.484   7.404 -0.8092 -2.0133  0.6103
24498SOL     OW74934   7.959   1.351   6.851  0.0044 -0.0500 -0.6281
24498SOL    HW174935   8.043   1.381   6.816  0.5140  0.0370  0.6105
24498SOL    HW274936   7.973   1.348   6.946 -1.5465  0.4194 -0.3651
24499SOL     OW74937   1.354   3.159   6.713  0.1639  0.5087  0.0907
24499SOL    HW174938   1.303   3.080   6.695 -1.4094  1.2377  1.1406
24499SOL    HW274939   1.290   3.230   6.708  1.0002  1.4354  1.7214
24500SOL     OW74940   7.129   1.611   6.188  0.0458  0.1057  0.0977
24500SOL    HW174941   7.093   1.531   6.226 -0.2167  0.8427  1.4424
24500SOL    HW274942   7.223   1.595   6.182 -0.0762 -0.5343 -0.2628
24501SOL     OW74943   6.935   1.249   6.805  0.0941  0.2093  0.0554
24501SOL    HW174944   6.917   1.343   6.801 -1.3801 -0.0199  0.5905
24501SOL    HW274945   6.859   1.212   6.850 -0.5561 -1.5578 -2.2957
24502SOL     OW74946   7.912   1.519   8.018 -0.2693 -0.0261 -0.1470
24502SOL    HW174947   7.891   1.448   8.078 -0.4917 -0.0221 -0.2165
24502SOL    HW274948   7.897   1.599   8.069 -1.1685 -0.0068 -0.4221
24503SOL     OW74949   7.526   1.197   6.374 -0.4741  0.0779 -0.4136
24503SOL    HW174950   7.496   1.247   6.450  0.4646 -0.8779  0.6066
24503SOL    HW274951   7.612   1.233   6.353 -0.5676  0.0838 -0.8083
24504SOL     OW74952   6.253   3.131   7.172  0.5617 -0.0252  0.1729
24504SOL    HW174953   6.198   3.188   7.118 -1.6108 -1.1888  1.0222
24504SOL    HW274954   6.246   3.045   7.130  1.5843 -0.2435  0.4347
24505SOL     OW74955   7.087   0.989   4.296  0.5451  0.5061  0.2254
24505SOL    HW174956   7.095   0.895   4.314  0.4238  0.2366 -1.0701
24505SOL    HW274957   7.017   0.996   4.232  2.0306  1.2563 -1.3894
24506SOL     OW74958   6.569   2.426   7.199  0.1813 -0.3102  0.0265
24506SOL    HW174959   6.653   2.440   7.155  0.4171 -0.6508  0.3568
24506SOL    HW274960   6.505   2.470   7.143  0.5515 -0.2275 -0.3405
24507SOL     OW74961   6.872   2.448   7.074 -0.5618  0.0217 -0.2623
24507SOL    HW174962   6.842   2.439   7.165  1.6370 -0.8438  0.4417
24507SOL    HW274963   6.966   2.465   7.081  0.2092 -2.5957 -2.3699
24508SOL     OW74964   5.966   3.876   6.751 -0.3078 -0.0386 -0.0214
24508SOL    HW174965   5.939   3.891   6.660 -0.4168 -1.5039 -0.2555
24508SOL    HW274966   5.890   3.834   6.792 -0.0938  0.2035  0.6344
24509SOL     OW74967   6.398   0.880   6.334  0.4920 -0.1955 -0.5896
24509SOL    HW174968   6.407   0.789   6.303  3.1284 -0.8032  1.5653
24509SOL    HW274969   6.486   0.904   6.362 -0.4059  2.6098  0.0909
24510SOL     OW74970   0.344   2.242   7.436  0.4717  0.7076  0.5604
24510SOL    HW174971   0.321   2.153   7.409 -1.2728  1.0097  0.9501
24510SOL    HW274972   0.410   2.270   7.372 -0.9310  0.1028 -1.2554
24511SOL     OW74973   7.849   3.643   6.346  0.3972  0.2365  0.5565
24511SOL    HW174974   7.797   3.686   6.278  0.9698  2.2972  1.3346
24511SOL    HW274975   7.939   3.669   6.327  0.8097 -0.8956  0.8953
24512SOL     OW74976   6.529   1.182   7.138 -0.1057  0.1473 -0.3010
24512SOL    HW174977   6.506   1.234   7.061 -0.6584  1.3514  0.6256
24512SOL    HW274978   6.596   1.121   7.108  0.3839  1.2442 -1.5081
24513SOL     OW74979   0.745   1.579   9.083 -0.0209 -0.4298 -0.1083
24513SOL    HW174980   0.771   1.492   9.115  3.6448  0.0383 -1.3524
24513SOL    HW274981   0.719   1.565   8.992  0.3491 -0.2446 -0.2422
24514SOL     OW74982   6.241   1.905   4.339 -0.2990  0.1095  0.3046
24514SOL    HW174983   6.159   1.895   4.387 -0.1814  2.0690  1.0009
24514SOL    HW274984   6.308   1.915   4.406  0.1170  1.1096 -0.2330
24515SOL     OW74985   0.283   1.606   5.473  0.1537  0.0063 -0.2288
24515SOL    HW174986   0.288   1.562   5.558 -2.7642 -0.2963 -0.1262
24515SOL    HW274987   0.356   1.669   5.475  0.2321 -0.0587  2.4559
24516SOL     OW74988   1.283   4.530   8.075  0.1032 -0.2693  0.4086
24516SOL    HW174989   1.281   4.567   7.987  0.7549 -0.0704  0.4674
24516SOL    HW274990   1.202   4.559   8.116 -0.6982 -1.2168 -0.4585
24517SOL     OW74991   5.694   2.501   8.873 -0.6571 -0.1889 -0.1513
24517SOL    HW174992   5.674   2.595   8.870  0.3842  0.0938  0.8789
24517SOL    HW274993   5.621   2.459   8.828 -2.7530  0.8869  2.0581
24518SOL     OW74994   6.980   1.864   5.243  0.1243  0.0069  0.0825
24518SOL    HW174995   7.019   1.937   5.195 -0.5026  0.2277 -0.1055
24518SOL    HW274996   6.948   1.905   5.324  0.0285 -0.1140  0.1048
24519SOL     OW74997   0.394   3.730   5.997 -0.2203 -0.0815 -0.1466
24519SOL    HW174998   0.344   3.767   5.925  0.3825 -0.2873 -0.6870
24519SOL    HW274999   0.457   3.670   5.955  0.2353 -0.1034  0.5330
24520SOL     OW75000   6.833   2.574   8.557  0.0305  0.8564  0.4421
24520SOL    HW175001   6.893   2.559   8.629 -0.8664 -0.1348  1.0090
24520SOL    HW275002   6.752   2.605   8.599  0.1160  2.1580 -0.2977
24521SOL     OW75003   0.027   4.794   5.015 -0.1885 -0.6714 -0.1398
24521SOL    HW175004   0.088   4.790   5.088 -0.0273 -0.4569 -0.2609
24521SOL    HW275005  -0.060   4.797   5.055 -0.1135 -0.8561  0.0350
24522SOL     OW75006   7.448   2.065   8.755 -0.6206  0.7114  0.0779
24522SOL    HW175007   7.528   2.115   8.736  0.8102 -1.5759 -0.3213
24522SOL    HW275008   7.436   2.075   8.850  0.4388  0.6946  0.2265
24523SOL     OW75009   1.001   3.677   8.935 -0.0861 -0.0930  0.2093
24523SOL    HW175010   0.937   3.649   9.001 -0.0668  0.6495  0.5587
24523SOL    HW275011   1.082   3.633   8.961  0.4228  1.6965  1.8712
24524SOL     OW75012   7.663   3.125   8.072  0.5589 -0.5941 -0.3255
24524SOL    HW175013   7.705   3.156   7.992  1.1579 -3.7985 -1.4128
24524SOL    HW275014   7.581   3.175   8.077  2.0473  2.1268 -0.9585
24525SOL     OW75015   0.504   3.182   8.825  0.1957 -0.1451 -0.0145
24525SOL    HW175016   0.443   3.247   8.791 -1.6487 -0.6146  2.1694
24525SOL    HW275017   0.519   3.122   8.752 -1.1668  0.5528 -0.9008
24526SOL     OW75018   5.507   2.213  10.038 -0.2133 -0.4184  0.4334
24526SOL    HW175019   5.478   2.178   9.954  0.6121  0.6780 -0.3396
24526SOL    HW275020   5.431   2.206  10.095 -1.0137 -0.5015 -0.6169
24527SOL     OW75021   7.882   2.817   7.092  0.4755 -0.2418  0.2309
24527SOL    HW175022   7.911   2.726   7.092  3.4512  0.5726  1.9242
24527SOL    HW275023   7.827   2.825   7.170 -0.8706 -0.8262 -0.6282
24528SOL     OW75024   5.316   2.985   9.016 -0.3593  0.6287  0.1018
24528SOL    HW175025   5.308   3.043   9.092 -0.4157  0.9042 -0.1120
24528SOL    HW275026   5.336   3.044   8.943  0.7811  0.2624  0.0953
24529SOL     OW75027   5.465   3.830   8.354 -0.6342 -1.1562 -0.6371
24529SOL    HW175028   5.442   3.830   8.261 -2.1321 -1.8213 -0.3020
24529SOL    HW275029   5.383   3.809   8.399 -0.8420  2.5017  1.0852
24530SOL     OW75030   0.203   1.919   8.693 -0.3157  0.1165 -0.5663
24530SOL    HW175031   0.260   1.994   8.678 -0.9303  0.8782  0.7444
24530SOL    HW275032   0.115   1.950   8.671 -0.8050  0.3299  1.5082
24531SOL     OW75033   6.647   3.253   7.642  0.2798 -0.0860  0.1568
24531SOL    HW175034   6.696   3.299   7.711  0.1346 -1.1843  1.0222
24531SOL    HW275035   6.615   3.174   7.685 -1.0557 -0.0838 -0.7880
24532SOL     OW75036   0.765   2.887   8.386  0.1650  0.5304 -0.6243
24532SOL    HW175037   0.832   2.888   8.318 -0.3432  0.4296 -1.1313
24532SOL    HW275038   0.684   2.910   8.341 -0.2980 -0.2043 -0.1805
24533SOL     OW75039   7.858   3.221   8.241 -0.5813 -0.2459  0.2419
24533SOL    HW175040   7.872   3.158   8.312 -0.9648  0.5152  1.0210
24533SOL    HW275041   7.779   3.190   8.197  0.0400 -1.1020 -0.2898
24534SOL     OW75042   7.034   1.986   8.176 -0.2473 -0.0945  0.2230
24534SOL    HW175043   6.959   1.946   8.131 -0.5061  0.3470  0.2591
24534SOL    HW275044   7.059   2.059   8.120  0.5429 -0.6004 -0.0974
24535SOL     OW75045   0.059   2.672   8.661 -0.1069  0.1147  0.4623
24535SOL    HW175046   0.071   2.606   8.593  2.0484  0.1831  0.7082
24535SOL    HW275047   0.012   2.743   8.618 -0.0999 -0.4698 -0.5226
24536SOL     OW75048   5.767   1.821   9.743  0.2643 -0.2389 -0.3911
24536SOL    HW175049   5.700   1.752   9.749 -1.4469  1.3082 -0.8891
24536SOL    HW275050   5.750   1.863   9.658  0.3283  1.6837  0.5100
24537SOL     OW75051   0.178   4.168   8.840  0.1678  0.6620  0.4001
24537SOL    HW175052   0.180   4.245   8.784  1.2548  0.3760  0.0290
24537SOL    HW275053   0.086   4.141   8.840 -0.0476  1.3600 -0.2844
24538SOL     OW75054   1.242   0.545   8.782 -0.0958  0.0863 -0.1941
24538SOL    HW175055   1.221   0.620   8.837  0.7844 -1.0981  1.8476
24538SOL    HW275056   1.279   0.583   8.702  0.3937  1.8192  0.8256
24539SOL     OW75057   0.462   3.608   9.012  0.0876 -0.2820 -0.4168
24539SOL    HW175058   0.392   3.546   9.032 -0.8723  1.3618  1.7948
24539SOL    HW275059   0.427   3.664   8.943 -0.0350 -0.6051 -0.6174
24540SOL     OW75060   6.803   1.927   8.021 -0.1594 -0.3539  0.3240
24540SOL    HW175061   6.768   1.941   7.933 -0.5010 -1.3634  0.2824
24540SOL    HW275062   6.835   1.837   8.020  0.3674 -0.1840  1.0592
24541SOL     OW75063   7.045   2.176   8.399  0.0425  0.1385 -0.2203
24541SOL    HW175064   7.019   2.099   8.349  0.5490  0.2990 -0.7342
24541SOL    HW275065   7.122   2.148   8.449  0.1583  0.2752 -0.3207
24542SOL     OW75066   1.659   3.204   9.022  0.1675 -0.2355 -0.2779
24542SOL    HW175067   1.602   3.129   9.007 -1.5055  0.8750  0.1559
24542SOL    HW275068   1.623   3.273   8.966  0.0587  0.9702  1.1798
24543SOL     OW75069   0.807   4.455   8.879 -0.0395 -0.3416  0.8547
24543SOL    HW175070   0.869   4.498   8.938  1.1344 -0.6466 -0.1172
24543SOL    HW275071   0.752   4.526   8.846  0.2176  0.0302  1.2082
24544SOL     OW75072   1.463   1.567   7.217 -0.8565 -0.5056 -0.1629
24544SOL    HW175073   1.434   1.537   7.131 -2.6835  0.4289  0.0636
24544SOL    HW275074   1.516   1.496   7.252 -1.6952 -1.7097 -1.2707
24545SOL     OW75075   0.998   1.191   8.145  0.0360  0.9198  0.3373
24545SOL    HW175076   1.006   1.096   8.130  1.7064  0.7330  2.0494
24545SOL    HW275077   1.007   1.230   8.058 -0.7531 -0.4704 -0.4148
24546SOL     OW75078   6.668   1.561   7.428 -0.2682  0.6969  0.3638
24546SOL    HW175079   6.724   1.580   7.504 -0.1165 -0.9494  0.7021
24546SOL    HW275080   6.579   1.581   7.458 -0.2971 -0.6549  1.2675
24547SOL     OW75081   7.686   1.795   7.661 -0.0266 -0.3499  0.2493
24547SOL    HW175082   7.615   1.753   7.710 -0.6482  0.8708  0.4371
24547SOL    HW275083   7.659   1.886   7.654  1.6717  0.2128  0.5974
24548SOL     OW75084   7.817   3.167   9.588  0.2583 -0.1457 -0.0445
24548SOL    HW175085   7.753   3.210   9.531 -0.4703 -0.6676  0.3693
24548SOL    HW275086   7.882   3.131   9.528 -0.1146 -0.0684 -0.5006
24549SOL     OW75087   7.020   3.036   7.314 -0.7322  0.0258  0.0102
24549SOL    HW175088   7.034   3.088   7.393 -1.5229  0.7657 -0.3203
24549SOL    HW275089   7.107   3.005   7.290 -0.4691 -0.1516  1.1255
24550SOL     OW75090   7.886   2.800   8.455 -0.1888  0.2928 -0.3913
24550SOL    HW175091   7.923   2.788   8.368 -1.8986  0.4163 -1.1791
24550SOL    HW275092   7.855   2.713   8.481 -1.3254  0.5889 -0.7120
24551SOL     OW75093   0.412   2.656   8.907  0.2409  0.0910  0.3454
24551SOL    HW175094   0.462   2.704   8.973  1.8517 -0.1527 -0.6576
24551SOL    HW275095   0.400   2.718   8.836  0.6555 -0.3873 -0.1511
24552SOL     OW75096   7.029   3.799   7.554  0.0366 -0.1196 -0.3178
24552SOL    HW175097   7.033   3.859   7.479 -2.1835  1.0636  0.4179
24552SOL    HW275098   7.029   3.857   7.631 -3.0874 -0.8654  0.4003
24553SOL     OW75099   1.162   0.431   8.019 -0.2100  0.6098  0.0396
24553SOL    HW175100   1.237   0.382   7.986 -0.8354 -0.4286  0.1189
24553SOL    HW275101   1.153   0.505   7.958 -0.0189 -0.0672 -0.8321
24554SOL     OW75102   0.660   2.211   8.170 -0.2765 -0.5880  0.4463
24554SOL    HW175103   0.709   2.219   8.251  2.0916  0.9310 -1.0321
24554SOL    HW275104   0.708   2.264   8.107 -1.8013 -1.9946 -2.0724
24555SOL     OW75105   1.330   2.719   9.495 -0.1338  0.4114  0.0690
24555SOL    HW175106   1.398   2.767   9.542 -0.3851 -0.7534  1.7272
24555SOL    HW275107   1.364   2.710   9.406  0.6925  2.0882  0.1847
24556SOL     OW75108   1.292   2.405   8.280 -0.1970 -0.3835  0.0756
24556SOL    HW175109   1.204   2.417   8.245 -0.5572 -0.4733  0.9165
24556SOL    HW275110   1.334   2.490   8.269 -0.3856 -0.3392 -0.3253
24557SOL     OW75111   6.606   2.247  10.737 -0.2271  0.0732  0.3612
24557SOL    HW175112   6.523   2.210  10.768 -0.9012  0.4712 -0.8963
24557SOL    HW275113   6.632   2.189  10.665  0.7204 -0.1750  0.8793
24558SOL     OW75114   7.879   4.132  10.152  0.2550 -0.1783  0.6903
24558SOL    HW175115   7.927   4.049  10.154 -0.2785 -0.5720 -0.9123
24558SOL    HW275116   7.795   4.112  10.192  0.7012  0.0239  1.7642
24559SOL     OW75117   7.770   4.276  10.848  0.1142 -0.0458 -0.0532
24559SOL    HW175118   7.700   4.318  10.797  0.9034  0.3245 -0.8553
24559SOL    HW275119   7.788   4.194  10.801  2.0236  1.0743 -1.4523
24560SOL     OW75120   5.996   1.538   6.704 -0.5104 -0.5458 -1.2154
24560SOL    HW175121   5.910   1.506   6.731  0.1744 -0.7877  0.7764
24560SOL    HW275122   6.006   1.505   6.614 -0.8660 -3.8857 -0.1461
24561SOL     OW75123   7.601   0.466  10.306  0.1144  0.3115 -0.5943
24561SOL    HW175124   7.536   0.502  10.245 -0.9328 -0.4422  0.0379
24561SOL    HW275125   7.619   0.378  10.272 -0.0518  0.0992 -0.1380
24562SOL     OW75126   7.182   4.789   9.287 -0.0231 -1.2119  0.2063
24562SOL    HW175127   7.253   4.846   9.259 -0.9597 -0.6426 -1.0834
24562SOL    HW275128   7.120   4.848   9.330 -0.4256 -1.4479 -0.0447
24563SOL     OW75129   7.341   4.242   8.668  0.0690  0.3694  0.0699
24563SOL    HW175130   7.406   4.214   8.604 -1.6742  0.4760 -1.8715
24563SOL    HW275131   7.377   4.215   8.752  1.6083 -1.5323 -1.1044
24564SOL     OW75132   7.348   2.438   9.271  0.3687  0.5502  0.1480
24564SOL    HW175133   7.409   2.372   9.238  0.0518  0.8366 -1.0580
24564SOL    HW275134   7.336   2.498   9.198 -0.5973  1.0457  0.6925
24565SOL     OW75135   0.420   4.024   9.639 -0.6514 -0.2600 -0.1078
24565SOL    HW175136   0.344   4.075   9.669 -0.2068  0.9568 -0.9822
24565SOL    HW275137   0.385   3.968   9.570 -0.7131  0.4671 -0.6709
24566SOL     OW75138   1.308   2.854   9.905 -0.4407 -0.4790  0.5031
24566SOL    HW175139   1.243   2.790   9.936 -0.4227 -0.1306  1.2918
24566SOL    HW275140   1.390   2.827   9.945  0.6612 -2.6860 -2.8010
24567SOL     OW75141   6.335   1.602   9.894  0.3666 -0.4766 -0.4375
24567SOL    HW175142   6.313   1.626   9.803  1.7659  0.6428 -0.5107
24567SOL    HW275143   6.289   1.519   9.908  0.2938 -0.7947 -2.2380
24568SOL     OW75144   7.662   1.801   8.399 -0.0628  0.5322  0.1736
24568SOL    HW175145   7.699   1.888   8.411 -2.6801  2.2506 -2.6729
24568SOL    HW275146   7.612   1.785   8.479 -2.0194  3.1480 -0.3755
24569SOL     OW75147   6.949   2.710   9.651 -0.3862  0.7871 -0.1656
24569SOL    HW175148   6.860   2.740   9.632 -0.5178  1.1846  0.9779
24569SOL    HW275149   7.006   2.780   9.619 -0.5529  1.0545  0.1154
24570SOL     OW75150   1.449   2.225   8.053  0.3894 -0.1648 -0.2461
24570SOL    HW175151   1.455   2.135   8.086  1.4969 -0.0166  0.0180
24570SOL    HW275152   1.424   2.277   8.130 -0.1280 -0.2343 -0.3692
24571SOL     OW75153   6.908   3.254   8.590  0.2691  0.1868  0.3943
24571SOL    HW175154   6.988   3.247   8.643  2.4440 -1.6505 -2.7225
24571SOL    HW275155   6.890   3.164   8.563 -2.4824  0.6708  0.3884
24572SOL     OW75156   6.058   2.188   8.972 -0.0066  0.0371 -0.0136
24572SOL    HW175157   6.004   2.267   8.971 -1.1904 -0.7207  1.1723
24572SOL    HW275158   6.133   2.209   8.916 -0.4528  1.8800  0.0318
24573SOL     OW75159   6.874   5.108   9.956 -0.1086 -0.1584  0.8814
24573SOL    HW175160   6.938   5.041   9.933 -0.3658  0.4254 -1.8467
24573SOL    HW275161   6.792   5.060   9.966  0.0083 -0.4561  0.4468
24574SOL     OW75162   7.128   2.183   8.010  0.2256  0.2364 -0.1578
24574SOL    HW175163   7.224   2.189   8.007  0.3134  0.3957  1.9355
24574SOL    HW275164   7.100   2.215   7.924  1.9636  2.2497 -0.0486
24575SOL     OW75165   6.395   3.410   8.727 -0.0771  0.0072 -0.0603
24575SOL    HW175166   6.390   3.320   8.695  1.3688  0.3236 -1.3200
24575SOL    HW275167   6.444   3.404   8.809  0.7658 -0.2831 -0.5718
24576SOL     OW75168   7.198   4.163   6.439  1.0105 -0.3807  0.3901
24576SOL    HW175169   7.125   4.129   6.387  0.6384  1.4579 -0.3371
24576SOL    HW275170   7.185   4.125   6.526  0.2648 -1.5479 -0.2053
24577SOL     OW75171   6.867   2.017   8.757 -0.5930 -0.3779  0.0360
24577SOL    HW175172   6.907   2.084   8.813  1.8072 -1.8725  0.2280
24577SOL    HW275173   6.798   2.065   8.710  0.2094  1.9390  1.0275
24578SOL     OW75174   5.014   3.460  10.667 -0.4772  0.4570 -0.1419
24578SOL    HW175175   4.961   3.381  10.659 -2.4149  1.6916 -0.0524
24578SOL    HW275176   5.018   3.478  10.761  1.7587 -0.6443  0.0358
24579SOL     OW75177   7.972   0.690   8.814 -0.1392 -0.0633 -0.0631
24579SOL    HW175178   7.911   0.623   8.844 -0.7027  0.2902 -0.4118
24579SOL    HW275179   8.051   0.675   8.866 -1.2340  0.8320  1.9844
24580SOL     OW75180   6.873   1.643   8.001 -0.4945  0.1975  0.1454
24580SOL    HW175181   6.968   1.657   7.992 -0.7111  1.2697 -0.6821
24580SOL    HW275182   6.865   1.589   8.079  0.9494 -2.0262 -1.1155
24581SOL     OW75183   7.458   3.336   9.512  0.1439  0.1771 -0.1467
24581SOL    HW175184   7.380   3.378   9.549  1.0057 -0.7356  2.9113
24581SOL    HW275185   7.527   3.401   9.522  0.6261 -0.4876  0.8984
24582SOL     OW75186   7.836   3.046   8.501 -0.1701 -0.5532  0.1975
24582SOL    HW175187   7.898   3.070   8.569  1.5399 -0.6781 -1.2570
24582SOL    HW275188   7.846   2.952   8.490 -1.3575 -0.7543  0.6007
24583SOL     OW75189   6.970   5.185   6.887  0.2220  0.4003  0.1643
24583SOL    HW175190   6.981   5.183   6.982  1.4370 -0.5796  0.0223
24583SOL    HW275191   7.031   5.252   6.856  2.7193 -1.8734 -0.2094
24584SOL     OW75192   7.790   3.268   7.868  0.7792  0.1528 -0.2827
24584SOL    HW175193   7.852   3.341   7.861  0.0557  0.7478 -0.6660
24584SOL    HW275194   7.803   3.218   7.788  1.5947 -0.4066  0.1876
24585SOL     OW75195   1.682   2.553   7.963 -0.0802 -0.1372 -0.5167
24585SOL    HW175196   1.614   2.535   7.898 -1.2488  0.2670  0.5606
24585SOL    HW275197   1.747   2.484   7.950 -1.8298 -1.9334 -0.0206
24586SOL     OW75198   6.750   4.815   9.790 -0.1615 -0.4151  0.2581
24586SOL    HW175199   6.789   4.822   9.877  1.8458  0.8074 -0.6780
24586SOL    HW275200   6.824   4.793   9.732 -0.7764  2.0171 -1.6105
24587SOL     OW75201   6.963   1.451   9.819  0.5599  0.5133  0.4644
24587SOL    HW175202   6.960   1.516   9.890 -0.4918  0.3024  0.6254
24587SOL    HW275203   6.946   1.501   9.740 -1.6902  0.2599  0.7341
24588SOL     OW75204   6.117   3.559  10.500  0.1844  0.4088 -0.4410
24588SOL    HW175205   6.074   3.549  10.415 -0.3056 -1.5103 -0.0097
24588SOL    HW275206   6.057   3.613  10.551 -0.1411  0.4730 -0.8850
24589SOL     OW75207   0.337   3.772   9.503  0.3572  0.0572  0.5954
24589SOL    HW175208   0.353   3.685   9.468  1.7403  0.3729  0.3897
24589SOL    HW275209   0.346   3.762   9.598  0.6801  0.0046  0.5598
24590SOL     OW75210   0.202   3.017   8.385 -0.4032  0.2730 -0.0022
24590SOL    HW175211   0.205   2.928   8.350 -0.7569  0.0605  0.4966
24590SOL    HW275212   0.177   3.071   8.310  0.4422  0.0429 -0.4590
24591SOL     OW75213   6.416   1.911  11.226 -0.2434  0.3363 -0.6196
24591SOL    HW175214   6.437   1.834  11.174 -2.4166 -0.0888 -0.9328
24591SOL    HW275215   6.332   1.942  11.192 -0.6817  1.3102  1.2084
24592SOL     OW75216   7.499   3.144  10.257  0.4645 -0.5758 -0.2338
24592SOL    HW175217   7.536   3.231  10.238 -0.2981  0.1035  1.1957
24592SOL    HW275218   7.477   3.108  10.171 -3.1641  2.4456 -0.8195
24593SOL     OW75219   0.176   5.292  11.662  0.2534 -0.0884 -0.3858
24593SOL    HW175220   0.097   5.307  11.610 -0.1327 -0.9395 -0.0663
24593SOL    HW275221   0.144   5.255  11.744  0.6989  2.9640  1.2962
24594SOL     OW75222   7.317   3.460  10.058  0.3673  0.2804  0.2998
24594SOL    HW175223   7.260   3.391  10.092 -1.1903  1.0341 -0.6959
24594SOL    HW275224   7.294   3.538  10.108  0.3671  0.6359 -0.2373
24595SOL     OW75225   7.093   1.788  10.287 -0.3701  0.2318  0.3928
24595SOL    HW175226   7.067   1.779  10.379 -0.7899  0.7025  0.3217
24595SOL    HW275227   7.185   1.764  10.286 -0.1342  1.0730  1.0918
24596SOL     OW75228   6.776   4.401   9.107  0.5567 -0.2233 -0.4062
24596SOL    HW175229   6.689   4.369   9.081  0.7364 -0.7092 -0.4143
24596SOL    HW275230   6.837   4.342   9.063  0.8729 -0.8171  0.8153
24597SOL     OW75231   7.053   2.315   7.787  0.5658 -0.1858  0.3825
24597SOL    HW175232   6.962   2.307   7.814  0.6022 -1.7977  0.1246
24597SOL    HW275233   7.057   2.274   7.701  1.5093 -0.0792  0.3634
24598SOL     OW75234   7.816   3.914   9.501 -0.1677  0.5584  0.2666
24598SOL    HW175235   7.804   3.881   9.411 -3.8180 -0.4212  0.9328
24598SOL    HW275236   7.863   3.844   9.546  0.9887  0.7069 -0.6666
24599SOL     OW75237   7.271   2.082  10.720 -0.7149 -0.1565  0.1284
24599SOL    HW175238   7.333   2.023  10.677 -0.5389 -0.0627  0.2480
24599SOL    HW275239   7.295   2.169  10.686  1.0147  0.2680  2.1708
24600SOL     OW75240   7.853   4.317   9.740 -0.3425  0.3528 -0.0033
24600SOL    HW175241   7.817   4.276   9.661 -0.6869  0.7246 -0.0378
24600SOL    HW275242   7.884   4.403   9.710 -1.6935  1.0505  0.5283
24601SOL     OW75243   0.193   5.031  10.727 -0.2474  0.5882 -0.1631
24601SOL    HW175244   0.200   5.127  10.724 -1.1988  0.6476 -1.2227
24601SOL    HW275245   0.115   5.011  10.676 -0.3332 -0.7383  0.4545
24602SOL     OW75246   6.858   5.701  10.685  0.0962 -0.1196  0.7928
24602SOL    HW175247   6.767   5.676  10.672 -0.1352  0.8503  0.4277
24602SOL    HW275248   6.857   5.759  10.761  0.4050 -0.1387  0.8124
24603SOL     OW75249   6.830   2.258  10.224  0.0982 -0.2985  0.1346
24603SOL    HW175250   6.871   2.344  10.213 -0.0539  0.0729  2.1393
24603SOL    HW275251   6.904   2.198  10.239  0.1450 -0.3821 -0.3968
24604SOL     OW75252   0.422   4.024  10.359 -0.5026  0.3017 -0.0469
24604SOL    HW175253   0.358   4.054  10.424 -0.8165  0.9787 -0.6477
24604SOL    HW275254   0.379   3.951  10.315  0.5462 -1.6463  1.9161
24605SOL     OW75255   2.265   1.981   9.410  0.2585 -0.3472  0.3285
24605SOL    HW175256   2.175   1.959   9.386 -0.0358  1.0067  0.1016
24605SOL    HW275257   2.259   2.065   9.455  1.4824  0.1362 -0.3491
24606SOL     OW75258   6.481   3.242  10.266  0.1704  0.5466 -0.2053
24606SOL    HW175259   6.566   3.230  10.306 -0.6196  1.9564  2.0445
24606SOL    HW275260   6.419   3.241  10.339 -1.6760  0.3380 -1.6878
24607SOL     OW75261   0.331   2.779  10.963 -0.1029  0.1973  0.4192
24607SOL    HW175262   0.284   2.814  11.039  1.5890 -0.0248  1.6223
24607SOL    HW275263   0.422   2.805  10.977  0.2802  0.0060 -1.4693
24608SOL     OW75264   5.694   5.664   8.509 -0.0490 -0.3135  0.2840
24608SOL    HW175265   5.689   5.584   8.562  2.0916 -1.2588 -0.8604
24608SOL    HW275266   5.777   5.705   8.534 -0.2655  0.6121 -0.4534
24609SOL     OW75267   5.565   0.564   8.832 -0.2900 -0.0085 -0.0288
24609SOL    HW175268   5.556   0.498   8.900  2.5116 -0.7210 -0.2061
24609SOL    HW275269   5.581   0.646   8.879 -2.7268  0.4477  0.1625
24610SOL     OW75270   7.539   0.394  10.571  0.1570  0.8519  0.7731
24610SOL    HW175271   7.520   0.301  10.574 -0.6935  1.0177  0.9223
24610SOL    HW275272   7.537   0.417  10.478  1.8501  0.4468  0.6164
24611SOL     OW75273   7.598   3.723   8.631  0.0651  0.1700  0.3508
24611SOL    HW175274   7.513   3.680   8.640 -1.2508  2.9072  3.1780
24611SOL    HW275275   7.599   3.756   8.541 -0.4632 -2.3446 -0.6699
24612SOL     OW75276   7.486   3.622  10.335 -0.0007 -0.2920  0.4236
24612SOL    HW175277   7.417   3.576  10.384  0.9891 -0.4908  1.6853
24612SOL    HW275278   7.504   3.566  10.260 -0.4331 -0.7889  0.6879
24613SOL     OW75279   7.915   4.097   9.150 -0.1678 -0.1172  0.3960
24613SOL    HW175280   7.932   4.059   9.063  2.0114 -0.7058  1.0125
24613SOL    HW275281   7.826   4.131   9.144 -0.4807 -1.1216 -1.7207
24614SOL     OW75282   6.994   2.688   9.933  0.3863 -0.2379  0.2398
24614SOL    HW175283   6.991   2.763   9.873  1.2647  1.2580  1.9556
24614SOL    HW275284   7.026   2.616   9.880  2.7418  1.4197 -0.7919
24615SOL     OW75285   0.252   3.671  11.476 -0.1045 -0.0266 -0.0689
24615SOL    HW175286   0.272   3.742  11.537  0.8037 -0.0667 -0.2989
24615SOL    HW275287   0.159   3.682  11.455 -0.1546  0.6381  0.4823
24616SOL     OW75288   0.874   1.315  10.116  0.0064 -0.1397 -0.3467
24616SOL    HW175289   0.829   1.383  10.065  0.8618  2.7502  2.4334
24616SOL    HW275290   0.946   1.287  10.060 -0.7977  0.6972 -1.8817
24617SOL     OW75291   7.669   4.532   9.954  0.5982 -0.4400 -0.0198
24617SOL    HW175292   7.586   4.552   9.998 -0.8956  0.7383 -3.0546
24617SOL    HW275293   7.671   4.437   9.949 -0.9944 -0.4788 -0.5465
24618SOL     OW75294   7.326   3.705   9.430 -0.0512  0.0908 -0.3345
24618SOL    HW175295   7.399   3.713   9.491 -0.3155  1.1990 -0.1357
24618SOL    HW275296   7.367   3.701   9.344  0.2754 -0.0123 -0.1733
24619SOL     OW75297   7.146   1.027  10.422  0.0671  0.6281 -0.8008
24619SOL    HW175298   7.179   1.059  10.505 -0.9966 -0.8304  0.2289
24619SOL    HW275299   7.072   1.085  10.401 -1.2703 -0.5088  0.5864
24620SOL     OW75300   7.043   3.587   8.508  0.1824  0.6292 -0.2355
24620SOL    HW175301   7.132   3.566   8.480  0.9507  1.1194  1.7303
24620SOL    HW275302   7.031   3.679   8.483 -0.1822  0.2870 -1.4114
24621SOL     OW75303   1.946   3.105  11.146 -0.2344 -0.0390 -0.4514
24621SOL    HW175304   1.944   3.111  11.051 -1.3034  1.3609 -0.3650
24621SOL    HW275305   1.857   3.078  11.171  0.3660 -1.6658  0.1145
24622SOL     OW75306   0.610   2.788  11.055 -0.3743  0.5158 -0.0687
24622SOL    HW175307   0.678   2.806  10.990  0.7457 -1.3791  0.5028
24622SOL    HW275308   0.644   2.824  11.137  0.4779 -1.3283  0.4346
24623SOL     OW75309   0.402   1.034  10.192  0.7128  0.6407 -0.0711
24623SOL    HW175310   0.419   1.127  10.208  1.4330  0.6010 -0.5258
24623SOL    HW275311   0.339   1.009  10.259 -0.9495  1.9009 -1.0544
24624SOL     OW75312   0.973   3.663  10.260 -0.2982 -0.3020 -0.2614
24624SOL    HW175313   0.949   3.572  10.280 -1.0228  0.1804  1.1644
24624SOL    HW275314   1.062   3.656  10.223 -0.2965 -1.5729 -0.0751
24625SOL     OW75315   7.732   5.791  12.274 -0.1630  0.2939 -0.0918
24625SOL    HW175316   7.716   5.850  12.200 -0.4343  1.0106  0.5311
24625SOL    HW275317   7.683   5.712  12.252 -1.3090  0.9850 -0.0813
24626SOL     OW75318   6.049   4.154   9.570 -0.1800  0.3142 -0.3310
24626SOL    HW175319   5.968   4.130   9.615 -1.0765  2.4863 -0.6509
24626SOL    HW275320   6.042   4.112   9.484 -1.1157  0.6710 -0.4438
24627SOL     OW75321   1.251   4.547  11.238 -0.0280 -0.2671  0.0765
24627SOL    HW175322   1.238   4.600  11.317  0.3414 -0.2082  0.0977
24627SOL    HW275323   1.337   4.572  11.206 -0.5536  0.3703 -0.8606
24628SOL     OW75324   7.920   2.008   9.444 -0.0537  0.1926 -0.2780
24628SOL    HW175325   7.908   1.954   9.366 -1.6340 -2.3194  1.5385
24628SOL    HW275326   7.992   1.965   9.491 -1.0402 -0.1280  0.9818
24629SOL     OW75327   6.486   2.088   9.563  0.3298 -0.2300 -0.1554
24629SOL    HW175328   6.434   2.008   9.558 -0.5079  0.2571  0.6305
24629SOL    HW275329   6.423   2.159   9.551  0.5874  0.4220  1.9309
24630SOL     OW75330   6.811   3.852  10.217  0.3323  0.6780  0.4121
24630SOL    HW175331   6.785   3.942  10.199  1.5420  0.9604 -0.0244
24630SOL    HW275332   6.804   3.843  10.312  0.1273  1.1984  0.4482
24631SOL     OW75333   0.358   4.517   9.837 -0.2333  0.6309 -0.1920
24631SOL    HW175334   0.298   4.498   9.764 -1.0152  1.0475  0.3235
24631SOL    HW275335   0.443   4.531   9.795 -0.8297  1.6675 -1.1319
24632SOL     OW75336   5.720   0.295   8.922  0.0890 -0.2899 -0.0941
24632SOL    HW175337   5.725   0.224   8.986  0.3338  0.6695  0.9633
24632SOL    HW275338   5.676   0.255   8.847 -1.7010 -1.0159  1.2602
24633SOL     OW75339   7.188   3.740  12.035  0.3397  0.4846 -0.6169
24633SOL    HW175340   7.223   3.733  11.946  1.5801  1.1118 -0.2034
24633SOL    HW275341   7.126   3.668  12.042  0.8331 -0.0703 -1.7159
24634SOL     OW75342   0.731   1.131  10.693 -0.1261  0.0318  0.0274
24634SOL    HW175343   0.818   1.102  10.722 -0.6725 -0.7456  0.9900
24634SOL    HW275344   0.734   1.226  10.701  0.4397 -0.0255  0.6799
24635SOL     OW75345   0.813   5.190  11.706 -0.4070  0.0087 -0.1469
24635SOL    HW175346   0.809   5.262  11.769  0.1930 -0.0301 -0.0602
24635SOL    HW275347   0.810   5.232  11.620  0.7608  0.1980 -0.1066
24636SOL     OW75348   0.030   3.663   8.839  0.1721  0.1336  0.9876
24636SOL    HW175349  -0.033   3.595   8.862  0.5740  0.0902  2.0118
24636SOL    HW275350   0.005   3.690   8.750 -0.2707 -1.0179  0.7476
24637SOL     OW75351   5.664   3.438  12.050  0.2040  0.3820 -0.7810
24637SOL    HW175352   5.725   3.428  12.123 -2.2101 -0.1330  1.2959
24637SOL    HW275353   5.668   3.354  12.004  1.2996  0.4941 -0.9130
24638SOL     OW75354   6.390   3.620  10.459  0.1135 -0.6815 -0.1003
24638SOL    HW175355   6.305   3.608  10.503 -0.0537 -0.2617 -0.3005
24638SOL    HW275356   6.386   3.560  10.384 -0.2942 -0.1532 -0.5087
24639SOL     OW75357   7.556   2.537  10.431 -0.0604  0.1853 -0.1019
24639SOL    HW175358   7.610   2.598  10.481 -1.1306  0.2734  0.9992
24639SOL    HW275359   7.534   2.584  10.350 -1.8205  1.7689  1.2139
24640SOL     OW75360   6.832   3.318   9.212  0.1711  0.0071 -0.7046
24640SOL    HW175361   6.866   3.243   9.261  1.0438  0.3869 -0.7193
24640SOL    HW275362   6.836   3.391   9.273 -0.8760  0.0086 -0.6249
24641SOL     OW75363   2.258   3.880  12.018  0.3739 -0.4500 -0.0138
24641SOL    HW175364   2.236   3.972  12.032 -1.3544 -0.9248  0.6926
24641SOL    HW275365   2.353   3.877  12.022  0.4068  1.0712  1.5731
24642SOL     OW75366   7.897   4.108   8.806 -0.1417 -0.2139  0.2578
24642SOL    HW175367   7.826   4.066   8.757  0.7314  1.4057 -2.6284
24642SOL    HW275368   7.865   4.196   8.825  0.8680  0.3927 -0.7012
24643SOL     OW75369   6.399   2.840   9.114 -0.1829  0.1949  0.3040
24643SOL    HW175370   6.341   2.915   9.101 -2.5274 -1.5463  0.0275
24643SOL    HW275371   6.424   2.813   9.026 -2.4909 -1.5657  0.0941
24644SOL     OW75372   1.004   3.111  10.894  0.2890 -0.1950 -0.1985
24644SOL    HW175373   1.075   3.106  10.829  0.0057  1.5226 -0.6848
24644SOL    HW275374   0.942   3.174  10.857  0.4877  1.4342  2.0645
24645SOL     OW75375   0.100   1.822   8.939  0.3461 -0.2311 -0.0351
24645SOL    HW175376   0.117   1.844   8.848  1.8085  0.1964  0.3026
24645SOL    HW275377   0.019   1.868   8.961  1.0264  1.3033 -0.5803
24646SOL     OW75378   7.833   7.833   9.880 -0.4105  0.7132  0.1858
24646SOL    HW175379   7.893   7.800   9.947 -1.3704 -0.1052  0.6894
24646SOL    HW275380   7.887   7.887   9.823  0.6250  0.6712  1.0883
24647SOL     OW75381   6.776   1.829  11.174  0.3794 -0.0307  0.1403
24647SOL    HW175382   6.691   1.842  11.132  0.6667 -0.4379 -0.5787
24647SOL    HW275383   6.787   1.734  11.180  0.8135  0.0162  0.1663
24648SOL     OW75384   1.461   2.782  12.236 -0.1419  0.4717 -0.5573
24648SOL    HW175385   1.438   2.813  12.324 -2.0670  1.3952 -1.3477
24648SOL    HW275386   1.551   2.812  12.223 -0.0695  0.9336  0.8110
24649SOL     OW75387   0.022   2.139   8.994  0.1180  0.3490  0.2330
24649SOL    HW175388  -0.073   2.133   8.985 -0.0034  1.1168  0.7963
24649SOL    HW275389   0.045   2.222   8.952  0.3711  0.7530  1.1317
24650SOL     OW75390   0.391   3.716  10.975  0.4706 -0.4392  0.4569
24650SOL    HW175391   0.445   3.670  10.911  0.0850  0.0381 -0.2232
24650SOL    HW275392   0.430   3.694  11.060  0.1417 -2.2627  0.1928
24651SOL     OW75393   7.865   2.088  11.906 -0.3099 -0.2733  0.3865
24651SOL    HW175394   7.904   2.145  11.840 -0.0993  0.0405  0.7804
24651SOL    HW275395   7.791   2.047  11.861 -1.1027  1.0925  0.3989
24652SOL     OW75396   7.763   3.639  10.803 -0.1285 -0.1536 -0.1522
24652SOL    HW175397   7.711   3.633  10.724 -0.4989 -2.5606  0.1998
24652SOL    HW275398   7.822   3.564  10.799 -1.2007 -1.2875  2.4982
24653SOL     OW75399   7.526   1.185   0.234  0.6532 -0.1273  0.0609
24653SOL    HW175400   7.569   1.270   0.227  0.9882 -0.1485  1.5326
24653SOL    HW275401   7.445   1.195   0.183  0.1228  1.4729  1.1245
24654SOL     OW75402   7.959   3.090  11.881  0.9334 -0.1741  0.1357
24654SOL    HW175403   8.037   3.070  11.933  0.1384 -1.4251  0.9220
24654SOL    HW275404   7.921   3.004  11.862 -0.6430  0.4237  0.3962
24655SOL     OW75405   1.283   3.568   0.267 -0.5491  0.8439  0.0140
24655SOL    HW175406   1.308   3.563   0.175  0.6908  0.8441  0.3337
24655SOL    HW275407   1.323   3.648   0.299  0.5367 -0.0355  0.9702
24656SOL     OW75408   0.744   3.665  11.461  0.0741 -0.5277 -0.5453
24656SOL    HW175409   0.807   3.702  11.523  0.1032 -0.0092 -0.8771
24656SOL    HW275410   0.798   3.640  11.385  0.0798 -1.4137 -0.2571
24657SOL     OW75411   0.886   4.365  10.402 -0.4091  0.0397  0.0564
24657SOL    HW175412   0.880   4.307  10.327 -2.0392 -0.3741  0.4727
24657SOL    HW275413   0.805   4.416  10.400 -1.9379 -1.9624  3.0723
24658SOL     OW75414   7.224   4.659  12.468 -0.1414  0.0766 -0.0119
24658SOL    HW175415   7.213   4.625  12.379  0.0701  2.6508 -1.1141
24658SOL    HW275416   7.317   4.645  12.487 -0.6150 -2.4308  0.7299
24659SOL     OW75417   0.100   1.763  11.059 -0.0954 -0.0371  0.0829
24659SOL    HW175418   0.061   1.836  11.107  0.2377  0.0551  0.2153
24659SOL    HW275419   0.094   1.789  10.967  0.2293  0.2557  0.1463
24660SOL     OW75420   0.400   3.100  11.838 -0.4130  0.4635 -0.1420
24660SOL    HW175421   0.473   3.037  11.833 -0.7834 -0.0442  0.8142
24660SOL    HW275422   0.359   3.095  11.751 -0.4866 -0.6768 -0.0542
24661SOL     OW75423   6.187   4.713   1.159 -0.3287  0.4728 -0.0039
24661SOL    HW175424   6.208   4.646   1.224 -1.4522  1.5911  1.5908
24661SOL    HW275425   6.167   4.791   1.211 -0.0660  1.7749 -1.7578
24662SOL     OW75426   7.279   3.457   0.129 -0.0055 -0.5814  0.5350
24662SOL    HW175427   7.259   3.500   0.045 -0.1885 -0.3028  0.7209
24662SOL    HW275428   7.194   3.438   0.167  0.0749 -1.1156  0.4548
24663SOL     OW75429   2.170   2.315  11.565  0.4003 -0.5526 -0.3999
24663SOL    HW175430   2.250   2.333  11.615  1.4438 -1.9731 -1.4552
24663SOL    HW275431   2.132   2.237  11.605  0.7433 -1.1529 -1.2000
24664SOL     OW75432   0.606   2.917  11.749  0.3078 -0.6591  0.6939
24664SOL    HW175433   0.567   2.940  11.664  0.2892 -1.1042  0.5748
24664SOL    HW275434   0.636   2.827  11.737  0.8333 -0.5266  0.9763
24665SOL     OW75435   6.523   4.130  11.559  0.2729  0.1404 -0.4377
24665SOL    HW175436   6.614   4.132  11.588  0.0767  1.7815  0.1743
24665SOL    HW275437   6.505   4.219  11.528 -2.0000  0.8221  2.3614
24666SOL     OW75438   6.538   1.843   9.996 -0.3355  0.0546  0.8097
24666SOL    HW175439   6.470   1.897   9.957  0.7706  0.0601 -1.2399
24666SOL    HW275440   6.585   1.901  10.056 -0.7596  0.6376  0.5759
24667SOL     OW75441   6.950   4.149   0.806 -0.6273  0.4116  0.1220
24667SOL    HW175442   6.910   4.119   0.724 -1.6184 -0.0576  0.7664
24667SOL    HW275443   7.039   4.113   0.802 -0.9598 -0.4137 -0.3326
24668SOL     OW75444   3.030   1.913  10.730  0.4321  0.7012  0.6138
24668SOL    HW175445   3.024   1.825  10.768  1.8003 -0.0997 -0.8772
24668SOL    HW275446   3.069   1.966  10.799  0.7452 -0.1671  1.1293
24669SOL     OW75447   0.710   1.467   9.979 -0.0172 -0.1189 -0.4123
24669SOL    HW175448   0.656   1.400   9.935 -0.5862  0.1427 -0.1277
24669SOL    HW275449   0.743   1.522   9.908 -0.6210  0.0756 -0.5503
24670SOL     OW75450   6.990   2.285  11.669 -0.6733  0.3401 -0.2206
24670SOL    HW175451   6.966   2.255  11.756  1.3261 -2.4098 -0.4989
24670SOL    HW275452   7.074   2.329  11.680 -1.3664  1.7926 -0.5157
24671SOL     OW75453   7.295   1.463  10.704  0.8076 -0.6116 -0.2781
24671SOL    HW175454   7.271   1.552  10.731  1.1117 -0.8309  0.7801
24671SOL    HW275455   7.241   1.446  10.627  2.0648  1.1599 -1.6292
24672SOL     OW75456   3.690   2.597  10.659  0.0200 -0.1712 -0.4097
24672SOL    HW175457   3.664   2.521  10.712  0.5999  0.2632  0.5276
24672SOL    HW275458   3.626   2.599  10.588 -1.1846 -0.4082  0.6270
24673SOL     OW75459   7.458   2.077  11.594 -0.1197  0.6207 -0.2601
24673SOL    HW175460   7.490   2.144  11.534 -0.8409  0.9286 -0.3140
24673SOL    HW275461   7.371   2.054  11.560  0.3163 -0.6895 -0.5105
24674SOL     OW75462   7.388   1.477  11.323  0.2141  0.1417 -0.2015
24674SOL    HW175463   7.424   1.399  11.280  0.3862  0.1718 -0.1137
24674SOL    HW275464   7.418   1.550  11.268  0.8397  0.2202  0.2287
24675SOL     OW75465   7.980   1.854  12.369  0.1361  0.4800  0.7950
24675SOL    HW175466   7.895   1.895  12.356  0.4706  0.7682 -0.6735
24675SOL    HW275467   7.996   1.806  12.287  0.7769 -0.6875  1.5766
24676SOL     OW75468   0.257   1.399  11.503  0.3234  0.2633  0.0637
24676SOL    HW175469   0.351   1.417  11.505  0.1200  1.3414  0.5116
24676SOL    HW275470   0.216   1.485  11.508 -0.6973 -0.2251  0.3154
24677SOL     OW75471   0.146   3.935  12.067  0.2646  0.8479 -0.2154
24677SOL    HW175472   0.238   3.910  12.076 -0.3759 -2.3914 -1.1180
24677SOL    HW275473   0.140   3.976  11.981  0.5932 -0.9320 -1.1344
24678SOL     OW75474   7.941   3.299  12.241 -0.4374 -0.1819  0.0155
24678SOL    HW175475   7.907   3.384  12.269  1.6490  0.4550  0.8214
24678SOL    HW275476   7.951   3.249  12.322  2.7463  0.5682  0.2022
24679SOL     OW75477   6.440   4.297  12.090  0.1273  0.1703  0.1567
24679SOL    HW175478   6.516   4.272  12.142 -0.3404 -1.3363  0.1672
24679SOL    HW275479   6.462   4.383  12.055  2.1747 -0.5529 -0.4821
24680SOL     OW75480   7.346   2.361  12.064 -0.0205  0.2618  0.2857
24680SOL    HW175481   7.388   2.442  12.093  0.2835 -0.0053  0.6101
24680SOL    HW275482   7.417   2.310  12.025  0.0507 -0.3505  1.1692
24681SOL     OW75483   0.450   3.883   2.876  0.2837  0.2845 -0.7239
24681SOL    HW175484   0.437   3.788   2.864  1.3830 -0.1326  1.0404
24681SOL    HW275485   0.465   3.916   2.787 -1.4958 -0.9285 -1.5558
24682SOL     OW75486   1.084   0.437  11.863  0.2691  0.1696  0.1315
24682SOL    HW175487   1.160   0.469  11.912 -0.0645 -0.7605  1.3256
24682SOL    HW275488   1.073   0.498  11.791  2.4313  0.0807 -0.3299
24683SOL     OW75489   7.092   3.832  11.248 -0.6216 -0.6208  0.4444
24683SOL    HW175490   7.153   3.903  11.267  0.0087 -1.3799  1.4274
24683SOL    HW275491   7.120   3.761  11.306 -2.5459 -0.9511  1.0458
24684SOL     OW75492   7.575   3.646  12.353  0.6195  0.2529 -0.1070
24684SOL    HW175493   7.534   3.707  12.414 -3.2358 -1.1270 -1.0667
24684SOL    HW275494   7.634   3.700  12.300  0.3311  2.3444  1.6052
24685SOL     OW75495   6.213   4.432  11.843  0.4757  0.3299 -0.0477
24685SOL    HW175496   6.126   4.466  11.865 -0.5392 -1.1321 -1.5718
24685SOL    HW275497   6.208   4.413  11.749  1.4112 -2.5808  0.3894
24686SOL     OW75498   0.599   3.732   0.971 -0.4114  0.2559 -0.4944
24686SOL    HW175499   0.509   3.765   0.964 -1.3930 -1.4922  2.2025
24686SOL    HW275500   0.597   3.647   0.927 -0.2863 -0.1175  0.2115
24687SOL     OW75501   0.094   3.961   0.932 -0.2060  0.2146  0.0376
24687SOL    HW175502   0.136   4.015   0.999  0.5010  0.0068 -0.2284
24687SOL    HW275503   0.022   4.016   0.900 -0.5180  0.3423  0.9116
24688SOL     OW75504   0.566   2.204  10.640 -0.3793  0.0711  0.0796
24688SOL    HW175505   0.623   2.281  10.642 -0.7630  0.3400  0.9673
24688SOL    HW275506   0.534   2.194  10.730 -0.9163 -0.6920 -0.1776
24689SOL     OW75507   7.144   3.323  10.435 -0.1016  0.0672 -0.1566
24689SOL    HW175508   7.189   3.239  10.429 -0.7469 -0.3330  0.3754
24689SOL    HW275509   7.052   3.302  10.418 -0.5236  0.3787  1.5401
24690SOL     OW75510   0.267   3.424  11.209  0.3888 -0.0665  0.5024
24690SOL    HW175511   0.219   3.365  11.151 -0.1052  0.5584  0.2579
24690SOL    HW275512   0.355   3.428  11.172  1.4566 -3.1389  2.3171
24691SOL     OW75513   6.727   2.575  11.083 -0.2885  0.0714 -0.5574
24691SOL    HW175514   6.808   2.558  11.132 -0.4952 -0.3297 -0.3484
24691SOL    HW275515   6.723   2.670  11.077 -0.0341  0.1127 -0.1672
24692SOL     OW75516   6.813   4.375  11.621  0.1636 -0.0757  0.4757
24692SOL    HW175517   6.847   4.302  11.569 -0.5825 -0.4364  0.4853
24692SOL    HW275518   6.885   4.438  11.622  0.5464 -0.4796 -0.1728
24693SOL     OW75519   6.451   3.398   0.153 -0.4113 -0.7431 -0.0719
24693SOL    HW175520   6.377   3.365   0.204 -1.2496  0.1765 -0.6754
24693SOL    HW275521   6.422   3.393   0.062  1.2514 -2.8397 -0.5728
24694SOL     OW75522   2.203   2.364  10.876 -0.6658  0.5278 -0.7508
24694SOL    HW175523   2.264   2.346  10.804  0.0304 -2.0590  0.3535
24694SOL    HW275524   2.259   2.376  10.953 -1.4758  0.0311 -0.0612
24695SOL     OW75525   6.803   0.394  10.139  0.5599 -0.5677 -0.2056
24695SOL    HW175526   6.802   0.319  10.199 -0.3537  0.7926  1.6040
24695SOL    HW275527   6.723   0.384  10.088  0.2043 -0.5975  0.3470
24696SOL     OW75528   0.373   4.547  12.292  0.2494  0.2822  0.1945
24696SOL    HW175529   0.452   4.571  12.245 -1.3192  2.1421 -1.6929
24696SOL    HW275530   0.364   4.452  12.277  1.4914  0.2520 -0.5147
24697SOL     OW75531   0.262   3.020  11.611 -0.6710 -0.2791  0.3799
24697SOL    HW175532   0.192   3.071  11.570  0.3882 -0.1203 -1.3256
24697SOL    HW275533   0.304   2.975  11.538  1.4406  0.1662  1.2666
24698SOL     OW75534   6.905   3.732  11.044  0.6583 -0.1769 -0.6981
24698SOL    HW175535   6.972   3.775  11.097  0.5728 -0.6982 -0.1580
24698SOL    HW275536   6.939   3.736  10.954  1.3362 -0.2872 -0.4496
24699SOL     OW75537   1.997   5.483   0.082  0.2488  1.0048  0.4806
24699SOL    HW175538   2.073   5.534   0.053 -0.4318  0.8949 -1.6858
24699SOL    HW275539   1.993   5.410   0.021 -1.0531  0.4823  1.1635
24700SOL     OW75540   6.981   4.610   1.485 -0.2223 -0.5281  0.0359
24700SOL    HW175541   6.970   4.679   1.419  0.1086 -1.7055 -1.3095
24700SOL    HW275542   6.968   4.654   1.568 -1.9789  0.7637 -0.8611
24701SOL     OW75543   6.113   3.504   1.275  0.6505 -0.5005  1.2100
24701SOL    HW175544   6.158   3.450   1.340  0.3705 -2.3747 -0.0478
24701SOL    HW275545   6.056   3.442   1.229 -1.1028  1.2527  0.8747
24702SOL     OW75546   0.257   5.252   0.729 -0.0671 -0.5197  0.2131
24702SOL    HW175547   0.193   5.180   0.729  1.3370 -1.8173 -0.2147
24702SOL    HW275548   0.288   5.257   0.819 -1.4532  0.8024  0.6654
24703SOL     OW75549   0.705   5.357   0.471 -0.2277 -0.3070 -0.1451
24703SOL    HW175550   0.664   5.297   0.533  0.7913  0.1738  1.0469
24703SOL    HW275551   0.634   5.413   0.440 -0.4880  0.6686  2.0445
24704SOL     OW75552   0.248   5.738  12.359  0.7098 -0.1590  0.0247
24704SOL    HW175553   0.163   5.770  12.389  1.4746  2.2015 -0.1731
24704SOL    HW275554   0.275   5.676  12.428 -0.7905 -0.3594  0.4722
24705SOL     OW75555   0.383   6.037  12.428 -0.0687 -0.0041 -0.3131
24705SOL    HW175556   0.313   5.982  12.463  0.6381 -2.2096 -2.1254
24705SOL    HW275557   0.410   5.994  12.347  1.7149  2.1381 -0.9818
24706SOL     OW75558   5.743   4.774   0.139  0.1559  0.1874  0.0287
24706SOL    HW175559   5.701   4.704   0.190  0.8959  0.0362  0.4443
24706SOL    HW275560   5.821   4.732   0.101  1.9355  1.3413  2.1924
24707SOL     OW75561   6.934   4.264   1.355 -0.2604  0.1911  0.0140
24707SOL    HW175562   7.003   4.204   1.383 -0.0841  0.5752  0.4226
24707SOL    HW275563   6.913   4.315   1.434  0.2216  1.2731 -0.5244
24708SOL     OW75564   1.039   5.135   9.759 -0.4932  0.0545 -0.9747
24708SOL    HW175565   1.096   5.099   9.827 -0.7415  0.2355 -0.6713
24708SOL    HW275566   1.019   5.059   9.703 -1.7395 -0.4891  0.1677
24709SOL     OW75567   0.353   4.298   0.992 -0.1455  0.0094 -0.3267
24709SOL    HW175568   0.401   4.376   0.965 -0.2242 -0.0108 -0.5206
24709SOL    HW275569   0.419   4.245   1.039  0.6160 -1.0336 -2.4461
24710SOL     OW75570   0.710   4.972   1.006  0.5675 -0.5940 -0.2450
24710SOL    HW175571   0.685   4.980   0.914  0.6027 -1.3871 -0.3303
24710SOL    HW275572   0.747   5.058   1.029 -2.3554  0.7183 -0.0334
24711SOL     OW75573   7.302   6.157   4.192 -0.2221  0.4193 -0.6895
24711SOL    HW175574   7.388   6.152   4.234  0.6780  2.4156 -2.0640
24711SOL    HW275575   7.295   6.077   4.141 -0.0088 -0.6100  0.8554
24712SOL     OW75576   0.051   6.941   2.394  0.3204  0.0579  0.2209
24712SOL    HW175577   0.006   6.932   2.478 -0.9467 -0.2484 -0.4711
24712SOL    HW275578   0.128   6.994   2.414 -0.7277  1.2417  1.3037
24713SOL     OW75579   1.877   6.500   1.467 -0.2020 -0.0127 -0.1754
24713SOL    HW175580   1.852   6.414   1.503 -0.4990 -0.6058 -1.6921
24713SOL    HW275581   1.968   6.512   1.495 -0.4016 -0.4489  0.7107
24714SOL     OW75582   7.008   5.188   0.789  0.2213 -0.3823 -0.8558
24714SOL    HW175583   6.946   5.115   0.795  2.1293 -2.0210  0.2717
24714SOL    HW275584   7.088   5.148   0.754  0.8924  1.4906 -1.5608
24715SOL     OW75585   7.974   5.843  11.031  0.0353  0.0067  0.3615
24715SOL    HW175586   7.935   5.772  10.980 -1.8328  0.9095  0.4434
24715SOL    HW275587   8.035   5.800  11.091 -0.6142 -1.4614 -0.0024
24716SOL     OW75588   6.982   5.778  11.541  0.2377 -0.8049 -0.0005
24716SOL    HW175589   6.959   5.781  11.448  0.5836 -1.4565 -0.1129
24716SOL    HW275590   6.916   5.833  11.584  0.8093  0.5062 -0.7606
24717SOL     OW75591   0.788   4.687   1.711 -0.3456 -0.4800  0.1248
24717SOL    HW175592   0.791   4.753   1.780  0.8488 -1.7308  1.3307
24717SOL    HW275593   0.766   4.736   1.632 -1.6241  1.0174  1.3406
24718SOL     OW75594   1.598   4.004   2.357 -0.1753 -0.0239 -0.1321
24718SOL    HW175595   1.595   4.072   2.290 -0.2125  0.7059  0.5963
24718SOL    HW275596   1.680   4.021   2.404 -0.5839  0.0275  0.5721
24719SOL     OW75597   6.462   6.490   0.630 -0.2799 -0.0897 -0.5390
24719SOL    HW175598   6.379   6.488   0.677 -0.5916 -1.9498 -1.0769
24719SOL    HW275599   6.528   6.473   0.698 -0.6128 -1.4276 -0.5105
24720SOL     OW75600   7.901   4.892   0.529 -0.6692 -0.4128 -0.4882
24720SOL    HW175601   7.901   4.808   0.574 -1.4141 -0.3229 -0.3052
24720SOL    HW275602   7.810   4.921   0.532 -0.0379  1.6176  1.7495
24721SOL     OW75603   2.030   4.216  11.760  0.2160  0.0722 -0.0014
24721SOL    HW175604   2.029   4.120  11.760  0.4143  0.0562  0.7474
24721SOL    HW275605   2.111   4.239  11.806 -0.6364  0.5731  1.3393
24722SOL     OW75606   7.951   4.164   1.372  0.2490 -0.2928 -0.1089
24722SOL    HW175607   7.941   4.142   1.279 -0.6615 -1.8501  0.3187
24722SOL    HW275608   8.016   4.234   1.373 -0.6022  0.6028 -2.0105
24723SOL     OW75609   7.554   6.840  11.363  0.1534  0.3405 -0.0458
24723SOL    HW175610   7.489   6.875  11.425  0.1555  0.4456 -0.1023
24723SOL    HW275611   7.547   6.745  11.373  1.5143  0.3681  1.5216
24724SOL     OW75612   7.515   3.635   3.648  0.5590  0.1353  0.5160
24724SOL    HW175613   7.482   3.573   3.713 -0.5346  0.5023  0.3295
24724SOL    HW275614   7.585   3.587   3.603 -0.4890 -1.1054  0.1484
24725SOL     OW75615   0.711   4.344   3.142 -0.4254  0.0235  0.1606
24725SOL    HW175616   0.633   4.398   3.131 -0.3280  0.3684  1.0894
24725SOL    HW275617   0.679   4.254   3.135 -0.6289  0.1839 -1.1362
24726SOL     OW75618   1.886   3.808   2.110  0.0441  0.2727 -0.3790
24726SOL    HW175619   1.900   3.852   2.026  0.1934  1.0160  0.0203
24726SOL    HW275620   1.961   3.835   2.163 -0.1378 -0.0567  0.0476
24727SOL     OW75621   7.273   7.161   0.986 -0.2513  0.2662  0.1494
24727SOL    HW175622   7.246   7.250   1.006 -1.7295  0.0968 -0.9169
24727SOL    HW275623   7.194   7.108   1.001  0.4912 -0.8091  0.3949
24728SOL     OW75624   1.720   5.604   0.880  0.5093 -0.3040  0.2205
24728SOL    HW175625   1.640   5.644   0.913  0.8004 -0.3691  1.0241
24728SOL    HW275626   1.708   5.601   0.785 -0.9821 -1.4553  0.4077
24729SOL     OW75627   0.852   5.440   2.420 -0.7587 -0.1150  0.2557
24729SOL    HW175628   0.915   5.377   2.454  0.9093  0.6242 -1.2627
24729SOL    HW275629   0.893   5.526   2.435 -0.9212  0.3327 -1.6063
24730SOL     OW75630   1.080   6.586   0.146 -0.0461  0.0108 -0.4870
24730SOL    HW175631   1.087   6.591   0.050  0.0368 -1.2710 -0.5634
24730SOL    HW275632   1.132   6.660   0.177  1.0755 -0.3446 -1.4120
24731SOL     OW75633   7.000   4.167   3.378  0.4172  0.1529 -0.0540
24731SOL    HW175634   6.919   4.195   3.336  0.1772  1.5718  1.2869
24731SOL    HW275635   6.976   4.148   3.468  1.6911  1.4578  0.6107
24732SOL     OW75636   0.025   5.007   1.859  0.4875 -0.3632 -0.3501
24732SOL    HW175637  -0.064   4.975   1.846  0.8507 -2.4232  1.6122
24732SOL    HW275638   0.048   5.046   1.775 -1.8906 -0.6958 -1.2391
24733SOL     OW75639   0.991   3.509   0.289 -0.4491  0.2439 -0.5850
24733SOL    HW175640   1.070   3.565   0.289  0.4505 -0.9589  0.4844
24733SOL    HW275641   0.954   3.522   0.377 -0.8546 -0.0129 -0.7192
24734SOL     OW75642   7.530   5.228   0.807 -0.5020 -0.0497  0.1510
24734SOL    HW175643   7.533   5.133   0.817  2.7696 -0.0737  0.0711
24734SOL    HW275644   7.550   5.242   0.714 -1.9860  0.7481 -0.0770
24735SOL     OW75645   6.010   6.097   0.834 -0.0318  0.1120 -0.1957
24735SOL    HW175646   5.956   6.152   0.892  2.0511  0.7103  1.2978
24735SOL    HW275647   5.986   6.126   0.746 -1.7757  0.6841  0.4167
24736SOL     OW75648   0.641   3.967   0.504  0.5375 -0.3707 -0.0843
24736SOL    HW175649   0.655   3.962   0.599  1.5174  0.7612 -0.1480
24736SOL    HW275650   0.546   3.956   0.493  0.5798 -1.9479  0.8977
24737SOL     OW75651   0.635   5.964  12.046 -0.1661 -0.1712  0.2435
24737SOL    HW175652   0.591   5.957  12.131  0.2930  1.1244  0.6238
24737SOL    HW275653   0.704   6.030  12.061 -1.5501  1.8612 -1.7157
24738SOL     OW75654   0.305   5.346   1.685  0.2603 -1.0720  0.3814
24738SOL    HW175655   0.322   5.332   1.778 -1.0689 -0.0182  0.7948
24738SOL    HW275656   0.391   5.370   1.649  0.6238 -0.6417  1.4916
24739SOL     OW75657   0.367   4.250   1.652 -0.6421 -0.4653 -0.4971
24739SOL    HW175658   0.366   4.265   1.746  0.1635 -0.7372 -0.4432
24739SOL    HW275659   0.383   4.156   1.642  1.3649 -0.1156 -0.9135
24740SOL     OW75660   0.190   6.325   0.022 -0.4145  0.1677 -0.1912
24740SOL    HW175661   0.229   6.412   0.026  0.2400 -0.0439 -1.4408
24740SOL    HW275662   0.242   6.279  -0.044 -2.8494 -0.1115 -2.0200
24741SOL     OW75663   6.936   4.776   1.280 -0.2059  0.3210 -0.1105
24741SOL    HW175664   6.977   4.810   1.200 -1.8039 -0.5635 -1.3747
24741SOL    HW275665   6.854   4.826   1.288 -0.5100 -0.2509  0.4411
24742SOL     OW75666   0.129   5.583   4.226  0.0925 -0.8747  0.1700
24742SOL    HW175667   0.082   5.506   4.195 -2.3009  0.3465  0.5612
24742SOL    HW275668   0.147   5.565   4.318 -1.9129 -0.3422  0.6929
24743SOL     OW75669   6.564   3.834   0.463  0.6165  0.3543  0.6149
24743SOL    HW175670   6.496   3.834   0.530 -0.2772 -1.0432 -0.2430
24743SOL    HW275671   6.541   3.905   0.404  0.9277  1.0349  1.2960
24744SOL     OW75672   1.646   5.665   0.608 -0.4241 -0.0038  0.1367
24744SOL    HW175673   1.587   5.715   0.552  0.5192 -0.0461 -0.9193
24744SOL    HW275674   1.727   5.658   0.558  0.4422 -0.0604  1.5013
24745SOL     OW75675   1.267   4.261  12.380 -0.4665  1.0491  0.4610
24745SOL    HW175676   1.295   4.296  12.465  0.7378  0.9787  0.1178
24745SOL    HW275677   1.219   4.333  12.339  0.3944  1.6868  0.5299
24746SOL     OW75678   6.496   5.249   1.969  0.5504  0.2787 -0.3344
24746SOL    HW175679   6.420   5.229   2.024 -0.3601  1.1078 -1.2578
24746SOL    HW275680   6.559   5.179   1.989 -0.0423  0.1383  1.1927
24747SOL     OW75681   7.296   5.379   4.210 -0.1021  0.0119 -0.7856
24747SOL    HW175682   7.308   5.288   4.235 -0.9730  0.0191 -0.3200
24747SOL    HW275683   7.225   5.378   4.146 -1.2057  0.5117  0.3882
24748SOL     OW75684   0.721   6.208   2.037 -0.0874  0.0920 -0.0110
24748SOL    HW175685   0.796   6.265   2.018 -0.0083 -0.5356 -1.7518
24748SOL    HW275686   0.649   6.247   1.987 -0.6921  0.1246  0.8658
24749SOL     OW75687   7.329   5.405   0.844  0.1792 -0.3662 -0.5155
24749SOL    HW175688   7.400   5.343   0.833  0.3046 -0.9515  2.5710
24749SOL    HW275689   7.262   5.357   0.894 -1.2317  0.9561 -1.0346
24750SOL     OW75690   1.176   5.931  12.370 -0.2424  0.9431 -0.4293
24750SOL    HW175691   1.248   5.959  12.426 -0.1404 -0.7898  0.3539
24750SOL    HW275692   1.206   5.850  12.329 -1.7719  0.1115  0.0174
24751SOL     OW75693   5.988   7.038   0.166  0.1574 -0.5515  0.5583
24751SOL    HW175694   6.015   6.966   0.108  0.7530  0.2941 -0.2466
24751SOL    HW275695   5.921   7.084   0.117  1.8206  1.1624 -0.2336
24752SOL     OW75696   0.684   4.350   0.186 -0.2702 -0.0366 -0.1081
24752SOL    HW175697   0.600   4.309   0.209 -0.6658  0.1276 -1.1985
24752SOL    HW275698   0.684   4.433   0.233  0.0813 -0.7983  1.3064
24753SOL     OW75699   7.773   4.740  12.078 -0.0457  0.1129  0.0264
24753SOL    HW175700   7.706   4.726  12.011 -0.3585 -0.4509  0.4539
24753SOL    HW275701   7.815   4.655  12.089 -0.8250 -0.1104  1.4249
24754SOL     OW75702   0.598   5.992   1.840  0.4576  0.3901  0.1614
24754SOL    HW175703   0.584   6.080   1.804 -0.6005  0.0227 -0.3569
24754SOL    HW275704   0.669   6.003   1.903  1.2347  1.3755 -0.8429
24755SOL     OW75705   6.030   4.523   0.633  0.4764 -0.4044 -0.2947
24755SOL    HW175706   6.050   4.568   0.551  1.6357  1.6659  1.0323
24755SOL    HW275707   5.940   4.548   0.652  0.0547 -1.2460 -1.1311
24756SOL     OW75708   1.385   5.397  11.932 -0.2942  0.0876 -0.0955
24756SOL    HW175709   1.436   5.449  11.870  4.3229 -2.5263  1.0299
24756SOL    HW275710   1.311   5.364  11.881 -0.0609  2.8165 -2.4140
24757SOL     OW75711   7.471   4.940   0.813  0.1297 -0.2350  0.0262
24757SOL    HW175712   7.415   4.978   0.881 -0.1744  0.0381 -0.3668
24757SOL    HW275713   7.410   4.902   0.751  0.3264  0.8489 -0.8684
24758SOL     OW75714   7.383   3.905   0.993 -0.0285 -0.1521 -0.6990
24758SOL    HW175715   7.439   3.857   0.932 -0.7580 -0.3419 -1.2371
24758SOL    HW275716   7.412   3.877   1.080 -0.2555 -1.3698 -0.9961
24759SOL     OW75717   6.331   4.841   0.645  0.3936  0.6232  0.2090
24759SOL    HW175718   6.269   4.880   0.583 -0.1616 -0.6687 -0.0896
24759SOL    HW275719   6.275   4.802   0.712  0.8353 -0.9706 -0.3060
24760SOL     OW75720   7.061   3.931   2.996  0.0895  0.4874  0.3114
24760SOL    HW175721   6.986   3.978   3.032  1.4497  1.6389  1.7927
24760SOL    HW275722   7.073   3.967   2.908 -0.5780  0.8798  0.3772
24761SOL     OW75723   7.506   5.370   3.184  0.3135  0.4961 -0.5968
24761SOL    HW175724   7.506   5.449   3.130  0.9600  0.7575 -0.2362
24761SOL    HW275725   7.504   5.403   3.274 -0.1984  0.0786 -0.4508
24762SOL     OW75726   7.508   5.574   1.458  0.3776  0.2906 -0.2241
24762SOL    HW175727   7.589   5.550   1.504  0.5534 -0.4603 -0.8964
24762SOL    HW275728   7.473   5.648   1.508  0.9697  0.0007  0.6442
24763SOL     OW75729   6.228   0.070   3.386 -0.9940  0.2138  0.0454
24763SOL    HW175730   6.243   0.069   3.292 -0.0576 -0.1102  0.1845
24763SOL    HW275731   6.305   0.026   3.423 -1.6874 -0.3112  0.9160
24764SOL     OW75732   1.717   4.704   5.219 -0.0441  0.2286  0.0068
24764SOL    HW175733   1.683   4.742   5.138 -1.5490 -1.1176 -0.0520
24764SOL    HW275734   1.665   4.745   5.289 -1.0468 -0.9928  0.0081
24765SOL     OW75735   6.669   5.010   0.442 -0.0336  0.0894  0.4954
24765SOL    HW175736   6.674   5.021   0.536 -1.3740  2.3800  0.3806
24765SOL    HW275737   6.646   4.917   0.430  0.7283 -0.3837  2.3461
24766SOL     OW75738   0.923   6.742   2.959  0.0575  0.2250 -0.1406
24766SOL    HW175739   0.874   6.792   2.893  0.8007  1.5083  0.2390
24766SOL    HW275740   0.925   6.653   2.925 -2.1095  0.2276 -0.3966
24767SOL     OW75741   5.983   6.225   1.788 -0.6558  0.3590 -0.1254
24767SOL    HW175742   5.991   6.316   1.815  0.3272  0.4883 -0.7921
24767SOL    HW275743   5.901   6.222   1.738  0.1209  1.2720 -1.5241
24768SOL     OW75744   7.572   4.750   2.961  0.4642 -0.6608  0.1014
24768SOL    HW175745   7.553   4.663   2.925 -0.0942 -0.0108 -1.2482
24768SOL    HW275746   7.501   4.805   2.929  0.9296  0.3410  0.7628
24769SOL     OW75747   0.112   6.041   0.641 -0.4154 -0.4995  0.6868
24769SOL    HW175748   0.101   6.059   0.734 -0.4677  0.6595  0.4671
24769SOL    HW275749   0.202   6.009   0.633 -0.0021  0.5515  0.9860
24770SOL     OW75750   0.496   4.905   3.219 -0.2296 -0.0258  0.3570
24770SOL    HW175751   0.430   4.837   3.200 -0.0064 -0.3402  0.6946
24770SOL    HW275752   0.515   4.944   3.134 -1.0810  0.2815  0.2972
24771SOL     OW75753   6.896   7.157   3.795 -0.0283  0.3726 -0.1814
24771SOL    HW175754   6.814   7.156   3.747 -0.1268  1.2748 -0.0437
24771SOL    HW275755   6.929   7.247   3.785  0.1161  0.4856  1.1336
24772SOL     OW75756   7.944   4.239   3.709 -0.3224 -0.1708 -0.1307
24772SOL    HW175757   7.998   4.172   3.667  1.1614  0.6971  0.3486
24772SOL    HW275758   8.001   4.315   3.717 -2.3729  1.7575 -2.0717
24773SOL     OW75759   1.365   6.019   3.168 -0.1098  0.4283 -0.7294
24773SOL    HW175760   1.271   6.029   3.186 -0.2416  1.6850 -1.9565
24773SOL    HW275761   1.400   6.108   3.172  0.8523  0.0842 -1.1859
24774SOL     OW75762   6.595   5.914   2.488 -0.7018  0.2932 -0.4831
24774SOL    HW175763   6.560   5.843   2.435 -1.2248 -0.9582  1.4121
24774SOL    HW275764   6.651   5.870   2.553 -0.6536  1.6503  0.4431
24775SOL     OW75765   6.628   5.736   2.859 -0.1790 -0.0379 -0.0409
24775SOL    HW175766   6.538   5.756   2.884 -0.5180 -0.0069 -1.2111
24775SOL    HW275767   6.639   5.644   2.881 -0.3731  0.0566  0.4539
24776SOL     OW75768   0.393   4.321   4.144  0.5994  0.1558 -0.4905
24776SOL    HW175769   0.355   4.236   4.167  0.2745 -0.1059 -1.8970
24776SOL    HW275770   0.363   4.381   4.212 -1.4881 -0.2748 -0.9535
24777SOL     OW75771   7.590   3.236   5.623  0.0731  0.2600  0.3559
24777SOL    HW175772   7.634   3.178   5.561 -0.9540 -0.7281  0.5168
24777SOL    HW275773   7.646   3.238   5.700  0.7523  0.5230 -0.1369
24778SOL     OW75774   6.922   4.746   1.730  0.0182 -0.1787 -0.1266
24778SOL    HW175775   6.926   4.654   1.753 -2.5655 -0.3025  0.0530
24778SOL    HW275776   6.896   4.791   1.810  0.9909  0.7019 -0.2753
24779SOL     OW75777   7.029   4.155   4.174  0.1864  0.4368 -0.0078
24779SOL    HW175778   6.952   4.168   4.230  0.3457 -1.0125  0.5917
24779SOL    HW275779   7.009   4.075   4.125  0.6228  0.9642 -1.0703
24780SOL     OW75780   7.689   3.366   3.695 -0.3671 -0.2221 -0.1059
24780SOL    HW175781   7.638   3.293   3.729 -0.9628  0.4074  0.3854
24780SOL    HW275782   7.659   3.377   3.605 -0.2653 -0.5896 -0.1855
24781SOL     OW75783   7.436   4.068   4.891  0.6936  0.3554  0.0136
24781SOL    HW175784   7.496   4.133   4.856 -0.0327  1.0916  0.1147
24781SOL    HW275785   7.365   4.118   4.931 -0.0818 -0.4840 -0.2520
24782SOL     OW75786   1.502   1.734   2.587 -0.0515  0.3666 -0.0390
24782SOL    HW175787   1.502   1.824   2.620 -0.3439  0.1219  0.6382
24782SOL    HW275788   1.464   1.741   2.500 -0.0789  0.9006  0.0122
24783SOL     OW75789   7.258   4.710   2.154  0.2355  0.1566  0.2316
24783SOL    HW175790   7.272   4.775   2.223 -0.3015  0.2411  0.2676
24783SOL    HW275791   7.223   4.760   2.081 -0.9109 -0.1956  0.5196
24784SOL     OW75792   0.289   4.661   0.895 -0.9640  0.2256 -0.3691
24784SOL    HW175793   0.381   4.642   0.876 -0.7784 -0.0388  0.6919
24784SOL    HW275794   0.266   4.733   0.837 -0.1622  0.1268 -0.8244
24785SOL     OW75795   7.354   3.543   4.249 -0.3271  0.5411 -0.2101
24785SOL    HW175796   7.306   3.472   4.205 -0.3100 -0.3974  1.2194
24785SOL    HW275797   7.304   3.560   4.329  1.1932  0.1766  0.8628
24786SOL     OW75798   7.827   5.109   1.259 -0.0162 -0.0711 -0.0303
24786SOL    HW175799   7.907   5.108   1.310 -0.7618 -1.4445  1.1863
24786SOL    HW275800   7.799   5.018   1.257 -0.2470 -0.0352 -2.5879
24787SOL     OW75801   7.339   5.117   4.696  0.1715 -0.1187 -0.0923
24787SOL    HW175802   7.406   5.175   4.660  1.1255 -1.3045 -0.2939
24787SOL    HW275803   7.266   5.175   4.719  0.9936  1.1103 -0.5139
24788SOL     OW75804   0.313   2.642   3.563  0.0027 -0.1532  0.1663
24788SOL    HW175805   0.402   2.618   3.536 -0.1400 -0.8603  0.2853
24788SOL    HW275806   0.302   2.732   3.534 -0.2387 -0.9475 -2.4559
24789SOL     OW75807   7.950   4.772   3.957  0.7801  0.2095  0.3833
24789SOL    HW175808   7.857   4.776   3.934  0.5186 -1.4904  1.0093
24789SOL    HW275809   7.953   4.802   4.048  0.8478  0.2391  0.3715
24790SOL     OW75810   7.286   4.575   4.773  1.0690 -0.0239 -0.4529
24790SOL    HW175811   7.294   4.669   4.791 -2.0374  0.3033 -0.2172
24790SOL    HW275812   7.342   4.560   4.697  0.4542  2.3631 -1.4419
24791SOL     OW75813   7.670   5.860   4.833  0.7496  0.5536  0.4016
24791SOL    HW175814   7.609   5.866   4.759 -1.4071 -1.0032  1.9606
24791SOL    HW275815   7.662   5.770   4.865  1.0887  1.3462  2.9603
24792SOL     OW75816   7.962   4.322   4.684 -0.3671  0.0763 -0.4341
24792SOL    HW175817   8.055   4.347   4.682 -0.0237 -1.1195  0.0887
24792SOL    HW275818   7.949   4.287   4.772 -1.1960 -0.2244 -0.6724
24793SOL     OW75819   2.027   3.311   3.965  0.0756 -0.2742  0.5217
24793SOL    HW175820   2.057   3.402   3.965  0.1484 -0.2988 -0.0424
24793SOL    HW275821   2.013   3.291   4.058  2.8932 -0.6386  0.9417
24794SOL     OW75822   0.443   3.569   5.046  0.6272  0.1187 -0.1398
24794SOL    HW175823   0.415   3.602   5.131 -1.0957 -0.6793 -0.3475
24794SOL    HW275824   0.444   3.474   5.055  1.9104  0.0658 -0.5992
24795SOL     OW75825   0.133   4.781   2.830 -0.4275 -0.2572  0.4644
24795SOL    HW175826   0.042   4.751   2.828 -0.9102  1.1084  0.4777
24795SOL    HW275827   0.139   4.831   2.912  0.3671 -0.4097  0.5049
24796SOL     OW75828   0.991   3.878   3.494 -0.1256  0.5168  0.0895
24796SOL    HW175829   0.939   3.797   3.494  0.9806 -0.2194 -0.4127
24796SOL    HW275830   0.977   3.915   3.581 -1.6513  0.4680 -0.1041
24797SOL     OW75831   0.411   3.454   4.255  0.3038  0.0852 -0.2411
24797SOL    HW175832   0.330   3.484   4.297  0.0823  1.5407 -1.6227
24797SOL    HW275833   0.415   3.361   4.276 -0.1984  0.5471  2.2856
24798SOL     OW75834   0.876   5.681   2.798  0.0814 -0.1821  0.5649
24798SOL    HW175835   0.939   5.629   2.748  1.2382  1.2750  0.4505
24798SOL    HW275836   0.913   5.687   2.886 -0.6143 -0.4794  0.8921
24799SOL     OW75837   0.175   4.090   3.919 -0.5113  0.1261  0.2264
24799SOL    HW175838   0.190   4.178   3.955  0.6406 -0.0021  0.1123
24799SOL    HW275839   0.099   4.057   3.966 -0.4089  0.8466  0.9190
24800SOL     OW75840   7.743   4.620   3.595  0.2308  0.4188  0.2095
24800SOL    HW175841   7.703   4.617   3.683 -2.0527 -0.0067 -0.7615
24800SOL    HW275842   7.787   4.535   3.586 -0.8542 -0.1982  0.4148
24801SOL     OW75843   0.024   4.641   2.475  0.0106 -0.0371 -0.1231
24801SOL    HW175844   0.088   4.576   2.505  0.0093  0.6393  1.4101
24801SOL    HW275845   0.040   4.647   2.380 -0.1445 -2.4016 -0.3618
24802SOL     OW75846   7.006   3.380   4.407 -0.6314 -0.2619 -0.2847
24802SOL    HW175847   7.064   3.454   4.424  0.1931 -1.2019  1.3520
24802SOL    HW275848   6.919   3.411   4.432 -0.4088  0.3688 -0.2808
24803SOL     OW75849   6.645   5.039   2.024  0.4185 -0.0554 -0.1194
24803SOL    HW175850   6.639   5.055   2.118 -0.5376 -1.4830  0.0962
24803SOL    HW275851   6.581   4.970   2.007  0.9617 -0.2105 -1.7356
24804SOL     OW75852   6.979   4.522   1.866 -0.2120  0.4332  0.2014
24804SOL    HW175853   6.972   4.471   1.946  0.4678 -1.1540 -0.6954
24804SOL    HW275854   7.073   4.533   1.853 -0.2534 -0.4054 -0.9852
24805SOL     OW75855   6.984   6.382   3.403 -0.6962 -0.2863 -0.3216
24805SOL    HW175856   7.075   6.409   3.388 -0.9406  1.2889  0.8619
24805SOL    HW275857   6.991   6.303   3.456 -0.0094 -0.3270 -0.4636
24806SOL     OW75858   0.062   4.001   3.634  0.3948  0.0662  0.2021
24806SOL    HW175859   0.136   4.020   3.692  1.5817 -2.8637 -0.1688
24806SOL    HW275860   0.009   3.939   3.684  0.3950 -0.9880 -1.0560
24807SOL     OW75861   7.859   2.899   1.745 -0.1465 -1.0189 -0.4067
24807SOL    HW175862   7.793   2.832   1.763 -0.5973 -0.2301  0.9475
24807SOL    HW275863   7.809   2.977   1.723  0.3747 -1.2625 -2.8102
24808SOL     OW75864   6.664   3.722   3.582  0.0048 -0.3814 -0.2423
24808SOL    HW175865   6.714   3.800   3.607  1.6924 -0.4747 -2.8998
24808SOL    HW275866   6.689   3.656   3.646  0.4257  0.5821  0.6276
24809SOL     OW75867   6.800   5.663   1.327 -0.2617 -0.6449 -0.0046
24809SOL    HW175868   6.717   5.623   1.352 -0.2976 -2.7829 -3.0205
24809SOL    HW275869   6.778   5.719   1.252  0.8992 -0.6681 -0.3794
24810SOL     OW75870   0.066   6.211   4.022  0.4380  0.1665 -0.2532
24810SOL    HW175871   0.041   6.294   3.981  0.4203  0.6430  0.6912
24810SOL    HW275872   0.147   6.230   4.069  0.3389 -0.3049  0.1193
24811SOL     OW75873   7.107   4.481   6.051 -0.0862  0.3270 -0.2898
24811SOL    HW175874   7.049   4.518   6.117 -0.7112 -0.5774 -0.3097
24811SOL    HW275875   7.053   4.474   5.972  0.0352 -0.5405 -0.3055
24812SOL     OW75876   5.797   4.580   1.932 -0.1177 -0.1954 -0.2728
24812SOL    HW175877   5.725   4.528   1.967  1.8648 -2.3690  0.8411
24812SOL    HW275878   5.794   4.563   1.837 -1.7663  0.7471 -0.4220
24813SOL     OW75879   7.476   5.620   0.900 -0.1893  0.1260 -0.0612
24813SOL    HW175880   7.423   5.542   0.881  0.3819 -0.4147  0.5124
24813SOL    HW275881   7.543   5.621   0.832 -0.1472  0.0713 -0.0202
24814SOL     OW75882   7.732   5.998   3.835 -0.0211 -0.0164 -0.2165
24814SOL    HW175883   7.693   5.999   3.923 -0.5872 -1.8158 -0.4037
24814SOL    HW275884   7.788   5.920   3.835  0.0952  0.0610 -1.4036
24815SOL     OW75885   0.971   7.869   2.176 -0.1583  0.1317  0.7881
24815SOL    HW175886   0.886   7.849   2.215 -0.2181 -0.6306  0.2928
24815SOL    HW275887   0.958   7.953   2.131 -0.8596 -0.3188  0.1241
24816SOL     OW75888   0.157   4.955   2.081 -0.4316 -0.3689  0.3379
24816SOL    HW175889   0.108   4.960   1.999  0.4342  0.7669 -0.1284
24816SOL    HW275890   0.102   5.001   2.144  0.1018  1.1379 -0.2434
24817SOL     OW75891   6.700   3.704   4.350  0.2295  0.0285 -0.4034
24817SOL    HW175892   6.721   3.677   4.260  1.1890 -0.6448 -0.0057
24817SOL    HW275893   6.614   3.744   4.344  1.0330  1.6664 -1.9345
24818SOL     OW75894   0.525   4.696   0.498  0.1203 -0.1029  0.2126
24818SOL    HW175895   0.461   4.723   0.564  0.0756  0.3142  0.0028
24818SOL    HW275896   0.610   4.715   0.538  0.0846  1.5623 -0.4067
24819SOL     OW75897   7.038   2.408   2.222 -0.0773 -0.2172  0.1102
24819SOL    HW175898   7.013   2.481   2.279  0.6864  1.1413 -1.2297
24819SOL    HW275899   6.959   2.389   2.172  0.1224  0.7544 -0.6167
24820SOL     OW75900   7.139   7.020   3.620  0.0498  0.5563 -0.4832
24820SOL    HW175901   7.092   7.094   3.580  0.2811  1.0954  0.2177
24820SOL    HW275902   7.216   7.008   3.563 -0.7235 -0.0895 -1.4207
24821SOL     OW75903   0.604   4.422   4.521 -0.3463  0.8074  0.3040
24821SOL    HW175904   0.532   4.375   4.564 -0.0539  1.2767  1.3346
24821SOL    HW275905   0.605   4.508   4.563  0.2739  1.1053 -0.3040
24822SOL     OW75906   0.669   5.045   2.635 -0.2245 -0.7306  0.2046
24822SOL    HW175907   0.732   5.091   2.579 -0.4885 -0.4583  0.1306
24822SOL    HW275908   0.637   5.111   2.696  0.5120 -1.1620  1.0876
24823SOL     OW75909   7.869   5.255   4.821 -0.2394  0.1562 -0.0109
24823SOL    HW175910   7.780   5.245   4.854 -0.2615 -0.0484 -0.1310
24823SOL    HW275911   7.923   5.206   4.882 -0.1841  0.4445  0.1737
24824SOL     OW75912   7.197   3.688   3.960  0.1169  0.1848  0.1114
24824SOL    HW175913   7.172   3.692   3.867  1.8776 -0.1032 -0.4226
24824SOL    HW275914   7.206   3.594   3.978 -0.5335  0.2285  0.6756
24825SOL     OW75915   7.201   3.312   3.139 -0.1017 -0.2152  0.0074
24825SOL    HW175916   7.133   3.244   3.138 -0.7927  0.4521  0.7727
24825SOL    HW275917   7.158   3.389   3.103  0.3298  0.1574  0.2853
24826SOL     OW75918   0.644   2.889   3.412 -0.1712  0.0936 -0.4454
24826SOL    HW175919   0.563   2.846   3.384 -0.4662 -0.4348  1.1447
24826SOL    HW275920   0.623   2.982   3.414 -0.2429  0.1222 -1.5700
24827SOL     OW75921   7.776   3.660   4.594  0.7384 -0.3059  0.5062
24827SOL    HW175922   7.811   3.602   4.526  0.0020 -0.7537  0.5081
24827SOL    HW275923   7.727   3.727   4.545  2.0258  0.6478  0.4658
24828SOL     OW75924   6.089   4.031   2.678 -0.2776 -0.2937 -0.1641
24828SOL    HW175925   6.019   4.028   2.612 -0.8383 -0.7922  0.4409
24828SOL    HW275926   6.086   3.945   2.720  1.3528 -0.6866 -0.7798
24829SOL     OW75927   6.776   4.726   5.115  0.0582  0.1711  0.4720
24829SOL    HW175928   6.779   4.650   5.174 -0.2465 -0.3772 -0.2057
24829SOL    HW275929   6.813   4.694   5.033  1.3449  1.1908  0.6314
24830SOL     OW75930   7.749   5.590   5.218 -0.1589  0.3132 -0.2086
24830SOL    HW175931   7.756   5.521   5.283 -0.3749  0.8593  0.4037
24830SOL    HW275932   7.655   5.603   5.205 -0.1788  1.8431  1.1707
24831SOL     OW75933   0.502   7.330   3.045 -0.2955  0.6313 -0.1506
24831SOL    HW175934   0.448   7.302   3.119 -0.9435  0.4905 -0.6713
24831SOL    HW275935   0.543   7.411   3.075 -1.0773  0.9363  0.1266
24832SOL     OW75936   6.795   6.176   5.459 -0.0934 -0.2393  0.3463
24832SOL    HW175937   6.753   6.258   5.485 -1.9818 -0.9862 -0.1499
24832SOL    HW275938   6.735   6.108   5.490  1.6631 -1.4949  1.1962
24833SOL     OW75939   0.082   2.833   4.916 -0.3486  0.2102 -0.3150
24833SOL    HW175940   0.065   2.869   5.002  0.1265 -0.3728  0.0333
24833SOL    HW275941  -0.003   2.798   4.887 -0.9094  1.8904 -0.8284
24834SOL     OW75942   6.738   3.534   3.035 -0.1206 -0.5541 -0.0259
24834SOL    HW175943   6.737   3.443   3.005 -1.4800 -0.6715  0.3261
24834SOL    HW275944   6.714   3.529   3.127 -0.2478  0.1607 -0.0139
24835SOL     OW75945   7.130   5.886   2.829  0.3683  0.1864 -0.2433
24835SOL    HW175946   7.146   5.801   2.788  2.1690  0.1153  0.5435
24835SOL    HW275947   7.143   5.950   2.759  2.3046 -0.0084 -0.1216
24836SOL     OW75948   7.323   5.008   6.087 -0.2766  0.0509  0.1321
24836SOL    HW175949   7.325   4.980   6.179  2.5755  0.2413  0.1975
24836SOL    HW275950   7.244   5.061   6.080 -0.4759  0.1651  2.5147
24837SOL     OW75951   0.478   6.704   4.527  0.0608  0.4273 -0.4875
24837SOL    HW175952   0.535   6.683   4.453 -0.0011  0.8357 -0.6535
24837SOL    HW275953   0.534   6.692   4.604 -1.0082 -4.4687 -0.1594
24838SOL     OW75954   7.371   3.822   6.423 -0.7105  0.0122 -0.0631
24838SOL    HW175955   7.401   3.733   6.439 -0.0436  0.1465 -0.5270
24838SOL    HW275956   7.444   3.877   6.452 -1.4304  0.4475  0.9706
24839SOL     OW75957   0.958   2.381   3.742  0.2194 -0.6358 -0.7056
24839SOL    HW175958   0.994   2.292   3.751  0.1546 -0.7911 -1.8857
24839SOL    HW275959   0.889   2.385   3.808  0.6703 -1.2227 -0.1784
24840SOL     OW75960   0.280   4.527   4.312 -0.4685  0.2253  0.1128
24840SOL    HW175961   0.264   4.544   4.405  0.4404  0.9602  0.1421
24840SOL    HW275962   0.320   4.608   4.279 -2.7321  0.8392 -1.4247
24841SOL     OW75963   7.154   6.646   5.863  0.4774  0.5580 -0.2463
24841SOL    HW175964   7.165   6.589   5.939  1.8001  1.3820  0.2128
24841SOL    HW275965   7.149   6.734   5.899 -0.6859  0.8170 -1.0027
24842SOL     OW75966   0.095   2.932   5.764 -0.0126 -0.0278  0.1845
24842SOL    HW175967   0.188   2.952   5.755 -0.1546  0.3598 -0.4234
24842SOL    HW275968   0.080   2.931   5.859  0.3727  1.0123  0.2695
24843SOL     OW75969   0.102   5.841   5.142 -0.6452 -0.1064  0.4842
24843SOL    HW175970   0.035   5.811   5.204 -1.5684  0.2933 -0.2855
24843SOL    HW275971   0.147   5.912   5.188 -1.8066  0.6797  0.4525
24844SOL     OW75972   6.759   3.897   4.845  0.0725  0.4386  0.3066
24844SOL    HW175973   6.720   3.812   4.865 -0.9902  0.3392 -1.8589
24844SOL    HW275974   6.852   3.877   4.831 -0.0040 -0.2045  0.6557
24845SOL     OW75975   0.188   5.945   5.548 -0.2824 -0.1229 -0.1142
24845SOL    HW175976   0.183   5.976   5.458  0.3818 -0.4885 -0.2822
24845SOL    HW275977   0.281   5.948   5.569 -0.4533  0.1463  0.6290
24846SOL     OW75978   7.196   5.784   5.779  0.1212 -0.6234 -0.7939
24846SOL    HW175979   7.282   5.797   5.739  0.6654  0.3985  0.6187
24846SOL    HW275980   7.194   5.692   5.804  1.6639 -0.2167  1.0031
24847SOL     OW75981   7.951   6.403   4.712  0.6083  0.0853  0.1661
24847SOL    HW175982   7.901   6.357   4.779 -0.5259  2.0225  0.7524
24847SOL    HW275983   8.017   6.452   4.760  0.6239  0.4885 -0.2551
24848SOL     OW75984   1.099   2.379   4.053  0.0377 -0.0967 -0.3596
24848SOL    HW175985   1.148   2.400   4.132  0.4895 -0.1943 -0.6100
24848SOL    HW275986   1.096   2.462   4.005  0.5073 -0.2333 -0.6367
24849SOL     OW75987   6.780   2.460   3.308  0.2131  0.3329  0.2665
24849SOL    HW175988   6.739   2.457   3.222  0.0863 -2.3980  0.3284
24849SOL    HW275989   6.793   2.368   3.331 -0.6062  0.9194  3.5603
24850SOL     OW75990   0.001   3.355   5.126 -0.2399  0.3474 -0.0855
24850SOL    HW175991   0.012   3.319   5.214 -0.1707 -0.2226 -0.3271
24850SOL    HW275992  -0.051   3.290   5.080 -1.1681  1.1307 -0.1670
24851SOL     OW75993   7.425   4.684   3.192  0.3841 -0.0838  0.3752
24851SOL    HW175994   7.460   4.762   3.236 -2.3853  2.0952 -0.9610
24851SOL    HW275995   7.449   4.696   3.100 -0.1485 -0.7544  0.1428
24852SOL     OW75996   7.588   5.270   5.349  0.1524  0.2195  0.6084
24852SOL    HW175997   7.663   5.313   5.310 -0.8839  0.2462 -1.4924
24852SOL    HW275998   7.625   5.197   5.399  1.5809  0.5108  0.0115
24853SOL     OW75999   7.702   5.030   4.953  0.9991 -0.2848  0.5054
24853SOL    HW176000   7.617   5.057   4.987  0.3170 -0.4793 -0.9338
24853SOL    HW276001   7.766   5.079   5.004 -0.1143  3.1181 -1.0599
24854SOL     OW76002   7.601   5.377   5.715 -0.1977  0.0168  0.2638
24854SOL    HW176003   7.652   5.444   5.670  2.1721 -2.6392 -1.3529
24854SOL    HW276004   7.609   5.399   5.807  1.0026  1.5888 -0.1601
24855SOL     OW76005   7.409   5.698   4.530  0.4735  0.6487  0.1234
24855SOL    HW176006   7.332   5.670   4.481  0.5553  1.6283 -0.6107
24855SOL    HW276007   7.411   5.641   4.607  0.5613 -1.2128 -1.1825
24856SOL     OW76008   6.998   3.384   6.089 -0.0456 -0.1121  0.0665
24856SOL    HW176009   6.921   3.439   6.102 -0.5523 -1.0106  0.9654
24856SOL    HW276010   6.966   3.295   6.100  0.6140 -0.6636 -2.0975
24857SOL     OW76011   1.015   2.359   6.434  0.3356 -0.0145  0.0476
24857SOL    HW176012   1.108   2.377   6.442  0.5577 -1.6864  2.1067
24857SOL    HW276013   0.973   2.419   6.495 -0.0243  1.0252 -1.1779
24858SOL     OW76014   1.273   5.293   4.997 -0.2671  1.4613 -0.6888
24858SOL    HW176015   1.321   5.287   4.915  1.6838 -0.6143  0.5122
24858SOL    HW276016   1.340   5.287   5.065 -1.9890  1.0849  1.0717
24859SOL     OW76017   7.519   2.567   5.633 -0.2927  0.6078 -0.2831
24859SOL    HW176018   7.517   2.651   5.586 -1.7129  0.5966 -0.2912
24859SOL    HW276019   7.427   2.548   5.650  0.0486 -0.7538  0.0956
24860SOL     OW76020   0.087   2.290   4.684 -0.1431  0.0595  0.9573
24860SOL    HW176021  -0.006   2.271   4.669  0.3193 -0.0513 -2.9070
24860SOL    HW276022   0.098   2.379   4.651  1.6167 -1.1663 -2.3196
24861SOL     OW76023   7.245   4.773   4.074  0.2704  0.2141 -0.0808
24861SOL    HW176024   7.329   4.817   4.062  1.0057 -0.7681  1.1729
24861SOL    HW276025   7.202   4.822   4.145 -1.8404  2.8880 -2.9382
24862SOL     OW76026   6.957   4.118   4.632  0.9070  0.8242 -0.0756
24862SOL    HW176027   6.957   4.047   4.697  0.8398  1.5273  0.7077
24862SOL    HW276028   7.016   4.087   4.563  1.7352  0.4534  0.7664
24863SOL     OW76029   0.099   5.491   5.176 -0.6906 -0.0590  0.3537
24863SOL    HW176030   0.028   5.465   5.117 -0.3963 -1.1127  0.4462
24863SOL    HW276031   0.072   5.459   5.262 -0.3677  0.0522  0.4977
24864SOL     OW76032   7.396   4.922   5.845 -0.0210 -0.0537  0.2351
24864SOL    HW176033   7.367   4.957   5.929 -1.4403  0.2662 -0.3555
24864SOL    HW276034   7.491   4.933   5.845 -0.1813  1.5780  1.0759
24865SOL     OW76035   1.153   2.129   6.289 -0.6912  0.6474  0.4244
24865SOL    HW176036   1.071   2.081   6.282  0.1679 -0.7251 -0.9103
24865SOL    HW276037   1.130   2.210   6.335 -2.8303  0.4471 -0.1868
24866SOL     OW76038   0.382   6.064   4.647 -0.5256  0.3336  0.2018
24866SOL    HW176039   0.353   6.005   4.576  0.7375 -0.1834  0.0969
24866SOL    HW276040   0.418   6.006   4.713 -0.6867  0.8972  0.7905
24867SOL     OW76041   0.259   5.183   6.034 -0.5628  0.1331  0.3711
24867SOL    HW176042   0.271   5.276   6.053  0.5486  0.7459 -2.7495
24867SOL    HW276043   0.207   5.151   6.108 -1.5477  3.3373  1.2696
24868SOL     OW76044   6.172   5.551   2.001 -0.5002  0.0125 -0.1475
24868SOL    HW176045   6.158   5.542   1.907  0.4539 -0.5437 -0.2433
24868SOL    HW276046   6.266   5.541   2.013 -0.6719 -0.4561  0.9299
24869SOL     OW76047   7.563   6.389   6.765  0.4041 -0.3709  0.3187
24869SOL    HW176048   7.595   6.479   6.770 -1.1574  0.2848 -0.7354
24869SOL    HW276049   7.547   6.364   6.856 -0.6473  1.0052  0.5401
24870SOL     OW76050   7.859   4.611   4.556 -0.5486  0.4063  0.4657
24870SOL    HW176051   7.880   4.522   4.583 -2.8664 -0.3089  0.1178
24870SOL    HW276052   7.899   4.667   4.622  0.1078 -0.9425  1.2304
24871SOL     OW76053   6.316   3.907   8.067 -0.1022  0.0982  0.2070
24871SOL    HW176054   6.325   3.883   8.159 -1.9709  0.4450  0.5186
24871SOL    HW276055   6.344   3.998   8.063  0.1272  0.0376  0.4079
24872SOL     OW76056   6.678   3.061   3.843 -0.7271  0.3093 -0.6836
24872SOL    HW176057   6.691   3.092   3.932  0.4576  1.2008 -1.1412
24872SOL    HW276058   6.691   2.966   3.849  1.5605  0.5724 -0.2365
24873SOL     OW76059   0.322   4.682   3.214 -0.5092  0.2504 -0.3273
24873SOL    HW176060   0.310   4.646   3.302 -1.3942  1.9651  0.3016
24873SOL    HW276061   0.233   4.698   3.183 -0.1942 -0.0929 -1.4418
24874SOL     OW76062   0.184   2.369   6.599 -0.4932 -0.0829  0.5216
24874SOL    HW176063   0.186   2.465   6.607 -1.6016 -0.1613  2.2308
24874SOL    HW276064   0.098   2.350   6.562 -0.0540 -0.4132 -0.3611
24875SOL     OW76065   7.551   4.110   5.782 -0.4212  0.1042  0.3741
24875SOL    HW176066   7.564   4.035   5.723  1.0049  1.4150 -1.0851
24875SOL    HW276067   7.467   4.147   5.756 -1.0392 -0.8402  0.9696
24876SOL     OW76068   0.499   4.382   8.722 -0.4305  0.5092 -0.7572
24876SOL    HW176069   0.552   4.460   8.709 -0.7783  0.6565 -1.3437
24876SOL    HW276070   0.511   4.330   8.642  0.8892 -0.7155  0.1976
24877SOL     OW76071   7.135   2.676   3.571  0.6644 -0.1257 -0.2498
24877SOL    HW176072   7.172   2.702   3.486  1.9598 -0.0863  0.3015
24877SOL    HW276073   7.060   2.734   3.583  0.7741  0.2155 -1.1453
24878SOL     OW76074   6.618   4.996   4.532  0.0084 -0.3109 -0.1567
24878SOL    HW176075   6.684   4.928   4.546  0.6480  0.3952  0.3701
24878SOL    HW276076   6.641   5.034   4.447 -0.5703 -0.9779 -0.6243
24879SOL     OW76077   0.647   6.930   5.850  0.5111 -0.1688  0.5996
24879SOL    HW176078   0.577   6.992   5.831  0.5940 -0.3657 -0.3798
24879SOL    HW276079   0.604   6.844   5.850  0.8337 -0.3426 -0.5350
24880SOL     OW76080   7.107   6.575   4.128 -0.5784  0.6478  0.5615
24880SOL    HW176081   7.078   6.486   4.149 -1.4573  0.7775 -0.0968
24880SOL    HW276082   7.195   6.580   4.166 -0.6520 -0.3856  0.9053
24881SOL     OW76083   6.913   3.084   4.451 -0.3875 -0.1441  0.0764
24881SOL    HW176084   6.888   3.095   4.359  0.6020 -0.2450 -0.2156
24881SOL    HW276085   6.908   3.173   4.488  1.1298  0.2545 -0.5940
24882SOL     OW76086   7.280   3.085   2.818  0.1597  0.0146  0.1210
24882SOL    HW176087   7.343   3.141   2.864  0.4347  0.7897 -1.1457
24882SOL    HW276088   7.194   3.117   2.848  0.2935  1.5956 -1.0657
24883SOL     OW76089   7.021   4.178   3.669  0.7944 -0.6382 -0.0511
24883SOL    HW176090   7.026   4.273   3.667 -1.0327 -0.5298 -1.4521
24883SOL    HW276091   7.099   4.151   3.717  0.4714  1.6223  1.8963
24884SOL     OW76092   7.287   4.481   5.726  0.1647 -0.0373  0.2620
24884SOL    HW176093   7.232   4.547   5.769  4.0007  2.4655  1.8434
24884SOL    HW276094   7.300   4.513   5.637  1.2314  0.8979  0.7347
24885SOL     OW76095   7.352   4.372   5.997  0.7332  0.1700  0.6034
24885SOL    HW176096   7.311   4.376   5.910  0.2719 -0.1087  0.8003
24885SOL    HW276097   7.280   4.389   6.058  0.5728 -1.7752  1.0280
24886SOL     OW76098   7.613   4.777   5.412 -0.0420  0.6986  0.5819
24886SOL    HW176099   7.613   4.682   5.424  0.3190  0.7171  0.7466
24886SOL    HW276100   7.536   4.808   5.459 -0.8325  0.3703 -0.4676
24887SOL     OW76101   7.589   6.628   4.822  0.3676  0.2096  0.0198
24887SOL    HW176102   7.638   6.617   4.741 -1.3983 -1.6915 -0.9103
24887SOL    HW276103   7.655   6.626   4.891  1.8356  0.9326 -1.2944
24888SOL     OW76104   1.283   5.456   4.677  0.0718  0.1790  0.4204
24888SOL    HW176105   1.346   5.402   4.725 -0.6384 -0.1157  1.0549
24888SOL    HW276106   1.238   5.506   4.745  0.5191  1.3768 -0.1357
24889SOL     OW76107   7.121   3.503   6.975  0.0519 -0.0165  0.2596
24889SOL    HW176108   7.081   3.418   6.952  1.1671 -0.6438  0.5907
24889SOL    HW276109   7.064   3.538   7.043 -1.5569  0.4404 -1.2507
24890SOL     OW76110   6.916   1.446   6.528  0.3684 -1.1012  0.2789
24890SOL    HW176111   6.836   1.410   6.565  0.3406  0.3043  1.6849
24890SOL    HW276112   6.888   1.525   6.482  1.0445  0.2033  1.9832
24891SOL     OW76113   7.974   3.507   8.187  0.5346  0.4776  0.3775
24891SOL    HW176114   7.910   3.440   8.213  0.7971  0.2868  0.5441
24891SOL    HW276115   8.013   3.535   8.270 -0.3121  1.6003  0.4173
24892SOL     OW76116   7.226   6.361   8.331 -0.5697 -0.1641 -0.1721
24892SOL    HW176117   7.184   6.286   8.372  0.3724 -1.6404 -1.8017
24892SOL    HW276118   7.284   6.397   8.399  1.0508 -2.6165 -0.1395
24893SOL     OW76119   0.227   5.164   5.750 -0.0062 -0.2898  0.3999
24893SOL    HW176120   0.247   5.070   5.744  1.0231 -0.1311  1.0759
24893SOL    HW276121   0.233   5.183   5.844  0.6994  0.6398  0.1775
24894SOL     OW76122   0.701   4.167   7.581  0.3531 -0.4873  0.1345
24894SOL    HW176123   0.779   4.222   7.577  0.5030 -0.7528 -1.1622
24894SOL    HW276124   0.716   4.100   7.514 -0.6633 -0.9762  0.3755
24895SOL     OW76125   0.324   5.559   4.984 -0.2596 -0.2185 -0.5298
24895SOL    HW176126   0.255   5.551   5.050  0.5362  2.3449  0.7205
24895SOL    HW276127   0.287   5.616   4.917  0.7805  1.6467  0.4306
24896SOL     OW76128   7.217   5.174   8.020  0.1570 -0.8241  0.1922
24896SOL    HW176129   7.176   5.125   8.092 -1.7212  1.1019  0.5336
24896SOL    HW276130   7.282   5.229   8.063  2.3616 -2.9224 -0.2071
24897SOL     OW76131   0.514   2.365   6.417  0.4122 -0.6338 -0.9169
24897SOL    HW176132   0.502   2.306   6.492  1.1077  1.8885  1.3151
24897SOL    HW276133   0.442   2.427   6.424  0.9437  0.1030 -1.9026
24898SOL     OW76134   0.001   6.354   5.575 -0.1382 -0.3293  0.1633
24898SOL    HW176135  -0.059   6.372   5.648  2.8748  2.9937  2.1759
24898SOL    HW276136   0.064   6.291   5.611  0.0216 -0.4947 -0.4012
24899SOL     OW76137   6.930   4.463   8.628 -0.2137  0.1992  0.2913
24899SOL    HW176138   6.975   4.380   8.642 -0.5414  0.0215  0.3036
24899SOL    HW276139   6.999   4.529   8.631 -0.1330  0.0836  1.8101
24900SOL     OW76140   7.793   4.876   7.713  0.0494  0.6608 -0.2326
24900SOL    HW176141   7.816   4.810   7.647 -0.2517  0.5151 -0.1934
24900SOL    HW276142   7.707   4.908   7.686 -1.1754 -1.0667  1.3509
24901SOL     OW76143   0.867   5.106   7.686 -0.2772  0.5039  0.2593
24901SOL    HW176144   0.947   5.120   7.634  0.8482 -0.7619  1.5910
24901SOL    HW276145   0.856   5.188   7.735 -0.4537  1.1033 -0.7457
24902SOL     OW76146   7.849   4.192   6.648  0.2963 -0.0723 -0.3628
24902SOL    HW176147   7.854   4.282   6.616  0.4028 -0.7172 -2.2980
24902SOL    HW276148   7.777   4.193   6.710 -1.6718  0.7697 -2.5027
24903SOL     OW76149   7.024   4.286   7.259  0.0062 -0.0847 -0.1347
24903SOL    HW176150   6.979   4.350   7.205 -0.8819  0.5907  1.3309
24903SOL    HW276151   7.003   4.201   7.220 -1.1230  0.3458 -0.4759
24904SOL     OW76152   6.802   5.267   5.365 -0.3089 -0.2867 -0.2672
24904SOL    HW176153   6.843   5.282   5.280  1.2156 -0.1134  0.4573
24904SOL    HW276154   6.816   5.349   5.413 -1.2528 -0.3417  0.1151
24905SOL     OW76155   0.247   3.505   6.023 -0.0786  0.6145  0.1752
24905SOL    HW176156   0.313   3.441   5.997 -0.1250  0.6920 -0.1477
24905SOL    HW276157   0.296   3.584   6.044 -0.0947  0.8574 -0.6325
24906SOL     OW76158   7.608   7.413   4.417 -0.2835  0.0708 -0.1788
24906SOL    HW176159   7.703   7.402   4.411 -0.3262 -0.6460  0.4109
24906SOL    HW276160   7.572   7.340   4.367 -0.5331 -0.3805  0.6466
24907SOL     OW76161   0.885   3.542   5.727 -0.0266 -0.5096 -0.0051
24907SOL    HW176162   0.874   3.617   5.784  1.7231 -0.1413 -0.0959
24907SOL    HW276163   0.920   3.473   5.784  1.1780 -0.3165 -0.4728
24908SOL     OW76164   6.559   5.517   7.228 -0.3043  0.2617 -0.2730
24908SOL    HW176165   6.481   5.463   7.213  0.7761 -1.3458 -0.3894
24908SOL    HW276166   6.612   5.465   7.288  0.1239  1.9085  0.8269
24909SOL     OW76167   0.141   3.160   7.606  0.2214  0.0079  0.1668
24909SOL    HW176168   0.093   3.178   7.526 -0.0659 -0.0719  0.3179
24909SOL    HW276169   0.219   3.112   7.578  0.6835  0.9394 -0.1709
24910SOL     OW76170   6.854   5.289   6.006 -0.4099 -0.1327 -0.1621
24910SOL    HW176171   6.782   5.257   6.060 -0.1507  0.2824  0.4494
24910SOL    HW276172   6.842   5.246   5.922 -0.0105 -1.9257  0.6435
24911SOL     OW76173   7.997   5.696   5.966 -0.0623 -0.0903  0.3112
24911SOL    HW176174   7.925   5.640   5.995 -0.5289  0.1556 -0.3352
24911SOL    HW276175   8.043   5.645   5.899 -0.5094  0.2970 -0.3037
24912SOL     OW76176   7.183   3.615   4.880  0.1288  0.5012 -0.2845
24912SOL    HW176177   7.264   3.606   4.930  0.0685  1.8310  0.0826
24912SOL    HW276178   7.181   3.537   4.825  0.4258 -0.7779  1.4322
24913SOL     OW76179   7.951   1.901   5.451 -0.0856 -0.2771  0.2509
24913SOL    HW176180   7.958   1.985   5.405  0.5970 -0.0327  0.7751
24913SOL    HW276181   7.918   1.924   5.538 -1.9016 -0.7932 -0.2601
24914SOL     OW76182   7.944   4.302   7.257  0.3174  0.4597  0.0419
24914SOL    HW176183   8.036   4.297   7.282  0.7746  0.1920 -1.5440
24914SOL    HW276184   7.924   4.216   7.222 -0.5024  0.5630  0.2427
24915SOL     OW76185   6.535   5.261   7.903 -0.3685  0.2991 -0.4583
24915SOL    HW176186   6.571   5.320   7.969  1.3003 -1.2999  0.1594
24915SOL    HW276187   6.555   5.173   7.936 -2.0449 -0.6216 -1.7140
24916SOL     OW76188   7.715   5.539   7.558  0.2844 -0.2678  0.2472
24916SOL    HW176189   7.744   5.452   7.585 -0.0432 -0.0766  1.2859
24916SOL    HW276190   7.780   5.599   7.596  1.5560 -0.1305 -2.0037
24917SOL     OW76191   6.303   5.373   7.173  0.0917 -0.5238  0.5398
24917SOL    HW176192   6.358   5.295   7.171 -0.9232 -1.2301 -0.5812
24917SOL    HW276193   6.227   5.349   7.226  0.5103  0.2501  1.5478
24918SOL     OW76194   0.376   4.738   7.907 -0.3802 -0.0542  0.0312
24918SOL    HW176195   0.471   4.728   7.900 -0.3928  0.2231 -0.6283
24918SOL    HW276196   0.345   4.652   7.937  0.1628  0.1486  1.2493
24919SOL     OW76197   7.126   4.541   8.121  0.0270 -0.1737  0.1211
24919SOL    HW176198   7.190   4.488   8.074  0.3923 -0.0419  0.4707
24919SOL    HW276199   7.177   4.597   8.179 -0.3539  0.5556 -0.2212
24920SOL     OW76200   0.779   5.092   7.272  0.5117  0.0350  0.0603
24920SOL    HW176201   0.740   5.009   7.301  0.6548 -0.9393 -2.3393
24920SOL    HW276202   0.873   5.074   7.266  0.6069  0.5393  0.0162
24921SOL     OW76203   6.672   5.167   8.612  0.0694 -0.1833 -0.6179
24921SOL    HW176204   6.598   5.111   8.638  0.8060 -0.5789  0.7179
24921SOL    HW276205   6.696   5.135   8.525 -0.3225 -1.1215 -0.3973
24922SOL     OW76206   7.645   4.212   6.826  0.2078  0.2211 -0.0963
24922SOL    HW176207   7.585   4.141   6.802  1.0078 -1.2282  1.9225
24922SOL    HW276208   7.590   4.277   6.868 -0.7370  1.4769 -3.0151
24923SOL     OW76209   7.245   2.910   7.220 -0.2410 -0.0229 -0.5688
24923SOL    HW176210   7.278   2.848   7.285  0.0513  1.5571  0.8432
24923SOL    HW276211   7.236   2.858   7.140  3.5074 -1.0854 -0.4849
24924SOL     OW76212   0.063   3.236   6.605  0.6488 -0.3702  0.3829
24924SOL    HW176213  -0.017   3.278   6.572  0.5085 -0.7091  0.2798
24924SOL    HW276214   0.067   3.153   6.557  1.6179  0.0957 -0.3628
24925SOL     OW76215   0.621   3.040   7.565 -0.1511  0.3003 -0.0056
24925SOL    HW176216   0.617   3.130   7.532 -0.2511  0.2301 -0.1885
24925SOL    HW276217   0.568   2.990   7.503 -1.6518  0.4096  1.1156
24926SOL     OW76218   7.543   5.095   7.184 -0.3147 -0.0347  0.4587
24926SOL    HW176219   7.538   5.183   7.222 -0.5333  0.9821 -1.7424
24926SOL    HW276220   7.608   5.049   7.238  1.1313  2.0507  0.6354
24927SOL     OW76221   0.878   2.652   7.648 -0.1452 -0.1283  0.7405
24927SOL    HW176222   0.891   2.738   7.610  0.2346  0.0083  1.1671
24927SOL    HW276223   0.783   2.644   7.658 -0.0957  1.0941  2.5789
24928SOL     OW76224   0.527   5.517   7.022 -0.2528  0.5748 -0.2195
24928SOL    HW176225   0.477   5.469   6.955  0.1464  0.9362 -0.7801
24928SOL    HW276226   0.466   5.584   7.053  0.0550  1.4292 -1.3575
24929SOL     OW76227   1.709   3.341   5.290  0.1151  0.2337 -0.1658
24929SOL    HW176228   1.782   3.291   5.328  0.6281  1.0141 -0.1059
24929SOL    HW276229   1.651   3.358   5.363 -0.1315 -0.3767 -0.2098
24930SOL     OW76230   0.414   4.444   6.689 -0.6714 -0.0930 -0.3933
24930SOL    HW176231   0.389   4.535   6.679 -0.4831 -0.0310 -0.3016
24930SOL    HW276232   0.367   4.414   6.767  1.4218  0.7075  1.2500
24931SOL     OW76233   7.782   2.552   5.690  0.0322 -0.8778 -1.3731
24931SOL    HW176234   7.763   2.571   5.598  0.8775 -0.1520 -1.4209
24931SOL    HW276235   7.719   2.605   5.739  0.3153 -0.3755 -1.5384
24932SOL     OW76236   7.116   4.183   6.924  0.0732 -0.0569 -0.2173
24932SOL    HW176237   7.068   4.259   6.893  0.1202  0.2957  0.5578
24932SOL    HW276238   7.050   4.130   6.970 -0.0224 -0.6372 -0.9828
24933SOL     OW76239   6.657   4.299   8.109 -0.2407 -0.2020 -0.4212
24933SOL    HW176240   6.717   4.363   8.145 -1.4802  1.1795 -0.7030
24933SOL    HW276241   6.672   4.301   8.014 -1.0445  0.5308 -0.5488
24934SOL     OW76242   0.724   4.666   7.190 -0.8537  0.3754  0.4389
24934SOL    HW176243   0.748   4.652   7.098  0.8549  0.6559  0.8149
24934SOL    HW276244   0.680   4.584   7.215 -2.2253  0.6705 -0.8723
24935SOL     OW76245   0.473   4.778   5.924 -0.2011 -0.0792 -0.4719
24935SOL    HW176246   0.421   4.821   5.856 -0.0445 -1.5337 -1.5365
24935SOL    HW276247   0.563   4.803   5.904 -0.2559  0.5036 -0.0334
24936SOL     OW76248   0.125   4.414   8.669 -0.7967  0.2236  0.3222
24936SOL    HW176249   0.029   4.414   8.662 -0.7153  1.5426 -1.3729
24936SOL    HW276250   0.155   4.382   8.584  0.2988 -2.0625  1.4910
24937SOL     OW76251   7.222   5.215   5.805  0.6491  0.5590 -0.5145
24937SOL    HW176252   7.188   5.134   5.768  0.2870  0.5910 -0.2504
24937SOL    HW276253   7.196   5.213   5.897  0.3320  1.1385 -0.5845
24938SOL     OW76254   6.629   5.344   7.659  0.2036  0.2634 -0.0894
24938SOL    HW176255   6.589   5.430   7.672  2.4389  1.4065 -0.3807
24938SOL    HW276256   6.590   5.290   7.728 -2.3263  1.0402 -0.7754
24939SOL     OW76257   0.063   4.725   6.827  0.3624  0.1750  0.2693
24939SOL    HW176258   0.075   4.700   6.919  0.5085 -0.1425  0.1662
24939SOL    HW276259   0.072   4.642   6.779  1.8230  0.5592 -0.1649
24940SOL     OW76260   6.403   4.161   8.081  0.0841 -0.3965  0.0473
24940SOL    HW176261   6.388   4.214   8.002 -1.5823 -0.9481 -0.0584
24940SOL    HW276262   6.485   4.194   8.117  1.1733 -0.4837 -2.1987
24941SOL     OW76263   0.507   3.650   7.002  0.1091  0.0361 -0.5820
24941SOL    HW176264   0.496   3.663   6.907 -0.0655 -0.1276 -0.5862
24941SOL    HW276265   0.539   3.734   7.034  0.4268  0.0096 -0.8272
24942SOL     OW76266   0.412   4.455   7.761 -0.3021 -0.4240 -0.0935
24942SOL    HW176267   0.470   4.531   7.774 -1.6425  1.3106 -3.1757
24942SOL    HW276268   0.467   4.389   7.719  0.1083  0.1781 -0.5191
24943SOL     OW76269   0.102   4.896   6.518  0.2790  0.4461  0.0714
24943SOL    HW176270   0.119   4.834   6.448  0.0931 -0.6010  0.9188
24943SOL    HW276271   0.012   4.877   6.546  0.0154  1.4849 -0.0218
24944SOL     OW76272   6.972   4.025   6.285 -0.0654  0.2382 -0.7228
24944SOL    HW176273   6.943   3.941   6.319  2.6666 -0.9321 -1.0734
24944SOL    HW276274   6.960   4.019   6.191 -0.6370  0.5867 -0.6783
24945SOL     OW76275   1.346   5.335   7.562  0.1552 -0.3838 -0.1177
24945SOL    HW176276   1.372   5.351   7.652  0.8093  0.5376 -0.4569
24945SOL    HW276277   1.368   5.415   7.515 -0.8849 -0.5560 -0.9576
24946SOL     OW76278   6.824   2.425   7.326  0.3066 -0.0565 -0.0402
24946SOL    HW176279   6.856   2.337   7.303 -0.4191  0.4976 -3.8020
24946SOL    HW276280   6.767   2.411   7.402 -3.2365 -3.6990 -2.9487
24947SOL     OW76281   6.699   5.649   7.493  0.2345 -0.4106  0.3579
24947SOL    HW176282   6.655   5.613   7.569 -3.1022  1.0389 -0.7335
24947SOL    HW276283   6.695   5.744   7.504 -1.7802 -0.0846 -2.2488
24948SOL     OW76284   6.240   6.259   7.427 -0.3886 -0.1405 -0.1752
24948SOL    HW176285   6.156   6.246   7.382  0.8919 -0.7357 -2.5615
24948SOL    HW276286   6.243   6.189   7.492 -1.2347 -0.8749 -0.8888
24949SOL     OW76287   7.363   7.095   7.367 -0.4487 -0.5351  0.7809
24949SOL    HW176288   7.276   7.093   7.407 -0.2324 -0.7068  1.2559
24949SOL    HW276289   7.354   7.044   7.287 -0.7678 -0.6227  0.8715
24950SOL     OW76290   0.119   3.629   7.074  0.2000 -0.4166  0.2389
24950SOL    HW176291   0.191   3.626   7.137 -0.3333 -2.0001  0.8364
24950SOL    HW276292   0.048   3.580   7.117 -1.0004  0.4841 -0.6274
24951SOL     OW76293   0.943   5.546   4.954 -0.2000  0.5528 -0.1364
24951SOL    HW176294   0.943   5.552   4.858  0.5206  0.1226 -0.1679
24951SOL    HW276295   0.895   5.624   4.983 -0.8356  0.4421 -0.8589
24952SOL     OW76296   0.031   5.561   5.483  0.6197  0.1484  0.3198
24952SOL    HW176297  -0.025   5.485   5.467  0.3496  0.5455 -0.6984
24952SOL    HW276298   0.004   5.593   5.569  0.1228 -0.3846  0.3693
24953SOL     OW76299   6.356   4.818   5.109  0.4198 -0.1986 -0.2387
24953SOL    HW176300   6.421   4.858   5.166  0.2366 -0.6525  0.3025
24953SOL    HW276301   6.351   4.727   5.139 -0.2313 -0.2486 -0.4792
24954SOL     OW76302   7.096   5.687   7.934  0.2379 -0.0089 -0.1924
24954SOL    HW176303   7.095   5.689   7.838 -0.7920  1.2895 -0.1786
24954SOL    HW276304   7.182   5.651   7.956  0.6683  0.0851 -1.5972
24955SOL     OW76305   6.813   3.439   8.813 -0.2158 -0.3194 -0.5189
24955SOL    HW176306   6.799   3.476   8.726 -0.9258 -0.4589 -0.4711
24955SOL    HW276307   6.896   3.391   8.806  0.4645  0.8339 -0.7144
24956SOL     OW76308   1.351   3.670   7.979  0.1584  0.4934  0.1793
24956SOL    HW176309   1.443   3.658   7.957  0.3002 -0.9405  1.4079
24956SOL    HW276310   1.352   3.703   8.068 -0.5121 -0.1418  0.4329
24957SOL     OW76311   7.855   6.647   6.682  0.5170  0.3177  0.0112
24957SOL    HW176312   7.878   6.598   6.761  2.4994  1.2247  0.0567
24957SOL    HW276313   7.775   6.692   6.704  0.4621 -0.2897  1.1232
24958SOL     OW76314   7.313   4.699   7.862 -0.3016  0.2528 -0.4897
24958SOL    HW176315   7.286   4.738   7.779  0.3789  0.5880 -0.5584
24958SOL    HW276316   7.348   4.772   7.913  4.0866 -0.6196 -1.8454
24959SOL     OW76317   6.571   6.596   7.747 -0.0246 -0.4180 -0.2124
24959SOL    HW176318   6.633   6.615   7.676  0.1371 -3.7767 -1.1269
24959SOL    HW276319   6.496   6.556   7.703  0.2291 -2.9595  1.4352
24960SOL     OW76320   7.911   6.188   9.670 -0.2547  0.5234  0.3484
24960SOL    HW176321   7.942   6.098   9.661  0.1099  0.6607  0.2330
24960SOL    HW276322   7.952   6.220   9.750 -0.6574  0.4776  0.5774
24961SOL     OW76323   6.563   3.765   6.314 -0.2725 -0.4782 -0.0378
24961SOL    HW176324   6.525   3.740   6.230 -0.0058 -0.5000 -0.1552
24961SOL    HW276325   6.619   3.840   6.293 -1.8719  0.9268  0.4749
24962SOL     OW76326   7.849   3.968   8.446 -0.0162  0.0796 -0.4722
24962SOL    HW176327   7.902   3.969   8.366  0.1738 -1.3655 -0.3875
24962SOL    HW276328   7.763   3.939   8.417  0.3331 -1.4897 -0.0226
24963SOL     OW76329   0.606   6.449   7.586 -0.3804 -0.0169  0.2136
24963SOL    HW176330   0.682   6.390   7.592  0.6862  1.2923  0.0456
24963SOL    HW276331   0.628   6.509   7.515 -2.2365 -0.4719 -0.8051
24964SOL     OW76332   1.506   5.138   7.434 -0.0269  0.2777 -0.0774
24964SOL    HW176333   1.579   5.124   7.495 -0.9882 -1.8074  0.6932
24964SOL    HW276334   1.456   5.210   7.472  0.1276 -0.1119  0.9112
24965SOL     OW76335   7.579   4.199   8.545  0.2048 -0.1990 -0.2523
24965SOL    HW176336   7.567   4.293   8.528 -0.7351 -0.3986 -0.7492
24965SOL    HW276337   7.561   4.157   8.461 -1.6731 -0.9925  0.4868
24966SOL     OW76338   1.455   3.675   9.197 -0.1364 -0.2217 -0.5739
24966SOL    HW176339   1.501   3.635   9.271 -1.6973 -2.3304 -0.6557
24966SOL    HW276340   1.422   3.758   9.232 -0.8236 -1.1539  1.1327
24967SOL     OW76341   7.015   4.893   7.876 -0.3730  0.2361 -0.6608
24967SOL    HW176342   7.076   4.877   7.803  1.2387  1.5119  0.3300
24967SOL    HW276343   7.072   4.900   7.953 -1.9434 -0.0447  0.5696
24968SOL     OW76344   7.471   6.106   8.043 -0.1210  0.1427 -0.5871
24968SOL    HW176345   7.394   6.050   8.047 -0.5080  0.5782 -1.5576
24968SOL    HW276346   7.435   6.195   8.050  0.2165  0.3775 -1.6754
24969SOL     OW76347   0.270   6.520  10.049  0.4643  0.1253 -0.7192
24969SOL    HW176348   0.226   6.519   9.964 -1.3542 -0.5531  0.1585
24969SOL    HW276349   0.313   6.605  10.054 -1.0298  0.9589 -1.5483
24970SOL     OW76350   0.813   2.891   7.932  0.6065  0.3214  0.7711
24970SOL    HW176351   0.759   2.969   7.922  0.3298  0.2284  1.4700
24970SOL    HW276352   0.876   2.895   7.860  0.6373  1.2215  0.8442
24971SOL     OW76353   0.522   7.066   9.425  0.0207 -0.1019 -0.6574
24971SOL    HW176354   0.556   7.116   9.350  1.0634 -1.3447 -1.0415
24971SOL    HW276355   0.537   6.975   9.402 -0.3908 -0.5388  0.7244
24972SOL     OW76356   5.981   5.046   7.130 -0.0538 -0.3160  0.6849
24972SOL    HW176357   5.886   5.049   7.142 -0.0465  0.9646  0.6287
24972SOL    HW276358   5.993   5.024   7.037 -0.4413  3.3503 -0.3870
24973SOL     OW76359   1.144   6.367   9.707 -0.2930 -0.3016  0.0689
24973SOL    HW176360   1.172   6.292   9.759 -0.6393  0.2566  1.0952
24973SOL    HW276361   1.120   6.433   9.772 -0.9293  0.3515 -0.8078
24974SOL     OW76362   7.446   4.916   8.051  0.4125 -0.0848  0.4694
24974SOL    HW176363   7.482   5.005   8.046  1.0986 -0.3889 -0.3607
24974SOL    HW276364   7.486   4.878   8.129  0.4145  0.2062  0.6114
24975SOL     OW76365   5.913   4.802   7.590 -0.0444  0.5526  0.6241
24975SOL    HW176366   5.912   4.709   7.613  0.9351  0.1655 -0.7932
24975SOL    HW276367   5.931   4.804   7.496  1.2010  2.1942  0.8394
24976SOL     OW76368   0.311   5.146   7.535 -0.3513 -0.2106 -0.3151
24976SOL    HW176369   0.335   5.163   7.626  0.5652 -1.8590 -0.2026
24976SOL    HW276370   0.389   5.170   7.485 -0.3732 -0.5661 -0.5236
24977SOL     OW76371   7.024   4.048   9.845 -0.0674 -0.6355 -0.0269
24977SOL    HW176372   7.085   4.097   9.900 -0.7936 -0.6229  0.7864
24977SOL    HW276373   7.010   4.105   9.769  0.6502 -0.4835 -0.0542
24978SOL     OW76374   7.394   3.549   7.129 -0.0769 -0.7257 -0.6180
24978SOL    HW176375   7.310   3.511   7.103 -0.2525 -1.3067  0.7422
24978SOL    HW276376   7.451   3.534   7.053 -0.9622 -1.0689 -1.2335
24979SOL     OW76377   1.280   2.449   7.498 -0.2340  0.2509 -0.5553
24979SOL    HW176378   1.330   2.409   7.426  2.2706 -0.7582  1.5911
24979SOL    HW276379   1.344   2.503   7.544 -1.1885 -0.7586  2.1209
24980SOL     OW76380   7.088   4.694   6.476 -0.1559 -0.4568  0.0457
24980SOL    HW176381   7.009   4.736   6.511 -0.5394  1.5626 -2.8388
24980SOL    HW276382   7.071   4.686   6.382  2.5222 -1.2622 -0.4603
24981SOL     OW76383   0.575   3.619   9.605  0.5703 -0.7448  0.2218
24981SOL    HW176384   0.653   3.594   9.654  0.7046  1.8340  1.4853
24981SOL    HW276385   0.603   3.694   9.553 -0.7670 -0.5685 -0.2716
24982SOL     OW76386   6.956   5.294   9.417  0.2119 -0.1489 -0.1644
24982SOL    HW176387   6.951   5.218   9.476  0.4572 -0.8676 -1.0453
24982SOL    HW276388   6.942   5.257   9.330 -1.4768  1.0936 -0.4563
24983SOL     OW76389   5.162   5.680  11.056 -0.3917  0.0480  0.4038
24983SOL    HW176390   5.192   5.765  11.090  0.6264 -0.4911  0.9039
24983SOL    HW276391   5.077   5.666  11.097 -0.9603  1.2049 -0.3340
24984SOL     OW76392   7.957   4.060   7.962 -0.8057 -0.0239 -0.3733
24984SOL    HW176393   8.001   4.082   7.880  2.4534  0.7955  1.4481
24984SOL    HW276394   7.930   3.969   7.950  2.6769 -1.0840 -1.2254
24985SOL     OW76395   0.379   4.457   9.138  0.0907 -0.4863  0.4036
24985SOL    HW176396   0.456   4.408   9.109  1.6834  1.7758  0.5888
24985SOL    HW276397   0.345   4.498   9.058  0.4816  0.3811  0.6765
24986SOL     OW76398   0.386   3.476   9.474  0.0117  0.6124 -0.1271
24986SOL    HW176399   0.452   3.503   9.537  1.1612  1.7246 -1.7414
24986SOL    HW276400   0.431   3.414   9.416 -0.8871 -0.0361 -0.1623
24987SOL     OW76401   7.182   5.091   8.684 -0.5711 -0.4363  0.0306
24987SOL    HW176402   7.248   5.085   8.615 -0.9166 -2.1808 -0.1716
24987SOL    HW276403   7.232   5.107   8.764 -0.0237 -0.3220 -0.3332
24988SOL     OW76404   7.411   3.189  11.064  0.4779  0.3193  0.1189
24988SOL    HW176405   7.465   3.171  10.987  0.1930  2.0278 -0.5151
24988SOL    HW276406   7.321   3.186  11.031  0.3741  1.5546  0.2544
24989SOL     OW76407   7.457   5.384   6.975 -0.0417  0.4178  0.2246
24989SOL    HW176408   7.489   5.329   7.046 -0.9725 -1.7335 -0.9322
24989SOL    HW276409   7.520   5.370   6.904  0.0699  1.3994  0.1163
24990SOL     OW76410   6.306   3.814   7.545 -0.0605 -0.0591  0.1304
24990SOL    HW176411   6.399   3.806   7.566 -0.2397 -1.1856  0.5534
24990SOL    HW276412   6.270   3.870   7.614  0.0869 -0.5612  0.6150
24991SOL     OW76413   0.353   5.394   9.098 -0.4243 -0.7818 -0.1178
24991SOL    HW176414   0.324   5.460   9.161  0.0977 -0.5689 -0.1010
24991SOL    HW276415   0.390   5.324   9.152  2.1578  0.3972 -0.2315
24992SOL     OW76416   0.827   4.205   9.001 -0.4731  0.6823  0.8359
24992SOL    HW176417   0.832   4.274   8.935  0.0169  1.3496  1.5548
24992SOL    HW276418   0.902   4.147   8.981 -0.3814  0.8292  0.7515
24993SOL     OW76419   7.244   6.760   7.224  0.1740  0.1985  0.0217
24993SOL    HW176420   7.156   6.790   7.204  0.3375  0.7948  0.1716
24993SOL    HW276421   7.247   6.755   7.319 -0.2682 -1.6108 -0.0193
24994SOL     OW76422   0.202   5.042   8.887 -0.4066  0.2029  0.0830
24994SOL    HW176423   0.139   5.098   8.841 -1.6259  0.8045  2.3730
24994SOL    HW276424   0.273   5.101   8.911  1.0540 -0.4359 -2.3232
24995SOL     OW76425   0.210   4.285   8.439  0.3038  0.2251  0.0240
24995SOL    HW176426   0.178   4.195   8.432  1.0255 -0.0587  0.3019
24995SOL    HW276427   0.297   4.282   8.401  0.4592  0.7421  0.3372
24996SOL     OW76428   6.982   5.366   7.140 -0.3803 -0.3860  0.8028
24996SOL    HW176429   7.076   5.384   7.142 -0.4842  0.9410 -1.9828
24996SOL    HW276430   6.944   5.435   7.195  0.2510 -1.0215  2.0692
24997SOL     OW76431   0.776   4.909   8.894 -0.9433 -0.2553  0.2949
24997SOL    HW176432   0.744   4.918   8.984  0.7896  0.7011  0.8732
24997SOL    HW276433   0.702   4.934   8.839 -2.0677 -0.9584  1.4454
24998SOL     OW76434   6.373   4.570   6.582 -0.5502  0.1072  0.2262
24998SOL    HW176435   6.427   4.492   6.593 -0.2979 -0.0399 -1.8050
24998SOL    HW276436   6.288   4.537   6.552 -0.8188  0.5518  0.4810
24999SOL     OW76437   7.438   4.406   8.271  0.0191 -0.2216 -0.2507
24999SOL    HW176438   7.407   4.416   8.361  0.9327  1.3379 -0.0840
24999SOL    HW276439   7.363   4.368   8.224 -0.5296 -0.8780  1.1097
25000SOL     OW76440   0.211   4.443   7.936 -0.1231 -0.0392 -0.6336
25000SOL    HW176441   0.241   4.388   8.008 -0.7674  0.2685 -0.1204
25000SOL    HW276442   0.287   4.451   7.878  0.5809  0.1962  0.2995
25001SOL     OW76443   7.394   5.767   8.697  0.3369 -0.2111  0.1633
25001SOL    HW176444   7.360   5.719   8.622 -0.1056  1.1006 -0.5183
25001SOL    HW276445   7.482   5.795   8.671 -0.3890  1.5871 -0.5617
25002SOL     OW76446   0.594   3.082   7.841  0.4331  0.1592  0.2588
25002SOL    HW176447   0.499   3.081   7.850  0.3653  1.1873 -0.2591
25002SOL    HW276448   0.610   3.075   7.747  0.7927  2.1123  0.1348
25003SOL     OW76449   0.677   6.488   8.856  0.2113 -0.3023 -0.7620
25003SOL    HW176450   0.759   6.520   8.892 -0.0180 -0.1184 -0.3912
25003SOL    HW276451   0.617   6.485   8.931  0.3406 -2.0150 -0.6996
25004SOL     OW76452   7.498   5.232   8.441 -0.0136  0.9138 -0.6151
25004SOL    HW176453   7.544   5.163   8.490 -2.5943 -0.6816 -0.2442
25004SOL    HW276454   7.536   5.314   8.473  0.5504 -0.1948  1.7749
25005SOL     OW76455   1.464   5.567   7.839 -0.2330  0.1874  0.4071
25005SOL    HW176456   1.465   5.472   7.853 -1.1939 -0.3400 -2.4143
25005SOL    HW276457   1.552   5.587   7.806 -0.4067  0.0396 -0.1584
25006SOL     OW76458   7.518   5.965   8.396 -0.2996 -0.0067  0.2268
25006SOL    HW176459   7.586   5.900   8.412  0.0485  0.8869  2.8883
25006SOL    HW276460   7.555   6.022   8.328  1.7797  0.5882  1.7484
25007SOL     OW76461   7.364   6.813   8.491 -0.3108  0.8677  0.2750
25007SOL    HW176462   7.370   6.799   8.396 -1.0670 -0.9521  0.4618
25007SOL    HW276463   7.454   6.829   8.518  0.2319 -0.6353 -0.4958
25008SOL     OW76464   0.826   5.965   9.653  0.1234  0.3648  0.1622
25008SOL    HW176465   0.858   5.875   9.651  2.1184  1.0396 -1.1110
25008SOL    HW276466   0.753   5.965   9.591 -1.9395 -0.9779  2.3975
25009SOL     OW76467   7.746   5.002   8.280  0.5614 -0.1171 -0.3122
25009SOL    HW176468   7.746   5.010   8.375  1.4610 -1.0290 -0.2047
25009SOL    HW276469   7.792   4.919   8.263 -0.1008 -0.2672 -1.5175
25010SOL     OW76470   0.584   3.916  11.325  0.0300  0.8323  0.7589
25010SOL    HW176471   0.661   3.905  11.269 -0.8774  0.5695 -0.4669
25010SOL    HW276472   0.523   3.849  11.295 -0.3913  0.5264  2.2448
25011SOL     OW76473   0.251   3.571   8.379 -0.5788  0.0502  0.8889
25011SOL    HW176474   0.295   3.494   8.344 -0.3718  0.3479  0.4963
25011SOL    HW276475   0.220   3.544   8.466 -0.1446 -0.3427  0.9186
25012SOL     OW76476   0.305   5.742   8.814 -0.0344  0.3526 -0.3403
25012SOL    HW176477   0.298   5.738   8.909  1.1452  2.0588 -0.1376
25012SOL    HW276478   0.241   5.679   8.782  1.4966 -2.3647  1.5981
25013SOL     OW76479   1.179   7.273   7.996  0.0038 -0.0465 -0.0341
25013SOL    HW176480   1.167   7.366   7.978 -0.6051 -0.2375 -0.6214
25013SOL    HW276481   1.230   7.271   8.077  0.3524  0.7989 -0.2242
25014SOL     OW76482   1.428   5.013   9.744  0.6143 -0.3487 -0.0480
25014SOL    HW176483   1.490   4.943   9.723  0.8014 -0.8360  1.8920
25014SOL    HW276484   1.477   5.071   9.802 -0.0879  0.4443 -0.2269
25015SOL     OW76485   6.171   5.498   9.196  0.0736  0.3972 -0.7590
25015SOL    HW176486   6.106   5.499   9.126 -3.0088 -0.2557  1.8648
25015SOL    HW276487   6.209   5.586   9.196 -1.1145  0.9257 -2.1265
25016SOL     OW76488   7.323   5.677   9.764  0.2431  0.0175 -0.1241
25016SOL    HW176489   7.399   5.680   9.707  1.0662  0.0218  0.9397
25016SOL    HW276490   7.307   5.584   9.779  0.6654  0.0391  0.4629
25017SOL     OW76491   7.757   5.261   7.610  0.0448  0.7116  0.7907
25017SOL    HW176492   7.813   5.272   7.686  0.9539  0.0609  0.2346
25017SOL    HW276493   7.724   5.171   7.619  2.0058 -0.2265 -0.7543
25018SOL     OW76494   7.260   6.313   7.081 -0.3631  0.7264  0.5959
25018SOL    HW176495   7.293   6.336   6.995  0.9716 -0.5409  0.7462
25018SOL    HW276496   7.266   6.394   7.131 -1.6376  1.6089 -0.6108
25019SOL     OW76497   6.347   2.989  10.053 -0.4478  0.4216 -0.1202
25019SOL    HW176498   6.286   2.995   9.980 -0.1166 -0.6012 -0.5034
25019SOL    HW276499   6.433   3.011  10.015 -0.0395 -1.4821 -0.4090
25020SOL     OW76500   6.821   3.676   9.068 -0.0975  0.0555  1.2132
25020SOL    HW176501   6.900   3.725   9.045 -0.1595 -0.2997  0.2070
25020SOL    HW276502   6.811   3.611   8.998 -0.9020 -0.3551  1.6881
25021SOL     OW76503   7.636   4.063  10.213 -0.1270 -0.3327  0.0177
25021SOL    HW176504   7.595   4.005  10.277  0.1800 -0.3787  0.1737
25021SOL    HW276505   7.580   4.056  10.135 -0.2439 -0.6277  0.1259
25022SOL     OW76506   6.833   4.008   8.594 -0.1948  0.5142 -0.7732
25022SOL    HW176507   6.897   4.078   8.606  1.7480 -1.2350 -0.2566
25022SOL    HW276508   6.806   3.985   8.683  0.5450 -0.5352 -0.8011
25023SOL     OW76509   0.436   3.403   9.819 -0.1488 -0.4963  0.2909
25023SOL    HW176510   0.520   3.370   9.849 -0.3114 -2.4223 -1.2105
25023SOL    HW276511   0.371   3.359   9.874 -0.2475 -0.2049  0.4112
25024SOL     OW76512   0.285   4.865   8.528  0.1456 -0.5793  0.6342
25024SOL    HW176513   0.275   4.960   8.534  0.7310 -0.3920 -0.9516
25024SOL    HW276514   0.235   4.831   8.603  0.5005  0.9853  1.6381
25025SOL     OW76515   7.120   7.235   9.727  0.1149  0.3452  0.1750
25025SOL    HW176516   7.175   7.193   9.660  1.0071 -1.9122  2.1862
25025SOL    HW276517   7.031   7.228   9.692  0.7220  1.0190 -1.6293
25026SOL     OW76518   6.975   4.577  10.498  0.1222 -0.2533 -0.2983
25026SOL    HW176519   7.029   4.569  10.420  0.1345 -1.1866 -0.2054
25026SOL    HW276520   7.037   4.580  10.571  0.0543 -2.0670 -0.1359
25027SOL     OW76521   6.840   4.361  10.141 -0.0659  0.2254  0.0900
25027SOL    HW176522   6.777   4.319  10.083  0.5179 -1.7353  0.7817
25027SOL    HW276523   6.794   4.370  10.224  0.2526 -0.4229  0.3500
25028SOL     OW76524   7.615   4.632   7.686  0.6431  0.1974  0.0765
25028SOL    HW176525   7.687   4.575   7.658  0.8442  0.5370 -0.0952
25028SOL    HW276526   7.560   4.640   7.609  1.2388  1.1981 -0.2550
25029SOL     OW76527   7.247   5.675  11.888 -0.0240 -0.3800  0.0870
25029SOL    HW176528   7.255   5.750  11.830  2.0197  0.5022  1.3765
25029SOL    HW276529   7.306   5.609  11.851  1.6331  0.3483  1.2922
25030SOL     OW76530   6.970   3.249  11.260 -0.3156 -0.7507 -0.0687
25030SOL    HW176531   7.062   3.229  11.273 -0.5401 -1.8387 -0.1072
25030SOL    HW276532   6.937   3.178  11.205 -1.3051 -0.6678  0.3918
25031SOL     OW76533   7.476   2.578  11.108 -0.1838 -0.0886  0.2519
25031SOL    HW176534   7.500   2.666  11.078 -1.6014  0.5571  0.9495
25031SOL    HW276535   7.434   2.592  11.192  2.0539 -1.7123  1.7536
25032SOL     OW76536   7.591   5.533   9.636 -0.2230  0.4986 -0.0395
25032SOL    HW176537   7.592   5.467   9.705 -1.5518  1.5636  1.0811
25032SOL    HW276538   7.652   5.501   9.570 -0.2836 -1.4601  0.7950
25033SOL     OW76539   7.195   4.633  10.330  0.2990 -0.0901 -0.1128
25033SOL    HW176540   7.283   4.639  10.367  0.2000 -0.0385  0.1155
25033SOL    HW276541   7.209   4.635  10.235  0.3902  2.3980 -0.1089
25034SOL     OW76542   6.629   4.243   9.945 -0.6663 -0.1926 -0.2814
25034SOL    HW176543   6.586   4.249   9.860  0.5327 -0.3054 -0.9219
25034SOL    HW276544   6.686   4.166   9.938 -0.5790 -0.2323  0.6470
25035SOL     OW76545   0.370   4.078   8.481 -0.0785  0.1011  0.2817
25035SOL    HW176546   0.300   4.083   8.546  0.5396 -0.7373  1.0240
25035SOL    HW276547   0.386   3.985   8.469  1.1290  0.2791  0.3574
25036SOL     OW76548   7.018   4.567  11.671  0.1127  0.5876 -0.0360
25036SOL    HW176549   7.091   4.573  11.610  1.0090  0.3213  0.9865
25036SOL    HW276550   7.022   4.648  11.722  0.2856  0.1383  0.6684
25037SOL     OW76551   6.857   6.743  10.288 -0.0141  0.0310  0.5974
25037SOL    HW176552   6.922   6.808  10.314 -0.4227 -0.0094  1.7741
25037SOL    HW276553   6.814   6.718  10.369  0.7703 -2.4586  0.3313
25038SOL     OW76554   7.190   7.300  10.196  0.5793 -0.1752 -0.2772
25038SOL    HW176555   7.282   7.320  10.181  0.8693 -1.8263 -0.8665
25038SOL    HW276556   7.172   7.224  10.141 -0.7075 -0.8820  1.0385
25039SOL     OW76557   7.671   3.969   9.748 -0.2948  0.3366 -0.0497
25039SOL    HW176558   7.755   3.963   9.793 -0.9293 -1.9552  0.9798
25039SOL    HW276559   7.692   4.011   9.664  2.2262 -1.6566 -0.5708
25040SOL     OW76560   6.976   6.283   9.956 -0.0743  0.8308  0.4539
25040SOL    HW176561   6.888   6.321   9.957 -0.0160  0.9760  0.1996
25040SOL    HW276562   6.962   6.192   9.928  0.0129  1.3126 -1.2986
25041SOL     OW76563   6.701   3.865  10.660  0.0980 -0.1529  0.0284
25041SOL    HW176564   6.750   3.906  10.732 -2.5620 -0.3564  2.1105
25041SOL    HW276565   6.611   3.894  10.672 -0.6411 -1.0091 -2.7037
25042SOL     OW76566   0.624   2.393   9.736  0.1843  0.2274  0.6485
25042SOL    HW176567   0.627   2.403   9.640 -0.0727 -0.2635  0.5850
25042SOL    HW276568   0.562   2.460   9.765 -1.1554 -0.8004  0.2802
25043SOL     OW76569   1.353   3.074   9.398  0.2717 -0.0625 -0.0622
25043SOL    HW176570   1.313   3.010   9.339  0.8688 -0.8878  0.4009
25043SOL    HW276571   1.339   3.158   9.355 -1.2138 -0.4070 -0.3209
25044SOL     OW76572   6.291   5.323   8.676  0.1993 -0.2460  0.2888
25044SOL    HW176573   6.255   5.239   8.705 -1.4287  0.5749  0.7314
25044SOL    HW276574   6.295   5.376   8.755  0.4340  0.3861 -0.1429
25045SOL     OW76575   0.445   6.708   8.999  0.6371 -0.2633 -0.0658
25045SOL    HW176576   0.500   6.732   8.924  1.3577 -0.8819  0.2585
25045SOL    HW276577   0.423   6.792   9.039  0.9476  0.0217 -0.4780
25046SOL     OW76578   0.550   4.189   9.263  0.2427  0.0811  0.5398
25046SOL    HW176579   0.523   4.241   9.187 -0.1717  0.7005  1.0961
25046SOL    HW276580   0.472   4.138   9.285 -0.7560  2.2335  2.4492
25047SOL     OW76581   7.525   4.178  11.336  0.0241 -0.1940 -0.4575
25047SOL    HW176582   7.610   4.136  11.324  0.1536  0.8151 -4.5875
25047SOL    HW276583   7.546   4.262  11.378  0.6666 -0.9414  0.8023
25048SOL     OW76584   7.931   5.945  10.157 -0.5912 -0.8265  0.6591
25048SOL    HW176585   7.880   5.976  10.082 -1.8513  0.5453  2.0013
25048SOL    HW276586   8.022   5.967  10.136 -1.0352  0.3867 -0.0607
25049SOL     OW76587   5.947   4.553  10.800  0.0215  0.1777  0.3397
25049SOL    HW176588   5.872   4.553  10.740  0.9549  2.1894 -0.9463
25049SOL    HW276589   6.020   4.585  10.746  1.4600 -0.2114  1.9740
25050SOL     OW76590   7.374   6.112   9.560  0.0964  0.2987 -0.1768
25050SOL    HW176591   7.336   6.075   9.640 -0.9940  1.8727  0.0843
25050SOL    HW276592   7.466   6.127   9.582 -0.3083  1.2365  1.0087
25051SOL     OW76593   5.841   5.045   7.720 -0.4813 -0.4130 -0.2560
25051SOL    HW176594   5.840   4.994   7.801 -1.6896 -0.2155 -0.1300
25051SOL    HW276595   5.862   4.982   7.651  1.1531 -0.4780  0.2498
25052SOL     OW76596   0.763   5.876   9.195  0.2085 -0.1370  0.0473
25052SOL    HW176597   0.799   5.788   9.205  1.3842  0.4312  1.2430
25052SOL    HW276598   0.834   5.926   9.154 -0.5871  0.1751 -0.9863
25053SOL     OW76599   7.825   4.071  10.669 -0.2875 -0.3690 -0.0217
25053SOL    HW176600   7.900   4.028  10.628 -0.0151  0.6943 -0.6750
25053SOL    HW276601   7.771   4.100  10.595 -0.1988  0.8537  0.3770
25054SOL     OW76602   7.660   3.332   0.132  0.1518  0.2586  0.6279
25054SOL    HW176603   7.729   3.291   0.079 -0.0589 -3.0622  2.6421
25054SOL    HW276604   7.708   3.384   0.197  0.7951 -1.2827  1.4409
25055SOL     OW76605   1.022   4.772  11.407  0.4935  0.1856 -0.1809
25055SOL    HW176606   0.990   4.774  11.317 -0.8596 -1.4802  0.2246
25055SOL    HW276607   0.946   4.795  11.460  0.7475 -0.7529  0.6254
25056SOL     OW76608   5.688   3.502  10.135 -0.3829 -0.2778 -0.3971
25056SOL    HW176609   5.721   3.585  10.171  0.2238 -0.9700  0.6953
25056SOL    HW276610   5.685   3.517  10.040  1.0537  0.5294 -0.3473
25057SOL     OW76611   7.668   5.071   9.222 -0.3892 -0.2119 -0.3639
25057SOL    HW176612   7.727   5.002   9.253  0.7921  0.9194 -0.0049
25057SOL    HW276613   7.580   5.035   9.235  0.0724 -0.5005  2.7439
25058SOL     OW76614   7.012   5.649  10.175 -0.2584 -0.2985  0.0425
25058SOL    HW176615   7.104   5.627  10.162  0.5041  3.0041 -1.3991
25058SOL    HW276616   7.009   5.691  10.260 -0.6044 -1.0538  0.4101
25059SOL     OW76617   1.097   4.004   9.271 -0.0305  0.4738 -0.7957
25059SOL    HW176618   1.088   4.094   9.301 -0.3069  0.2948 -0.3269
25059SOL    HW276619   1.188   3.981   9.288 -0.5771 -0.1967  1.5821
25060SOL     OW76620   6.859   3.591   9.641  0.3734  0.2647  0.1559
25060SOL    HW176621   6.772   3.566   9.672  0.4019  0.4439  0.3912
25060SOL    HW276622   6.886   3.660   9.702  1.2321 -0.6987  0.8954
25061SOL     OW76623   6.480   6.463   9.860  0.8002  0.4526 -0.7981
25061SOL    HW176624   6.418   6.496   9.925  0.7292 -0.6993 -0.2487
25061SOL    HW276625   6.463   6.514   9.781 -1.5055 -0.4497 -0.9607
25062SOL     OW76626   0.524   6.272   7.845 -0.2688 -0.2642 -0.1360
25062SOL    HW176627   0.463   6.199   7.834 -0.4444 -0.3964  1.5090
25062SOL    HW276628   0.487   6.342   7.791 -1.4386 -0.5989  0.2065
25063SOL     OW76629   7.854   6.692  10.183 -0.1210  0.0831  0.2580
25063SOL    HW176630   7.812   6.608  10.204 -1.1228  0.4018 -0.3716
25063SOL    HW276631   7.947   6.675  10.191 -0.2921 -1.1809 -0.1373
25064SOL     OW76632   1.058   4.410  10.061  0.9257  0.1567 -0.6448
25064SOL    HW176633   1.097   4.462  10.131  1.9705 -1.8566  0.3689
25064SOL    HW276634   0.968   4.441  10.055  0.5032 -0.2015  2.2822
25065SOL     OW76635   7.436   5.465   8.732 -0.7201  0.0944  0.3754
25065SOL    HW176636   7.393   5.542   8.769 -0.2411 -0.3601  1.9625
25065SOL    HW276637   7.380   5.439   8.659 -0.5903  2.2397 -0.5402
25066SOL     OW76638   7.364   6.198   9.313 -0.4659  0.0485  0.0117
25066SOL    HW176639   7.367   6.179   9.407 -0.1109  2.6782  0.6105
25066SOL    HW276640   7.280   6.161   9.284 -0.9900 -0.0566  1.5516
25067SOL     OW76641   5.457   5.440  11.064 -0.2087  0.0892  0.2651
25067SOL    HW176642   5.516   5.487  11.123  0.2789 -0.3836  0.1674
25067SOL    HW276643   5.453   5.351  11.100  0.8997 -0.4909 -0.9701
25068SOL     OW76644   5.761   6.135   8.607 -0.0583 -1.1481  0.0850
25068SOL    HW176645   5.675   6.094   8.595 -1.0180  0.4984  1.0080
25068SOL    HW276646   5.774   6.135   8.702  0.1371  0.2053  0.0744
25069SOL     OW76647   0.591   5.731  11.485 -0.1994  0.1074  0.5549
25069SOL    HW176648   0.658   5.756  11.421 -0.6822 -0.0211 -0.0104
25069SOL    HW276649   0.553   5.651  11.451 -1.8628  1.1121 -0.0888
25070SOL     OW76650   5.810   4.228  10.311 -0.0303 -0.0096 -0.0392
25070SOL    HW176651   5.805   4.176  10.231  0.4507  1.4132 -1.0343
25070SOL    HW276652   5.721   4.229  10.346 -0.3884 -0.0884 -0.9355
25071SOL     OW76653   7.264   5.800  10.648 -0.2336  0.0791 -0.2998
25071SOL    HW176654   7.208   5.854  10.704 -0.7546 -0.9974  0.2489
25071SOL    HW276655   7.248   5.710  10.678  0.8925 -0.3508 -0.9388
25072SOL     OW76656   7.185   2.760   8.658  1.3554 -0.5747 -0.2675
25072SOL    HW176657   7.127   2.717   8.721  1.5079  0.0674  0.3279
25072SOL    HW276658   7.243   2.691   8.626  1.5726 -0.8230  0.6397
25073SOL     OW76659   7.288   5.808  11.389 -0.8692  0.2233  0.4380
25073SOL    HW176660   7.198   5.794  11.361 -0.5474 -0.4850 -0.2874
25073SOL    HW276661   7.335   5.832  11.309 -0.6075  1.6095  0.9858
25074SOL     OW76662   0.334   6.596  10.347  0.2141 -0.3225 -0.0760
25074SOL    HW176663   0.380   6.576  10.428 -0.8553  0.1139  0.6536
25074SOL    HW276664   0.273   6.524  10.334 -0.4068  0.1593  0.1135
25075SOL     OW76665   0.292   4.534   8.856  0.2326  0.0494 -0.6476
25075SOL    HW176666   0.374   4.527   8.808  1.5919 -0.0327  1.5261
25075SOL    HW276667   0.232   4.475   8.811  1.6273 -0.5531 -1.7918
25076SOL     OW76668   6.888   4.678  10.839 -0.3421 -0.2375  0.5283
25076SOL    HW176669   6.942   4.754  10.858  1.2479 -1.4021  0.8138
25076SOL    HW276670   6.942   4.623  10.782 -2.1550 -0.3319 -1.2234
25077SOL     OW76671   0.170   4.774   8.746  0.0115 -0.0812 -0.2210
25077SOL    HW176672   0.198   4.684   8.763  0.7969  0.1950 -0.0255
25077SOL    HW276673   0.123   4.800   8.825  0.8903  0.1106  0.2456
25078SOL     OW76674   7.913   3.432   9.493 -0.1269  0.3070  0.0858
25078SOL    HW176675   8.003   3.406   9.512 -0.3132 -1.8263 -1.5809
25078SOL    HW276676   7.859   3.363   9.531 -0.8819  0.2032 -1.1189
25079SOL     OW76677   6.157   4.964   0.449  0.0259  0.1566  0.1172
25079SOL    HW176678   6.242   4.959   0.406 -0.2199 -2.5565 -0.2018
25079SOL    HW276679   6.098   4.999   0.383  0.4067 -0.3225 -0.4799
25080SOL     OW76680   1.721   4.807  12.053  0.5970 -0.4423  0.3651
25080SOL    HW176681   1.795   4.868  12.043 -0.9953  1.8803  1.6444
25080SOL    HW276682   1.684   4.830  12.138 -1.9848 -1.0577 -0.5265
25081SOL     OW76683   0.425   4.891   9.273  0.0894 -0.2763 -0.7894
25081SOL    HW176684   0.395   4.842   9.197 -0.0738 -2.2798  0.4902
25081SOL    HW276685   0.520   4.888   9.267  0.0778 -0.4360 -0.8949
25082SOL     OW76686   7.892   3.757  11.039 -0.6715 -0.1526 -0.2116
25082SOL    HW176687   7.818   3.725  10.985  0.3592 -1.8309 -0.7080
25082SOL    HW276688   7.965   3.762  10.978 -0.5579  2.5706  0.0244
25083SOL     OW76689   6.291   4.296  10.189 -0.2435 -0.2233  0.3929
25083SOL    HW176690   6.278   4.368  10.127 -1.0021 -2.2244 -1.9578
25083SOL    HW276691   6.386   4.282  10.188 -0.2540 -0.3050 -0.4429
25084SOL     OW76692   0.331   4.025   9.294  0.0357  0.8554  0.3533
25084SOL    HW176693   0.372   3.940   9.278  0.4749  1.2625 -0.7827
25084SOL    HW276694   0.290   4.016   9.380 -0.2431 -0.6246  0.0950
25085SOL     OW76695   6.098   4.384  10.995 -0.2167 -0.0590 -0.4373
25085SOL    HW176696   6.028   4.321  11.013  0.5747 -0.9853 -0.5202
25085SOL    HW276697   6.059   4.445  10.933 -0.7708 -0.9204 -0.9684
25086SOL     OW76698   0.435   3.469   0.585 -0.6364  0.4325  0.2816
25086SOL    HW176699   0.447   3.394   0.643  1.5037  0.6307  0.1721
25086SOL    HW276700   0.421   3.430   0.498  3.9531 -0.0727 -0.4962
25087SOL     OW76701   6.289   3.993   9.520  0.4234  0.0098 -0.3121
25087SOL    HW176702   6.291   3.911   9.471  1.8288  0.0895 -0.4448
25087SOL    HW276703   6.196   4.011   9.534  0.0921 -1.5099 -0.4165
25088SOL     OW76704   0.627   6.406  11.891 -0.0462 -0.4301 -0.0428
25088SOL    HW176705   0.705   6.423  11.839  0.6975  0.3418  1.2599
25088SOL    HW276706   0.611   6.488  11.939 -1.3005 -0.7723  0.1771
25089SOL     OW76707   7.717   4.915  10.500  0.5980  0.2911 -0.1332
25089SOL    HW176708   7.685   4.853  10.434 -0.0735 -0.6748  1.0764
25089SOL    HW276709   7.655   4.988  10.497  0.0949 -0.1353  0.0265
25090SOL     OW76710   0.542   5.486  12.151 -0.2248  0.3775  0.0749
25090SOL    HW176711   0.575   5.525  12.232 -0.0152  2.9359 -1.1558
25090SOL    HW276712   0.584   5.537  12.081 -0.4273 -1.7187 -1.6686
25091SOL     OW76713   6.635   5.779  11.601 -0.2604  0.7210  0.0563
25091SOL    HW176714   6.619   5.685  11.602 -0.7323  0.7983 -0.1402
25091SOL    HW276715   6.670   5.799  11.688 -2.4046  0.7505  0.9583
25092SOL     OW76716   7.943   5.486  12.424 -0.1845  0.3524  0.1070
25092SOL    HW176717   8.007   5.423  12.392  0.6007  0.4027  1.4843
25092SOL    HW276718   7.982   5.571  12.405  0.4086  0.3821  1.3584
25093SOL     OW76719   0.697   6.366  10.603 -0.2663  0.4333  0.2175
25093SOL    HW176720   0.704   6.449  10.650  2.2166 -0.5723  1.8281
25093SOL    HW276721   0.787   6.341  10.585 -0.9835 -1.5668 -0.9330
25094SOL     OW76722   2.198   4.743  11.908  0.1623  0.2347  0.4084
25094SOL    HW176723   2.194   4.837  11.929  0.8134  0.4768 -0.4905
25094SOL    HW276724   2.121   4.727  11.854  0.1159  0.2754  0.4618
25095SOL     OW76725   7.681   5.549  11.450 -0.8372 -0.2345 -0.2953
25095SOL    HW176726   7.693   5.616  11.383  1.0590 -0.7819 -0.5806
25095SOL    HW276727   7.595   5.511  11.432 -0.4008 -0.3329 -2.4155
25096SOL     OW76728   0.768   4.461  10.909 -0.2879  0.8289 -0.2918
25096SOL    HW176729   0.816   4.453  10.827  1.6795  1.2556  0.7590
25096SOL    HW276730   0.783   4.378  10.954 -0.7112  0.8881 -0.0388
25097SOL     OW76731   0.399   4.112   0.683 -0.3422  0.2152 -0.6100
25097SOL    HW176732   0.385   4.087   0.592 -0.4416 -2.6369  0.0699
25097SOL    HW276733   0.314   4.148   0.711 -0.0675  1.8854 -1.7986
25098SOL     OW76734   7.793   3.485  12.394 -0.2146  0.2044  0.1829
25098SOL    HW176735   7.701   3.508  12.377 -0.1847 -0.1849 -0.5420
25098SOL    HW276736   7.833   3.567  12.424 -0.4073  0.8166 -1.1343
25099SOL     OW76737   6.487   3.870  10.304  0.5413 -0.5276 -0.1492
25099SOL    HW176738   6.399   3.895  10.275  0.3253  0.7351  1.4637
25099SOL    HW276739   6.473   3.825  10.388  1.4277 -0.2256  0.1753
25100SOL     OW76740   7.946   4.645  10.650  0.2054  0.7787 -0.2894
25100SOL    HW176741   7.967   4.563  10.605  3.2714  1.5303 -0.4314
25100SOL    HW276742   7.860   4.669  10.616 -1.2035 -2.7208  0.3842
25101SOL     OW76743   2.222   4.149  12.097  0.5142 -0.4068  0.3720
25101SOL    HW176744   2.306   4.165  12.142  1.3252 -0.7423 -0.9696
25101SOL    HW276745   2.209   4.227  12.043 -0.2355 -0.1987  0.8428
25102SOL     OW76746   7.073   4.261  10.654 -0.0875  0.4715  0.0005
25102SOL    HW176747   6.979   4.252  10.669  0.3251 -0.2958  2.5305
25102SOL    HW276748   7.103   4.322  10.721  1.0165  2.1735 -1.8890
25103SOL     OW76749   6.944   2.863  10.628  0.6559 -1.0308 -0.2153
25103SOL    HW176750   7.011   2.844  10.693  0.1770 -1.1148  0.2561
25103SOL    HW276751   6.861   2.846  10.672  0.3424 -1.8522 -1.0916
25104SOL     OW76752   0.260   4.433  11.303  0.2838  0.2031  0.0480
25104SOL    HW176753   0.180   4.472  11.266 -0.0835 -1.3621 -0.8726
25104SOL    HW276754   0.303   4.391  11.229  0.2287 -1.8429  1.1144
25105SOL     OW76755   7.824   5.739  11.604 -0.0009 -0.0161 -0.3397
25105SOL    HW176756   7.762   5.697  11.545  0.3196 -0.9975  0.0153
25105SOL    HW276757   7.832   5.680  11.679 -1.6180  1.9161  1.5109
25106SOL     OW76758   0.954   3.954  11.470 -0.3988  0.1008  0.4865
25106SOL    HW176759   1.048   3.961  11.486 -0.1797 -0.6022 -0.4120
25106SOL    HW276760   0.945   3.879  11.411 -1.3789  1.0505 -0.6395
25107SOL     OW76761   6.873   3.648  10.047 -1.0945 -0.0430 -0.4334
25107SOL    HW176762   6.851   3.724  10.101 -1.9555 -0.9475  0.5421
25107SOL    HW276763   6.905   3.685   9.965  1.6261  1.4358  1.1424
25108SOL     OW76764   0.735   3.568   1.432 -0.2762 -0.1282  0.0446
25108SOL    HW176765   0.785   3.643   1.399  0.8725 -1.1888 -0.7183
25108SOL    HW276766   0.670   3.551   1.364  0.4474 -0.7331 -0.5213
25109SOL     OW76767   0.260   4.419  10.432 -0.8948  0.1507 -0.3262
25109SOL    HW176768   0.344   4.465  10.423 -0.4823 -0.7528 -1.2311
25109SOL    HW276769   0.213   4.439  10.351 -1.3280  0.1828 -0.0705
25110SOL     OW76770   7.337   4.973  12.307 -0.1964 -0.0474 -0.1213
25110SOL    HW176771   7.351   4.939  12.396  0.0508 -3.0849 -1.1896
25110SOL    HW276772   7.247   5.004  12.307 -0.2039  0.0090  1.1873
25111SOL     OW76773   2.969   4.052  11.177  0.2908  0.1760 -0.4189
25111SOL    HW176774   3.002   4.019  11.260 -1.6260 -1.8703 -0.3518
25111SOL    HW276775   2.986   3.981  11.115 -3.4160 -0.9309 -0.4256
25112SOL     OW76776   0.302   1.677   0.608 -0.1885  0.3112  0.0225
25112SOL    HW176777   0.300   1.771   0.624 -1.8463  0.2641  0.2308
25112SOL    HW276778   0.230   1.642   0.661  0.7129 -1.1467  0.3465
25113SOL     OW76779   0.578   5.417  10.997 -0.5897 -0.5287  0.0909
25113SOL    HW176780   0.627   5.469  11.062 -0.2106 -0.3048 -0.3718
25113SOL    HW276781   0.583   5.469  10.917 -0.0148 -1.3894 -0.4379
25114SOL     OW76782   7.679   4.124   1.409  0.1714 -0.3555 -0.9588
25114SOL    HW176783   7.773   4.134   1.396  0.2449 -0.3163 -0.4415
25114SOL    HW276784   7.640   4.144   1.324  0.6003  0.1130 -1.0497
25115SOL     OW76785   5.208   5.300  11.994  0.2460 -0.1881 -0.0757
25115SOL    HW176786   5.160   5.218  12.008 -0.0134 -0.6825 -3.1644
25115SOL    HW276787   5.298   5.279  12.019 -0.1079 -0.8950  0.6782
25116SOL     OW76788   7.964   4.411  12.420  0.3222 -0.1300  0.3980
25116SOL    HW176789   7.918   4.403  12.504  0.0305  0.6219  0.3123
25116SOL    HW276790   7.970   4.505  12.404  1.5171 -0.2275  0.1953
25117SOL     OW76791   7.325   5.844  10.400  0.2904 -0.2922 -0.1873
25117SOL    HW176792   7.233   5.843  10.375  0.4524 -1.0881 -0.7948
25117SOL    HW276793   7.324   5.836  10.496 -0.3089  2.0198  0.0557
25118SOL     OW76794   7.230   5.695  12.155  0.3301 -0.2654  0.5732
25118SOL    HW176795   7.283   5.774  12.161 -2.1493  1.4220  1.7125
25118SOL    HW276796   7.217   5.682  12.061  0.4587  0.9251  0.3794
25119SOL     OW76797   7.956   5.360  11.489  0.1677  0.3516  0.0965
25119SOL    HW176798   7.961   5.285  11.431  0.4397 -0.6984  1.4233
25119SOL    HW276799   7.906   5.425  11.441 -0.2678 -0.7624 -0.9918
25120SOL     OW76800   7.620   4.451  11.370  0.1305 -0.3085 -0.1098
25120SOL    HW176801   7.597   4.485  11.456 -1.0906 -0.2931 -0.4276
25120SOL    HW276802   7.712   4.475  11.359 -0.1259  1.0794  0.5395
25121SOL     OW76803   0.179   4.234   0.180 -0.1029  0.0580  0.3785
25121SOL    HW176804   0.133   4.222   0.263  0.2149  0.7073  0.6531
25121SOL    HW276805   0.178   4.147   0.140 -0.5998 -0.1788  0.8799
25122SOL     OW76806   0.108   4.341  10.175 -0.0612 -0.0144 -0.1198
25122SOL    HW176807   0.168   4.278  10.216  1.5438  0.4176 -1.6781
25122SOL    HW276808   0.100   4.312  10.084  0.4427  1.7974 -0.7843
25123SOL     OW76809   7.367   4.334  11.923 -0.9563  0.3048 -0.7200
25123SOL    HW176810   7.424   4.258  11.915  0.1710  1.2479 -1.9414
25123SOL    HW276811   7.311   4.313  11.999  1.9225 -0.0610  1.4657
25124SOL     OW76812   1.347   4.825  11.691  0.0161  0.1641  0.0271
25124SOL    HW176813   1.434   4.803  11.726 -0.9682 -2.2654  1.1309
25124SOL    HW276814   1.327   4.754  11.630 -1.1779  0.7419 -0.2691
25125SOL     OW76815   7.186   5.143   8.323 -0.1333 -0.1193  0.0640
25125SOL    HW176816   7.277   5.157   8.348  0.1434  0.0888 -1.0179
25125SOL    HW276817   7.136   5.202   8.380  0.4880  0.4478  0.0342
25126SOL     OW76818   7.382   4.868  11.769 -0.5934 -0.1912 -0.5375
25126SOL    HW176819   7.295   4.848  11.802  0.3312 -1.9853  0.9825
25126SOL    HW276820   7.387   4.824  11.684 -0.0598 -3.1262  0.8922
25127SOL     OW76821   1.476   4.875  11.372 -0.0219 -0.2932 -0.9949
25127SOL    HW176822   1.559   4.923  11.373 -0.2381  0.0925 -1.2363
25127SOL    HW276823   1.451   4.868  11.464  1.4529 -2.5025 -0.6923
25128SOL     OW76824   7.880   5.654  11.938  0.3886  0.7564  0.1521
25128SOL    HW176825   7.949   5.659  12.005 -0.2143  0.4123  0.8182
25128SOL    HW276826   7.910   5.586  11.878  0.5829  0.5335  0.4968
25129SOL     OW76827   6.010   5.066   9.206  0.0697  0.2070 -0.9601
25129SOL    HW176828   5.950   5.136   9.232  0.9870  0.6416  0.0827
25129SOL    HW276829   6.078   5.109   9.155  0.1694 -0.0690 -1.0648
25130SOL     OW76830   6.053   3.172   9.445 -0.2663  0.0763  0.7895
25130SOL    HW176831   6.145   3.163   9.422 -0.6952 -1.0641 -0.6330
25130SOL    HW276832   6.006   3.125   9.376 -1.9796  1.4588  0.9384
25131SOL     OW76833   6.129   6.369   0.217  0.3952  0.4934  0.0869
25131SOL    HW176834   6.088   6.293   0.258  0.1085  0.2496 -0.6500
25131SOL    HW276835   6.104   6.443   0.274  0.4164  0.0923  0.6237
25132SOL     OW76836   7.617   6.971   0.358 -1.0701  0.3717 -0.1967
25132SOL    HW176837   7.644   6.890   0.313  0.1387  1.2424 -1.1162
25132SOL    HW276838   7.693   6.995   0.411 -0.0868  2.6133 -2.4347
25133SOL     OW76839   7.590   5.991  12.448 -0.2639  0.0806 -0.0772
25133SOL    HW176840   7.633   5.927  12.390 -0.0325 -1.1583  1.4046
25133SOL    HW276841   7.516   6.023  12.397 -0.1263 -1.0512 -1.0349
25134SOL     OW76842   0.762   6.303   1.687 -0.1104 -0.7601  0.2611
25134SOL    HW176843   0.830   6.278   1.750  1.8790  1.1761 -0.9488
25134SOL    HW276844   0.699   6.353   1.738 -0.6738 -2.5453  1.4062
25135SOL     OW76845   0.138   7.645   0.925  0.6435  0.4030  0.0822
25135SOL    HW176846   0.195   7.672   0.997  0.3671 -0.4361  0.6231
25135SOL    HW276847   0.197   7.626   0.853  1.1166 -1.0691  0.8328
25136SOL     OW76848   7.954   1.038  11.385 -0.3029 -0.0184 -0.2958
25136SOL    HW176849   7.860   1.048  11.399 -0.0246 -0.3182  2.2202
25136SOL    HW276850   7.981   1.121  11.346 -1.3851  0.6881  0.4067
25137SOL     OW76851   7.786   7.116  11.820 -0.1429  0.1084  0.3023
25137SOL    HW176852   7.727   7.048  11.788 -0.1138  0.2615 -0.0907
25137SOL    HW276853   7.873   7.078  11.813 -0.1682  0.0013  0.5699
25138SOL     OW76854   0.050   1.069   0.380 -0.0590 -0.1999  0.4979
25138SOL    HW176855  -0.003   1.125   0.323  0.4907 -1.3404 -1.2033
25138SOL    HW276856   0.132   1.056   0.332  0.6310 -0.8178  1.7827
25139SOL     OW76857   7.358   5.953  12.155  0.3755 -0.2425  0.2625
25139SOL    HW176858   7.330   6.010  12.226  0.3469 -3.8935  3.5135
25139SOL    HW276859   7.449   5.977  12.139  0.0298  1.4508  0.6103
25140SOL     OW76860   6.608   0.528   1.111 -0.3278  0.0005  0.2905
25140SOL    HW176861   6.538   0.580   1.150 -0.0961  0.3530  0.2489
25140SOL    HW276862   6.577   0.438   1.116 -0.7209  0.1385  0.4012
25141SOL     OW76863   7.537   4.101   0.376  0.0205 -0.6925  0.3603
25141SOL    HW176864   7.488   4.182   0.364  1.1209 -0.1267 -0.5093
25141SOL    HW276865   7.629   4.128   0.370  0.4293 -1.8150  1.3216
25142SOL     OW76866   7.989   7.802   1.979 -0.5212  0.2566  0.3448
25142SOL    HW176867   7.988   7.775   2.071  0.1734  1.7833  0.8238
25142SOL    HW276868   7.920   7.868   1.972 -0.1142  0.6428 -0.0735
25143SOL     OW76869   0.113   7.361   1.334  0.2172 -0.2680  0.0550
25143SOL    HW176870   0.192   7.397   1.374 -0.2901  1.0176 -0.0385
25143SOL    HW276871   0.145   7.293   1.274  1.2913  0.5698 -0.3527
25144SOL     OW76872   7.445   7.674   3.050  0.3311 -0.1989 -0.3499
25144SOL    HW176873   7.385   7.744   3.076  1.9704  0.8861  0.6176
25144SOL    HW276874   7.461   7.689   2.957 -0.6150 -0.3207 -0.5497
25145SOL     OW76875   5.864   6.830   1.976 -0.2165  0.4698 -0.0660
25145SOL    HW176876   5.874   6.736   1.958  1.2455  0.8886 -1.6926
25145SOL    HW276877   5.943   6.870   1.940 -0.6689  2.3171  0.8595
25146SOL     OW76878   7.703   6.488   0.544 -0.2714  0.0642  0.0395
25146SOL    HW176879   7.624   6.449   0.507 -0.5927  0.0729  0.7103
25146SOL    HW276880   7.774   6.448   0.494 -0.6646 -0.4153 -0.1513
25147SOL     OW76881   0.293   1.851   0.969  0.3147  0.5108 -0.2218
25147SOL    HW176882   0.373   1.891   0.936  0.5525  0.8068  0.6990
25147SOL    HW276883   0.311   1.757   0.971  0.6533  0.5826  0.0323
25148SOL     OW76884   6.584   5.428  11.938 -0.0562 -0.2674 -0.5726
25148SOL    HW176885   6.565   5.501  11.997 -0.2353 -1.4823  0.9534
25148SOL    HW276886   6.506   5.419  11.883 -0.3659  0.1681 -0.2084
25149SOL     OW76887   1.604   6.585   1.184 -0.3179 -0.0821 -0.1393
25149SOL    HW176888   1.521   6.556   1.146 -0.8465  2.8190 -1.5265
25149SOL    HW276889   1.582   6.606   1.275 -1.5827  1.9434 -0.8218
25150SOL     OW76890   0.846   5.627   1.629 -0.8436  0.3163 -0.4988
25150SOL    HW176891   0.779   5.671   1.681 -0.4085 -0.3528  0.6867
25150SOL    HW276892   0.826   5.534   1.639 -0.0171  0.1310 -0.5055
25151SOL     OW76893   1.021   0.487   0.794  0.6573 -0.2785  0.0171
25151SOL    HW176894   1.098   0.434   0.774  1.5171  1.0273 -0.2531
25151SOL    HW276895   0.968   0.432   0.850  1.5516 -1.3992 -0.2013
25152SOL     OW76896   0.537   6.501  12.490 -0.0267  0.1519 -0.0790
25152SOL    HW176897   0.505   6.429  12.436 -0.7047  0.3596  0.0280
25152SOL    HW276898   0.609   6.539  12.440 -0.6659  0.3604 -0.8634
25153SOL     OW76899   1.266   5.658  10.235  0.6383  0.1382 -0.6636
25153SOL    HW176900   1.306   5.737  10.270  0.6053 -0.2110  0.1846
25153SOL    HW276901   1.238   5.682  10.147 -1.1429  1.6816  0.2654
25154SOL     OW76902   5.896   3.706   1.163 -0.0935  0.3777  0.2216
25154SOL    HW176903   5.947   3.727   1.085  0.2324 -1.5859 -0.1417
25154SOL    HW276904   5.950   3.645   1.212 -1.6447 -1.0001  0.3139
25155SOL     OW76905   6.784   7.491   0.459 -0.4101 -0.5137 -0.4363
25155SOL    HW176906   6.818   7.478   0.371 -0.4117 -2.6410 -0.1817
25155SOL    HW276907   6.694   7.522   0.446 -0.5735 -1.2693 -1.2196
25156SOL     OW76908   0.633   6.555   0.703 -0.1143  0.1663  0.0816
25156SOL    HW176909   0.606   6.525   0.790  1.3373 -0.2817  0.3993
25156SOL    HW276910   0.725   6.529   0.696  0.9854  3.5882 -0.0096
25157SOL     OW76911   0.017   7.333   2.890 -0.0101 -0.1309  0.2631
25157SOL    HW176912  -0.046   7.374   2.832 -0.2689 -0.8995 -0.0133
25157SOL    HW276913  -0.033   7.311   2.969  0.2974  0.7437  0.7109
25158SOL     OW76914   7.421   6.827   0.691  0.3539 -0.2688  0.0218
25158SOL    HW176915   7.328   6.848   0.685  0.5100  0.6251  0.5744
25158SOL    HW276916   7.435   6.762   0.623 -0.2533  1.1460 -1.5381
25159SOL     OW76917   7.305   6.773   0.961 -0.0152 -0.4457 -0.0948
25159SOL    HW176918   7.214   6.783   0.933 -0.3051  0.2534  1.0294
25159SOL    HW276919   7.304   6.798   1.054  1.9065  2.8338 -0.8142
25160SOL     OW76920   0.467   6.311  11.674 -0.1363 -0.2391  0.3650
25160SOL    HW176921   0.511   6.355  11.746 -1.5736 -1.9480  2.4127
25160SOL    HW276922   0.442   6.226  11.710 -1.1691 -1.0501 -2.0773
25161SOL     OW76923   0.414   6.945   0.650 -0.3329 -0.0992  0.0883
25161SOL    HW176924   0.385   6.861   0.686 -0.1594 -0.3370 -0.3159
25161SOL    HW276925   0.500   6.927   0.613 -0.5006  0.1373 -0.4327
25162SOL     OW76926   0.880   7.605   0.296 -0.6801 -0.0107 -0.0945
25162SOL    HW176927   0.968   7.570   0.280  0.0444  1.9402 -0.6622
25162SOL    HW276928   0.823   7.555   0.237  0.0600 -1.1735  0.1548
25163SOL     OW76929   0.113   3.917  12.360 -0.6170  0.0527  0.4397
25163SOL    HW176930   0.096   4.003  12.399 -0.9395  0.2046 -0.0230
25163SOL    HW276931   0.130   3.936  12.268  1.9725 -0.1044  0.8239
25164SOL     OW76932   6.886   5.786   2.383 -0.9984  0.0060  0.2705
25164SOL    HW176933   6.829   5.736   2.325  0.4682  0.7188 -1.9356
25164SOL    HW276934   6.877   5.744   2.469  0.4906 -4.4192 -1.4595
25165SOL     OW76935   7.429   5.797   1.664  0.4324  0.1429 -0.2007
25165SOL    HW176936   7.467   5.811   1.751  1.0094  1.1631 -0.5966
25165SOL    HW276937   7.461   5.871   1.612 -1.4056  0.5688 -0.7911
25166SOL     OW76938   0.186   7.126   2.019  0.1391  1.1531 -0.4985
25166SOL    HW176939   0.126   7.150   2.090  1.1699 -0.2061  0.8927
25166SOL    HW276940   0.242   7.203   2.008  0.8634  0.9065  1.1683
25167SOL     OW76941   0.166   6.038  12.109 -0.3452  0.4577  0.0948
25167SOL    HW176942   0.226   5.979  12.154 -1.0291  0.2410  0.7442
25167SOL    HW276943   0.220   6.113  12.084  0.2609  0.1242  0.3832
25168SOL     OW76944   6.973   5.897   1.973  0.1503  0.8422 -0.0120
25168SOL    HW176945   6.911   5.966   1.998 -1.3218  0.0683 -1.3383
25168SOL    HW276946   6.931   5.853   1.899  1.8051 -0.4381 -0.2446
25169SOL     OW76947   0.294   7.089   0.475 -0.3215  0.6279  0.0674
25169SOL    HW176948   0.342   7.050   0.548 -0.4171 -1.4428 -0.9205
25169SOL    HW276949   0.345   7.167   0.451  0.4034  0.6212  1.4921
25170SOL     OW76950   1.241   6.334   0.100  0.2907 -0.2594  0.0928
25170SOL    HW176951   1.211   6.423   0.115  0.5026 -0.3524  1.1424
25170SOL    HW276952   1.326   6.345   0.056  0.5780  0.0807  0.7109
25171SOL     OW76953   7.522   7.515   1.141 -0.2786  0.2687 -0.1103
25171SOL    HW176954   7.534   7.476   1.227 -2.5422  1.4763  0.8539
25171SOL    HW276955   7.524   7.442   1.080 -1.0306 -0.9199  1.2416
25172SOL     OW76956   0.112   6.178   1.724  0.3937 -0.7044 -0.3712
25172SOL    HW176957   0.182   6.200   1.662 -0.2486  0.7618 -0.6223
25172SOL    HW276958   0.071   6.100   1.686  1.1250 -0.8657 -0.8540
25173SOL     OW76959   7.545   3.625   2.679 -0.1868 -0.6070 -0.6551
25173SOL    HW176960   7.499   3.689   2.733  0.8803 -0.5133  0.1823
25173SOL    HW276961   7.476   3.582   2.628 -1.1719 -0.3880  0.4612
25174SOL     OW76962   0.325   7.618   0.718  0.0085  0.6064 -0.0922
25174SOL    HW176963   0.314   7.529   0.684  0.0725  0.1662  0.9985
25174SOL    HW276964   0.381   7.661   0.653  1.8841 -0.8520  0.4742
25175SOL     OW76965   0.530   4.859  11.826  0.1319 -0.1128  0.4472
25175SOL    HW176966   0.559   4.774  11.792  1.9408  0.9890 -0.9295
25175SOL    HW276967   0.498   4.840  11.914  0.3436 -2.2297  0.1209
25176SOL     OW76968   1.054   5.660   1.799 -0.5814  0.1153 -0.0287
25176SOL    HW176969   0.995   5.660   1.724  0.3686 -1.3088 -0.8251
25176SOL    HW276970   1.142   5.662   1.760 -0.0150 -2.6117  0.9016
25177SOL     OW76971   1.282   5.898   1.907 -0.1645 -0.6773 -0.3012
25177SOL    HW176972   1.338   5.829   1.941 -0.5962  0.3526  2.7694
25177SOL    HW276973   1.193   5.868   1.926 -0.3691  0.4739  0.6545
25178SOL     OW76974   7.063   6.784   1.362  0.4199 -0.5774  0.3290
25178SOL    HW176975   7.046   6.694   1.333 -0.3647 -0.4572  0.4075
25178SOL    HW276976   6.989   6.835   1.329  0.9979  0.0933  0.0530
25179SOL     OW76977   6.571   3.701  11.445 -0.4047 -0.6289 -0.0694
25179SOL    HW176978   6.475   3.705  11.441 -0.3310  2.6915 -1.5223
25179SOL    HW276979   6.599   3.721  11.356  1.6515 -0.2910  0.6190
25180SOL     OW76980   7.047   7.140  12.420  0.0805 -0.3701  0.1123
25180SOL    HW176981   6.959   7.101  12.411 -1.1526  0.9279  4.3830
25180SOL    HW276982   7.040   7.224  12.375 -1.3062  0.2146  1.3394
25181SOL     OW76983   0.110   5.820   1.299  0.1921  0.4923  0.0438
25181SOL    HW176984   0.106   5.747   1.360  1.0033  0.2732 -0.1445
25181SOL    HW276985   0.203   5.825   1.275 -0.1845  0.2572 -1.5509
25182SOL     OW76986   7.852   5.934  11.828 -0.4267 -1.0502 -0.0560
25182SOL    HW176987   7.822   5.910  11.741  2.0155  0.4380 -1.4224
25182SOL    HW276988   7.883   5.852  11.866  2.9349 -1.2145 -2.5928
25183SOL     OW76989   0.061   6.496   2.519  0.8503 -0.2136 -0.1137
25183SOL    HW176990   0.002   6.440   2.569 -0.0266 -1.0996 -2.0530
25183SOL    HW276991   0.147   6.455   2.526  0.2291 -1.8421 -1.4696
25184SOL     OW76992   6.464   6.654   1.396 -0.0175  0.7241  0.6360
25184SOL    HW176993   6.556   6.651   1.424  0.5054  1.3668 -0.9158
25184SOL    HW276994   6.468   6.646   1.301 -1.5169  1.6782  0.4651
25185SOL     OW76995   6.596   7.028   1.525 -0.4105  0.1006 -0.1978
25185SOL    HW176996   6.584   7.038   1.620 -0.7449  0.4608 -0.2772
25185SOL    HW276997   6.541   6.952   1.502  1.1133 -1.1712  0.1901
25186SOL     OW76998   7.647   5.931  12.066  0.2609  0.5549 -0.2548
25186SOL    HW176999   7.582   5.861  12.062  1.0845 -0.3372  1.0278
25186SOL    HW277000   7.681   5.937  11.977 -0.6854  0.1780 -0.6543
25187SOL     OW77001   0.097   5.653   0.349  0.3451 -0.3769 -0.3056
25187SOL    HW177002   0.045   5.690   0.421 -1.9831 -1.6532 -1.2255
25187SOL    HW277003   0.171   5.713   0.340  0.5809  0.0030  2.9186
25188SOL     OW77004   6.890   6.419   1.936  0.0737 -0.8826 -0.2010
25188SOL    HW177005   6.798   6.445   1.933  0.1880 -0.2961  0.8921
25188SOL    HW277006   6.935   6.483   1.880  0.2092  0.7304  1.6688
25189SOL     OW77007   0.716   4.783   3.255 -0.6301  0.4763 -0.4623
25189SOL    HW177008   0.733   4.790   3.349  0.0366  1.3408 -0.6397
25189SOL    HW277009   0.636   4.833   3.241 -0.8100  0.2289 -0.3432
25190SOL     OW77010   6.837   0.274   0.113 -0.2268 -0.5841  0.4862
25190SOL    HW177011   6.771   0.342   0.100 -0.3856 -0.7192  0.5780
25190SOL    HW277012   6.874   0.292   0.199 -0.4455 -0.7611  0.6192
25191SOL     OW77013   1.563   4.820   2.029 -0.7366  0.4765 -0.3910
25191SOL    HW177014   1.500   4.794   2.097  0.7656 -0.4843  0.6945
25191SOL    HW277015   1.553   4.753   1.961 -0.1844 -0.2670  0.2471
25192SOL     OW77016   6.798   7.124   3.344 -0.5320 -0.2587  0.2752
25192SOL    HW177017   6.773   7.033   3.327  0.2115 -0.5291  0.5919
25192SOL    HW277018   6.732   7.155   3.406 -0.8338 -0.5602  0.1099
25193SOL     OW77019   6.499   6.122   3.004 -0.5746  0.4036 -0.0153
25193SOL    HW177020   6.549   6.051   3.045  0.1634 -0.4541 -2.2055
25193SOL    HW277021   6.408   6.097   3.015 -0.4845  0.8267  2.0708
25194SOL     OW77022   7.809   6.760   1.461 -0.1546  0.1159  0.2145
25194SOL    HW177023   7.883   6.729   1.513 -0.5714  0.1910  0.8591
25194SOL    HW277024   7.760   6.816   1.520 -0.9297 -0.2234 -0.0968
25195SOL     OW77025   6.208   4.014   4.004  0.2090  0.3459 -0.0033
25195SOL    HW177026   6.121   3.979   3.990  0.4522  0.0623 -0.8902
25195SOL    HW277027   6.217   4.021   4.099 -0.3468 -0.6983  0.1314
25196SOL     OW77028   6.035   0.477   3.531  0.2067 -0.0678 -0.2248
25196SOL    HW177029   6.043   0.405   3.468  0.4139 -0.3061  0.0743
25196SOL    HW277030   6.100   0.458   3.598  0.0236  0.2170  0.0360
25197SOL     OW77031   6.266   7.537   3.198 -0.5289  0.8432  0.4185
25197SOL    HW177032   6.275   7.604   3.130  0.3011  0.9341  0.6084
25197SOL    HW277033   6.334   7.558   3.261 -2.0874  1.5448  1.9547
25198SOL     OW77034   0.009   5.976   1.569 -0.2242  0.1359 -0.1459
25198SOL    HW177035   0.072   5.966   1.498 -0.4157  0.5659 -0.3778
25198SOL    HW277036  -0.018   5.887   1.590  1.2903 -0.1482  0.7045
25199SOL     OW77037   6.290   6.133   2.098 -0.1659  0.1915 -0.0763
25199SOL    HW177038   6.244   6.194   2.156 -1.1534  0.4665 -1.1250
25199SOL    HW277039   6.322   6.187   2.026 -0.9631 -0.4991 -0.9613
25200SOL     OW77040   7.172   0.501   0.137 -0.7523 -0.2207 -0.0537
25200SOL    HW177041   7.246   0.561   0.125 -1.2109  0.1792 -1.0568
25200SOL    HW277042   7.191   0.428   0.078 -1.3571  0.0918 -0.6468
25201SOL     OW77043   5.978   5.322   2.640  0.5248 -0.2259  0.8527
25201SOL    HW177044   5.894   5.367   2.652  0.2835 -1.1337  2.8281
25201SOL    HW277045   6.039   5.370   2.696  1.0734 -0.2719  0.3051
25202SOL     OW77046   7.396   6.811   2.768 -0.1190  0.1327 -0.1184
25202SOL    HW177047   7.439   6.750   2.826 -1.1305 -0.0463  0.4596
25202SOL    HW277048   7.316   6.837   2.814 -0.9134  0.0326 -1.3851
25203SOL     OW77049   6.777   7.577   5.442 -0.3065  0.0965 -0.1274
25203SOL    HW177050   6.711   7.590   5.374 -1.7691 -0.3966  1.1652
25203SOL    HW277051   6.728   7.575   5.524  1.2023 -1.2942  0.7944
25204SOL     OW77052   5.384   6.932   3.382 -0.3001 -0.0620  0.2580
25204SOL    HW177053   5.436   6.894   3.311 -0.3703  1.0462 -0.4129
25204SOL    HW277054   5.297   6.893   3.371 -0.7536  1.2547 -1.2782
25205SOL     OW77055   7.410   5.695   2.686 -0.4405  1.2829 -0.4244
25205SOL    HW177056   7.419   5.769   2.746  1.1955  1.5527 -0.9526
25205SOL    HW277057   7.316   5.687   2.672 -0.8366  1.5742  1.7024
25206SOL     OW77058   6.524   7.158   3.925  0.3645  0.1175  0.2156
25206SOL    HW177059   6.576   7.108   3.863  0.9787  0.4167  0.4799
25206SOL    HW277060   6.533   7.249   3.896  0.3467  0.2162  0.5174
25207SOL     OW77061   6.127   6.737   2.912  0.4939  0.3282  0.3987
25207SOL    HW177062   6.051   6.681   2.926  1.4541 -1.1960 -0.2474
25207SOL    HW277063   6.094   6.826   2.925 -1.8298 -0.1452 -1.5484
25208SOL     OW77064   7.897   0.883   2.422 -0.4625 -0.1599 -0.9629
25208SOL    HW177065   7.875   0.881   2.329 -0.8866 -1.3730 -0.8511
25208SOL    HW277066   7.992   0.871   2.425 -0.6542 -2.0466 -1.1969
25209SOL     OW77067   6.719   5.617   2.256  0.1600 -0.8920 -0.2457
25209SOL    HW177068   6.630   5.606   2.290  0.5050 -1.4258  0.5308
25209SOL    HW277069   6.707   5.640   2.164 -0.7407 -3.4423 -0.8336
25210SOL     OW77070   0.604   6.934   4.075 -0.5843  0.1156  0.3774
25210SOL    HW177071   0.539   6.991   4.116 -2.0663 -2.2910  1.6627
25210SOL    HW277072   0.664   6.912   4.146 -0.6304 -0.6526  0.1926
25211SOL     OW77073   7.603   6.939   5.523 -0.5011 -0.4500 -0.2403
25211SOL    HW177074   7.531   6.987   5.565 -0.4167 -1.7852  1.5746
25211SOL    HW277075   7.559   6.869   5.474 -0.5078 -0.5945 -0.0334
25212SOL     OW77076   1.011   5.270   3.719 -0.2077  0.0346  0.0910
25212SOL    HW177077   0.977   5.314   3.798 -0.1191 -0.3356  0.3382
25212SOL    HW277078   1.077   5.330   3.686  0.4929 -0.2780  0.8908
25213SOL     OW77079   7.214   6.076   1.382 -0.6754 -0.4132  0.3564
25213SOL    HW177080   7.166   6.000   1.413 -0.3531 -0.8876 -0.2920
25213SOL    HW277081   7.303   6.044   1.367 -0.8442 -0.2491 -1.1630
25214SOL     OW77082   7.334   5.951   2.437 -0.0516 -0.2661 -0.9046
25214SOL    HW177083   7.302   5.877   2.386 -0.3817 -0.7383 -0.0423
25214SOL    HW277084   7.279   6.025   2.409 -0.6141 -0.6451 -0.8245
25215SOL     OW77085   7.530   6.369   1.276  0.0252  0.0173  0.4669
25215SOL    HW177086   7.553   6.458   1.303 -0.4746  0.6410 -1.0596
25215SOL    HW277087   7.598   6.344   1.213  0.5069 -0.9384  1.3382
25216SOL     OW77088   7.241   5.134   2.248 -0.1662 -0.1794 -0.2388
25216SOL    HW177089   7.201   5.214   2.213 -0.5458 -0.3117 -0.1089
25216SOL    HW277090   7.285   5.094   2.173 -0.4518 -0.1403 -0.4263
25217SOL     OW77091   7.679   5.940   3.520 -0.4405  0.4033  0.4608
25217SOL    HW177092   7.646   5.859   3.558  0.3783  0.2452  0.8506
25217SOL    HW277093   7.600   5.987   3.493 -0.9102 -0.7252 -0.2104
25218SOL     OW77094   7.167   4.774   3.200 -0.0394 -0.2758 -0.0568
25218SOL    HW177095   7.129   4.816   3.124  0.2424  0.9551  0.4626
25218SOL    HW277096   7.250   4.737   3.169 -0.1317 -0.1524 -0.4458
25219SOL     OW77097   0.687   5.756   3.215 -0.1805  0.1926 -0.7147
25219SOL    HW177098   0.632   5.710   3.278 -2.2771 -1.7242 -3.6993
25219SOL    HW277099   0.627   5.815   3.169  1.0962  0.9144 -1.5278
25220SOL     OW77100   1.881   5.058   3.072  0.6158  0.6164 -0.7896
25220SOL    HW177101   1.951   5.123   3.066  0.0816  1.4245  0.9558
25220SOL    HW277102   1.890   5.021   3.160 -1.4055  1.1046 -0.3142
25221SOL     OW77103   7.590   7.402   0.377 -0.3609  0.4071  0.4006
25221SOL    HW177104   7.641   7.350   0.315  1.8184  1.2664  1.3519
25221SOL    HW277105   7.507   7.355   0.386  0.1823 -0.9845 -1.3665
25222SOL     OW77106   7.466   6.523   0.246 -0.2917 -0.3661 -0.5760
25222SOL    HW177107   7.421   6.504   0.163 -0.4064 -0.8670 -0.3975
25222SOL    HW277108   7.486   6.438   0.283 -0.6940 -0.1477  0.1655
25223SOL     OW77109   0.461   7.905   2.581 -0.3917 -0.1675 -0.1557
25223SOL    HW177110   0.421   7.960   2.649 -1.2251  0.4896 -1.1455
25223SOL    HW277111   0.387   7.873   2.530  0.1225 -1.7739  0.0351
25224SOL     OW77112   0.086   0.123   3.761 -0.3757  0.1332  0.2413
25224SOL    HW177113   0.041   0.166   3.688  1.4290  2.2498  0.2630
25224SOL    HW277114   0.179   0.126   3.738  0.0618 -1.3317  1.5656
25225SOL     OW77115   0.509   5.188   3.277 -0.2446  0.1506  0.3731
25225SOL    HW177116   0.483   5.103   3.310  0.7198 -0.3551 -0.1141
25225SOL    HW277117   0.605   5.185   3.275 -0.2066  1.0644 -0.1044
25226SOL     OW77118   6.389   7.001   4.646 -0.5788 -0.0509  0.9153
25226SOL    HW177119   6.329   7.063   4.605  0.7920  1.4420  1.0612
25226SOL    HW277120   6.353   6.915   4.624 -1.2801  0.7273 -1.3305
25227SOL     OW77121   0.348   6.897   3.404  0.1972  0.0235  0.1049
25227SOL    HW177122   0.387   6.812   3.384  1.5241  0.7985 -0.7212
25227SOL    HW277123   0.337   6.896   3.499 -3.0268 -2.3804 -0.0841
25228SOL     OW77124   7.677   5.035   3.399  0.0575  0.0855  0.0499
25228SOL    HW177125   7.621   5.064   3.327 -1.0316 -1.0571  0.3857
25228SOL    HW277126   7.638   5.076   3.477  0.7491  0.6743  0.0976
25229SOL     OW77127   7.070   6.146   3.012 -0.3517  0.0196 -0.5688
25229SOL    HW177128   6.993   6.123   3.064  0.5656  0.0808  0.8840
25229SOL    HW277129   7.135   6.079   3.034  0.2892  0.4543 -1.1028
25230SOL     OW77130   6.331   4.812   3.180  0.1593 -0.1397 -0.3172
25230SOL    HW177131   6.264   4.874   3.150 -0.3775 -0.5506  0.0151
25230SOL    HW277132   6.289   4.727   3.173  0.6590 -0.4062 -0.1188
25231SOL     OW77133   6.738   5.200   3.551  0.3294  0.5059  0.2682
25231SOL    HW177134   6.702   5.162   3.631  0.7976  1.0683  0.7581
25231SOL    HW277135   6.760   5.125   3.496  0.7336  0.0825  0.9930
25232SOL     OW77136   6.536   7.284   2.928  0.2258  1.1050  0.4928
25232SOL    HW177137   6.481   7.239   2.865  0.4695  0.4313  0.7492
25232SOL    HW277138   6.559   7.216   2.992  0.7538  1.5505  0.7818
25233SOL     OW77139   1.629   7.338   3.706  0.1769  0.2211 -0.2725
25233SOL    HW177140   1.722   7.355   3.726  0.2113 -1.0963  0.7949
25233SOL    HW277141   1.585   7.420   3.728  0.9803  0.5775  0.0522
25234SOL     OW77142   5.536   7.220   0.750  0.2558 -0.3511 -0.1662
25234SOL    HW177143   5.467   7.203   0.686 -0.3583 -2.4488  0.9656
25234SOL    HW277144   5.538   7.315   0.758 -0.8191 -0.1228 -2.0160
25235SOL     OW77145   0.467   4.991   3.478 -0.6340 -1.0773 -0.2616
25235SOL    HW177146   0.501   4.923   3.420 -0.1011 -0.8327 -0.2427
25235SOL    HW277147   0.532   4.998   3.548  0.1338  0.5227 -1.0733
25236SOL     OW77148   7.150   7.132   1.466  0.6250  0.0972  0.0486
25236SOL    HW177149   7.208   7.208   1.465  0.3801  0.3061  0.7997
25236SOL    HW277150   7.139   7.109   1.374  0.2910  1.2916 -0.2235
25237SOL     OW77151   7.310   5.431   1.262 -0.0879  0.2283  0.6086
25237SOL    HW177152   7.256   5.507   1.240  0.6532  0.3274 -1.0111
25237SOL    HW277153   7.371   5.463   1.328  1.0154  1.4327 -0.9111
25238SOL     OW77154   7.436   4.095   3.122 -0.2547 -0.2408 -0.5150
25238SOL    HW177155   7.348   4.108   3.158 -0.3978 -0.7991 -0.6516
25238SOL    HW277156   7.493   4.146   3.179 -0.4498 -1.2268  0.6026
25239SOL     OW77157   2.332   7.298   2.617  0.6110  0.7635 -0.5782
25239SOL    HW177158   2.275   7.356   2.668  0.6340  0.5811 -0.3428
25239SOL    HW277159   2.420   7.318   2.647  0.6684  0.9845 -0.8813
25240SOL     OW77160   7.408   6.040   2.688 -0.4438  0.1799 -0.0465
25240SOL    HW177161   7.492   6.006   2.721 -2.1825 -2.8438  1.7229
25240SOL    HW277162   7.395   5.993   2.605 -0.6152  0.3023 -0.0874
25241SOL     OW77163   7.745   7.494   1.950  0.3229 -0.0404 -0.1851
25241SOL    HW177164   7.656   7.480   1.916 -0.6320 -1.5712  2.5853
25241SOL    HW277165   7.738   7.573   2.003  0.0984 -1.0725  1.3928
25242SOL     OW77166   6.721   6.743   2.349 -0.6380 -0.4564 -0.1509
25242SOL    HW177167   6.737   6.695   2.268 -0.2645  2.2417 -1.8099
25242SOL    HW277168   6.787   6.812   2.350 -1.4510  0.3900  1.8012
25243SOL     OW77169   0.304   7.727   4.378  0.9830  0.1766 -0.0187
25243SOL    HW177170   0.243   7.654   4.365  0.1282  0.9086 -0.2018
25243SOL    HW277171   0.275   7.768   4.459 -0.9672  2.5676 -1.7521
25244SOL     OW77172   7.387   5.987   2.986  0.0775 -0.3977 -0.1071
25244SOL    HW177173   7.338   6.014   2.908 -2.1950 -0.0923  1.3584
25244SOL    HW277174   7.451   6.057   2.999 -1.6645  1.2201  0.1104
25245SOL     OW77175   1.041   6.714   3.723 -0.4978  0.2263 -0.1198
25245SOL    HW177176   0.968   6.759   3.679 -1.9504 -1.8489  0.0192
25245SOL    HW277177   1.025   6.731   3.816 -1.0309 -0.5041 -0.0688
25246SOL     OW77178   7.677   7.312   1.560  0.1534 -0.2907  0.1734
25246SOL    HW177179   7.772   7.323   1.559  0.1923 -0.5875 -0.5249
25246SOL    HW277180   7.643   7.391   1.519 -0.0227  0.6424  2.0333
25247SOL     OW77181   5.601   6.135   3.303  0.0709 -0.0265 -0.7994
25247SOL    HW177182   5.671   6.070   3.304 -0.3549 -0.5235  0.9264
25247SOL    HW277183   5.532   6.097   3.357 -0.4973  1.5296 -0.3565
25248SOL     OW77184   6.370   1.286   3.655 -0.7522 -0.0214 -0.1680
25248SOL    HW177185   6.346   1.317   3.743 -2.8110  1.8983 -1.3242
25248SOL    HW277186   6.465   1.292   3.653 -0.7216  0.7188  1.6472
25249SOL     OW77187   7.377   6.997   2.253 -0.4639  0.1645  0.2282
25249SOL    HW177188   7.464   6.977   2.218 -1.9854 -2.2528 -2.5664
25249SOL    HW277189   7.387   6.985   2.348  2.0101 -1.1017 -0.1002
25250SOL     OW77190   7.992   5.794   1.033 -0.1996 -0.1373 -0.1768
25250SOL    HW177191   8.061   5.832   0.978  0.0876  0.6887  0.7300
25250SOL    HW277192   8.020   5.812   1.123 -0.5338 -1.6739  0.2700
25251SOL     OW77193   0.208   0.233   2.378 -0.4938 -0.4852 -0.1849
25251SOL    HW177194   0.154   0.274   2.310 -0.6334 -1.2747 -0.5623
25251SOL    HW277195   0.276   0.298   2.397 -0.0418 -0.5108 -1.5801
25252SOL     OW77196   7.044   7.237   3.424  0.5685  0.1112 -0.0514
25252SOL    HW177197   7.112   7.207   3.364  1.0408 -1.9281  1.3833
25252SOL    HW277198   6.965   7.189   3.397  0.3917  0.3896 -0.0289
25253SOL     OW77199   6.298   1.137   4.376  0.5000  0.1412 -0.1607
25253SOL    HW177200   6.324   1.223   4.410  0.1214 -0.6935  2.5112
25253SOL    HW277201   6.212   1.152   4.335 -1.4695  0.5271  3.6648
25254SOL     OW77202   7.698   5.774   2.955 -0.0869  0.1104  0.3842
25254SOL    HW177203   7.629   5.750   3.016 -0.9430  2.4607  0.4164
25254SOL    HW277204   7.779   5.756   3.002 -0.6129 -2.4784  0.4201
25255SOL     OW77205   6.411   0.169   5.884  0.2783 -0.3515 -0.6245
25255SOL    HW177206   6.351   0.100   5.855 -0.6697  0.4348 -0.5941
25255SOL    HW277207   6.496   0.144   5.847 -0.3123 -0.8725 -1.6791
25256SOL     OW77208   6.998   6.860   2.411  0.0570 -0.2698  0.1452
25256SOL    HW177209   6.997   6.955   2.398 -1.3132 -0.2888 -0.0334
25256SOL    HW277210   7.009   6.849   2.506 -0.8699  0.1016  0.3065
25257SOL     OW77211   6.679   6.319   3.238 -0.6972 -0.2827 -0.0593
25257SOL    HW177212   6.731   6.248   3.201 -0.0451  0.7994 -1.2912
25257SOL    HW277213   6.698   6.315   3.332 -0.0321 -1.2109 -0.2078
25258SOL     OW77214   0.445   7.132   4.553 -0.2103 -0.1442  0.4701
25258SOL    HW177215   0.424   7.225   4.561 -0.8307 -0.2664  0.2934
25258SOL    HW277216   0.478   7.123   4.464 -1.8048 -0.4043 -0.1052
25259SOL     OW77217   7.144   6.483   4.730 -0.1768  0.7849 -0.1081
25259SOL    HW177218   7.121   6.452   4.643 -1.0545  1.2161 -0.0391
25259SOL    HW277219   7.238   6.466   4.738 -0.2246  0.1339 -0.8769
25260SOL     OW77220   6.429   6.153   3.910  0.3098 -0.2533  0.6167
25260SOL    HW177221   6.391   6.085   3.966 -0.1887 -0.1216  0.4460
25260SOL    HW277222   6.451   6.107   3.829  1.7678 -0.6173  1.1809
25261SOL     OW77223   0.160   5.030   6.263 -0.7143  0.0826 -0.2948
25261SOL    HW177224   0.218   4.974   6.212 -3.0008 -2.3147 -0.5143
25261SOL    HW277225   0.203   5.037   6.349  1.0560  0.5101 -1.1750
25262SOL     OW77226   6.604   7.604   5.249  0.4252 -0.1039 -0.0803
25262SOL    HW177227   6.510   7.594   5.235  0.4935 -0.3711 -0.3553
25262SOL    HW277228   6.645   7.560   5.175  0.7672  0.1438 -0.0452
25263SOL     OW77229   7.423   6.791   4.632 -0.0493  0.3921  0.3415
25263SOL    HW177230   7.382   6.875   4.653  1.2009  0.9009  0.8858
25263SOL    HW277231   7.446   6.754   4.717  1.3287  0.5156  0.0509
25264SOL     OW77232   7.225   0.859   5.628  0.2778 -0.7885  0.2121
25264SOL    HW177233   7.184   0.926   5.574 -0.5015 -1.0225  0.5057
25264SOL    HW277234   7.207   0.777   5.582 -1.1709 -1.0923  1.2663
25265SOL     OW77235   7.073   5.358   4.390 -0.7742 -0.3199 -0.1804
25265SOL    HW177236   7.129   5.403   4.326 -0.4731 -1.5676 -0.8112
25265SOL    HW277237   7.107   5.387   4.475  1.2996 -1.5312 -0.5142
25266SOL     OW77238   7.953   5.964   4.065  0.1864 -0.3401 -0.4274
25266SOL    HW177239   7.860   5.978   4.083  0.6471  1.1622  1.0661
25266SOL    HW277240   7.982   6.048   4.030  1.2583 -0.3592  0.3906
25267SOL     OW77241   5.718   7.297   5.400  0.4835 -0.3082  0.0744
25267SOL    HW177242   5.641   7.330   5.353 -0.0045  0.7253  1.5354
25267SOL    HW277243   5.778   7.271   5.330 -0.4875  0.5114 -1.1225
25268SOL     OW77244   0.093   6.041   2.918 -0.7286  0.1714 -0.0065
25268SOL    HW177245   0.105   5.950   2.889 -1.8744  0.4994 -1.6484
25268SOL    HW277246   0.072   6.034   3.011 -0.7466 -1.2360 -0.0975
25269SOL     OW77247   0.091   6.621   7.593 -0.1318 -0.1655 -0.5298
25269SOL    HW177248   0.139   6.554   7.642 -1.8073 -1.2705 -0.3291
25269SOL    HW277249   0.019   6.647   7.652 -1.0121 -0.0751 -1.6102
25270SOL     OW77250   7.924   5.413   6.638  0.3373  0.4033 -0.7550
25270SOL    HW177251   7.941   5.416   6.544  1.8636 -1.5955 -0.6155
25270SOL    HW277252   7.975   5.338   6.669 -2.8554 -1.1974  1.1144
25271SOL     OW77253   7.928   6.480   6.107  0.3466  0.4659  0.6306
25271SOL    HW177254   7.913   6.483   6.201 -1.0234  0.0086  0.4489
25271SOL    HW277255   7.854   6.430   6.072  0.2468  1.5401 -0.8051
25272SOL     OW77256   5.551   7.273   6.451  0.1618  0.4412 -0.9468
25272SOL    HW177257   5.623   7.270   6.388 -0.0646  0.0579 -1.1932
25272SOL    HW277258   5.567   7.351   6.503  1.2594 -0.1156 -0.4155
25273SOL     OW77259   0.888   5.272   4.880 -0.3495  0.5186  0.5111
25273SOL    HW177260   0.909   5.350   4.931  0.1784 -0.0580  1.1850
25273SOL    HW277261   0.942   5.203   4.917 -0.5230 -0.0885 -0.3348
25274SOL     OW77262   7.874   6.150   3.183  0.2475 -0.5611  0.0157
25274SOL    HW177263   7.902   6.184   3.268 -1.9003  0.9314  0.2325
25274SOL    HW277264   7.779   6.137   3.193 -0.5269  1.8064 -2.7358
25275SOL     OW77265   7.043   7.515   4.781 -0.1160 -0.1493 -0.0974
25275SOL    HW177266   7.026   7.434   4.734 -0.2612 -1.5429  2.2181
25275SOL    HW277267   6.994   7.582   4.733 -0.7835 -1.6077 -1.4945
25276SOL     OW77268   6.116   5.130   4.063 -0.2185 -0.4329 -0.0398
25276SOL    HW177269   6.176   5.128   4.137  0.3866 -2.6413 -0.5306
25276SOL    HW277270   6.074   5.044   4.063 -0.1193 -0.5519 -2.2999
25277SOL     OW77271   1.168   7.554   2.979 -0.4297 -0.1267  1.1631
25277SOL    HW177272   1.111   7.513   2.914 -0.8668  1.8909  0.2050
25277SOL    HW277273   1.117   7.554   3.060 -1.4373  0.7515  0.5522
25278SOL     OW77274   6.391   6.238   5.156  0.1986 -0.1709 -0.2736
25278SOL    HW177275   6.474   6.286   5.162  0.8155 -1.2928  0.4214
25278SOL    HW277276   6.404   6.179   5.082  0.3158 -0.8875  0.3112
25279SOL     OW77277   0.269   6.937   4.505 -0.5507 -0.0490  0.2264
25279SOL    HW177278   0.331   6.864   4.502 -0.0910  0.3205  0.5471
25279SOL    HW277279   0.324   7.013   4.524 -0.9704  0.4486 -0.5354
25280SOL     OW77280   0.641   4.713   4.287 -0.0598  0.8793  0.3225
25280SOL    HW177281   0.629   4.735   4.194 -0.0122  0.0161  0.1022
25280SOL    HW277282   0.673   4.623   4.286 -1.8204  0.1834  1.2285
25281SOL     OW77283   7.543   4.512   3.823 -0.0334 -0.1161  0.3827
25281SOL    HW177284   7.465   4.543   3.777 -0.8082 -2.6282 -0.1719
25281SOL    HW277285   7.572   4.435   3.772  1.8835 -0.1835  1.4748
25282SOL     OW77286   7.368   4.244   4.342  0.4988 -0.2965 -0.0209
25282SOL    HW177287   7.369   4.309   4.273  2.3532 -1.1156 -0.8249
25282SOL    HW277288   7.326   4.167   4.303 -1.6780  0.3304  0.9214
25283SOL     OW77289   7.169   1.264   5.166 -0.6130 -0.5853 -0.2024
25283SOL    HW177290   7.081   1.291   5.191 -0.5346 -1.7841  1.5112
25283SOL    HW277291   7.170   1.272   5.070 -1.4345  2.7255 -0.0599
25284SOL     OW77292   0.822   7.725   5.303 -0.1998 -0.7004 -0.0290
25284SOL    HW177293   0.797   7.635   5.324 -1.1157 -0.5106 -0.2697
25284SOL    HW277294   0.762   7.780   5.354 -0.8304 -0.2401 -1.2109
25285SOL     OW77295   7.180   4.758   2.513  1.0024  0.8256  0.2464
25285SOL    HW177296   7.170   4.744   2.607 -0.9770  0.8888  0.0890
25285SOL    HW277297   7.126   4.835   2.494 -1.1704 -0.9390 -1.3692
25286SOL     OW77298   6.979   6.797   3.427 -0.1138 -0.1801 -0.0931
25286SOL    HW177299   6.942   6.844   3.502  1.1315 -0.2423  0.6028
25286SOL    HW277300   6.919   6.724   3.412 -0.7468  0.2238  0.4081
25287SOL     OW77301   0.078   7.728   3.285  0.1032 -0.2966 -0.1232
25287SOL    HW177302   0.125   7.782   3.221 -0.6722  0.2977 -0.2072
25287SOL    HW277303   0.016   7.789   3.325  0.5013 -0.6923  1.1163
25288SOL     OW77304   0.483   6.413   6.567 -0.8610  0.0446 -0.4388
25288SOL    HW177305   0.454   6.328   6.599  0.5859 -0.0621  0.7434
25288SOL    HW277306   0.571   6.423   6.604 -0.9129  1.9586 -0.7211
25289SOL     OW77307   7.740   4.542   4.958 -1.1386 -0.2668 -0.4722
25289SOL    HW177308   7.650   4.510   4.959 -0.7669 -1.4647  1.7907
25289SOL    HW277309   7.738   4.618   5.017 -0.6159 -0.4257 -0.2501
25290SOL     OW77310   7.287   0.071   5.127 -0.0096  0.0419 -0.0394
25290SOL    HW177311   7.333   0.039   5.204  0.4191 -1.3730 -0.8669
25290SOL    HW277312   7.264  -0.007   5.077 -2.2327  0.7625 -0.2884
25291SOL     OW77313   0.015   0.381   6.122 -0.1914  0.8176 -0.2439
25291SOL    HW177314  -0.031   0.328   6.057 -0.8370 -0.9622  1.5363
25291SOL    HW277315   0.083   0.323   6.156 -0.4486  1.3475  1.2651
25292SOL     OW77316   5.941   6.568   5.405 -0.0041 -0.1613  0.4563
25292SOL    HW177317   5.874   6.530   5.348  0.1263 -0.8489  0.7438
25292SOL    HW277318   6.019   6.576   5.350  0.2341 -1.1774  0.6160
25293SOL     OW77319   0.568   7.160   4.316 -0.1053  0.4097  0.3140
25293SOL    HW177320   0.642   7.219   4.331  0.6473 -0.3011 -0.5160
25293SOL    HW277321   0.538   7.181   4.228  0.6318 -0.8844 -0.2923
25294SOL     OW77322   0.673   5.827   7.529  0.0293  0.3010  0.0945
25294SOL    HW177323   0.629   5.852   7.447  0.9414  0.5173 -0.3395
25294SOL    HW277324   0.740   5.764   7.503  0.6911  0.7843  0.5928
25295SOL     OW77325   0.697   0.071   5.327 -0.3681  0.3989 -0.0986
25295SOL    HW177326   0.672   0.042   5.414 -0.2863  1.7602  0.4055
25295SOL    HW277327   0.617   0.065   5.275  0.1338 -2.9265 -0.7093
25296SOL     OW77328   0.270   6.074   6.146  0.0745 -0.5939 -0.2335
25296SOL    HW177329   0.184   6.116   6.146 -1.1268 -2.8944  0.2690
25296SOL    HW277330   0.314   6.110   6.224  0.6539  2.4623 -1.8001
25297SOL     OW77331   6.197   4.420   5.333  0.4866 -0.3839 -0.1305
25297SOL    HW177332   6.279   4.400   5.287  0.2729 -1.0406 -0.2434
25297SOL    HW277333   6.194   4.355   5.404 -0.3032 -0.8752 -0.5957
25298SOL     OW77334   0.120   6.125   6.849  0.0199  0.0523 -0.1649
25298SOL    HW177335   0.066   6.070   6.906 -0.4600 -1.3568 -1.8895
25298SOL    HW277336   0.060   6.194   6.820  0.2850  0.8224  1.0113
25299SOL     OW77337   7.538   6.212   2.961 -0.0161 -0.0573 -0.1700
25299SOL    HW177338   7.540   6.245   3.051  1.4402 -0.4834 -0.0165
25299SOL    HW277339   7.544   6.291   2.907  0.2179  0.1293  0.1260
25300SOL     OW77340   7.243   7.839   2.415  0.1850  0.0769  0.0569
25300SOL    HW177341   7.265   7.918   2.464  0.9016 -0.5727  0.8066
25300SOL    HW277342   7.154   7.817   2.445 -0.3372  1.0159 -0.7393
25301SOL     OW77343   0.638   7.396   3.819  0.5537  0.0547 -0.6087
25301SOL    HW177344   0.622   7.471   3.875  0.3441 -0.1126 -0.4428
25301SOL    HW277345   0.638   7.432   3.730  0.7640  0.2982 -0.5122
25302SOL     OW77346   6.320   4.861   5.538 -0.2226  0.6827  0.0475
25302SOL    HW177347   6.386   4.802   5.575 -0.6769  0.5511  0.6580
25302SOL    HW277348   6.257   4.803   5.496 -1.0712  0.6711  1.2955
25303SOL     OW77349   6.691   6.979   5.005 -0.1436 -0.0262 -0.2182
25303SOL    HW177350   6.638   6.900   4.993 -1.6268  0.6887  1.1585
25303SOL    HW277351   6.692   6.992   5.100 -0.4312  1.9281 -0.4503
25304SOL     OW77352   1.006   6.446   5.725  0.2437 -0.0855 -0.1800
25304SOL    HW177353   1.059   6.462   5.647 -0.8066  1.2354 -0.6696
25304SOL    HW277354   0.968   6.532   5.745  0.6454 -0.3333  1.9170
25305SOL     OW77355   7.850   7.887   4.640 -0.0225 -0.0409  0.1724
25305SOL    HW177356   7.821   7.796   4.642 -1.6031  0.3868 -1.0642
25305SOL    HW277357   7.860   7.912   4.732 -1.1497 -0.9778  0.5690
25306SOL     OW77358   0.923   5.833   4.101  0.3717  0.1700  0.5669
25306SOL    HW177359   0.877   5.799   4.024  0.2641 -1.1980  1.1965
25306SOL    HW277360   0.853   5.858   4.162  0.1714 -3.9609  2.4385
25307SOL     OW77361   6.900   6.068   4.518 -0.3666 -0.2757  0.4775
25307SOL    HW177362   6.883   5.975   4.501 -1.4293 -0.0757  0.3923
25307SOL    HW277363   6.884   6.111   4.434 -0.3125  0.0467  0.6305
25308SOL     OW77364   7.656   7.129   6.382 -0.1318  0.5179  0.0928
25308SOL    HW177365   7.604   7.071   6.437  1.3379  0.1188  1.1348
25308SOL    HW277366   7.736   7.144   6.432  1.0336  0.5738 -1.6961
25309SOL     OW77367   7.759   0.968   5.715 -0.0359  0.7269 -0.0570
25309SOL    HW177368   7.774   0.954   5.808 -1.6703 -1.2024  0.0000
25309SOL    HW277369   7.666   0.988   5.708  0.3764  2.4272 -1.1600
25310SOL     OW77370   7.030   5.233   6.336  0.4254 -0.0999 -0.4891
25310SOL    HW177371   7.023   5.234   6.432  0.6688 -0.5677 -0.4621
25310SOL    HW277372   7.123   5.247   6.319  0.3190  0.4081 -0.6757
25311SOL     OW77373   6.432   5.555   4.613  0.2995 -0.0421 -0.3836
25311SOL    HW177374   6.470   5.554   4.701 -1.0332  0.5961  0.2362
25311SOL    HW277375   6.337   5.552   4.628 -0.0025  1.3646 -1.7312
25312SOL     OW77376   6.361   6.734   6.288 -0.0496 -0.3385  0.3740
25312SOL    HW177377   6.268   6.735   6.268  0.5083 -0.8565 -2.7725
25312SOL    HW277378   6.373   6.654   6.341 -1.1618 -1.1956 -0.6105
25313SOL     OW77379   5.224   7.028   5.116  0.0729 -0.4381 -0.3105
25313SOL    HW177380   5.205   7.019   5.209 -0.4055  0.1073 -0.3535
25313SOL    HW277381   5.206   7.119   5.096  0.0366 -0.5830 -0.9694
25314SOL     OW77382   5.532   6.358   4.630 -0.8154 -0.2043 -0.2111
25314SOL    HW177383   5.571   6.437   4.593  0.3726 -1.0084 -0.7370
25314SOL    HW277384   5.473   6.391   4.698 -0.0183  1.1133 -0.1090
25315SOL     OW77385   7.025   5.459   4.921 -0.3729 -0.7248 -0.1675
25315SOL    HW177386   6.960   5.524   4.947  0.5433  0.5746 -1.0376
25315SOL    HW277387   7.100   5.474   4.978 -0.5240 -1.6854  0.2954
25316SOL     OW77388   6.690   6.428   5.487 -0.5489 -0.1332  0.3779
25316SOL    HW177389   6.735   6.501   5.529  0.9336  0.3534 -1.8752
25316SOL    HW277390   6.603   6.462   5.466  0.0026  0.9019 -0.3184
25317SOL     OW77391   0.017   0.228   5.443  0.5374  0.3510  0.0872
25317SOL    HW177392   0.046   0.159   5.383 -1.3918  1.7839 -2.7198
25317SOL    HW277393   0.040   0.195   5.530  0.6902 -3.3232 -1.1650
25318SOL     OW77394   6.839   5.981   3.867  0.0070 -0.5044 -0.0483
25318SOL    HW177395   6.932   5.988   3.847  0.1595  3.6829  1.1674
25318SOL    HW277396   6.795   5.985   3.782  0.9427  2.1158 -0.4976
25319SOL     OW77397   6.184   5.261   4.579  0.1045  0.2688  0.3476
25319SOL    HW177398   6.240   5.224   4.647 -0.9027  0.3213  1.2308
25319SOL    HW277399   6.199   5.355   4.584  1.8795  0.1293 -1.1983
25320SOL     OW77400   6.121   0.328   4.989 -0.3059 -0.1372 -0.3487
25320SOL    HW177401   6.216   0.320   4.995 -0.2885  0.6087  0.6472
25320SOL    HW277402   6.100   0.302   4.900  0.8447 -0.2251 -0.6071
25321SOL     OW77403   1.964   6.135   5.886  0.6889  0.4840 -0.0290
25321SOL    HW177404   2.016   6.215   5.873 -0.0212  0.8334 -0.7913
25321SOL    HW277405   1.928   6.144   5.975  2.0326  0.1578  0.5833
25322SOL     OW77406   7.528   0.674   2.643 -0.7771 -0.0258 -0.2841
25322SOL    HW177407   7.491   0.590   2.670 -1.1686  0.2628  0.0920
25322SOL    HW277408   7.531   0.669   2.547  1.8392 -1.5732 -0.2055
25323SOL     OW77409   0.771   5.328   4.623 -0.2993 -0.1030 -0.3165
25323SOL    HW177410   0.792   5.309   4.714 -1.6080  2.2789  0.5545
25323SOL    HW277411   0.856   5.342   4.581  0.3873 -2.3067  0.1988
25324SOL     OW77412   5.664   6.551   7.531  0.5508  0.2959 -0.0316
25324SOL    HW177413   5.624   6.549   7.618  0.5953  0.4747 -0.0062
25324SOL    HW277414   5.590   6.542   7.471  0.7359 -2.5361  0.0452
25325SOL     OW77415   7.857   7.296   5.895 -0.4314  0.0135  0.5602
25325SOL    HW177416   7.790   7.257   5.950  1.4378 -1.6598  1.8025
25325SOL    HW277417   7.850   7.250   5.811 -1.7274  0.8807  0.1683
25326SOL     OW77418   0.086   7.327   3.878 -0.0112 -0.2138 -0.0029
25326SOL    HW177419   0.027   7.253   3.862  1.5123 -1.2411 -1.2054
25326SOL    HW277420   0.038   7.403   3.846 -0.7893 -0.9933 -0.7426
25327SOL     OW77421   1.001   5.055   8.866 -0.0886  0.5295 -0.1925
25327SOL    HW177422   0.993   5.107   8.786 -0.0034  2.1388  0.7820
25327SOL    HW277423   0.916   5.012   8.875  0.1265 -0.1980 -1.4720
25328SOL     OW77424   0.729   7.362   6.043  0.0941 -0.2134 -0.1005
25328SOL    HW177425   0.634   7.371   6.044 -0.0768 -1.7277 -0.6587
25328SOL    HW277426   0.752   7.358   5.950  0.6705 -0.2832  0.0401
25329SOL     OW77427   0.371   6.707   6.895 -0.0786 -0.2634  0.1677
25329SOL    HW177428   0.420   6.721   6.814 -0.1331  2.1075  0.4656
25329SOL    HW277429   0.280   6.722   6.872 -0.4678 -2.3496  0.1254
25330SOL     OW77430   6.956   7.305   6.753  0.0203  0.3005  0.3666
25330SOL    HW177431   6.968   7.222   6.799  0.1811 -0.4440 -0.9623
25330SOL    HW277432   6.910   7.281   6.672 -2.5305  1.8929  1.2431
25331SOL     OW77433   7.591   5.633   7.341  0.5145 -0.3612  0.1187
25331SOL    HW177434   7.646   5.698   7.298  0.2148 -0.0080  0.2627
25331SOL    HW277435   7.636   5.613   7.423  1.3045 -1.3465 -0.5274
25332SOL     OW77436   6.722   6.932   6.268  0.1156 -0.1516  0.0970
25332SOL    HW177437   6.642   6.910   6.222  0.1111  0.5066 -0.2232
25332SOL    HW277438   6.724   6.873   6.343  0.6486 -1.9687 -1.2770
25333SOL     OW77439   7.918   6.738   7.074 -0.4936 -0.0105 -0.3822
25333SOL    HW177440   7.982   6.782   7.018 -0.9051  0.9531 -0.1127
25333SOL    HW277441   7.918   6.789   7.155 -0.3633 -1.0184  0.2760
25334SOL     OW77442   6.811   5.847   5.901  0.3574 -0.2747 -0.1720
25334SOL    HW177443   6.731   5.881   5.941  1.8498  2.6010  0.7137
25334SOL    HW277444   6.862   5.814   5.975  1.1205  0.5744 -0.2984
25335SOL     OW77445   0.877   5.393   8.393  0.6397  0.2527  0.5040
25335SOL    HW177446   0.908   5.466   8.447  0.0647 -2.1248  4.4550
25335SOL    HW277447   0.791   5.371   8.430 -0.4436 -0.7901 -2.3586
25336SOL     OW77448   7.518   4.583   6.468  0.2427 -0.2043 -0.0886
25336SOL    HW177449   7.520   4.643   6.393 -0.5876 -2.1667 -1.7775
25336SOL    HW277450   7.607   4.551   6.477  0.5431  0.7481  0.3846
25337SOL     OW77451   7.698   6.942   3.914 -0.1240  0.3076 -0.5482
25337SOL    HW177452   7.694   6.931   4.008 -0.3679 -0.2433 -0.6225
25337SOL    HW277453   7.756   6.872   3.883 -1.5453 -0.7191 -0.9958
25338SOL     OW77454   0.250   1.745   8.489 -0.0053 -0.1367  0.5890
25338SOL    HW177455   0.224   1.805   8.558  1.0070  0.3201  0.5861
25338SOL    HW277456   0.291   1.800   8.423  1.3398 -0.8676  0.7858
25339SOL     OW77457   7.673   5.425   6.459 -0.3884  0.2929 -0.4905
25339SOL    HW177458   7.689   5.331   6.468 -0.3755  0.2238 -1.1885
25339SOL    HW277459   7.755   5.460   6.425 -0.0248  0.7354  0.7796
25340SOL     OW77460   7.106   0.311   6.284  0.0165 -0.1460 -0.4851
25340SOL    HW177461   7.028   0.282   6.237 -0.2245  0.5116 -0.5096
25340SOL    HW277462   7.170   0.241   6.272 -0.6070 -0.7384 -0.3750
25341SOL     OW77463   7.452   5.916   5.341 -0.1214 -0.6191  0.2244
25341SOL    HW177464   7.438   6.009   5.326 -1.5414 -0.6966  0.8498
25341SOL    HW277465   7.535   5.910   5.388 -0.0487  0.3309  0.2243
25342SOL     OW77466   5.006   5.585   6.580 -0.4652  0.1066 -0.1862
25342SOL    HW177467   4.927   5.606   6.630  0.4815  0.5613  1.2062
25342SOL    HW277468   5.077   5.597   6.643  1.0518  2.8798 -2.2179
25343SOL     OW77469   0.115   4.573   7.589 -0.0404 -0.3246 -0.1217
25343SOL    HW177470   0.038   4.609   7.544 -1.3602 -1.7179  0.9203
25343SOL    HW277471   0.145   4.645   7.644 -1.3319 -0.1033  0.3336
25344SOL     OW77472   2.166   0.406   6.704  0.2677 -0.7255  0.5453
25344SOL    HW177473   2.124   0.350   6.768  0.2608 -0.4866  0.7543
25344SOL    HW277474   2.257   0.377   6.703  0.2031 -0.9249  0.4454
25345SOL     OW77475   1.311   5.839   4.719  0.0756 -0.3111  0.3454
25345SOL    HW177476   1.257   5.760   4.712 -0.0036 -0.3235  1.0521
25345SOL    HW277477   1.316   5.857   4.813  0.7000  0.1095  0.2377
25346SOL     OW77478   7.391   0.403   6.097  0.4271  0.1001 -0.4831
25346SOL    HW177479   7.401   0.309   6.112 -2.5977 -0.0796  1.1045
25346SOL    HW277480   7.425   0.444   6.176  1.0161  0.3074 -0.8394
25347SOL     OW77481   0.044   6.722   6.015 -0.4203 -0.2774 -0.4119
25347SOL    HW177482  -0.014   6.757   5.948  0.4177 -1.4411 -1.8097
25347SOL    HW277483   0.024   6.628   6.018  1.6531 -0.8187 -1.2895
25348SOL     OW77484   7.421   5.276   6.608 -0.1547 -0.5736 -0.1467
25348SOL    HW177485   7.443   5.256   6.517 -0.4309  0.2047 -0.3950
25348SOL    HW277486   7.438   5.195   6.655  0.0536 -0.9692 -0.8828
25349SOL     OW77487   7.959   6.539   5.346  0.1158  0.0270  0.2492
25349SOL    HW177488   7.871   6.543   5.383  0.9999  2.4485  2.3641
25349SOL    HW277489   8.006   6.479   5.402  0.0722 -0.5942 -0.3620
25350SOL     OW77490   6.970   4.702   6.234  0.1576 -0.3887 -0.5541
25350SOL    HW177491   6.910   4.630   6.258  0.6653 -0.4784  0.4957
25350SOL    HW277492   6.919   4.757   6.174 -0.3003 -1.5271 -1.2503
25351SOL     OW77493   0.801   6.044   6.310  0.5564  0.0751  0.4765
25351SOL    HW177494   0.808   6.019   6.218  0.9177 -1.4527  0.9043
25351SOL    HW277495   0.714   6.015   6.336  0.7072 -0.0985  0.7884
25352SOL     OW77496   7.975   7.259   5.250  0.0701 -0.3494 -0.0304
25352SOL    HW177497   7.897   7.207   5.267 -0.2467  0.4119  0.9092
25352SOL    HW277498   7.942   7.339   5.209  0.6458 -1.2828 -2.5159
25353SOL     OW77499   0.244   6.191   7.230 -0.1944 -0.3252 -0.5492
25353SOL    HW177500   0.150   6.204   7.220 -0.0010  0.1000 -2.3109
25353SOL    HW277501   0.280   6.279   7.245  0.1804  0.0209 -3.0183
25354SOL     OW77502   7.922   6.007   5.843  0.3177 -0.0610  0.1921
25354SOL    HW177503   7.885   5.955   5.915 -0.7265  0.8730  0.3702
25354SOL    HW277504   7.951   6.088   5.886 -2.5386  1.5774 -0.6781
25355SOL     OW77505   7.662   6.952   6.828  0.5215 -0.0248 -0.1761
25355SOL    HW177506   7.733   7.012   6.803  1.1254 -0.8636 -0.5212
25355SOL    HW277507   7.583   6.995   6.797  0.8876  0.8516  0.0656
25356SOL     OW77508   0.063   1.188   7.367  0.3420  0.3116  0.3920
25356SOL    HW177509  -0.002   1.251   7.335  0.7689  0.2026 -0.7316
25356SOL    HW277510   0.130   1.185   7.298  0.4850 -1.1305  0.5636
25357SOL     OW77511   7.697   5.945   8.137  0.2511 -0.1269  0.7879
25357SOL    HW177512   7.627   5.994   8.095  0.8351  0.0843  0.0334
25357SOL    HW277513   7.664   5.855   8.141 -0.3571  0.1044  1.1307
25358SOL     OW77514   2.004   7.000   7.097  0.1106 -0.3792  0.2012
25358SOL    HW177515   2.000   7.038   7.009 -3.0018 -1.0258 -0.0563
25358SOL    HW277516   1.994   7.075   7.156  0.1784 -0.1505 -0.0743
25359SOL     OW77517   2.127   5.532   5.608 -0.1355  0.2995  0.3977
25359SOL    HW177518   2.153   5.456   5.660 -0.6033 -0.6634 -0.7372
25359SOL    HW277519   2.066   5.497   5.543 -1.0387  1.7976  0.3859
25360SOL     OW77520   7.390   6.110   5.990  0.2622 -0.2963  0.3283
25360SOL    HW177521   7.318   6.052   5.965  0.8959 -0.7089 -0.5701
25360SOL    HW277522   7.397   6.172   5.916  1.7157 -1.1092 -0.2482
25361SOL     OW77523   0.203   6.748   8.019  0.1964  0.3528  0.0943
25361SOL    HW177524   0.143   6.685   8.060  1.0698 -1.4022 -1.2114
25361SOL    HW277525   0.145   6.810   7.974 -0.6685  0.3347  1.1224
25362SOL     OW77526   6.433   6.072   6.407  0.2993  0.0656 -0.3945
25362SOL    HW177527   6.379   6.127   6.464  0.1114 -0.9348  0.4043
25362SOL    HW277528   6.522   6.105   6.420  0.2661 -0.1842  0.5223
25363SOL     OW77529   0.916   4.772   7.464 -0.1583  0.0150  0.0215
25363SOL    HW177530   0.827   4.807   7.459 -0.5796 -1.1061 -0.5744
25363SOL    HW277531   0.957   4.797   7.382 -0.0349  0.2098  0.1405
25364SOL     OW77532   0.356   6.558   8.399  0.5157  0.1959  0.4797
25364SOL    HW177533   0.304   6.492   8.355  2.7641 -0.8785 -0.7379
25364SOL    HW277534   0.374   6.520   8.486  1.8932 -0.9426 -0.2516
25365SOL     OW77535   0.767   6.384   6.297 -0.2467 -0.0142  0.6658
25365SOL    HW177536   0.712   6.317   6.336  0.2316 -0.2003  1.0280
25365SOL    HW277537   0.779   6.449   6.366  1.6548 -0.9594  1.3207
25366SOL     OW77538   7.264   0.683   7.506 -0.0820  0.6725 -0.5144
25366SOL    HW177539   7.201   0.649   7.443 -2.0793  0.6359  1.4183
25366SOL    HW277540   7.282   0.772   7.476  0.4305  0.0680 -2.1135
25367SOL     OW77541   7.947   0.507   5.875  0.0313  0.6202 -0.0234
25367SOL    HW177542   7.870   0.545   5.918 -0.7647  1.4091 -2.0125
25367SOL    HW277543   7.999   0.471   5.947 -0.9606  2.2759  1.6262
25368SOL     OW77544   6.063   7.080   7.716 -0.4635 -0.0229 -0.2249
25368SOL    HW177545   6.125   7.029   7.768  0.6581  0.8293 -0.6875
25368SOL    HW277546   5.980   7.033   7.725  0.6114 -2.2248 -1.0136
25369SOL     OW77547   7.635   5.508   8.468  0.2712 -0.2279  0.3424
25369SOL    HW177548   7.586   5.574   8.516 -1.6070 -0.8520 -0.6109
25369SOL    HW277549   7.697   5.558   8.415  0.9403  0.5682  1.8323
25370SOL     OW77550   0.183   7.533   6.336  0.0665  0.5099 -0.2362
25370SOL    HW177551   0.217   7.456   6.382 -1.5475 -1.3172 -1.9131
25370SOL    HW277552   0.168   7.597   6.405 -0.4789 -1.4198  1.5356
25371SOL     OW77553   1.219   7.037   6.745 -0.0232 -0.1967  0.1620
25371SOL    HW177554   1.126   7.017   6.731  0.2541 -1.0291 -0.6135
25371SOL    HW277555   1.250   6.968   6.804 -0.2383  0.9818  1.7157
25372SOL     OW77556   7.382   6.597   5.727  0.6996 -0.5308 -0.4911
25372SOL    HW177557   7.385   6.590   5.632  0.4498 -0.7238 -0.4867
25372SOL    HW277558   7.301   6.644   5.746 -0.8326 -3.0375 -0.2724
25373SOL     OW77559   0.139   7.265   5.451 -0.1518  0.3470  0.2625
25373SOL    HW177560   0.140   7.185   5.503  0.3727  1.2151  1.6360
25373SOL    HW277561   0.072   7.249   5.385 -0.0877 -1.2001  0.5177
25374SOL     OW77562   0.257   7.306   6.453 -0.4010 -0.2940 -0.2153
25374SOL    HW177563   0.284   7.217   6.429 -1.2294 -0.4403 -0.6328
25374SOL    HW277564   0.335   7.345   6.493 -0.3574 -1.6203  1.0879
25375SOL     OW77565   6.471   0.809   5.154 -0.2069  0.0517  0.0246
25375SOL    HW177566   6.563   0.781   5.151  0.1691  1.2129  0.3182
25375SOL    HW277567   6.423   0.735   5.118  0.8847 -0.3922 -0.5846
25376SOL     OW77568   7.399   5.609   6.042 -0.7657  0.1740 -0.0091
25376SOL    HW177569   7.455   5.685   6.059  0.3848 -0.5556 -0.4511
25376SOL    HW277570   7.327   5.618   6.105 -2.0699  3.0098 -1.7299
25377SOL     OW77571   0.731   7.765   7.222 -0.8216  0.5078  0.6930
25377SOL    HW177572   0.724   7.733   7.312 -1.5796 -0.1680  0.4039
25377SOL    HW277573   0.645   7.802   7.203 -1.1403 -0.6428 -0.2147
25378SOL     OW77574   3.102   5.206   6.406  0.4313  0.1709 -0.1265
25378SOL    HW177575   3.193   5.202   6.375  0.4913 -1.6732  0.1472
25378SOL    HW277576   3.060   5.129   6.366 -0.4587 -0.1476  1.3430
25379SOL     OW77577   6.978   6.968   4.639 -0.0509  0.1676 -0.1569
25379SOL    HW177578   6.911   6.932   4.581  1.8837 -1.6071 -1.4486
25379SOL    HW277579   6.946   6.951   4.727 -2.3601  1.5417 -0.6518
25380SOL     OW77580   7.932   7.031   6.517 -0.0518 -0.1314  0.0060
25380SOL    HW177581   7.905   7.055   6.605 -1.5162 -1.4831 -0.0408
25380SOL    HW277582   7.980   6.949   6.527  1.3244  0.6050 -0.2874
25381SOL     OW77583   0.486   3.857   5.435  0.0323  0.1188 -0.2524
25381SOL    HW177584   0.429   3.841   5.510 -1.1681 -1.2958 -1.4278
25381SOL    HW277585   0.535   3.936   5.460 -1.7058  0.8169  1.2118
25382SOL     OW77586   7.843   6.542   6.917  0.0380  0.2786  0.0382
25382SOL    HW177587   7.868   6.625   6.959  0.8836 -0.3082  0.7512
25382SOL    HW277588   7.767   6.512   6.966 -0.5377  0.8355 -0.5008
25383SOL     OW77589   2.318   7.570   7.257  0.7168  0.1817 -0.1371
25383SOL    HW177590   2.256   7.534   7.320  1.5293  0.5018  0.8750
25383SOL    HW277591   2.389   7.605   7.310  1.4163  0.4958 -1.2360
25384SOL     OW77592   0.048   7.675   6.137 -0.0067 -0.8127  0.1671
25384SOL    HW177593  -0.029   7.633   6.099 -1.4440  0.2565  1.7217
25384SOL    HW277594   0.078   7.615   6.205  0.7834 -1.3985 -0.6840
25385SOL     OW77595   7.342   7.038   5.681 -0.3637  0.0881 -0.3737
25385SOL    HW177596   7.285   7.103   5.723 -0.1003  1.9964 -2.7030
25385SOL    HW277597   7.281   6.973   5.645 -0.8602  0.5178 -0.3221
25386SOL     OW77598   1.677   7.516   8.314  0.3836 -0.1623  0.2876
25386SOL    HW177599   1.639   7.506   8.402  0.8576 -0.9090  0.4132
25386SOL    HW277600   1.759   7.564   8.329  0.3536 -0.0898  0.2215
25387SOL     OW77601   0.499   5.020   6.838  0.4576 -0.4481  0.0088
25387SOL    HW177602   0.556   4.947   6.814 -1.3474 -2.4431  1.4863
25387SOL    HW277603   0.523   5.040   6.928 -0.4964 -0.6563  0.3152
25388SOL     OW77604   7.106   6.925   6.393  0.4888 -0.4930  0.1029
25388SOL    HW177605   7.046   6.993   6.363  1.5761 -0.5613 -2.4591
25388SOL    HW277606   7.109   6.862   6.321 -0.3726 -3.2704  2.3151
25389SOL     OW77607   7.825   1.178   6.601 -0.4553  0.4387 -0.2615
25389SOL    HW177608   7.823   1.217   6.513 -0.9689 -0.9403 -0.8795
25389SOL    HW277609   7.832   1.253   6.659 -1.2858  1.4657 -1.4209
25390SOL     OW77610   0.921   5.612   8.866 -0.3710 -0.0478  0.4896
25390SOL    HW177611   0.961   5.581   8.948 -1.9211  1.2708  1.8041
25390SOL    HW277612   0.827   5.616   8.885 -0.5493  2.3986 -0.6278
25391SOL     OW77613   0.131   6.485   9.337 -0.1636 -0.5167  0.3294
25391SOL    HW177614   0.141   6.554   9.272  0.7546 -1.8528 -1.0170
25391SOL    HW277615   0.078   6.524   9.406 -2.9782  0.3762 -2.1185
25392SOL     OW77616   7.690   0.120   7.913 -0.0416  0.1406 -0.0433
25392SOL    HW177617   7.735   0.090   7.834  0.0700  0.1484  0.0169
25392SOL    HW277618   7.639   0.044   7.942 -1.2310  0.5700 -0.9387
25393SOL     OW77619   7.666   7.819   8.890  0.3154 -0.1742 -0.0561
25393SOL    HW177620   7.673   7.839   8.797  1.6350 -1.5761 -0.3082
25393SOL    HW277621   7.614   7.738   8.894 -1.2799  0.8469  0.5905
25394SOL     OW77622   6.774   5.136   8.365  0.4045  0.7288  0.0091
25394SOL    HW177623   6.867   5.119   8.382 -0.1288 -1.7961  0.8181
25394SOL    HW277624   6.754   5.082   8.289 -0.0799  2.5699 -1.2410
25395SOL     OW77625   1.869   7.648   6.981  0.0010 -0.1134 -0.3526
25395SOL    HW177626   1.809   7.619   6.912 -0.5100  0.2123 -0.0530
25395SOL    HW277627   1.862   7.581   7.049 -1.6225  0.9550  0.5962
25396SOL     OW77628   6.556   7.549   8.328 -0.2964 -0.2507  0.2910
25396SOL    HW177629   6.620   7.535   8.397 -0.2155 -0.0069  0.2680
25396SOL    HW277630   6.569   7.640   8.302  0.0797 -0.5190 -0.4671
25397SOL     OW77631   7.812   7.451   7.501 -0.2753  0.2070 -0.0352
25397SOL    HW177632   7.860   7.374   7.534 -0.7785  0.1371  0.5467
25397SOL    HW277633   7.820   7.444   7.406  1.4274  0.5480  0.0403
25398SOL     OW77634   0.103   7.418   8.246  0.1569  0.0270  0.1571
25398SOL    HW177635   0.054   7.348   8.289  0.0699 -1.0937 -1.6644
25398SOL    HW277636   0.037   7.469   8.200  0.6106 -2.2219 -3.3518
25399SOL     OW77637   0.757   7.736   7.496 -0.0058 -0.0793 -0.2555
25399SOL    HW177638   0.700   7.810   7.518 -1.0655 -0.8868 -0.1989
25399SOL    HW277639   0.845   7.773   7.495 -0.2776  0.7293  1.8500
25400SOL     OW77640   7.406   6.772   9.446 -0.1368 -0.5520 -0.5622
25400SOL    HW177641   7.478   6.823   9.410  1.4365 -0.6058  2.2093
25400SOL    HW277642   7.351   6.836   9.491 -1.1708 -0.6889 -1.5621
25401SOL     OW77643   7.900   5.236   8.190  0.2226 -0.5581  0.1284
25401SOL    HW177644   7.991   5.210   8.182 -0.3851 -2.5861 -1.0347
25401SOL    HW277645   7.855   5.156   8.219 -1.3467  0.0387 -0.5510
25402SOL     OW77646   0.152   7.349   6.708  0.0182 -0.0433  0.5340
25402SOL    HW177647   0.161   7.312   6.620  0.2541  0.9112  0.1419
25402SOL    HW277648   0.213   7.423   6.710 -1.3777  1.1614  0.8126
25403SOL     OW77649   1.111   7.919   9.440 -0.0124  0.3898  0.0666
25403SOL    HW177650   1.022   7.918   9.403  0.3534  1.1155 -0.8401
25403SOL    HW277651   1.152   7.839   9.405 -0.7880 -0.8237  1.7607
25404SOL     OW77652   1.144   7.851   9.013 -0.4950  0.6202  0.1802
25404SOL    HW177653   1.081   7.865   8.942  1.1273  0.4518 -1.3505
25404SOL    HW277654   1.099   7.790   9.072 -1.6188  0.1641 -1.0727
25405SOL     OW77655   1.090   4.826   9.029 -0.0719 -0.2760  0.0904
25405SOL    HW177656   1.184   4.847   9.030  0.0427 -0.6973 -0.6503
25405SOL    HW277657   1.051   4.898   8.979 -0.3160  0.4868  1.3307
25406SOL     OW77658   6.804   0.392   8.077 -0.1224  0.1289 -0.2873
25406SOL    HW177659   6.861   0.466   8.059  1.2340 -0.8689 -0.2646
25406SOL    HW277660   6.849   0.342   8.145 -1.5871 -0.0964  0.5735
25407SOL     OW77661   7.773   6.495   7.437 -0.4519 -0.0082  0.1004
25407SOL    HW177662   7.705   6.563   7.439 -0.0352  0.4249 -0.3049
25407SOL    HW277663   7.855   6.543   7.447 -0.1697 -0.4806  0.0810
25408SOL     OW77664   1.299   7.602   9.587  0.7830  0.2090  0.1884
25408SOL    HW177665   1.328   7.620   9.677 -1.3621 -0.0091  0.9795
25408SOL    HW277666   1.291   7.507   9.583  2.0788  0.1190 -0.6607
25409SOL     OW77667   0.327   7.265   8.136  0.1350 -0.1454  0.1645
25409SOL    HW177668   0.315   7.224   8.050  0.4034  0.2199 -0.0526
25409SOL    HW277669   0.238   7.275   8.170  0.1075 -1.5990  0.5669
25410SOL     OW77670   7.105   0.552   7.341  0.2096 -0.7386  0.3718
25410SOL    HW177671   7.077   0.618   7.278  0.5878  0.2516  1.2100
25410SOL    HW277672   7.048   0.477   7.324  0.9831 -0.8982 -1.8181
25411SOL     OW77673   7.675   5.930   8.789 -0.3343 -0.0610  0.2057
25411SOL    HW177674   7.729   5.932   8.868 -1.4708 -0.2679  1.0144
25411SOL    HW277675   7.630   6.014   8.788 -0.2926 -0.0406 -0.2542
25412SOL     OW77676   0.125   5.546   7.757 -0.2689  0.1216  0.3580
25412SOL    HW177677   0.091   5.460   7.731 -0.8061  0.5388 -0.3740
25412SOL    HW277678   0.051   5.605   7.744  0.1995  0.7499  0.5371
25413SOL     OW77679   0.196   5.239   9.628 -0.4213 -0.1851 -0.2118
25413SOL    HW177680   0.249   5.309   9.591 -1.1694 -0.2300 -1.4134
25413SOL    HW277681   0.260   5.177   9.664  0.2934  0.3612 -0.5189
25414SOL     OW77682   0.533   4.989   8.739  0.4692 -0.2523 -0.9710
25414SOL    HW177683   0.527   5.082   8.762 -3.1144 -0.8422  1.2958
25414SOL    HW277684   0.457   4.973   8.685 -0.0377 -2.1783  0.2176
25415SOL     OW77685   1.373   0.278   7.904  0.5312 -0.0466 -0.3593
25415SOL    HW177686   1.375   0.306   7.812  1.8268  0.5423 -0.1765
25415SOL    HW277687   1.465   0.269   7.928  0.2108 -0.0111  0.9388
25416SOL     OW77688   6.931   7.134   9.280 -0.0862  0.0453 -0.1424
25416SOL    HW177689   6.866   7.120   9.349 -1.7163 -0.6329 -1.7424
25416SOL    HW277690   7.010   7.160   9.327 -1.5499  1.1447  1.8744
25417SOL     OW77691   6.921   0.568   9.083  0.7626 -0.2443 -0.1016
25417SOL    HW177692   6.890   0.552   8.994  0.5527  1.2887 -0.3273
25417SOL    HW277693   7.016   0.563   9.076  0.7449 -0.1942 -0.3958
25418SOL     OW77694   7.387   6.475   8.503 -0.3875  0.4015  0.1788
25418SOL    HW177695   7.433   6.423   8.569 -0.9124 -0.1166  0.1449
25418SOL    HW277696   7.388   6.565   8.538  0.4507  0.3637  0.2761
25419SOL     OW77697   7.590   6.702   6.779 -0.0954 -0.2673 -0.4074
25419SOL    HW177698   7.623   6.791   6.789 -1.6417  0.2908  0.1084
25419SOL    HW277699   7.547   6.682   6.862 -1.8529 -0.5420 -1.3240
25420SOL     OW77700   0.150   0.412   8.049 -0.6444 -0.2572  0.6158
25420SOL    HW177701   0.187   0.324   8.047 -0.0027  0.0068 -0.5835
25420SOL    HW277702   0.207   0.461   8.109  1.6797  0.3889 -1.9209
25421SOL     OW77703   0.873   7.541   6.812  0.6440  0.2334  0.2438
25421SOL    HW177704   0.897   7.476   6.746  0.6860  1.7058 -1.2578
25421SOL    HW277705   0.939   7.609   6.804 -0.0106  0.9821  1.0092
25422SOL     OW77706   6.989   0.773   7.790  0.1530 -0.3604 -0.4072
25422SOL    HW177707   7.023   0.824   7.716  0.3298 -2.7534 -2.1019
25422SOL    HW277708   6.897   0.758   7.769  0.1903 -1.0248 -0.1282
25423SOL     OW77709   6.869   5.529   9.981 -0.2189 -0.0561 -0.0420
25423SOL    HW177710   6.922   5.570  10.049  0.2505  0.1428 -0.5227
25423SOL    HW277711   6.795   5.589   9.968  0.6040  0.7883 -0.9368
25424SOL     OW77712   7.124   4.972   9.553 -0.0451 -0.4153 -0.1796
25424SOL    HW177713   7.156   5.031   9.485  0.6104 -0.3853  0.1403
25424SOL    HW277714   7.204   4.932   9.589 -0.2847  0.4222  1.3481
25425SOL     OW77715   0.092   7.079   8.167 -0.0759 -0.6098  0.3349
25425SOL    HW177716   0.107   7.085   8.072  1.3184 -0.3249  0.5571
25425SOL    HW277717   0.033   7.004   8.177  1.6286 -2.1637 -0.6055
25426SOL     OW77718   0.615   3.843   7.813 -0.4214  0.3401 -0.6815
25426SOL    HW177719   0.672   3.816   7.741  0.3634 -0.5793  0.2580
25426SOL    HW277720   0.668   3.905   7.864 -0.1101 -0.7667  0.3796
25427SOL     OW77721   7.086   5.484   8.837  0.2445  0.5149 -0.0180
25427SOL    HW177722   7.067   5.396   8.806 -0.2700  0.5943  0.0675
25427SOL    HW277723   7.030   5.541   8.785 -0.3920  0.6783  0.8224
25428SOL     OW77724   7.346   5.536   7.415 -0.0335  0.1730  0.1892
25428SOL    HW177725   7.424   5.589   7.394  1.4517 -2.0217 -0.1831
25428SOL    HW277726   7.326   5.559   7.506  0.2945  1.6610 -0.0890
25429SOL     OW77727   0.420   6.942   9.129  0.2731  0.2444  0.2707
25429SOL    HW177728   0.465   7.025   9.120 -0.1774  0.4870  0.2249
25429SOL    HW277729   0.327   6.965   9.133  0.2480  0.0074  3.3141
25430SOL     OW77730   7.494   0.262   7.104  0.0255  0.2131 -0.3489
25430SOL    HW177731   7.516   0.292   7.016 -2.1168  0.5042 -0.8387
25430SOL    HW277732   7.468   0.342   7.150  1.3204  0.0898  0.6493
25431SOL     OW77733   6.267   6.287   9.083  0.3956  0.1515  0.0818
25431SOL    HW177734   6.229   6.276   9.170  2.1077  0.7144  0.9321
25431SOL    HW277735   6.350   6.333   9.098 -0.0718  1.8493 -1.9951
25432SOL     OW77736   7.661   7.717   6.257 -0.9712 -0.6061  0.6021
25432SOL    HW177737   7.704   7.689   6.337 -0.4214  0.5620  0.7318
25432SOL    HW277738   7.662   7.813   6.261 -0.4247 -0.5083 -1.0636
25433SOL     OW77739   1.656   7.776   8.914 -0.0056  0.1629  0.1495
25433SOL    HW177740   1.565   7.764   8.942  0.0556  1.3845  0.9533
25433SOL    HW277741   1.688   7.687   8.899 -1.2766 -0.2970  0.0259
25434SOL     OW77742   4.854   0.102   8.303  0.0886 -0.0039  0.0142
25434SOL    HW177743   4.817   0.189   8.284  0.2114 -0.1351 -0.8994
25434SOL    HW277744   4.903   0.114   8.384  0.0748  0.7757 -0.0827
25435SOL     OW77745   0.143   6.809   8.483 -0.5542  0.6934 -0.2184
25435SOL    HW177746   0.209   6.741   8.495 -1.8610 -0.5338  0.1980
25435SOL    HW277747   0.086   6.802   8.560 -0.3948  2.6513  0.1312
25436SOL     OW77748   6.714   5.156   6.767 -0.1244  0.1207  0.6015
25436SOL    HW177749   6.797   5.199   6.789 -0.5625  0.4103  1.7732
25436SOL    HW277750   6.647   5.214   6.803 -0.8593  0.0410 -0.5888
25437SOL     OW77751   0.647   7.058   9.792 -0.2174  0.4681 -0.0825
25437SOL    HW177752   0.622   7.018   9.875 -0.3884  1.5277  0.3952
25437SOL    HW277753   0.682   7.144   9.816 -0.8000  1.0297 -1.1418
25438SOL     OW77754   7.798   6.718   7.923  0.8610  0.2837 -0.1913
25438SOL    HW177755   7.816   6.777   7.850  2.1435 -1.5105 -1.3881
25438SOL    HW277756   7.712   6.681   7.903  1.2418 -0.2570 -0.8464
25439SOL     OW77757   7.826   7.360   7.895  0.2022  0.3527  0.3323
25439SOL    HW177758   7.902   7.373   7.837 -1.3103  0.9532 -1.6264
25439SOL    HW277759   7.802   7.268   7.881 -0.3952  0.6001 -0.3288
25440SOL     OW77760   6.648   6.167   8.858  0.3412 -0.3659 -0.0201
25440SOL    HW177761   6.667   6.213   8.940  1.8631  1.9451 -1.5558
25440SOL    HW277762   6.616   6.236   8.799  0.5621 -1.7032 -1.7676
25441SOL     OW77763   7.811   7.512   8.933 -0.5434 -0.7870  0.0442
25441SOL    HW177764   7.760   7.555   9.002  1.4020  0.2507  0.8889
25441SOL    HW277765   7.760   7.528   8.853 -0.9381  1.2681  0.6650
25442SOL     OW77766   0.527   5.293   7.512 -0.3412  0.0769  0.7456
25442SOL    HW177767   0.618   5.307   7.487 -0.0091 -0.3217  1.6583
25442SOL    HW277768   0.518   5.339   7.596 -1.3728  1.2850  0.0068
25443SOL     OW77769   7.228   7.456   8.802  0.0530  0.2037  0.3305
25443SOL    HW177770   7.194   7.541   8.830 -1.8328 -0.3510 -0.0913
25443SOL    HW277771   7.254   7.413   8.884 -1.4410  0.2127  0.8500
25444SOL     OW77772   7.344   1.401   8.831  0.0919 -0.4055  0.4085
25444SOL    HW177773   7.295   1.447   8.899  1.4775  1.3429  0.2942
25444SOL    HW277774   7.434   1.398   8.864  0.9790  1.2258 -1.6607
25445SOL     OW77775   7.593   0.972   8.237 -0.2755 -0.1279 -0.1098
25445SOL    HW177776   7.673   0.976   8.289  0.8203 -1.1880 -1.6425
25445SOL    HW277777   7.620   0.995   8.148 -1.2952 -2.0681 -0.9911
25446SOL     OW77778   7.436   7.636  10.248  0.4248 -0.4410 -0.4476
25446SOL    HW177779   7.509   7.691  10.276  1.4407 -1.7216 -0.4992
25446SOL    HW277780   7.397   7.603  10.329 -1.4627  1.8406 -0.3014
25447SOL     OW77781   6.827   5.685   8.009  0.0479 -0.5272 -0.0733
25447SOL    HW177782   6.849   5.728   8.092  0.0938  0.6447 -0.6733
25447SOL    HW277783   6.911   5.669   7.967  0.0836 -1.9384  0.4730
25448SOL     OW77784   6.381   5.636   8.626 -0.2924  0.0703 -0.1013
25448SOL    HW177785   6.340   5.649   8.712 -0.4183  0.3516 -0.2027
25448SOL    HW277786   6.465   5.595   8.646  0.3593  1.5391  0.2849
25449SOL     OW77787   0.953   7.759   8.386 -0.2788  0.2881 -0.3876
25449SOL    HW177788   0.903   7.715   8.455 -0.1207  0.8502  0.0992
25449SOL    HW277789   0.895   7.758   8.310 -0.7485  0.2996 -0.0354
25450SOL     OW77790   7.529   6.377  10.310  0.2221 -0.1233  0.2363
25450SOL    HW177791   7.528   6.316  10.384 -0.3550 -2.4429 -1.5643
25450SOL    HW277792   7.622   6.395  10.295  0.3330  0.6252  1.6623
25451SOL     OW77793   0.378   0.622   7.276 -0.3780 -0.0619  0.0343
25451SOL    HW177794   0.443   0.559   7.307  0.9289  1.6695  0.9779
25451SOL    HW277795   0.408   0.647   7.189  0.4781  1.0125  0.6151
25452SOL     OW77796   0.097   5.501   9.015 -0.0392 -0.5393 -0.1349
25452SOL    HW177797   0.190   5.489   8.994 -0.1205  1.3352 -1.8648
25452SOL    HW277798   0.056   5.524   8.932 -1.7015  0.5675  0.9313
25453SOL     OW77799   6.885   6.991   7.293  0.0310 -0.0723 -0.4090
25453SOL    HW177800   6.804   7.007   7.342  1.5427  1.0158  1.8866
25453SOL    HW277801   6.866   7.025   7.205 -1.7830  0.7249  0.2358
25454SOL     OW77802   5.874   6.562   9.159  0.3077 -0.0049 -0.2880
25454SOL    HW177803   5.886   6.657   9.155  0.6610 -0.0083  0.4823
25454SOL    HW277804   5.784   6.548   9.130 -0.1727  0.6890  0.7881
25455SOL     OW77805   6.854   5.621   8.702 -0.4166  0.3756 -0.1328
25455SOL    HW177806   6.861   5.691   8.767 -3.6912 -1.0764  2.0758
25455SOL    HW277807   6.787   5.653   8.641 -0.0290  0.2134 -0.6436
25456SOL     OW77808   6.696   6.767   8.617 -0.3610  0.1005  0.3201
25456SOL    HW177809   6.632   6.706   8.654 -0.5929 -1.8567 -2.8933
25456SOL    HW277810   6.773   6.758   8.672 -1.7104 -0.0869  2.2580
25457SOL     OW77811   7.300   6.124  10.395  0.1241 -0.0070 -0.5452
25457SOL    HW177812   7.259   6.039  10.380  0.1505  0.1134 -1.3629
25457SOL    HW277813   7.249   6.164  10.465  1.7853 -1.8036  1.8596
25458SOL     OW77814   0.130   7.754   9.507  0.0123 -0.3632 -0.1472
25458SOL    HW177815   0.073   7.812   9.457  0.4174 -0.4531 -0.7241
25458SOL    HW277816   0.219   7.783   9.486  0.3041 -2.2594 -1.8128
25459SOL     OW77817   6.648   5.334   9.974  0.5980  0.5582  0.1276
25459SOL    HW177818   6.696   5.252   9.983 -2.0497 -1.0246  0.8721
25459SOL    HW277819   6.712   5.402   9.997  2.2176 -1.4350  1.9073
25460SOL     OW77820   0.623   7.366   9.847  0.6848 -1.1176 -0.2032
25460SOL    HW177821   0.533   7.363   9.814  0.1185 -2.6925  1.3233
25460SOL    HW277822   0.614   7.405   9.935  1.7559  0.3192 -0.6949
25461SOL     OW77823   1.414   6.820   9.949  0.1873  0.8533  0.1006
25461SOL    HW177824   1.440   6.909   9.922  0.7317  1.2939  1.8886
25461SOL    HW277825   1.348   6.834  10.017  2.8485  0.1296  3.0848
25462SOL     OW77826   7.448   5.375   7.810 -0.3527  0.5228  0.3380
25462SOL    HW177827   7.373   5.320   7.785 -0.8378  1.2850  0.0890
25462SOL    HW277828   7.499   5.320   7.869 -1.3269  0.1403  0.8421
25463SOL     OW77829   5.825   4.894   7.959  0.2450  0.0333 -0.4803
25463SOL    HW177830   5.835   4.958   8.030 -0.6429  0.2677 -0.5538
25463SOL    HW277831   5.904   4.840   7.964  0.7050  0.7322 -0.0097
25464SOL     OW77832   0.027   7.212   8.903 -0.1439  0.2374  0.2596
25464SOL    HW177833   0.074   7.182   8.825 -1.5786  0.1041 -0.5816
25464SOL    HW277834   0.094   7.257   8.955  0.9257  0.0002 -0.8574
25465SOL     OW77835   6.688   7.259  11.657 -0.7454  0.4885 -0.8587
25465SOL    HW177836   6.627   7.333  11.660 -1.0205  0.2437 -0.3470
25465SOL    HW277837   6.771   7.298  11.630 -1.0332  0.8886 -1.1764
25466SOL     OW77838   6.670   6.175  11.420 -0.7130 -0.3630 -0.1165
25466SOL    HW177839   6.739   6.242  11.419  1.1378 -2.1444  0.1374
25466SOL    HW277840   6.632   6.181  11.508 -1.8322  1.4677 -0.6591
25467SOL     OW77841   6.850   5.152  10.606 -0.2082  0.5627 -0.2302
25467SOL    HW177842   6.770   5.124  10.562 -1.7666  0.9845  2.1289
25467SOL    HW277843   6.846   5.247  10.604 -1.4525  0.6625  2.5177
25468SOL     OW77844   7.572   4.227   9.260 -0.2272  0.6180  0.2812
25468SOL    HW177845   7.553   4.134   9.270 -0.9466  0.8558  1.2297
25468SOL    HW277846   7.496   4.263   9.214  0.1797  0.6986 -0.3469
25469SOL     OW77847   7.408   7.241   8.391 -0.0647  0.0098  0.1434
25469SOL    HW177848   7.345   7.184   8.348 -0.3007  0.1832  0.2554
25469SOL    HW277849   7.376   7.250   8.481  0.3428 -0.2296  0.3178
25470SOL     OW77850   6.981   7.561  12.080 -0.7908  0.2683 -0.0581
25470SOL    HW177851   6.994   7.619  12.005  0.5194  0.7952  0.5319
25470SOL    HW277852   7.003   7.474  12.048 -2.0702  0.1897 -0.7649
25471SOL     OW77853   7.854   6.821   9.919  0.5152  0.1229  0.2968
25471SOL    HW177854   7.839   6.726   9.921  0.5091  0.1278  1.7907
25471SOL    HW277855   7.851   6.847  10.011 -1.8397  1.9603 -0.1943
25472SOL     OW77856   0.742   0.102   9.653  0.4121 -0.2799  0.2538
25472SOL    HW177857   0.778   0.031   9.600  2.2595  0.9341 -0.2141
25472SOL    HW277858   0.819   0.151   9.683 -0.7973  2.1794 -0.3883
25473SOL     OW77859   7.494   6.083   9.087  0.1640 -0.4742 -0.0225
25473SOL    HW177860   7.583   6.109   9.111  0.3964 -1.5579  0.3709
25473SOL    HW277861   7.440   6.110   9.161 -0.2042  1.9646 -1.0833
25474SOL     OW77862   7.347   7.185  10.910  0.0927  0.7963 -0.0084
25474SOL    HW177863   7.259   7.149  10.926 -0.1283  1.1974 -0.3091
25474SOL    HW277864   7.343   7.219  10.821  0.2434  1.7352  0.3379
25475SOL     OW77865   0.264   4.810   9.691 -0.3273 -0.3534 -0.4118
25475SOL    HW177866   0.314   4.729   9.689 -1.7426 -1.2549 -1.1540
25475SOL    HW277867   0.203   4.800   9.764  0.5569  0.7467  0.5139
25476SOL     OW77868   0.744   0.093  11.863 -0.3603  0.0671  0.0368
25476SOL    HW177869   0.831   0.122  11.892 -0.1129 -1.3934  0.8409
25476SOL    HW277870   0.762   0.026  11.797 -0.9158  3.3940 -3.8614
25477SOL     OW77871   0.340   7.042  10.005  0.4606  0.1970 -0.0253
25477SOL    HW177872   0.295   6.967   9.966  1.5310 -0.4064 -0.1141
25477SOL    HW277873   0.423   7.008  10.036  0.5246  1.1339  0.8807
25478SOL     OW77874   6.425   6.653   9.664  0.5677  0.4612 -0.9881
25478SOL    HW177875   6.445   6.628   9.573  0.6380  0.0624 -0.8679
25478SOL    HW277876   6.330   6.644   9.671  0.2527  2.6547 -1.6510
25479SOL     OW77877   7.677   4.352  11.909 -0.1605 -0.3534  0.0914
25479SOL    HW177878   7.617   4.366  11.983 -0.6963 -1.8863 -0.0225
25479SOL    HW277879   7.760   4.328  11.949  0.4078  1.6922  0.2482
25480SOL     OW77880   6.724   7.224   9.863  0.0181 -0.3670  0.2955
25480SOL    HW177881   6.705   7.275   9.942 -0.9565 -0.3657  0.0698
25480SOL    HW277882   6.774   7.149   9.894  1.4319  0.6813  0.6418
25481SOL     OW77883   7.616   7.919   9.456  0.2403 -0.1137 -0.3520
25481SOL    HW177884   7.657   7.865   9.524 -1.9814  0.5420  1.6619
25481SOL    HW277885   7.608   7.862   9.380 -0.5417 -2.1178  1.1623
25482SOL     OW77886   6.712   6.143  10.151  0.6816 -0.4104  0.7412
25482SOL    HW177887   6.709   6.190  10.068  1.8946 -0.5044  0.6326
25482SOL    HW277888   6.636   6.176  10.200  1.6071  1.8515  0.7593
25483SOL     OW77889   7.637   4.142  10.476  0.1845  0.0331 -0.3324
25483SOL    HW177890   7.599   4.225  10.502 -0.0158 -0.1462 -0.0506
25483SOL    HW277891   7.641   4.146  10.380  0.7100  0.5938 -0.2893
25484SOL     OW77892   1.820   7.255  10.380  0.2026 -0.4177  0.3197
25484SOL    HW177893   1.796   7.168  10.348  1.7140 -0.8934  0.3605
25484SOL    HW277894   1.818   7.246  10.475  0.3124 -0.4068  0.3236
25485SOL     OW77895   0.142   5.680  11.177  0.4636 -0.2212  0.2932
25485SOL    HW177896   0.096   5.663  11.259  0.3889 -0.7649  0.1384
25485SOL    HW277897   0.231   5.648  11.192  0.2912 -0.8572 -0.0375
25486SOL     OW77898   7.985   7.561  10.767  0.2258 -0.1789 -0.2890
25486SOL    HW177899   7.908   7.589  10.818 -1.6873 -1.2457 -2.4314
25486SOL    HW277900   8.044   7.524  10.832 -0.7400  1.2784  1.5350
25487SOL     OW77901   0.265   6.484   8.865  0.4354 -0.0162  0.0820
25487SOL    HW177902   0.303   6.554   8.917 -0.4299 -1.1178  2.3551
25487SOL    HW277903   0.185   6.459   8.912 -0.6672 -0.8126 -2.0453
25488SOL     OW77904   0.874   0.595  10.976  0.5116 -0.2335  0.4539
25488SOL    HW177905   0.779   0.592  10.971  0.5545 -0.6924 -0.1732
25488SOL    HW277906   0.893   0.607  11.070 -0.1361 -1.1602  0.7111
25489SOL     OW77907   7.704   5.692  10.014  0.1961  0.0752  0.4576
25489SOL    HW177908   7.737   5.720  10.100 -0.1363  0.0865  0.5835
25489SOL    HW277909   7.654   5.612  10.032  0.6386 -0.2638  0.1828
25490SOL     OW77910   7.795   6.647   9.189  0.5873 -0.1962 -0.0177
25490SOL    HW177911   7.870   6.693   9.227 -0.6697  1.5626  0.4242
25490SOL    HW277912   7.750   6.609   9.265  0.1582  0.0931 -0.1284
25491SOL     OW77913   0.666   7.152  11.349  0.2165  0.3238  0.2173
25491SOL    HW177914   0.581   7.155  11.393  0.6333 -2.7299  1.5667
25491SOL    HW277915   0.727   7.186  11.414  0.0007  4.3735 -1.4279
25492SOL     OW77916   7.356   5.799  10.096  0.0251 -0.0865  0.3926
25492SOL    HW177917   7.328   5.716  10.059  1.8122  0.3538 -2.2683
25492SOL    HW277918   7.410   5.775  10.171 -2.5029 -1.0983  1.9977
25493SOL     OW77919   7.666   7.664  10.514 -0.2263  0.0223 -0.3582
25493SOL    HW177920   7.710   7.579  10.513  1.5580  0.8966 -0.6608
25493SOL    HW277921   7.608   7.661  10.590  1.1001 -0.8477  0.6652
25494SOL     OW77922   5.593   5.606  10.619  0.2469  0.0303 -0.2805
25494SOL    HW177923   5.592   5.615  10.714 -0.8576  0.4832 -0.3159
25494SOL    HW277924   5.501   5.590  10.596  0.6232 -0.8767 -1.1994
25495SOL     OW77925   0.121   6.461  10.690 -0.3232 -0.2312  0.4500
25495SOL    HW177926   0.108   6.374  10.726 -1.3345 -0.1294  0.3756
25495SOL    HW277927   0.106   6.521  10.764 -1.7850 -0.0485  0.0389
25496SOL     OW77928   0.938   5.993  10.958  0.5958  0.4628  0.7621
25496SOL    HW177929   0.861   5.971  10.905 -1.3469  1.7006  2.8686
25496SOL    HW277930   0.966   6.078  10.925  1.7785 -0.4414 -0.6869
25497SOL     OW77931   7.675   7.294  10.740  0.3221  0.1980  0.5739
25497SOL    HW177932   7.609   7.240  10.697  1.1527 -0.9277  0.6779
25497SOL    HW277933   7.630   7.377  10.758 -0.9007 -0.3580  0.1857
25498SOL     OW77934   6.838   7.723   8.882 -0.3691  0.0187  0.5341
25498SOL    HW177935   6.923   7.719   8.837 -0.3123  1.6579  0.4429
25498SOL    HW277936   6.774   7.710   8.813 -0.2286 -1.4252  0.6298
25499SOL     OW77937   7.452   7.379  10.135  0.1718 -0.8758  0.2195
25499SOL    HW177938   7.539   7.370  10.096  0.4683 -0.1157  0.6722
25499SOL    HW277939   7.444   7.473  10.153 -0.9855 -0.8586 -0.3593
25500SOL     OW77940   7.311   6.914  11.492  0.1375 -0.0944 -0.7520
25500SOL    HW177941   7.319   6.952  11.580 -1.1720 -0.0419 -0.6328
25500SOL    HW277942   7.265   6.981  11.441 -2.8305 -1.6774 -0.3598
25501SOL     OW77943   7.112   7.342  11.998  0.2956  0.3457 -0.1449
25501SOL    HW177944   7.167   7.413  11.964  1.5694  0.0324  1.1440
25501SOL    HW277945   7.130   7.268  11.941  3.8696 -0.7469  2.0608
25502SOL     OW77946   7.779   7.389  10.509  0.2390 -0.4329 -0.1746
25502SOL    HW177947   7.743   7.339  10.582 -0.9262 -0.8528 -1.0004
25502SOL    HW277948   7.783   7.327  10.437  1.1720  0.0307 -0.5439
25503SOL     OW77949   7.452   0.102  12.048  0.6396 -0.2234  0.2284
25503SOL    HW177950   7.428   0.098  12.140  0.6022  0.2334  0.2420
25503SOL    HW277951   7.383   0.155  12.007  1.5349  1.0134  0.2510
25504SOL     OW77952   0.444   6.771   9.745 -0.5239 -0.3958 -0.1741
25504SOL    HW177953   0.539   6.784   9.736 -0.5279 -0.7460 -0.7313
25504SOL    HW277954   0.418   6.728   9.664 -1.8455  3.2095 -1.8654
25505SOL     OW77955   7.340   6.340  10.735  0.2890 -0.0198 -0.1106
25505SOL    HW177956   7.403   6.268  10.741  0.7027  0.4592  2.9765
25505SOL    HW277957   7.255   6.298  10.739  0.4767 -0.4727 -0.7904
25506SOL     OW77958   7.404   7.527   9.702  0.1296 -0.1698 -0.2228
25506SOL    HW177959   7.474   7.467   9.673  0.8975  0.9400 -0.7312
25506SOL    HW277960   7.434   7.559   9.787  0.2732  0.3459 -0.4641
25507SOL     OW77961   1.912   7.034  10.020  0.1859  0.3468  0.1266
25507SOL    HW177962   1.920   7.062  10.111 -0.1038 -0.9122  0.5608
25507SOL    HW277963   1.879   7.111   9.974  2.8769  1.8581  0.5471
25508SOL     OW77964   1.351   6.829   8.709 -0.3410 -0.3051 -0.4808
25508SOL    HW177965   1.363   6.735   8.718  0.8172 -0.0686  0.7941
25508SOL    HW277966   1.273   6.849   8.761 -0.8447 -0.6171 -1.1156
25509SOL     OW77967   0.202   0.313  10.081 -0.6420 -0.5543 -0.7995
25509SOL    HW177968   0.176   0.233  10.035  0.4297 -0.6810 -1.2274
25509SOL    HW277969   0.289   0.293  10.115 -1.8778 -0.9338  2.4556
25510SOL     OW77970   7.001   6.399   9.502 -1.0896  0.2579  0.1749
25510SOL    HW177971   7.019   6.305   9.495  0.2786  0.5165  0.0266
25510SOL    HW277972   7.081   6.442   9.473 -1.6813  1.4858  0.2679
25511SOL     OW77973   0.912   6.898  11.303 -0.1792  0.1012  0.2795
25511SOL    HW177974   0.982   6.833  11.299 -0.6105 -0.3225 -0.7000
25511SOL    HW277975   0.885   6.899  11.395  1.6750  0.8977  0.8644
25512SOL     OW77976   0.739   6.825   0.071  0.0236 -0.4956  0.4345
25512SOL    HW177977   0.668   6.833   0.134  0.1697  0.0582  0.5399
25512SOL    HW277978   0.708   6.875  -0.005 -0.3451 -1.5354 -0.1125
25513SOL     OW77979   6.376   6.682   8.445  0.4404  0.0026  0.5143
25513SOL    HW177980   6.328   6.601   8.465  1.3116 -0.4878  0.7064
25513SOL    HW277981   6.434   6.694   8.520  2.1258 -0.6029 -0.6237
25514SOL     OW77982   5.018   4.889   8.755 -0.3617 -0.4553 -0.0692
25514SOL    HW177983   5.100   4.861   8.714 -0.7571  0.9153 -1.9016
25514SOL    HW277984   4.957   4.816   8.740 -0.0237 -0.6626 -0.4352
25515SOL     OW77985   7.341   7.900   9.772  0.0834  0.5369 -0.0444
25515SOL    HW177986   7.381   7.962   9.833 -0.7368  0.9454  0.0853
25515SOL    HW277987   7.358   7.937   9.685  0.9150  0.1524 -0.0558
25516SOL     OW77988   6.420   6.699  12.099 -0.4257  0.1117  0.0888
25516SOL    HW177989   6.466   6.660  12.024 -0.4806 -1.9663  1.0634
25516SOL    HW277990   6.488   6.750  12.144  0.4353 -1.1824  0.3262
25517SOL     OW77991   0.750   7.888   9.944 -0.0598  0.0627 -0.4976
25517SOL    HW177992   0.746   7.977   9.979  1.2342 -0.1091  0.1332
25517SOL    HW277993   0.706   7.835  10.010  2.4124 -0.2672  0.9886
25518SOL     OW77994   0.784   6.820  12.078  0.2610  0.0692  0.3000
25518SOL    HW177995   0.836   6.829  11.998  0.4118 -0.6212  0.3144
25518SOL    HW277996   0.797   6.903  12.124  1.2226 -0.0224  0.2222
25519SOL     OW77997   6.582   5.352  10.743  0.3613 -0.4596 -0.0001
25519SOL    HW177998   6.548   5.389  10.825 -0.8361 -0.8935 -0.2834
25519SOL    HW277999   6.504   5.340  10.688  0.9727 -1.4603 -0.6823
25520SOL     OW78000   1.133   7.100   9.490  0.1419 -0.0249 -0.3406
25520SOL    HW178001   1.040   7.101   9.468  0.2537  0.5807 -0.8241
25520SOL    HW278002   1.137   7.060   9.577 -0.5058 -0.6451 -0.5892
25521SOL     OW78003   7.790   4.809   9.261 -0.1925 -0.3072 -0.6099
25521SOL    HW178004   7.878   4.773   9.272 -0.5945 -1.2124 -0.2613
25521SOL    HW278005   7.757   4.770   9.180 -0.2076  0.1762 -0.8407
25522SOL     OW78006   0.751   6.660  11.507 -0.1334  0.4455 -0.2890
25522SOL    HW178007   0.727   6.671  11.415 -0.7338  1.2173 -0.0454
25522SOL    HW278008   0.700   6.726  11.554  0.0503 -0.0387  0.6208
25523SOL     OW78009   6.771   3.919  12.002 -0.2177  0.0856 -0.1315
25523SOL    HW178010   6.704   3.980  11.972 -0.0735  0.6912  0.7453
25523SOL    HW278011   6.798   3.872  11.923 -1.0001  0.4901 -0.6542
25524SOL     OW78012   7.290   7.838  11.733 -0.1043 -0.1909  0.4621
25524SOL    HW178013   7.335   7.784  11.668 -0.3557  0.0974  0.0449
25524SOL    HW278014   7.209   7.791  11.752 -0.4260  0.1435 -0.0634
25525SOL     OW78015   7.741   7.637  12.202  0.3308  0.1986  0.0370
25525SOL    HW178016   7.774   7.561  12.154  0.1726 -0.8233  1.4843
25525SOL    HW278017   7.820   7.680  12.235  0.4255  0.7393 -0.8635
25526SOL     OW78018   0.209   7.891  11.010 -0.0910 -0.0154 -0.0540
25526SOL    HW178019   0.253   7.851  10.935  2.1185 -0.2938  1.3023
25526SOL    HW278020   0.140   7.945  10.971  0.5059 -0.7173 -2.2321
25527SOL     OW78021   0.198   6.769  10.175  0.6538  0.5804 -0.5515
25527SOL    HW178022   0.239   6.702  10.229 -0.0796 -0.3476 -1.1109
25527SOL    HW278023   0.185   6.844  10.234 -1.4349 -0.8821  1.0100
25528SOL     OW78024   6.956   6.926  12.125  0.4969  0.2792 -0.3059
25528SOL    HW178025   6.921   6.960  12.207  1.0193  1.3218 -0.4905
25528SOL    HW278026   6.948   6.999  12.063  2.4546  0.3958 -0.4889
25529SOL     OW78027   7.269   7.722  10.598  0.2072  0.2901 -0.2295
25529SOL    HW178028   7.296   7.656  10.533  0.2281  0.5620 -0.5025
25529SOL    HW278029   7.248   7.672  10.676 -1.0900 -0.1714 -0.8475
25530SOL     OW78030   1.140   7.056   0.074  0.4141  0.5324 -0.4398
25530SOL    HW178031   1.080   7.096   0.012  0.7054 -0.5122 -1.4241
25530SOL    HW278032   1.217   7.033   0.022  0.9639  0.2893  0.4533
25531SOL     OW78033   6.330   7.511  12.181 -0.2004  0.4947 -0.0361
25531SOL    HW178034   6.338   7.511  12.277 -0.8952  0.3451  0.0283
25531SOL    HW278035   6.286   7.428  12.161 -0.7498  0.8722 -0.4221
25532SOL     OW78036   0.489   0.188  11.838 -0.3617  0.9303  0.2177
25532SOL    HW178037   0.578   0.152  11.846  0.6622  3.0649 -0.8235
25532SOL    HW278038   0.459   0.197  11.928 -0.6654 -2.3156  0.5632
25533SOL     OW78039   7.618   5.515  11.728  0.0724 -0.1928  0.1302
25533SOL    HW178040   7.529   5.481  11.721  0.1839 -0.2102 -1.3248
25533SOL    HW278041   7.655   5.508  11.640  1.4283  0.0728  0.6435
25534SOL     OW78042   7.715   6.284  12.116 -0.2414  0.0058  0.4639
25534SOL    HW178043   7.801   6.246  12.098  0.5830  1.2402  1.5711
25534SOL    HW278044   7.653   6.219  12.084  1.0021  0.6044 -3.7820
25535SOL     OW78045   1.862   6.160  12.037  0.2171  0.1636  0.2502
25535SOL    HW178046   1.851   6.254  12.051  1.8619  0.1685  1.8158
25535SOL    HW278047   1.823   6.119  12.114 -1.2756 -0.5454 -0.8145
25536SOL     OW78048   0.267   6.973  10.354 -0.2543  0.7769  0.4519
25536SOL    HW178049   0.207   6.979  10.428  0.1560 -0.3782  0.9125
25536SOL    HW278050   0.340   7.030  10.378  0.1684 -0.0638  1.2585
25537SOL     OW78051   1.831   0.989   0.305 -0.1583 -0.2103 -0.6037
25537SOL    HW178052   1.900   0.925   0.288 -0.0867 -0.6010  0.9882
25537SOL    HW278053   1.750   0.943   0.285 -0.1027 -0.7968  0.4719
25538SOL     OW78054   1.043   4.118  11.892 -0.2770 -0.2439  0.2482
25538SOL    HW178055   1.074   4.032  11.920 -0.9243  0.2837  2.7979
25538SOL    HW278056   1.121   4.175  11.897  0.1577 -0.6091 -1.4651
25539SOL     OW78057   7.235   4.088  10.459 -0.3142  0.3950 -0.1752
25539SOL    HW178058   7.226   4.116  10.549 -1.3042 -1.0123  0.1895
25539SOL    HW278059   7.205   4.162  10.407 -1.4593  0.5734  0.7051
25540SOL     OW78060   1.998   4.689  11.731  0.0193 -0.0063  0.2965
25540SOL    HW178061   1.907   4.707  11.705  0.1807  0.4686  0.0448
25540SOL    HW278062   2.050   4.752  11.681  0.2817  1.6068  2.4088
25541SOL     OW78063   7.160   3.802  10.417 -0.8476 -0.2486  0.0077
25541SOL    HW178064   7.174   3.883  10.369 -0.2082 -0.6006 -0.4122
25541SOL    HW278065   7.072   3.811  10.455 -0.3483  1.0966  0.8925
25542SOL     OW78066   7.552   5.756  10.285  0.0284 -0.2493  0.2767
25542SOL    HW178067   7.486   5.792  10.344  1.9452  0.8766  1.8560
25542SOL    HW278068   7.590   5.683  10.333  0.2092 -0.6191 -0.4220
25543SOL     OW78069   6.267   7.257  12.108  0.2622  0.2337  0.1066
25543SOL    HW178070   6.314   7.182  12.071  0.5492  0.0155  0.9024
25543SOL    HW278071   6.207   7.218  12.172 -0.5067  0.5752 -0.3895
25544SOL     OW78072   0.023   5.800   9.908  0.2897  0.2910  0.4109
25544SOL    HW178073  -0.033   5.787   9.984  1.4050 -1.3453  1.0101
25544SOL    HW278074  -0.037   5.825   9.838 -0.9128  0.6421  1.5308
25545SOL     OW78075   6.288   5.884  11.167  0.2620  0.1829 -0.1517
25545SOL    HW178076   6.199   5.849  11.178  0.9470 -1.5705  0.1014
25545SOL    HW278077   6.329   5.873  11.252  0.5879  1.4909 -0.1192
25546SOL     OW78078   0.443   5.528  11.314  0.3783  0.0447  0.3233
25546SOL    HW178079   0.524   5.509  11.266  0.2464 -1.3542  0.6186
25546SOL    HW278080   0.414   5.443  11.346 -0.8625  0.6270  0.7883
25547SOL     OW78081   6.294   6.804   0.889  0.5714  0.4349  0.7608
25547SOL    HW178082   6.387   6.778   0.886  0.9927  1.8948  0.5182
25547SOL    HW278083   6.274   6.828   0.798  0.1207  0.6764  0.9273
25548SOL     OW78084   1.401   5.900  12.070  0.8569 -0.4207  0.0583
25548SOL    HW178085   1.313   5.888  12.035  1.1590 -0.2235 -0.7987
25548SOL    HW278086   1.459   5.862  12.004  1.3969 -0.8847  0.7848
25549SOL     OW78087   1.679   7.779  11.655  0.1094  0.2158  0.2728
25549SOL    HW178088   1.615   7.830  11.605 -1.4082 -0.7686  1.1570
25549SOL    HW278089   1.749   7.842  11.674 -0.0528  1.0393 -1.6234
25550SOL     OW78090   7.152   6.783   0.659 -0.2137  0.3904  0.0846
25550SOL    HW178091   7.097   6.797   0.582 -2.3368 -1.5394  1.1101
25550SOL    HW278092   7.160   6.688   0.665  1.0153  0.5453  1.5040
25551SOL     OW78093   0.859   5.174   1.300 -0.3260 -0.7463 -0.0019
25551SOL    HW178094   0.883   5.081   1.301  1.3913 -0.3348  0.8168
25551SOL    HW278095   0.852   5.196   1.208 -0.4309 -1.6087 -0.2110
25552SOL     OW78096   7.797   6.028  10.409 -0.3227 -0.6007 -0.5356
25552SOL    HW178097   7.795   5.982  10.492 -1.6673 -0.1787 -0.3165
25552SOL    HW278098   7.888   6.055  10.399 -0.1557 -0.5969  0.8333
25553SOL     OW78099   0.725   6.658  10.695  0.2413 -0.3065  0.0196
25553SOL    HW178100   0.702   6.695  10.780 -0.6011 -0.7887  0.0130
25553SOL    HW278101   0.677   6.712  10.631  2.7188  1.6063 -0.3881
25554SOL     OW78102   7.248   6.025  10.074  0.3894 -0.1391  0.3235
25554SOL    HW178103   7.177   6.024  10.138  1.0966  0.1262  1.1298
25554SOL    HW278104   7.287   5.938  10.081 -1.9793 -1.6056 -2.6088
25555SOL     OW78105   7.926   7.326  12.325  0.0436  0.1603 -0.6562
25555SOL    HW178106   7.839   7.314  12.362  0.1987  0.0275 -0.3367
25555SOL    HW278107   7.943   7.420  12.333  0.1827  0.0958 -0.1471
25556SOL     OW78108   1.519   6.274  11.974  0.4625 -0.1703 -0.3273
25556SOL    HW178109   1.603   6.307  12.008  0.8381 -0.0717 -1.3215
25556SOL    HW278110   1.483   6.348  11.925  0.2984 -0.5574 -0.7899
25557SOL     OW78111   2.447   5.911  10.325 -0.3401  0.4744 -0.0519
25557SOL    HW178112   2.537   5.902  10.292 -0.7332 -0.1084 -0.9887
25557SOL    HW278113   2.453   5.983  10.388  1.2992 -1.1638  1.8187
25558SOL     OW78114   7.713   5.548  10.396  0.0186 -0.0349  0.0324
25558SOL    HW178115   7.738   5.492  10.470 -1.0143  0.1639  0.5475
25558SOL    HW278116   7.795   5.589  10.369  0.5519 -0.7598  0.5195
25559SOL     OW78117   0.590   6.903  11.586 -0.2197 -0.7344  0.1578
25559SOL    HW178118   0.562   6.958  11.660  0.0023 -1.5838  0.8907
25559SOL    HW278119   0.685   6.896  11.597  0.4741  2.3009 -2.4192
25560SOL     OW78120   6.903   6.240  10.671  0.0244 -0.0110 -0.0801
25560SOL    HW178121   6.887   6.262  10.763 -1.4668 -1.3436  0.0158
25560SOL    HW278122   6.937   6.321  10.633  2.4962  0.0431  2.0362
25561SOL     OW78123   1.193   6.918  10.115  0.7363 -0.3925 -0.2811
25561SOL    HW178124   1.127   6.853  10.142 -0.1085 -0.7441 -2.8566
25561SOL    HW278125   1.176   6.994  10.171 -1.5738 -0.6623 -0.4938
25562SOL     OW78126   6.078   7.639  12.433 -0.9144  0.2778 -0.5347
25562SOL    HW178127   6.041   7.725  12.451 -0.5057  0.8311 -2.1354
25562SOL    HW278128   6.116   7.647  12.346 -0.7442 -1.4975 -0.6665
25563SOL     OW78129   0.586   4.765   9.845 -0.4872 -0.2592 -0.7572
25563SOL    HW178130   0.600   4.812   9.763  2.0842  0.2568 -0.1348
25563SOL    HW278131   0.620   4.677   9.829  0.9842  0.1353 -0.0222
25564SOL     OW78132   6.557   5.337  11.385 -0.4823  0.1775  0.5574
25564SOL    HW178133   6.517   5.270  11.440 -0.7220 -1.3921 -1.3813
25564SOL    HW278134   6.485   5.397  11.365 -0.5140  0.4664  1.4940
25565SOL     OW78135   7.873   6.747   0.560  0.3512 -0.0438 -0.2157
25565SOL    HW178136   7.839   6.657   0.557  0.3425 -0.2545  2.8968
25565SOL    HW278137   7.961   6.740   0.523  0.4155 -1.3948  0.1338
25566SOL     OW78138   7.040   6.170  11.551 -0.0735  0.1567 -0.2545
25566SOL    HW178139   7.005   6.102  11.608 -1.9184  0.7042 -0.6702
25566SOL    HW278140   7.077   6.235  11.610 -0.7862  0.0967  0.2632
25567SOL     OW78141   7.904   4.372  10.579  0.1046 -0.0396 -0.1146
25567SOL    HW178142   7.910   4.359  10.484 -0.1125 -1.0082 -0.0127
25567SOL    HW278143   7.812   4.356  10.599 -0.3091  2.2229 -0.0010
25568SOL     OW78144   7.483   7.017   1.096  0.0624  0.0419  0.0736
25568SOL    HW178145   7.412   6.962   1.129 -1.0643  2.3040  1.6734
25568SOL    HW278146   7.440   7.084   1.044  1.2771  0.1326 -0.8586
25569SOL     OW78147   5.096   6.515   1.252 -0.2629 -0.4224 -0.0715
25569SOL    HW178148   5.173   6.569   1.235  0.3418 -0.5119  1.9945
25569SOL    HW278149   5.047   6.514   1.170  0.2059  2.4177 -0.4718
25570SOL     OW78150   6.794   7.646   0.019 -0.5270 -0.0491 -0.4458
25570SOL    HW178151   6.862   7.657  -0.047 -0.5624  0.3100 -0.4204
25570SOL    HW278152   6.824   7.571   0.071  0.7340  1.1680  0.6595
25571SOL     OW78153   0.479   1.460   1.227  0.4661 -0.1133 -0.3108
25571SOL    HW178154   0.531   1.501   1.297 -0.7940 -0.6129  0.9491
25571SOL    HW278155   0.496   1.367   1.236  0.1480 -0.1957 -0.5546
25572SOL     OW78156   6.563   6.759   0.828  0.1994 -0.4755 -0.0025
25572SOL    HW178157   6.603   6.804   0.903  1.3977 -0.8258 -0.3968
25572SOL    HW278158   6.636   6.746   0.767 -0.3279 -2.0493 -0.3294
25573SOL     OW78159   7.076   0.810  12.464 -0.0729  0.5867 -0.8114
25573SOL    HW178160   7.171   0.808  12.467 -0.0852  0.8662  0.8604
25573SOL    HW278161   7.051   0.725  12.428  0.7912  0.1313 -0.3534
25574SOL     OW78162   0.311   0.518   0.692  0.4279 -0.1216 -0.2393
25574SOL    HW178163   0.331   0.455   0.623  2.1997  1.0034 -0.8099
25574SOL    HW278164   0.384   0.511   0.754  0.3385  0.9251  0.0069
25575SOL     OW78165   0.310   7.795  12.251 -0.3641  0.1437  0.1413
25575SOL    HW178166   0.386   7.768  12.303  0.7517 -0.1179 -1.5435
25575SOL    HW278167   0.327   7.887  12.230 -0.0019 -0.1863 -1.0629
25576SOL     OW78168   6.029   7.328   1.246 -0.0037  0.1068 -0.1465
25576SOL    HW178169   5.935   7.310   1.239 -0.0889  0.7065 -0.5715
25576SOL    HW278170   6.071   7.243   1.232 -0.5562 -0.9276  3.4551
25577SOL     OW78171   7.159   7.919   0.484  0.0462  0.1437  0.2558
25577SOL    HW178172   7.215   7.936   0.559 -1.3331  1.2552  1.0626
25577SOL    HW278173   7.160   8.001   0.434 -2.7222  1.0801  1.5674
25578SOL     OW78174   7.874   0.404   0.964 -0.5131 -1.1285 -0.1655
25578SOL    HW178175   7.902   0.320   1.002 -1.5635 -0.6815  1.7006
25578SOL    HW278176   7.943   0.426   0.901  1.2962 -1.9645  1.4335
25579SOL     OW78177   7.977   1.478   2.179 -0.5645  0.1411 -0.3339
25579SOL    HW178178   7.923   1.481   2.258  2.0343  1.6790  1.5270
25579SOL    HW278179   7.993   1.385   2.165 -0.7633 -0.1583  1.2084
25580SOL     OW78180   7.291   7.404  11.334  0.3569 -0.1243  0.0142
25580SOL    HW178181   7.216   7.447  11.293  0.9632 -0.6398 -1.7154
25580SOL    HW278182   7.340   7.475  11.374  1.1431  0.8516 -2.4829
25581SOL     OW78183   7.097   7.659   0.341  0.2856  0.1117  0.3824
25581SOL    HW178184   7.074   7.741   0.384  0.0213 -0.9896  2.4568
25581SOL    HW278185   7.131   7.604   0.411  0.4970 -1.5507 -0.9662
25582SOL     OW78186   7.247   7.451   0.995 -0.3373 -0.2561 -0.0296
25582SOL    HW178187   7.318   7.498   1.039  0.5635 -0.9175 -0.7234
25582SOL    HW278188   7.220   7.510   0.924  0.9663 -0.8483 -1.0601
25583SOL     OW78189   6.734   7.858   1.496  0.0414 -0.0155  0.2205
25583SOL    HW178190   6.695   7.772   1.511 -1.5189  0.0235 -2.7933
25583SOL    HW278191   6.665   7.920   1.520  0.1611  0.2865 -0.2100
25584SOL     OW78192   7.182   0.230   1.580 -0.4159  0.3477  0.5949
25584SOL    HW178193   7.163   0.320   1.608 -1.5950 -0.0307  1.0949
25584SOL    HW278194   7.261   0.206   1.627  1.0524  1.7688 -1.0180
25585SOL     OW78195   6.907   7.113   0.873  0.3661  0.3260  0.4757
25585SOL    HW178196   6.931   7.092   0.963 -0.6616 -2.8718  0.1469
25585SOL    HW278197   6.917   7.030   0.826 -0.4266  1.5674 -2.0713
25586SOL     OW78198   4.651   7.321   1.008  0.0348  0.9206  0.0272
25586SOL    HW178199   4.601   7.287   1.082  1.0133 -0.9172 -0.1035
25586SOL    HW278200   4.604   7.289   0.930  0.2031  1.0192 -0.1158
25587SOL     OW78201   7.832   1.999   3.674  0.7149  0.3813 -0.2758
25587SOL    HW178202   7.815   2.088   3.645  1.3584  0.5080 -0.2697
25587SOL    HW278203   7.768   1.946   3.626 -0.1976  0.9225  0.3044
25588SOL     OW78204   7.105   0.332   3.108 -0.7126  0.1570 -0.3011
25588SOL    HW178205   7.053   0.313   3.030 -0.7247  0.4641 -0.3709
25588SOL    HW278206   7.166   0.399   3.080 -2.3780  2.1639  0.5651
25589SOL     OW78207   7.534   7.414   3.744 -0.6564  0.5429  0.5760
25589SOL    HW178208   7.572   7.332   3.714 -2.0224  0.5060 -1.2811
25589SOL    HW278209   7.579   7.481   3.692 -1.0351  0.7560  0.5176
25590SOL     OW78210   6.910   7.626   2.271  0.1286 -0.2382 -0.4394
25590SOL    HW178211   6.821   7.655   2.251  0.6110  1.7759  0.0488
25590SOL    HW278212   6.905   7.530   2.272 -2.1411 -0.1707  0.1328
25591SOL     OW78213   0.199   7.495   3.404 -0.1598 -0.0514 -0.6762
25591SOL    HW178214   0.161   7.421   3.357  0.2261 -0.2227 -0.7209
25591SOL    HW278215   0.133   7.564   3.396 -1.3560 -0.9394  0.9123
25592SOL     OW78216   6.280   0.098   3.123  0.2263 -0.4467  0.2545
25592SOL    HW178217   6.361   0.054   3.099  0.1618  0.0109 -0.8385
25592SOL    HW278218   6.278   0.177   3.069 -0.2957  0.2450  1.2427
25593SOL     OW78219   7.595   0.633   2.278  0.1781 -0.0461  0.1711
25593SOL    HW178220   7.524   0.599   2.223 -1.1410 -1.4607  2.5691
25593SOL    HW278221   7.661   0.564   2.276  0.9192  0.6583 -0.9333
25594SOL     OW78222   7.979   7.821   2.377  0.6060  0.5319  0.0736
25594SOL    HW178223   7.988   7.916   2.391  0.2430  0.4105  1.1651
25594SOL    HW278224   8.025   7.782   2.452 -1.4250 -0.1392  1.0265
25595SOL     OW78225   7.247   6.971  12.228 -0.1264  0.1970 -0.6538
25595SOL    HW178226   7.157   7.005  12.228 -0.0492  0.4916 -2.4680
25595SOL    HW278227   7.258   6.933  12.142  1.9724  1.4785 -1.0160
25596SOL     OW78228   7.107   0.756   2.659  0.4440  0.3530  0.2318
25596SOL    HW178229   7.020   0.760   2.619  0.3833 -1.5195  0.0817
25596SOL    HW278230   7.092   0.777   2.751 -0.2512 -0.4209  0.3036
25597SOL     OW78231   0.608   7.146   3.595  0.5491 -0.1588 -0.0123
25597SOL    HW178232   0.625   7.059   3.559 -0.0338 -0.1618 -0.2895
25597SOL    HW278233   0.538   7.181   3.540  0.5325  0.3430  0.3263
25598SOL     OW78234   0.811   0.861   1.797  0.4097  0.2958 -0.1668
25598SOL    HW178235   0.867   0.933   1.767  1.6803  0.4516  2.3148
25598SOL    HW278236   0.773   0.893   1.879  1.5399 -2.0476  1.3803
25599SOL     OW78237   7.288   1.497   3.071  0.1796 -0.7299  0.1252
25599SOL    HW178238   7.311   1.587   3.092 -0.4794 -1.0567  2.5408
25599SOL    HW278239   7.354   1.469   3.008  1.5477  0.8419  0.7919
25600SOL     OW78240   7.529   5.751   3.672 -0.8888  0.7985 -0.1159
25600SOL    HW178241   7.560   5.709   3.752 -1.1620  0.7499 -0.0354
25600SOL    HW278242   7.565   5.698   3.601 -0.9910  0.5998 -0.0182
25601SOL     OW78243   6.913   6.385   2.918  0.1449  0.1305 -0.2892
25601SOL    HW178244   6.825   6.346   2.914  1.1544 -2.2733 -1.6344
25601SOL    HW278245   6.971   6.310   2.931  2.1566  1.3912 -1.5411
25602SOL     OW78246   7.935   7.540   2.628 -0.4037 -0.4092  1.0770
25602SOL    HW178247   7.862   7.481   2.644 -1.3118  0.7702  1.3939
25602SOL    HW278248   7.921   7.613   2.688  0.8853 -0.0277  0.9451
25603SOL     OW78249   0.396   1.160   2.958  0.5244  0.0148  0.0304
25603SOL    HW178250   0.465   1.111   2.913  0.6230 -0.3271  0.5472
25603SOL    HW278251   0.416   1.252   2.941  0.6229 -0.1040 -0.5282
25604SOL     OW78252   0.192   5.119   4.117 -0.3928 -0.1266  0.3472
25604SOL    HW178253   0.117   5.108   4.175 -0.3584  0.3876  0.4975
25604SOL    HW278254   0.268   5.116   4.176 -0.4557  2.6045  0.6702
25605SOL     OW78255   7.588   6.344   3.203 -0.7930 -0.2601 -0.2841
25605SOL    HW178256   7.594   6.311   3.292  1.2868  0.3778 -0.1219
25605SOL    HW278257   7.578   6.439   3.213 -0.5331 -0.1805 -0.7227
25606SOL     OW78258   7.422   0.226   1.717  0.3297  0.1051  0.1014
25606SOL    HW178259   7.507   0.246   1.677  0.3415 -1.3487 -0.7055
25606SOL    HW278260   7.440   0.154   1.777 -0.0661  0.8905  1.1863
25607SOL     OW78261   7.564   1.089   2.243  0.0783  0.2589  0.1870
25607SOL    HW178262   7.624   1.015   2.241  0.2337  0.3315  1.6455
25607SOL    HW278263   7.502   1.069   2.313 -0.6698  0.9088 -0.2685
25608SOL     OW78264   7.702   0.474   0.753  0.4627 -0.0144 -0.5520
25608SOL    HW178265   7.634   0.521   0.802 -1.2433 -3.4860  0.8092
25608SOL    HW278266   7.764   0.445   0.820  1.0391 -0.3479 -1.2131
25609SOL     OW78267   1.309   0.060   3.518  0.0694  0.5108  0.5512
25609SOL    HW178268   1.248   0.120   3.475  1.5971  2.3744  0.8775
25609SOL    HW278269   1.295   0.075   3.611 -0.4500 -0.6314  0.6710
25610SOL     OW78270   6.530   0.939   2.840 -0.1030 -0.0554  0.1586
25610SOL    HW178271   6.471   1.012   2.861 -0.6420 -0.0986 -1.0950
25610SOL    HW278272   6.551   0.900   2.924  0.2581  1.6022  0.8712
25611SOL     OW78273   7.957   6.059   6.421 -0.5381 -0.1461  0.3128
25611SOL    HW178274   7.870   6.087   6.448 -0.2731 -0.1869  1.2259
25611SOL    HW278275   7.941   5.984   6.363 -1.0872 -0.7155  1.1831
25612SOL     OW78276   5.491   7.724   4.805  0.4141  0.3852  0.6092
25612SOL    HW178277   5.563   7.745   4.865  0.9737  2.0871 -0.5668
25612SOL    HW278278   5.486   7.800   4.748  0.3422 -1.4273 -1.9483
25613SOL     OW78279   0.214   0.110   4.214  0.1353 -0.6598 -0.6569
25613SOL    HW178280   0.158   0.033   4.218 -0.3170 -0.2876  0.7359
25613SOL    HW278281   0.258   0.104   4.129  0.3123 -2.5744 -0.4608
25614SOL     OW78282   6.372   6.372   2.856  0.6163 -0.1673 -0.1933
25614SOL    HW178283   6.399   6.368   2.947  0.9890 -1.3870 -0.3396
25614SOL    HW278284   6.287   6.328   2.853 -0.0754  1.1220 -0.2153
25615SOL     OW78285   6.565   0.213   4.445 -0.5972 -0.2183 -0.5425
25615SOL    HW178286   6.564   0.189   4.352  0.8328 -1.3113 -0.3120
25615SOL    HW278287   6.534   0.303   4.446 -0.8744 -0.2589 -2.0654
25616SOL     OW78288   7.334   7.471   4.769  0.8962  0.1519  0.1680
25616SOL    HW178289   7.362   7.407   4.704  1.7720  0.2327  0.4496
25616SOL    HW278290   7.277   7.422   4.828  1.4479 -0.3429  0.3005
25617SOL     OW78291   6.546   6.732   4.996  0.4037  0.2187  0.0039
25617SOL    HW178292   6.462   6.779   5.002  0.4298  0.2602  0.0325
25617SOL    HW278293   6.537   6.680   4.917  0.4271  0.3720 -0.1000
25618SOL     OW78294   6.660   6.929   5.949 -0.0312  0.4404  0.2901
25618SOL    HW178295   6.701   6.853   5.909 -0.5413  0.8322 -1.0237
25618SOL    HW278296   6.716   7.002   5.925  0.4667  0.5026  1.5619
25619SOL     OW78297   7.750   6.661   5.038  0.2782  0.0029 -0.1923
25619SOL    HW178298   7.822   6.722   5.023  1.3568 -0.7728  1.5644
25619SOL    HW278299   7.792   6.576   5.052 -1.0291 -0.6341  0.0488
25620SOL     OW78300   7.294   0.768   3.941  0.4390  0.2003  0.7660
25620SOL    HW178301   7.251   0.853   3.931 -2.6015 -1.1755  1.2685
25620SOL    HW278302   7.274   0.721   3.860  0.8852 -0.5629  1.0829
25621SOL     OW78303   7.184   0.459   2.688  0.5094  0.0230  0.1967
25621SOL    HW178304   7.136   0.541   2.700  2.2485  0.8797  1.7667
25621SOL    HW278305   7.125   0.391   2.720 -1.2454  0.5011 -1.7889
25622SOL     OW78306   5.911   7.539   6.235 -0.0032 -0.4090  0.5261
25622SOL    HW178307   6.003   7.557   6.253  0.0990 -0.8214  0.4143
25622SOL    HW278308   5.900   7.563   6.143 -0.6234  2.0974  1.1785
25623SOL     OW78309   0.517   0.705   4.781 -0.2592  0.1811 -0.3569
25623SOL    HW178310   0.430   0.670   4.800  0.1214  0.2809  1.8184
25623SOL    HW278311   0.509   0.799   4.799 -0.3441  0.6753 -2.6976
25624SOL     OW78312   0.238   0.591   4.798 -0.2553 -0.5386  0.2497
25624SOL    HW178313   0.212   0.564   4.886 -0.1584  2.0945  1.1961
25624SOL    HW278314   0.174   0.659   4.775  0.9183  0.2237 -0.8500
25625SOL     OW78315   5.322   0.738   5.936 -0.7712 -0.2883  0.1038
25625SOL    HW178316   5.304   0.651   5.971  0.6003 -0.6290  0.0088
25625SOL    HW278317   5.354   0.788   6.011 -0.8137 -0.0909 -0.0090
25626SOL     OW78318   7.328   0.259   3.915 -1.0498 -0.0517 -0.3999
25626SOL    HW178319   7.286   0.345   3.924 -1.6097 -0.4582  1.1147
25626SOL    HW278320   7.387   0.253   3.990 -0.5898 -0.7612 -0.8075
25627SOL     OW78321   4.811   7.962   5.906 -0.3998 -0.5619 -0.5424
25627SOL    HW178322   4.785   8.050   5.932 -0.4987 -1.1277  1.4413
25627SOL    HW278323   4.772   7.905   5.972  3.0354 -1.7284  0.6995
25628SOL     OW78324   6.667   7.921   5.046  0.0874  0.3773  0.1433
25628SOL    HW178325   6.707   7.941   5.131 -1.6808  2.0106  0.6678
25628SOL    HW278326   6.706   7.984   4.986 -1.2327  1.6303  0.5481
25629SOL     OW78327   7.548   7.688   2.753 -0.4965  0.6086  0.0428
25629SOL    HW178328   7.613   7.758   2.746 -0.2472  0.3843  0.1453
25629SOL    HW278329   7.539   7.654   2.664  1.7487 -1.3904  0.4879
25630SOL     OW78330   6.647   6.301   3.994  0.1607 -0.1004 -0.4989
25630SOL    HW178331   6.583   6.235   3.968 -0.3279 -0.1625  0.7690
25630SOL    HW278332   6.667   6.279   4.086 -0.7197  2.0528  0.2619
25631SOL     OW78333   7.154   7.165   6.133  0.4356  0.1515  0.3421
25631SOL    HW178334   7.120   7.121   6.056 -0.6217  0.6182  0.5232
25631SOL    HW278335   7.203   7.240   6.099 -0.2821  0.5295  0.1261
25632SOL     OW78336   0.548   7.283   7.123  0.3156 -0.3347  0.1920
25632SOL    HW178337   0.521   7.200   7.162  0.9751 -0.6266  0.0395
25632SOL    HW278338   0.625   7.261   7.070  0.0218  0.2319 -0.4884
25633SOL     OW78339   7.669   0.118   8.648  0.0101  0.6895  0.2262
25633SOL    HW178340   7.717   0.036   8.656 -0.9568  0.1294  0.4379
25633SOL    HW278341   7.667   0.136   8.554  0.3144  0.5276  0.1893
25634SOL     OW78342   7.636   6.096   6.106 -0.4432  0.6257  0.1727
25634SOL    HW178343   7.554   6.100   6.057  0.3046 -0.5878 -1.2811
25634SOL    HW278344   7.650   6.185   6.138 -2.0872  0.9453  0.0681
25635SOL     OW78345   7.407   6.981   7.083  0.0587  0.0548 -0.2949
25635SOL    HW178346   7.414   6.993   6.989 -1.7848  1.5504 -0.3047
25635SOL    HW278347   7.343   6.910   7.094  1.5812 -1.3558 -0.1291
25636SOL     OW78348   7.037   7.317   7.374 -0.0273 -0.3670  0.2168
25636SOL    HW178349   7.057   7.227   7.401 -1.1513 -0.3805  1.0802
25636SOL    HW278350   7.064   7.321   7.282  1.0302 -1.2550  0.4641
25637SOL     OW78351   7.464   5.695   6.979  0.5594 -0.0314 -0.2873
25637SOL    HW178352   7.405   5.674   7.051  0.7999  2.2116  0.6697
25637SOL    HW278353   7.474   5.613   6.931 -1.5893 -0.9985  0.7673
25638SOL     OW78354   0.543   6.784   6.690 -0.4346 -0.0912 -0.0460
25638SOL    HW178355   0.569   6.873   6.666 -0.6614  0.4060  1.4378
25638SOL    HW278356   0.620   6.731   6.671  0.4326  0.7723  0.8962
25639SOL     OW78357   7.371   1.003   5.371 -0.3094 -0.2466  0.2861
25639SOL    HW178358   7.359   1.077   5.311 -1.4143 -0.3889  0.3005
25639SOL    HW278359   7.425   1.038   5.442  0.5064  0.0917 -0.4783
25640SOL     OW78360   6.871   0.002   6.392 -0.3638 -0.2599  0.1907
25640SOL    HW178361   6.911  -0.071   6.345  0.7457  0.3096  0.2158
25640SOL    HW278362   6.881  -0.020   6.484  0.1440  0.0014  0.2024
25641SOL     OW78363   7.058   1.181   5.525 -0.1698  0.0167 -0.0258
25641SOL    HW178364   7.037   1.126   5.450  1.8797 -0.3155 -0.4091
25641SOL    HW278365   7.029   1.269   5.500 -0.2977 -0.2538 -0.8443
25642SOL     OW78366   6.453   7.811   6.148 -0.5800 -0.1628  0.3647
25642SOL    HW178367   6.509   7.864   6.203  0.7625  2.2061 -2.9585
25642SOL    HW278368   6.369   7.856   6.148 -0.2143  0.5441 -0.4161
25643SOL     OW78369   7.872   6.913   5.488 -0.3298 -0.6569 -0.1327
25643SOL    HW178370   7.776   6.919   5.496 -0.3837 -1.1266 -0.3465
25643SOL    HW278371   7.887   6.910   5.394 -0.2934 -2.9499 -0.1182
25644SOL     OW78372   0.551   6.720   7.679  0.0405 -0.7132 -0.0723
25644SOL    HW178373   0.562   6.626   7.694 -0.2923 -0.7360  0.0399
25644SOL    HW278374   0.569   6.761   7.763  0.9620 -0.6051 -0.3047
25645SOL     OW78375   6.359   1.245   7.630  0.0344  0.3423 -0.7137
25645SOL    HW178376   6.449   1.262   7.657  0.4407 -2.3546 -0.1250
25645SOL    HW278377   6.308   1.314   7.673  1.4308  0.0038  1.6750
25646SOL     OW78378   1.296   7.128   5.900  0.2941 -0.8614 -0.0603
25646SOL    HW178379   1.251   7.118   5.984  1.7759 -1.0631  0.7493
25646SOL    HW278380   1.379   7.082   5.912  0.9847  0.0127 -1.2876
25647SOL     OW78381   0.221   0.693   8.953 -0.5262 -0.4901  0.2899
25647SOL    HW178382   0.296   0.665   8.899 -0.3586 -1.6296  1.0668
25647SOL    HW278383   0.222   0.788   8.948  0.7581 -0.5003 -0.0176
25648SOL     OW78384   7.082   7.821   7.448 -0.1515 -0.0798 -0.2878
25648SOL    HW178385   7.045   7.898   7.406  0.8112 -0.1792 -1.3699
25648SOL    HW278386   7.086   7.844   7.541 -1.0791  0.6584 -0.4182
25649SOL     OW78387   7.951   0.082   7.232  0.2201  0.1773 -0.0586
25649SOL    HW178388   8.010   0.157   7.232  0.4255  0.0201  0.1329
25649SOL    HW278389   7.868   0.116   7.266  0.6244  0.0879  1.0742
25650SOL     OW78390   0.105   0.395   6.644  0.3674 -0.2862 -0.2281
25650SOL    HW178391   0.106   0.406   6.739  0.2579 -0.6592 -0.1863
25650SOL    HW278392   0.029   0.446   6.615  0.0058 -0.7232 -0.0524
25651SOL     OW78393   7.956   7.682   4.929 -0.0275 -0.4028  0.0031
25651SOL    HW178394   7.944   7.594   4.892 -0.0289  0.5508 -2.3996
25651SOL    HW278395   7.891   7.736   4.885  1.7610  1.3577 -0.6161
25652SOL     OW78396   7.637   0.539   7.127  0.4539 -0.0222  0.2275
25652SOL    HW178397   7.593   0.501   7.203  0.6367 -0.3418  0.1734
25652SOL    HW278398   7.567   0.552   7.063  0.3620 -0.1016  0.3111
25653SOL     OW78399   0.633   7.185   8.048 -0.4445 -0.2276 -0.0871
25653SOL    HW178400   0.608   7.108   8.099 -2.4010  0.3568 -0.0445
25653SOL    HW278401   0.618   7.159   7.957  1.5151 -0.7459 -0.3033
25654SOL     OW78402   0.909   7.960   7.157 -0.7849  0.0518  0.2522
25654SOL    HW178403   0.853   7.889   7.188 -2.0685 -0.3408 -2.5803
25654SOL    HW278404   0.857   8.039   7.171 -0.8773  0.0082  0.1599
25655SOL     OW78405   6.650   1.288   9.507 -0.1015 -0.0936 -0.3241
25655SOL    HW178406   6.672   1.370   9.463  0.1144  0.8619  1.4935
25655SOL    HW278407   6.642   1.224   9.436 -0.1863  1.4658 -1.7719
25656SOL     OW78408   0.099   0.516   7.759  0.2636 -0.1220  0.3262
25656SOL    HW178409   0.015   0.549   7.727  0.7822  0.0063 -0.9676
25656SOL    HW278410   0.080   0.485   7.847 -1.3691 -1.0165 -0.2921
25657SOL     OW78411   5.928   6.324   9.385  0.1385  0.4165  0.2541
25657SOL    HW178412   5.905   6.411   9.351 -0.4000 -0.3472 -1.4266
25657SOL    HW278413   5.852   6.270   9.367  1.2072 -0.8859 -0.5246
25658SOL     OW78414   7.818   7.390   8.613  0.4145 -0.0760 -0.1019
25658SOL    HW178415   7.897   7.423   8.655  0.7799  0.7948 -1.3766
25658SOL    HW278416   7.797   7.458   8.548 -0.3054 -1.1809 -1.0521
25659SOL     OW78417   1.339   7.741   7.479  0.5888 -0.5845  0.3594
25659SOL    HW178418   1.394   7.663   7.489  0.9953 -0.3143  0.2449
25659SOL    HW278419   1.255   7.716   7.518  1.7380  0.0394  3.5314
25660SOL     OW78420   1.223   0.823   8.800 -0.4509 -0.3067 -0.1763
25660SOL    HW178421   1.196   0.908   8.836 -0.4962 -0.5736  0.4247
25660SOL    HW278422   1.212   0.834   8.705  0.8707  0.8213 -0.2284
25661SOL     OW78423   0.936   1.653   7.835 -0.6737  0.0293  0.1313
25661SOL    HW178424   1.024   1.681   7.858 -0.9741  0.3201  0.9969
25661SOL    HW278425   0.938   1.557   7.843 -0.3212 -0.0011 -0.3031
25662SOL     OW78426   7.501   1.023   7.477 -0.4441  0.6517 -0.2513
25662SOL    HW178427   7.523   1.013   7.384  2.0229 -0.5453  0.3814
25662SOL    HW278428   7.555   1.095   7.507  0.5305 -0.4501  0.7311
25663SOL     OW78429   7.639   7.002   9.063 -0.1309 -0.3859 -0.0579
25663SOL    HW178430   7.688   7.084   9.062 -0.1530 -0.3739 -0.1700
25663SOL    HW278431   7.547   7.029   9.062 -0.1658 -0.3795  1.4412
25664SOL     OW78432   0.537   6.202   8.158  0.2246  0.1243  0.2862
25664SOL    HW178433   0.621   6.182   8.198  0.9495  0.9191 -0.8066
25664SOL    HW278434   0.557   6.223   8.067 -1.4002 -1.7633 -0.5856
25665SOL     OW78435   1.552   0.465   8.092  0.4423 -0.6117 -0.3675
25665SOL    HW178436   1.614   0.522   8.138 -0.3885  0.1475 -0.1629
25665SOL    HW278437   1.593   0.450   8.006  0.8358  0.0114 -0.2917
25666SOL     OW78438   7.927   6.659   8.940 -0.0738 -0.2518 -0.4004
25666SOL    HW178439   7.977   6.586   8.975 -0.5941  0.7328  2.6505
25666SOL    HW278440   7.856   6.673   9.003 -0.7181  2.0789 -1.5289
25667SOL     OW78441   0.831   7.528   7.108 -0.3944  0.6101  0.1821
25667SOL    HW178442   0.834   7.535   7.013 -0.0231 -0.8324  0.0563
25667SOL    HW278443   0.811   7.616   7.139 -1.0777  0.9811 -1.2532
25668SOL     OW78444   1.264   0.716   8.353  0.3282  0.9189 -0.2881
25668SOL    HW178445   1.301   0.777   8.416  0.6426  1.3119 -0.8363
25668SOL    HW278446   1.273   0.630   8.393 -0.1874  1.2390  0.5285
25669SOL     OW78447   1.171   0.254   9.514  0.7286  0.2877 -0.4219
25669SOL    HW178448   1.153   0.244   9.421 -0.6058  0.7262 -0.2381
25669SOL    HW278449   1.150   0.169   9.552 -3.3201  1.2938  0.0826
25670SOL     OW78450   6.749   1.031   7.911  0.4180  0.0715  0.5897
25670SOL    HW178451   6.688   1.002   7.843  0.8565  0.2238  0.1264
25670SOL    HW278452   6.693   1.059   7.983 -0.0400 -0.5349  0.4757
25671SOL     OW78453   5.583   6.925   9.203  0.5974  0.1650  0.0185
25671SOL    HW178454   5.548   6.836   9.199 -0.9862  0.5546  2.7765
25671SOL    HW278455   5.616   6.935   9.292  0.0841  2.5373  0.0261
25672SOL     OW78456   6.145   6.912   5.526 -0.1753 -0.0610 -0.0761
25672SOL    HW178457   6.217   6.855   5.552 -1.7889 -2.3013 -0.2077
25672SOL    HW278458   6.144   6.982   5.591 -0.7633 -2.5498  2.7798
25673SOL     OW78459   7.822   7.494   6.788  0.1197 -0.1033 -0.3922
25673SOL    HW178460   7.832   7.458   6.876 -1.3311 -1.9950 -0.9219
25673SOL    HW278461   7.748   7.553   6.794  0.2277  0.0194 -0.2711
25674SOL     OW78462   2.860   7.737  10.690  0.5398 -0.1055  0.1726
25674SOL    HW178463   2.936   7.738  10.749  0.5232 -0.8005  0.2041
25674SOL    HW278464   2.879   7.805  10.625  1.2420 -0.3627  0.1071
25675SOL     OW78465   0.937   7.099   9.078  0.2476  0.2125 -0.5168
25675SOL    HW178466   0.991   7.044   9.021 -0.0742  0.4242 -1.0325
25675SOL    HW278467   0.895   7.161   9.019 -2.4283 -1.4263 -0.4715
25676SOL     OW78468   0.031   7.698  12.308  0.2966 -0.2666  0.4397
25676SOL    HW178469   0.042   7.677  12.215 -0.1071  0.7587  0.1402
25676SOL    HW278470   0.117   7.729  12.336 -0.1195  1.6257 -0.2191
25677SOL     OW78471   7.997   0.835   9.115  0.0832  0.3174 -0.3456
25677SOL    HW178472   8.083   0.867   9.089 -0.4586 -0.1978 -3.0875
25677SOL    HW278473   8.014   0.749   9.154  0.8542  0.5129 -0.2421
25678SOL     OW78474   6.318   7.368   0.551 -0.0974 -0.1761  0.6760
25678SOL    HW178475   6.374   7.296   0.520 -0.1828  0.2467 -0.5216
25678SOL    HW278476   6.238   7.324   0.582 -0.2169 -0.6047 -0.1988
25679SOL     OW78477   0.264   7.895   8.743  0.2949  0.0882 -0.3072
25679SOL    HW178478   0.270   7.825   8.809  0.5658  2.0541  1.8772
25679SOL    HW278479   0.331   7.958   8.770 -1.0933  2.0119 -1.1968
25680SOL     OW78480   0.678   6.043   9.900 -0.2662 -0.0195  0.1063
25680SOL    HW178481   0.677   5.970   9.838  1.1076 -1.9923  2.2424
25680SOL    HW278482   0.587   6.073   9.904 -0.6642 -0.8869 -1.6261
25681SOL     OW78483   2.262   7.180   8.739  0.6539  0.1737 -0.5441
25681SOL    HW178484   2.184   7.217   8.781  0.3696 -2.8137  1.9620
25681SOL    HW278485   2.230   7.143   8.657 -0.5633 -0.7477  0.3090
25682SOL     OW78486   7.478   7.694   9.912 -0.3502  0.1810  0.4808
25682SOL    HW178487   7.508   7.742   9.989  0.6649  0.7395 -0.2418
25682SOL    HW278488   7.430   7.759   9.861  1.0482  0.4796 -0.5127
25683SOL     OW78489   0.412   7.442  10.734  0.1392 -0.0851 -0.2086
25683SOL    HW178490   0.332   7.393  10.716  1.3018 -1.9466 -0.6225
25683SOL    HW278491   0.458   7.444  10.651  1.9463 -1.8880  0.6487
25684SOL     OW78492   7.692   0.014  11.183  1.0851 -0.2706  0.2872
25684SOL    HW178493   7.765  -0.047  11.198  0.5788 -0.5312  1.8195
25684SOL    HW278494   7.638   0.007  11.262 -0.1198  0.6028 -0.4287
25685SOL     OW78495   0.391   7.415   9.700  0.0073 -0.5285 -0.1637
25685SOL    HW178496   0.365   7.325   9.681 -0.5134 -0.7089  1.2819
25685SOL    HW278497   0.316   7.452   9.745  1.3681 -0.3708  2.1147
25686SOL     OW78498   1.421   0.489  10.620  0.9510  0.1957 -0.1787
25686SOL    HW178499   1.329   0.506  10.600  1.1997  0.4881 -1.0819
25686SOL    HW278500   1.426   0.394  10.631  0.8995 -0.0440 -2.0382
25687SOL     OW78501   0.143   7.442  11.183 -0.1063  0.7094 -0.1596
25687SOL    HW178502   0.056   7.402  11.182 -0.9442  2.3372 -2.3878
25687SOL    HW278503   0.190   7.398  11.112  0.0314  1.5131 -0.5715
25688SOL     OW78504   1.600   7.334  10.152  0.4037 -0.0959  0.0068
25688SOL    HW178505   1.676   7.363  10.101  0.6746 -0.4114  0.2255
25688SOL    HW278506   1.603   7.239  10.146 -0.4015 -0.0943 -0.5964
25689SOL     OW78507   1.851   0.466   8.375  0.3160  0.8545 -0.1029
25689SOL    HW178508   1.769   0.424   8.402  0.6418  0.4096  0.2096
25689SOL    HW278509   1.863   0.538   8.437 -0.7191  2.0263 -1.1968
25690SOL     OW78510   7.601   7.717  11.433  0.5168  0.3818  0.1276
25690SOL    HW178511   7.535   7.691  11.496  2.2361 -1.3173  1.3384
25690SOL    HW278512   7.629   7.635  11.392  2.6174  0.8789  0.4472
25691SOL     OW78513   4.807   1.211   8.004  0.0909 -0.5820  0.0890
25691SOL    HW178514   4.815   1.139   7.943  1.9914  0.5851 -1.1271
25691SOL    HW278515   4.894   1.219   8.044  0.5870  2.2655 -1.3361
25692SOL     OW78516   0.536   0.175  10.691 -0.3589  0.3120 -0.1421
25692SOL    HW178517   0.534   0.224  10.773  1.0251 -0.5264  0.4245
25692SOL    HW278518   0.513   0.086  10.715  0.7090 -0.0870 -0.5292
25693SOL     OW78519   0.577   7.942  10.491 -0.3988 -0.5187  0.3144
25693SOL    HW178520   0.573   8.037  10.487  0.4860 -0.5158 -1.9252
25693SOL    HW278521   0.622   7.924  10.574  2.4264  1.2066 -0.6764
25694SOL     OW78522   7.156   7.621   7.961 -0.0982 -0.3237 -0.3021
25694SOL    HW178523   7.064   7.646   7.973 -0.7287 -2.4700 -0.1504
25694SOL    HW278524   7.170   7.625   7.867 -0.4491 -0.3006 -0.3540
25695SOL     OW78525   0.145   0.140   9.668 -0.1591  0.0827 -0.0641
25695SOL    HW178526   0.051   0.129   9.658 -0.7158  2.4202  1.6719
25695SOL    HW278527   0.181   0.120   9.581 -2.2913 -0.3071 -0.9223
25696SOL     OW78528   0.979   0.658  12.085  0.4575 -0.0159  0.5396
25696SOL    HW178529   1.057   0.713  12.072 -0.0863  0.4612 -0.8269
25696SOL    HW278530   0.994   0.616  12.170  1.4827  1.2735  1.0402
25697SOL     OW78531   7.311   7.864  12.225  0.2861  0.2095  0.0429
25697SOL    HW178532   7.286   7.955  12.208  0.1909  0.0849 -0.4960
25697SOL    HW278533   7.336   7.863  12.317  0.3541  0.7963  0.0334
25698SOL     OW78534   7.500   0.380   0.999  0.1261  0.2491 -0.7152
25698SOL    HW178535   7.566   0.335   0.947  1.5088  1.5899 -0.2098
25698SOL    HW278536   7.493   0.467   0.958  0.3267  0.8935  0.5599
25699SOL     OW78537   7.614   7.684   0.391 -0.0700  0.1745 -0.7220
25699SOL    HW178538   7.635   7.598   0.353 -0.1895  0.0217 -0.4431
25699SOL    HW278539   7.650   7.681   0.479 -4.6688 -1.7416  1.4788
25700SOL     OW78540   3.051   6.539  10.613 -0.5313 -0.7844 -0.8413
25700SOL    HW178541   3.083   6.595  10.542 -0.6185 -1.5433 -1.4916
25700SOL    HW278542   3.007   6.599  10.673  0.4779  0.0154 -0.8828
25701SOL     OW78543   0.820   7.695  12.201  0.6356  0.4341 -0.0399
25701SOL    HW178544   0.779   7.750  12.135 -1.7090 -2.4029 -1.2095
25701SOL    HW278545   0.913   7.715  12.195  0.0894  2.9157 -1.5625
25702SOL     OW78546   1.480   6.846  10.681  0.2604 -0.0605 -0.2393
25702SOL    HW178547   1.455   6.849  10.774  1.3197  0.8685  0.0363
25702SOL    HW278548   1.504   6.755  10.666 -0.5444 -0.3582  0.2251
25703SOL     OW78549   6.979   7.917  11.659 -0.4712 -0.5895  0.4810
25703SOL    HW178550   6.891   7.900  11.626 -0.8108  0.7473  0.6322
25703SOL    HW278551   7.000   7.840  11.712 -0.3491 -2.2896 -1.8982
25704SOL     OW78552   0.447   2.641   1.257 -0.0588  0.3591  0.1826
25704SOL    HW178553   0.500   2.644   1.336  1.0169  3.7784 -0.5018
25704SOL    HW278554   0.360   2.668   1.285 -0.2729 -0.6379  0.5225
25705SOL     OW78555   0.007   7.296  11.622 -0.5099  0.6709  0.3673
25705SOL    HW178556  -0.003   7.220  11.679  3.1983  1.0439  1.8286
25705SOL    HW278557   0.038   7.261  11.539 -0.5145  0.4649  0.4532
25706SOL     OW78558   6.078   7.766  11.890  0.8108  0.0262  0.4853
25706SOL    HW178559   6.170   7.741  11.898  0.4309 -1.4234  0.6497
25706SOL    HW278560   6.066   7.835  11.955  2.0654  1.1498 -0.4083
25707SOL     OW78561   0.846   7.315  11.489  0.6168  0.1838 -0.1838
25707SOL    HW178562   0.797   7.364  11.422  0.5293 -0.1138 -0.3388
25707SOL    HW278563   0.935   7.309  11.453  0.3477 -0.7758 -0.7027
25708SOL     OW78564   6.163   5.864   0.501 -0.0671  0.8538 -0.2381
25708SOL    HW178565   6.253   5.863   0.536 -0.0012  0.2801 -0.4013
25708SOL    HW278566   6.171   5.905   0.415 -0.0362  1.2202 -0.0595
25709SOL     OW78567   7.383   6.840  11.974 -0.7133 -0.2039  0.6071
25709SOL    HW178568   7.326   6.764  11.967 -0.2342 -0.6890  1.6798
25709SOL    HW278569   7.442   6.819  12.047  0.0456  0.7922  0.3050
25710SOL     OW78570   0.987   0.200  11.989 -0.1038  0.3389  0.4818
25710SOL    HW178571   1.073   0.166  12.014  1.3906  1.9851 -2.0042
25710SOL    HW278572   1.006   0.275  11.933 -3.0745 -1.0495 -2.7421
25711SOL     OW78573   7.437   1.879  10.547  0.1432  0.6695  0.2861
25711SOL    HW178574   7.491   1.839  10.615 -0.6022 -1.3935 -0.2694
25711SOL    HW278575   7.382   1.808  10.514 -1.1055  2.1148 -0.9395
25712SOL     OW78576   6.867   5.941  12.348 -0.4682 -0.5267 -0.1451
25712SOL    HW178577   6.827   5.882  12.412 -0.2364 -1.2845 -0.6836
25712SOL    HW278578   6.912   6.007  12.401 -1.3959 -0.3698  0.4645
25713SOL     OW78579   1.379   6.626  12.289 -0.0592 -0.2849 -0.2027
25713SOL    HW178580   1.426   6.545  12.307 -0.9109 -0.9838 -1.0601
25713SOL    HW278581   1.424   6.664  12.214  1.5577  1.0685  1.3507
25714SOL     OW78582   0.283   7.081  10.924  0.3152 -0.4362  0.1570
25714SOL    HW178583   0.250   7.168  10.943 -0.2718 -0.4857 -0.6019
25714SOL    HW278584   0.230   7.023  10.978 -0.2354 -0.4333 -0.3647
25715NA      NA78585   7.316   2.599   0.194  0.0949  0.9087  0.2301
25716NA      NA78586   0.784   0.182   2.012 -0.6688  0.3895 -0.3951
25717NA      NA78587   7.526   1.487   0.666  0.3001 -0.2456  0.0947
25718NA      NA78588   2.227   0.016   4.936 -0.2011  0.2167 -0.2127
25719NA      NA78589   7.073   1.504   8.296 -0.4542  0.2421 -0.1743
25720NA      NA78590   2.025   1.446   9.052 -0.4342 -0.0864 -0.2042
25721NA      NA78591   0.042   0.979  10.954  0.2100  0.2437 -0.6134
25722NA      NA78592   0.130   0.955  11.511 -0.4293 -0.0434  0.0594
25723NA      NA78593   0.602   2.961   2.309  0.1771 -0.1876  0.2562
25724NA      NA78594   1.501   4.628   0.963  0.6081 -0.2367 -0.2771
25725NA      NA78595   1.968   2.093   2.437  0.6099  0.3391  0.2146
25726NA      NA78596   0.915   1.225   4.374  0.3453 -0.2278  0.1249
25727NA      NA78597   1.513   2.982   7.617  0.0759 -0.4681 -0.0670
25728NA      NA78598   1.093   3.219   9.797 -0.1519  0.1508 -0.5151
25729NA      NA78599   1.626   3.686   0.332  0.6173  0.4846 -0.3548
25730NA      NA78600   0.712   5.674   1.162 -0.0944 -0.5298 -0.2179
25731NA      NA78601   0.980   4.528   4.272  0.0221  0.2706 -0.3737
25732NA      NA78602   1.783   3.615   2.134  0.0738  0.0555  0.5402
25733NA      NA78603   0.122   5.092   3.425  0.6763 -0.5806 -0.1436
25734NA      NA78604   2.141   3.807   4.465 -0.1505 -0.1758 -0.4381
25735NA      NA78605   1.036   4.121   3.331 -0.1245  0.3176  0.6742
25736NA      NA78606   0.830   2.704   5.151  0.1691  0.2347 -0.2090
25737NA      NA78607   1.412   4.576   6.301 -0.5126  0.0072 -0.2555
25738NA      NA78608   7.647   4.426   8.139 -0.1344  0.5597 -0.6993
25739NA      NA78609   0.780   4.214   9.584 -0.0936 -0.2084  0.1996
25740NA      NA78610   0.148   6.948   0.355 -0.4271  0.2995  0.1732
25741NA      NA78611   1.154   7.775   5.709  0.2844 -0.1851 -0.5443
25742NA      NA78612   1.255   6.758   5.475  0.2239 -0.4389  0.5060
25743NA      NA78613   1.030   6.351   5.955  0.1706  0.2158  0.2697
25744NA      NA78614   1.488   6.204   4.500  0.1640  0.1378 -0.0375
25745NA      NA78615   2.569   5.532   5.457  0.1439 -0.0888 -0.5636
25746NA      NA78616   0.780   7.460   9.715 -0.3303  0.4375 -0.2838
25747NA      NA78617   7.381   6.227  10.157 -0.3027 -0.7024  0.0451
25748NA      NA78618   0.211   0.801   7.941 -0.2054  0.1196  0.1632
25749NA      NA78619   2.245   6.411  11.946 -0.1794 -0.3141 -0.1667
25750NA      NA78620   3.834   0.872   0.034  0.1228 -0.5421  0.1621
25751NA      NA78621   4.190   1.386   0.239 -0.0957 -0.4004  0.1973
25752NA      NA78622   2.430   0.180   3.615 -0.1841 -0.1273  0.1896
25753NA      NA78623   2.518   1.469   6.234  0.0127  0.0649  0.5816
25754NA      NA78624   2.494   2.644   5.573 -0.1077 -0.1772  0.2002
25755NA      NA78625   2.389   0.641  10.474 -0.0503  0.1373  0.1827
25756NA      NA78626   2.817   0.313  11.062  0.2537  0.1269 -0.0732
25757NA      NA78627   2.438   0.630   0.378 -0.4607  0.4845  0.1661
25758NA      NA78628   1.559   2.290  12.212  0.1060  0.0746 -0.0138
25759NA      NA78629   3.369   3.760   4.014  0.3474 -0.5864 -0.3781
25760NA      NA78630   3.594   2.641   6.588  0.2078 -0.4159 -0.0436
25761NA      NA78631   2.775   2.957   8.626  0.5296  0.0881  0.4673
25762NA      NA78632   3.739   4.034   7.298  0.0825  0.3138  0.3009
25763NA      NA78633   2.382   3.122   9.802  0.0562  0.1932  0.1885
25764NA      NA78634   3.386   4.563  10.109 -0.0394 -0.3013  0.1766
25765NA      NA78635   2.786   4.432  11.809  0.1923 -0.0232 -0.0987
25766NA      NA78636   3.545   4.779   0.858 -0.2729 -0.1862  0.1111
25767NA      NA78637   2.714   4.778   0.858  0.0662 -0.1168 -0.0689
25768NA      NA78638   1.938   4.931   2.174 -0.4884 -0.6881  0.1301
25769NA      NA78639   1.745   4.475   5.122 -0.2613 -0.0452 -0.4619
25770NA      NA78640   2.364   5.025  10.316 -0.3372  0.0266  0.5483
25771NA      NA78641   3.477   4.113   9.644 -0.4204  0.0156  0.2929
25772NA      NA78642   4.074   5.231   9.404  0.1349  0.5206  0.3788
25773NA      NA78643   3.895   5.877  12.463  0.2568  0.1273  0.2646
25774NA      NA78644   3.939   3.553  12.476 -0.2762  0.0506 -0.6764
25775NA      NA78645   2.354   5.878   1.435  0.1283  0.2775  0.0369
25776NA      NA78646   2.379   7.361   4.482 -0.0545  0.0459  0.6689
25777NA      NA78647   3.329   5.669   6.595 -0.1966 -0.0084 -0.4759
25778NA      NA78648   2.370   7.405   7.072  0.3179  0.2567 -0.1467
25779NA      NA78649   1.391   5.579   6.770 -0.2196 -0.1510  0.2567
25780NA      NA78650   3.148   4.792   6.788 -0.6865 -0.4970 -0.2644
25781NA      NA78651   2.947   4.568   8.634 -0.5461  0.4751 -0.1069
25782NA      NA78652   3.317   6.393   8.508 -0.4581 -0.0563  0.2570
25783NA      NA78653   2.705   5.775   8.872  0.1147 -0.6060 -0.1513
25784NA      NA78654   3.785   6.519  10.154  0.2887  0.2115  0.4019
25785NA      NA78655   2.100   5.956  10.811 -0.3113 -0.0345 -0.4779
25786NA      NA78656   2.908   7.862   1.646 -0.2847 -0.3371 -0.1581
25787NA      NA78657   3.651   0.464   1.726  0.0759 -0.2137  0.0751
25788NA      NA78658   5.680   1.494   2.021 -0.1574 -0.0293  0.0176
25789NA      NA78659   3.181   0.405   3.779 -0.1678 -0.3127 -0.1178
25790NA      NA78660   4.248   1.226   4.338  0.1011  0.1986 -0.4560
25791NA      NA78661   4.688   7.534   8.893 -0.3154 -0.2410  0.1179
25792NA      NA78662   4.035   1.238  10.041 -0.0709 -0.0965  0.3547
25793NA      NA78663   5.434   7.738   9.624 -0.0538 -0.2682  0.2480
25794NA      NA78664   5.237   1.529   7.864 -0.4631  0.6260 -0.3460
25795NA      NA78665   4.951   2.615  11.161 -0.8115  0.1443 -0.2479
25796NA      NA78666   4.392   2.549   1.756 -0.6574  0.5082 -0.0427
25797NA      NA78667   3.323   2.349   2.813  0.2775 -0.8076  0.5905
25798NA      NA78668   4.980   2.664   2.976  0.1578 -0.2223  0.9946
25799NA      NA78669   4.066   2.280   4.408 -0.1365  0.3490 -0.4329
25800NA      NA78670   4.947   2.419   7.707  0.4238 -0.0397  0.5041
25801NA      NA78671   5.675   3.367  10.491  0.2292 -0.2506  0.1563
25802NA      NA78672   3.564   3.440   2.178  0.0733 -0.2213  0.0763
25803NA      NA78673   4.125   5.306   1.532  0.1725  0.0351  0.3493
25804NA      NA78674   4.917   3.482  10.263 -0.3631 -0.0939  0.1833
25805NA      NA78675   3.968   5.491   4.122  0.0862 -0.3361 -0.5188
25806NA      NA78676   4.612   5.663   3.631  0.3851  0.4714 -0.2285
25807NA      NA78677   3.963   4.592   2.506 -0.1763  0.6992  0.6212
25808NA      NA78678   4.146   7.425   4.565  0.0819 -0.3585 -0.2272
25809NA      NA78679   4.688   6.417   4.361  0.3748  0.6590 -0.1423
25810NA      NA78680   4.806   6.408   6.694 -0.3299 -0.4033 -0.3455
25811NA      NA78681   5.281   6.071   7.839  0.2710  0.1667  0.4520
25812NA      NA78682   4.588   5.679   9.124 -0.1414 -0.1121  0.5184
25813NA      NA78683   4.301   0.132   1.374  0.1866 -0.3386  0.5330
25814NA      NA78684   4.132   7.980   0.420 -0.1515 -0.3511  0.5744
25815NA      NA78685   4.060   7.718   1.768  0.0184  0.0164  0.4872
25816NA      NA78686   3.334   7.500   5.867 -0.3810 -0.7468  0.3456
25817NA      NA78687   5.504   6.904   5.901  0.5907  0.1082  0.5623
25818NA      NA78688   5.293   7.474   8.734  0.5928 -0.3174 -0.1074
25819NA      NA78689   3.688   7.725  10.594  0.0822  0.1687  0.0263
25820NA      NA78690   5.326   7.802  12.483 -0.2915  0.4666  0.3184
25821NA      NA78691   6.084   0.300  11.608 -0.1270  0.1622  0.0791
25822NA      NA78692   6.413   1.390   1.488  0.7331  0.1371  0.0824
25823NA      NA78693   5.830   2.317   1.866 -0.2289 -0.1245  0.0732
25824NA      NA78694   5.237   1.371   3.716  0.5484  0.1201 -0.1019
25825NA      NA78695   7.424   1.604   5.752 -0.5586  0.9240 -0.1868
25826NA      NA78696   6.771   7.933   7.261  0.0230  0.4062  0.2869
25827NA      NA78697   6.347   0.362   5.994 -0.1294 -0.3111 -1.3767
25828NA      NA78698   7.773   0.317   8.764 -0.3680 -0.2680 -0.1765
25829NA      NA78699   6.650   7.850   9.303 -0.1561 -0.6604  0.1756
25830NA      NA78700   6.527   1.602  10.049 -0.0402  0.0079  0.1896
25831NA      NA78701   6.924   0.519  10.601  0.5109 -0.0656 -0.1926
25832NA      NA78702   5.880   7.459  10.854  0.0796  0.0490 -0.0385
25833NA      NA78703   7.176   2.157   1.434 -0.4052  0.6030  0.2914
25834NA      NA78704   0.130   3.127   4.027  0.0827 -0.2181  0.7151
25835NA      NA78705   4.997   3.365   2.812 -0.3959 -0.4260  0.1417
25836NA      NA78706   6.550   3.169   3.398  0.3771 -0.5711 -0.3920
25837NA      NA78707   6.108   2.866   5.408 -0.1713 -0.5053  0.0367
25838NA      NA78708   5.198   3.560   5.169 -0.0969 -0.0258  0.5342
25839NA      NA78709   6.092   2.765   7.490  0.0671  0.2162  0.0946
25840NA      NA78710   6.805   3.843   8.234  0.0893 -0.5727 -0.3534
25841NA      NA78711   1.643   2.071   9.409 -0.0185  0.0908 -0.1473
25842NA      NA78712   6.135   3.490   8.817  0.2267 -0.1552  0.1815
25843NA      NA78713   5.973   3.201  11.130  0.0399 -0.0829 -0.3024
25844NA      NA78714   5.863   2.378   9.514 -0.1525  0.0190 -0.2462
25845NA      NA78715   6.365   2.428  11.076 -0.1438 -0.2014  0.3233
25846NA      NA78716   6.786   4.045  12.407  0.2655 -0.4047  0.5251
25847NA      NA78717   6.302   4.640   0.973 -0.7822  0.5956  0.3421
25848NA      NA78718   5.010   4.964   3.573 -0.3775 -0.5044 -0.3626
25849NA      NA78719   6.518   5.172   4.671 -0.7172  0.0831 -0.2803
25850NA      NA78720   5.809   4.641   6.693 -0.3292 -0.0437 -0.2804
25851NA      NA78721   7.822   5.139   7.188 -0.0080 -0.1957  0.1908
25852NA      NA78722   5.181   4.981   9.907  0.1336  0.1703 -0.2058
25853NA      NA78723   6.789   5.355  11.365 -0.1333 -0.0840  0.0685
25854NA      NA78724   7.536   6.736   0.888 -0.0975 -0.0197  0.3362
25855NA      NA78725   7.054   7.089   1.713 -0.4499  0.2826 -0.0577
25856NA      NA78726   6.066   6.381   4.060  0.4223  0.0029 -0.6441
25857NA      NA78727   7.197   5.926   2.105 -0.2268 -0.4174 -0.1553
25858NA      NA78728   7.013   5.518   1.735 -0.8575  0.2291  0.1709
25859NA      NA78729   7.062   6.981   3.842  0.0952 -0.7135  0.3298
25860NA      NA78730   5.148   5.648   5.038 -0.1998 -0.0589  0.2857
25861NA      NA78731   4.989   4.728   4.004  0.3245 -0.1559  0.4850
25862NA      NA78732   6.128   5.812   6.175 -0.2613 -0.0471 -0.7644
25863NA      NA78733   5.129   0.012   6.624 -0.0712  0.2405  0.1396
25864NA      NA78734   5.833   5.632   8.087 -0.0017 -0.1339 -0.2354
25865NA      NA78735   6.507   6.192  10.937 -0.1724 -0.1816  0.2210
25866NA      NA78736   6.851   7.956   1.314 -0.5015  0.1541 -0.2248
25867NA      NA78737   7.289   0.842   2.551 -0.0259 -0.4204  0.4781
25868NA      NA78738   0.542   7.179   3.807  0.3220  0.3544  0.0251
25869NA      NA78739   7.460   7.590   7.266 -0.2593  0.2394 -0.4087
25870NA      NA78740   6.039   7.148   9.839 -0.0007 -0.1355 -0.1087
25871NA      NA78741   7.361   0.259   5.000  0.0065 -0.3700 -0.5265
25872NA      NA78742   0.543   1.043   9.586 -0.1700  0.2465 -0.2948
25873NA      NA78743   0.891   1.806  11.118 -0.1457 -0.3799  0.3303
25874NA      NA78744   7.970   3.867   4.671  0.1270  0.4314 -0.2282
25875NA      NA78745   7.422   3.504   7.379  0.3306 -0.2764  0.2524
25876NA      NA78746   7.551   2.123  10.497  0.1199  0.1198  0.1278
25877NA      NA78747   7.449   3.241   0.150 -0.8599  0.2602  0.6447
25878NA      NA78748   1.026   5.461   6.675  0.3465 -0.0264 -0.1280
25879NA      NA78749   7.845   5.089   5.529 -0.5095  0.2063  0.1363
25880NA      NA78750   0.043   4.060   6.641 -0.1616 -0.4339  0.4309
25881NA      NA78751   0.664   5.028  11.804 -0.4758 -0.4009 -0.4440
25882NA      NA78752   0.217   5.780   1.975  0.3295 -0.5743 -0.4285
25883NA      NA78753   0.000   6.232   0.528 -0.1611 -0.4992  0.1639
25884CL      CL78754   0.018   1.904   2.255  0.4025  0.0897 -0.1539
25885CL      CL78755   2.059   0.417   5.567  0.1123 -0.0333 -0.0489
25886CL      CL78756   0.286   0.099   2.813  0.3459  0.1631 -0.2374
25887CL      CL78757   7.676   1.242   8.462  0.2701 -0.0702 -0.0175
25888CL      CL78758   1.305   1.496   9.342 -0.4298 -0.3173 -0.2421
25889CL      CL78759   0.446   0.323  11.069  0.1666 -0.1351 -0.0596
25890CL      CL78760   1.747   0.996  12.353  0.4405 -0.1900  0.0815
25891CL      CL78761   1.373   3.847   0.337 -0.0807 -0.4708 -0.3002
25892CL      CL78762   0.806   3.345   4.034 -0.2306  0.1071 -0.0271
25893CL      CL78763   7.912   5.299   5.359  0.3240 -0.2157  0.1906
25894CL      CL78764   1.409   3.112   5.760  0.2093 -0.5073  0.4709
25895CL      CL78765   0.268   3.058   6.937 -0.0392  0.2168 -0.0426
25896CL      CL78766   2.133   3.162  10.210 -0.1547 -0.0848  0.1049
25897CL      CL78767   1.674   2.577  10.626  0.2190  0.2039 -0.2067
25898CL      CL78768   1.242   3.636  10.097 -0.0058  0.2055 -0.0615
25899CL      CL78769   0.799   2.825  10.580  0.5883 -0.0375  0.0596
25900CL      CL78770   1.165   5.178   0.886 -0.5672  0.0547 -0.3187
25901CL      CL78771   7.633   5.386   2.411  0.4296 -0.1663  0.4525
25902CL      CL78772   1.246   5.199   7.075  0.0858  0.2570 -0.1040
25903CL      CL78773   7.976   4.676   7.161  0.7819  0.2368  0.2851
25904CL      CL78774   1.203   5.688   6.276  0.1123 -0.0532 -0.2894
25905CL      CL78775   1.712   4.452   9.572 -0.1710 -0.2080 -0.0350
25906CL      CL78776   0.668   5.538   3.749 -0.1159  0.1778 -0.0031
25907CL      CL78777   0.078   0.540   2.262  0.6092  0.0125 -0.6184
25908CL      CL78778   0.806   7.418   5.454 -0.3001 -0.1750 -0.0131
25909CL      CL78779   7.515   5.518   3.455  0.2408 -0.1948  0.1162
25910CL      CL78780   0.026   5.579   8.733 -0.4274 -0.1817  0.3620
25911CL      CL78781   0.546   7.440   8.982 -0.2942  0.2461 -0.2762
25912CL      CL78782   1.363   6.908  11.585  0.1060 -0.0293 -0.0493
25913CL      CL78783   0.538   1.469   2.786  0.2586  0.1905 -0.2751
25914CL      CL78784   2.782   0.749   1.961 -0.1620 -0.1843  0.3398
25915CL      CL78785   2.728   2.535   2.775  0.2148  0.1074 -0.1130
25916CL      CL78786   1.714   0.388   7.833  0.1699  0.2525 -0.0323
25917CL      CL78787   2.861   0.320   8.663  0.2264 -0.0011  0.3815
25918CL      CL78788   3.300   0.249  11.308 -0.1461 -0.0742 -0.1964
25919CL      CL78789   4.081   0.728   0.354 -0.0262 -0.0509  0.0934
25920CL      CL78790   3.189   0.687   0.390  0.0782 -0.3035 -0.0583
25921CL      CL78791   3.864   3.039   0.559 -0.4032 -0.2246  0.1579
25922CL      CL78792   1.921   1.750   1.317 -0.3371  0.0753 -0.1769
25923CL      CL78793   2.663   1.795   2.738  0.7079  0.1270  0.1570
25924CL      CL78794   0.476   2.052   8.546 -0.1909  0.0873  0.5729
25925CL      CL78795   1.264   4.114   6.463  0.0199  0.0535 -0.3560
25926CL      CL78796   3.989   2.565   0.669  0.0651 -0.1006 -0.3031
25927CL      CL78797   2.641   5.378   0.259  0.0025  0.1219  0.0399
25928CL      CL78798   2.136   5.575   2.519 -0.1516 -0.0323  0.2135
25929CL      CL78799   2.039   6.059   7.075 -0.1566 -0.0812 -0.1394
25930CL      CL78800   1.189   4.593   6.150 -0.1642 -0.3406  0.0011
25931CL      CL78801   3.577   6.871   9.846  0.0728 -0.0482 -0.3156
25932CL      CL78802   3.430   6.903   1.650 -0.0465 -0.0092 -0.2301
25933CL      CL78803   2.079   7.897   0.919  0.0726 -0.7181  0.1038
25934CL      CL78804   2.518   6.876   5.963  0.4936 -0.1473 -0.3297
25935CL      CL78805   1.558   6.173   7.797  0.1375 -0.1194 -0.0531
25936CL      CL78806   2.749   6.137   6.527 -0.2519  0.3767 -0.0376
25937CL      CL78807   2.520   6.677   4.913 -0.1102  0.3605 -0.0241
25938CL      CL78808   6.006   2.021   1.306  0.0549  0.0392 -0.4661
25939CL      CL78809   3.776   1.084  12.387 -0.2817 -0.2855  0.1488
25940CL      CL78810   4.924   1.957   0.360 -0.6679  0.4778  0.5892
25941CL      CL78811   4.149   7.975   2.900  0.1389  0.0005  0.0247
25942CL      CL78812   2.380   1.353   4.826  0.2153 -0.0713 -0.2891
25943CL      CL78813   3.977   0.620   6.458  0.5529 -0.1556 -0.1251
25944CL      CL78814   4.139   1.420  11.077 -0.4424  0.0398 -0.3578
25945CL      CL78815   5.868   0.782   0.110 -0.1950 -0.3496  0.2574
25946CL      CL78816   5.280   2.597   0.438  0.1785  0.2384  0.4309
25947CL      CL78817   5.606   1.639   1.476 -0.0893 -0.1348  0.0828
25948CL      CL78818   5.371   2.004   4.501 -0.4433  0.3316  0.0343
25949CL      CL78819   5.594   2.203  11.217  0.2940 -0.1505  0.3215
25950CL      CL78820   6.952   3.547  12.012  0.0053  0.2422  0.3200
25951CL      CL78821   3.303   4.351   1.145 -0.0911  0.0264 -0.3244
25952CL      CL78822   4.881   4.618   2.362 -0.3326  0.0623 -0.2442
25953CL      CL78823   5.331   6.201   2.748 -0.0334 -0.0952  0.3520
25954CL      CL78824   3.196   3.410   1.894 -0.1081 -0.1229  0.0219
25955CL      CL78825   5.354   5.174   1.571 -0.0670  0.1695 -0.0337
25956CL      CL78826   4.079   7.109  10.727  0.1232 -0.2103 -0.1921
25957CL      CL78827   3.381   5.949   0.468 -0.1554 -0.1033  0.4704
25958CL      CL78828   4.610   7.267   2.681 -0.2353 -0.1738  0.1649
25959CL      CL78829   3.981   7.498   1.635 -0.3527  0.0681 -0.2098
25960CL      CL78830   3.166   6.476   4.093  0.0899 -0.2177  0.1647
25961CL      CL78831   5.512   7.160   5.971  0.3421 -0.1501  0.1755
25962CL      CL78832   5.773   7.031   8.333  0.0682  0.6487 -0.5735
25963CL      CL78833   4.695   6.965  10.093  0.1222 -0.4328 -0.1250
25964CL      CL78834   7.453   2.245   1.490  0.2250 -0.1495 -0.2252
25965CL      CL78835   6.544   2.355   3.072 -0.2482  0.4429 -0.3913
25966CL      CL78836   6.235   0.530   3.241 -0.0138  0.2767 -0.0902
25967CL      CL78837   6.794   1.283   3.969 -0.2737 -0.1542 -0.0757
25968CL      CL78838   3.615   7.387   3.821  0.2670  0.0853  0.1259
25969CL      CL78839   5.408   1.442   6.416 -0.0977 -0.0584 -0.0959
25970CL      CL78840   5.297   0.309   6.297 -0.1903 -0.0171 -0.0194
25971CL      CL78841   4.776   0.176   7.235  0.0586 -0.1354  0.1326
25972CL      CL78842   5.129   1.607  10.057  0.2505  0.1815  0.2794
25973CL      CL78843   6.103   3.783   0.559 -0.6595  0.0304  0.2768
25974CL      CL78844   6.762   3.110   4.150  0.3596 -0.2339  0.2632
25975CL      CL78845   0.039   3.170   5.370 -0.1169 -0.4710  0.1933
25976CL      CL78846   6.871   2.102   5.747  0.2091  0.2747  0.2501
25977CL      CL78847   5.052   1.197   8.478  0.3409  0.1603 -0.2237
25978CL      CL78848   6.984   2.518   8.807 -0.4170  0.0618  0.2309
25979CL      CL78849   6.981   5.762  11.236 -0.1150  0.0053 -0.1107
25980CL      CL78850   0.103   4.987  12.364 -0.2380  0.2896  0.0435
25981CL      CL78851   6.535   7.937   3.058 -0.0399 -0.2553 -0.1614
25982CL      CL78852   7.793   4.489   6.557 -0.3486  0.0843  0.2382
25983CL      CL78853   6.469   4.304   5.174 -0.0671 -0.0256  0.1538
25984CL      CL78854   6.027   4.816   6.582 -0.0754 -0.2932  0.1609
25985CL      CL78855   7.297   7.060   9.511 -0.0853 -0.3278 -0.1101
25986CL      CL78856   5.919   6.272  11.006 -0.0403 -0.1626  0.2767
25987CL      CL78857   4.677   5.468  10.321  0.7495  0.1079  0.1604
25988CL      CL78858   7.564   4.374  10.633  0.1364  0.0757  0.4009
25989CL      CL78859   6.213   3.269   0.335 -0.0813  0.0229  0.3592
25990CL      CL78860   6.888   6.494   1.060  0.3388  0.0996  0.2211
25991CL      CL78861   6.589   5.530   4.883  0.0213 -0.4661 -0.0966
25992CL      CL78862   5.648   7.813  11.984  0.0907  0.0970 -0.1639
25993CL      CL78863   6.805   7.969   6.751  0.1649  0.1370 -0.1821
25994CL      CL78864   7.016   7.660  11.797 -0.0996 -0.3231  0.1743
25995CL      CL78865   5.425   7.102   0.204  0.1456  0.4273 -0.1023
25996CL      CL78866   7.065   0.704   4.383  0.5167  0.1168  0.3711
25997CL      CL78867   7.924   6.384  11.352 -0.0213  0.1460 -0.1346
25998CL      CL78868   7.169   1.961   7.278 -0.1138 -0.2781  0.1081
25999CL      CL78869   6.480   3.012   7.809  0.0485 -0.1410 -0.0574
26000CL      CL78870   0.280   5.026   4.699 -0.3379 -0.5734 -0.1179
26001CL      CL78871   7.514   4.653   8.778 -0.1755 -0.2250  0.0867
26002CL      CL78872   0.773   2.914  11.277  0.3413  0.4426  0.0453
26003CL      CL78873   1.097   6.285  11.688  0.0739 -0.0025  0.1637
26004CL      CL78874   0.986   7.608   9.140  0.0593 -0.6646 -0.0669
   8.00000   8.00000  12.50000
