Protein in water
79166
    1DC     O5'    1   3.005   4.365   3.339
    1DC     H5T    2   3.064   4.327   3.407
    1DC     C5'    3   2.884   4.290   3.333
    1DC    H5'1    4   2.812   4.343   3.272
    1DC    H5'2    5   2.843   4.282   3.434
    1DC     C4'    6   2.896   4.147   3.275
    1DC     H4'    7   2.795   4.110   3.258
    1DC     O4'    8   2.968   4.139   3.153
    1DC     C1'    9   3.039   4.015   3.148
    1DC     H1'   10   3.007   3.957   3.061
    1DC      N1   11   3.187   4.036   3.141
    1DC      C6   12   3.247   4.149   3.192
    1DC      H6   13   3.187   4.221   3.247
    1DC      C5   14   3.380   4.169   3.176
    1DC      H5   15   3.427   4.256   3.219
    1DC      C4   16   3.454   4.069   3.107
    1DC      N4   17   3.581   4.085   3.087
    1DC     H41   18   3.629   4.159   3.137
    1DC     H42   19   3.634   4.009   3.047
    1DC      N3   20   3.398   3.962   3.054
    1DC      C2   21   3.266   3.941   3.076
    1DC      O2   22   3.219   3.834   3.033
    1DC     C3'   23   2.963   4.050   3.370
    1DC     H3'   24   3.053   4.095   3.413
    1DC     C2'   25   3.001   3.938   3.275
    1DC    H2'1   26   3.084   3.880   3.314
    1DC    H2'2   27   2.916   3.874   3.256
    1DC     O3'   28   2.873   4.003   3.468
    2DG       P   29   2.925   3.981   3.617
    2DG     O1P   30   2.806   3.948   3.698
    2DG     O2P   31   3.007   4.099   3.651
    2DG     O5'   32   3.014   3.851   3.599
    2DG     C5'   33   2.951   3.724   3.589
    2DG    H5'1   34   2.868   3.731   3.518
    2DG    H5'2   35   2.911   3.696   3.686
    2DG     C4'   36   3.045   3.615   3.541
    2DG     H4'   37   2.988   3.523   3.528
    2DG     O4'   38   3.106   3.646   3.416
    2DG     C1'   39   3.234   3.584   3.414
    2DG     H1'   40   3.238   3.513   3.332
    2DG      N9   41   3.341   3.683   3.395
    2DG      C8   42   3.336   3.819   3.409
    2DG      H8   43   3.249   3.871   3.447
    2DG      N7   44   3.445   3.879   3.371
    2DG      C5   45   3.533   3.774   3.341
    2DG      C6   46   3.669   3.774   3.298
    2DG      O6   47   3.741   3.869   3.268
    2DG      N1   48   3.723   3.648   3.286
    2DG      H1   49   3.821   3.641   3.263
    2DG      C2   50   3.652   3.534   3.306
    2DG      N2   51   3.718   3.423   3.288
    2DG     H21   52   3.817   3.427   3.269
    2DG     H22   53   3.669   3.336   3.297
    2DG      N3   54   3.523   3.528   3.337
    2DG      C4   55   3.470   3.653   3.357
    2DG     C3'   56   3.156   3.582   3.639
    2DG     H3'   57   3.198   3.673   3.683
    2DG     C2'   58   3.254   3.511   3.547
    2DG    H2'1   59   3.356   3.520   3.584
    2DG    H2'2   60   3.228   3.406   3.537
    2DG     O3'   61   3.107   3.489   3.733
    3DA       P   62   3.173   3.475   3.877
    3DA     O1P   63   3.086   3.379   3.947
    3DA     O2P   64   3.194   3.610   3.932
    3DA     O5'   65   3.315   3.409   3.844
    3DA     C5'   66   3.323   3.270   3.816
    3DA    H5'1   67   3.250   3.247   3.738
    3DA    H5'2   68   3.295   3.216   3.906
    3DA     C4'   69   3.459   3.218   3.768
    3DA     H4'   70   3.448   3.110   3.753
    3DA     O4'   71   3.506   3.273   3.645
    3DA     C1'   72   3.646   3.297   3.657
    3DA     H1'   73   3.701   3.257   3.571
    3DA      N9   74   3.675   3.442   3.660
    3DA      C8   75   3.598   3.548   3.700
    3DA      H8   76   3.501   3.536   3.746
    3DA      N7   77   3.650   3.665   3.672
    3DA      C5   78   3.775   3.632   3.617
    3DA      C6   79   3.886   3.704   3.568
    3DA      N6   80   3.897   3.835   3.563
    3DA     H61   81   3.830   3.890   3.618
    3DA     H62   82   3.988   3.875   3.544
    3DA      N1   83   3.994   3.640   3.521
    3DA      C2   84   3.995   3.508   3.524
    3DA      H2   85   4.085   3.461   3.487
    3DA      N3   86   3.899   3.426   3.564
    3DA      C4   87   3.792   3.496   3.612
    3DA     C3'   88   3.570   3.231   3.872
    3DA     H3'   89   3.561   3.325   3.927
    3DA     C2'   90   3.693   3.227   3.783
    3DA    H2'1   91   3.777   3.276   3.828
    3DA    H2'2   92   3.719   3.123   3.760
    3DA     O3'   93   3.570   3.116   3.953
    4DC       P   94   3.615   3.125   4.106
    4DC     O1P   95   3.586   2.990   4.159
    4DC     O2P   96   3.547   3.242   4.163
    4DC     O5'   97   3.774   3.153   4.093
    4DC     C5'   98   3.867   3.047   4.076
    4DC    H5'1   99   3.833   2.983   3.995
    4DC    H5'2  100   3.869   2.988   4.168
    4DC     C4'  101   4.011   3.092   4.044
    4DC     H4'  102   4.070   3.002   4.032
    4DC     O4'  103   4.019   3.166   3.921
    4DC     C1'  104   4.125   3.261   3.928
    4DC     H1'  105   4.199   3.243   3.850
    4DC      N1  106   4.076   3.402   3.915
    4DC      C6  107   3.948   3.437   3.947
    4DC      H6  108   3.881   3.363   3.991
    4DC      C5  109   3.905   3.564   3.925
    4DC      H5  110   3.804   3.591   3.947
    4DC      C4  111   4.000   3.658   3.878
    4DC      N4  112   3.964   3.782   3.861
    4DC     H41  113   3.872   3.811   3.889
    4DC     H42  114   4.032   3.851   3.831
    4DC      N3  115   4.125   3.627   3.847
    4DC      C2  116   4.164   3.498   3.865
    4DC      O2  117   4.280   3.470   3.834
    4DC     C3'  118   4.083   3.175   4.151
    4DC     H3'  119   4.015   3.248   4.196
    4DC     C2'  120   4.190   3.242   4.065
    4DC    H2'1  121   4.223   3.336   4.108
    4DC    H2'2  122   4.274   3.174   4.054
    4DC     O3'  123   4.150   3.095   4.248
    5DT       P  124   4.202   3.155   4.388
    5DT     O1P  125   4.263   3.047   4.467
    5DT     O2P  126   4.098   3.241   4.447
    5DT     O5'  127   4.322   3.254   4.349
    5DT     C5'  128   4.449   3.202   4.316
    5DT    H5'1  129   4.439   3.133   4.233
    5DT    H5'2  130   4.490   3.146   4.400
    5DT     C4'  131   4.548   3.312   4.279
    5DT     H4'  132   4.643   3.265   4.256
    5DT     O4'  133   4.503   3.381   4.162
    5DT     C1'  134   4.538   3.518   4.173
    5DT     H1'  135   4.601   3.546   4.087
    5DT      N1  136   4.420   3.609   4.173
    5DT      C6  137   4.297   3.572   4.224
    5DT      H6  138   4.286   3.477   4.274
    5DT      C5  139   4.188   3.652   4.209
    5DT      C7  140   4.055   3.605   4.264
    5DT     H71  141   3.998   3.690   4.301
    5DT     H72  142   3.997   3.556   4.186
    5DT     H73  143   4.069   3.535   4.347
    5DT      C4  144   4.201   3.782   4.144
    5DT      O4  145   4.111   3.861   4.118
    5DT      N3  146   4.329   3.817   4.108
    5DT      H3  147   4.343   3.913   4.079
    5DT      C2  148   4.440   3.737   4.120
    5DT      O2  149   4.551   3.777   4.082
    5DT     C3'  150   4.575   3.417   4.387
    5DT     H3'  151   4.483   3.441   4.442
    5DT     C2'  152   4.620   3.533   4.300
    5DT    H2'1  153   4.603   3.629   4.349
    5DT    H2'2  154   4.726   3.523   4.276
    5DT     O3'  155   4.683   3.379   4.471
    6DC       P  156   4.696   3.434   4.620
    6DC     O1P  157   4.815   3.367   4.678
    6DC     O2P  158   4.565   3.419   4.687
    6DC     O5'  159   4.727   3.589   4.600
    6DC     C5'  160   4.858   3.631   4.567
    6DC    H5'1  161   4.890   3.576   4.479
    6DC    H5'2  162   4.924   3.606   4.650
    6DC     C4'  163   4.873   3.780   4.537
    6DC     H4'  164   4.979   3.800   4.523
    6DC     O4'  165   4.804   3.817   4.418
    6DC     C1'  166   4.760   3.952   4.432
    6DC     H1'  167   4.803   4.015   4.353
    6DC      N1  168   4.611   3.965   4.424
    6DC      C6  169   4.526   3.863   4.457
    6DC      H6  170   4.565   3.771   4.499
    6DC      C5  171   4.392   3.880   4.441
    6DC      H5  172   4.324   3.800   4.468
    6DC      C4  173   4.346   4.006   4.396
    6DC      N4  174   4.219   4.027   4.376
    6DC     H41  175   4.148   3.961   4.405
    6DC     H42  176   4.187   4.119   4.349
    6DC      N3  177   4.427   4.107   4.370
    6DC      C2  178   4.559   4.089   4.384
    6DC      O2  179   4.633   4.185   4.361
    6DC     C3'  180   4.825   3.871   4.649
    6DC     H3'  181   4.730   3.835   4.689
    6DC     C2'  182   4.807   3.999   4.569
    6DC    H2'1  183   4.736   4.066   4.617
    6DC    H2'2  184   4.903   4.050   4.560
    6DC     O3'  185   4.926   3.887   4.747
    7DT       P  186   4.886   3.934   4.895
    7DT     O1P  187   5.009   3.927   4.976
    7DT     O2P  188   4.768   3.858   4.936
    7DT     O5'  189   4.848   4.087   4.873
    7DT     C5'  190   4.949   4.183   4.849
    7DT    H5'1  191   5.012   4.148   4.768
    7DT    H5'2  192   5.009   4.193   4.939
    7DT     C4'  193   4.893   4.321   4.813
    7DT     H4'  194   4.978   4.383   4.790
    7DT     O4'  195   4.808   4.321   4.698
    7DT     C1'  196   4.697   4.407   4.721
    7DT     H1'  197   4.692   4.484   4.644
    7DT      N1  198   4.566   4.336   4.719
    7DT      C6  199   4.554   4.203   4.757
    7DT      H6  200   4.637   4.152   4.802
    7DT      C5  201   4.437   4.136   4.740
    7DT      C7  202   4.431   3.990   4.781
    7DT     H71  203   4.326   3.959   4.792
    7DT     H72  204   4.478   3.928   4.706
    7DT     H73  205   4.481   3.975   4.877
    7DT      C4  206   4.319   4.206   4.689
    7DT      O4  207   4.208   4.159   4.667
    7DT      N3  208   4.337   4.339   4.663
    7DT      H3  209   4.255   4.392   4.637
    7DT      C2  210   4.454   4.408   4.676
    7DT      O2  211   4.459   4.528   4.648
    7DT     C3'  212   4.820   4.389   4.928
    7DT     H3'  213   4.769   4.316   4.992
    7DT     C2'  214   4.720   4.477   4.855
    7DT    H2'1  215   4.628   4.487   4.912
    7DT    H2'2  216   4.763   4.576   4.837
    7DT     O3'  217   4.912   4.472   4.996
    8DA       P  218   4.892   4.503   5.152
    8DA     O1P  219   5.001   4.598   5.185
    8DA     O2P  220   4.890   4.373   5.220
    8DA     O5'  221   4.754   4.583   5.156
    8DA     C5'  222   4.756   4.722   5.127
    8DA    H5'1  223   4.821   4.738   5.041
    8DA    H5'2  224   4.801   4.773   5.212
    8DA     C4'  225   4.623   4.790   5.095
    8DA     H4'  226   4.647   4.893   5.070
    8DA     O4'  227   4.554   4.739   4.982
    8DA     C1'  228   4.415   4.764   5.000
    8DA     H1'  229   4.377   4.829   4.921
    8DA      N9  230   4.340   4.638   4.996
    8DA      C8  231   4.384   4.511   5.025
    8DA      H8  232   4.484   4.491   5.063
    8DA      N7  233   4.297   4.418   5.000
    8DA      C5  234   4.183   4.490   4.962
    8DA      C6  235   4.050   4.456   4.927
    8DA      N6  236   4.004   4.332   4.919
    8DA     H61  237   4.065   4.255   4.940
    8DA     H62  238   3.910   4.314   4.887
    8DA      N1  239   3.962   4.552   4.899
    8DA      C2  240   4.001   4.678   4.904
    8DA      H2  241   3.925   4.751   4.880
    8DA      N3  242   4.122   4.726   4.932
    8DA      C4  243   4.208   4.624   4.962
    8DA     C3'  244   4.526   4.801   5.212
    8DA     H3'  245   4.521   4.706   5.268
    8DA     C2'  246   4.398   4.832   5.136
    8DA    H2'1  247   4.311   4.795   5.189
    8DA    H2'2  248   4.388   4.940   5.122
    8DA     O3'  249   4.565   4.913   5.289
    9DC       P  250   4.532   4.927   5.445
    9DC     O1P  251   4.591   5.058   5.481
    9DC     O2P  252   4.576   4.805   5.515
    9DC     O5'  253   4.371   4.935   5.451
    9DC     C5'  254   4.303   5.057   5.430
    9DC    H5'1  255   4.349   5.107   5.344
    9DC    H5'2  256   4.316   5.120   5.518
    9DC     C4'  257   4.153   5.041   5.401
    9DC     H4'  258   4.116   5.140   5.376
    9DC     O4'  259   4.129   4.958   5.288
    9DC     C1'  260   3.999   4.900   5.300
    9DC     H1'  261   3.935   4.938   5.220
    9DC      N1  262   4.001   4.752   5.294
    9DC      C6  263   4.111   4.678   5.328
    9DC      H6  264   4.199   4.727   5.369
    9DC      C5  265   4.110   4.543   5.311
    9DC      H5  266   4.196   4.484   5.337
    9DC      C4  267   3.989   4.484   5.264
    9DC      N4  268   3.985   4.356   5.242
    9DC     H41  269   4.068   4.299   5.256
    9DC     H42  270   3.899   4.314   5.210
    9DC      N3  271   3.881   4.553   5.234
    9DC      C2  272   3.884   4.687   5.251
    9DC      O2  273   3.782   4.753   5.226
    9DC     C3'  274   4.067   4.986   5.515
    9DC     H3'  275   4.116   4.901   5.562
    9DC     C2'  276   3.944   4.944   5.436
    9DC    H2'1  277   3.890   4.864   5.486
    9DC    H2'2  278   3.877   5.029   5.421
    9DC     O3'  279   4.028   5.087   5.607
   10DG       P  280   3.974   5.050   5.754
   10DG     O1P  281   3.949   5.180   5.822
   10DG     O2P  282   4.066   4.953   5.814
   10DG     O5'  283   3.832   4.979   5.727
   10DG     C5'  284   3.713   5.056   5.719
   10DG    H5'1  285   3.722   5.124   5.634
   10DG    H5'2  286   3.703   5.114   5.811
   10DG     C4'  287   3.585   4.975   5.701
   10DG     H4'  288   3.503   5.047   5.696
   10DG     O4'  289   3.584   4.901   5.579
   10DG     C1'  290   3.520   4.777   5.601
   10DG     H1'  291   3.439   4.762   5.530
   10DG      N9  292   3.612   4.662   5.585
   10DG      C8  293   3.748   4.653   5.605
   10DG      H8  294   3.806   4.735   5.646
   10DG      N7  295   3.799   4.538   5.570
   10DG      C5  296   3.688   4.462   5.533
   10DG      C6  297   3.674   4.324   5.492
   10DG      O6  298   3.760   4.238   5.475
   10DG      N1  299   3.543   4.287   5.470
   10DG      H1  300   3.528   4.190   5.445
   10DG      C2  301   3.438   4.369   5.485
   10DG      N2  302   3.319   4.318   5.468
   10DG     H21  303   3.310   4.218   5.449
   10DG     H22  304   3.240   4.377   5.486
   10DG      N3  305   3.444   4.497   5.519
   10DG      C4  306   3.573   4.537   5.543
   10DG     C3'  307   3.549   4.882   5.818
   10DG     H3'  308   3.638   4.835   5.860
   10DG     C2'  309   3.462   4.782   5.742
   10DG    H2'1  310   3.464   4.685   5.789
   10DG    H2'2  311   3.359   4.818   5.737
   10DG     O3'  312   3.471   4.951   5.915
   11DG       P  313   3.445   4.894   6.063
   11DG     O1P  314   3.350   4.986   6.131
   11DG     O2P  315   3.575   4.866   6.128
   11DG     O5'  316   3.367   4.756   6.035
   11DG     C5'  317   3.228   4.757   6.003
   11DG    H5'1  318   3.211   4.825   5.920
   11DG    H5'2  319   3.173   4.792   6.090
   11DG     C4'  320   3.171   4.619   5.964
   11DG     H4'  321   3.065   4.632   5.947
   11DG     O4'  322   3.228   4.564   5.846
   11DG     C1'  323   3.231   4.423   5.859
   11DG     H1'  324   3.171   4.374   5.782
   11DG      N9  325   3.368   4.371   5.846
   11DG      C8  326   3.488   4.430   5.877
   11DG      H8  327   3.495   4.529   5.921
   11DG      N7  328   3.592   4.358   5.845
   11DG      C5  329   3.536   4.237   5.802
   11DG      C6  330   3.596   4.114   5.761
   11DG      O6  331   3.714   4.085   5.747
   11DG      N1  332   3.504   4.014   5.737
   11DG      H1  333   3.541   3.923   5.713
   11DG      C2  334   3.370   4.030   5.745
   11DG      N2  335   3.295   3.924   5.731
   11DG     H21  336   3.339   3.833   5.721
   11DG     H22  337   3.197   3.935   5.746
   11DG      N3  338   3.309   4.144   5.777
   11DG      C4  339   3.399   4.244   5.805
   11DG     C3'  340   3.186   4.515   6.075
   11DG     H3'  341   3.284   4.525   6.124
   11DG     C2'  342   3.175   4.386   5.996
   11DG    H2'1  343   3.232   4.306   6.043
   11DG    H2'2  344   3.072   4.354   5.986
   11DG     O3'  345   3.077   4.524   6.163
   12DA       P  346   3.090   4.475   6.314
   12DA     O1P  347   2.956   4.498   6.371
   12DA     O2P  348   3.207   4.544   6.372
   12DA     O5'  349   3.115   4.316   6.297
   12DA     C5'  350   3.003   4.230   6.284
   12DA    H5'1  351   2.937   4.271   6.208
   12DA    H5'2  352   2.949   4.232   6.379
   12DA     C4'  353   3.028   4.082   6.248
   12DA     H4'  354   2.930   4.035   6.247
   12DA     O4'  355   3.087   4.061   6.119
   12DA     C1'  356   3.169   3.944   6.125
   12DA     H1'  357   3.144   3.873   6.046
   12DA      N9  358   3.313   3.978   6.113
   12DA      C8  359   3.378   4.095   6.141
   12DA      H8  360   3.327   4.181   6.183
   12DA      N7  361   3.505   4.095   6.113
   12DA      C5  362   3.527   3.964   6.068
   12DA      C6  363   3.640   3.890   6.024
   12DA      N6  364   3.761   3.941   6.006
   12DA     H61  365   3.775   4.040   6.007
   12DA     H62  366   3.836   3.881   5.973
   12DA      N1  367   3.630   3.761   5.996
   12DA      C2  368   3.511   3.704   6.004
   12DA      H2  369   3.509   3.599   5.979
   12DA      N3  370   3.396   3.758   6.040
   12DA      C4  371   3.411   3.890   6.072
   12DA     C3'  372   3.110   4.003   6.349
   12DA     H3'  373   3.199   4.059   6.379
   12DA     C2'  374   3.143   3.882   6.262
   12DA    H2'1  375   3.229   3.828   6.299
   12DA    H2'2  376   3.057   3.815   6.256
   12DA     O3'  377   3.028   3.965   6.458
   13DA       P  378   3.090   3.926   6.600
   13DA     O1P  379   2.974   3.898   6.687
   13DA     O2P  380   3.186   4.032   6.638
   13DA     O5'  381   3.168   3.789   6.567
   13DA     C5'  382   3.097   3.668   6.549
   13DA    H5'1  383   3.020   3.684   6.475
   13DA    H5'2  384   3.050   3.642   6.644
   13DA     C4'  385   3.181   3.546   6.505
   13DA     H4'  386   3.112   3.462   6.495
   13DA     O4'  387   3.243   3.563   6.378
   13DA     C1'  388   3.373   3.504   6.382
   13DA     H1'  389   3.386   3.434   6.298
   13DA      N9  390   3.477   3.608   6.371
   13DA      C8  391   3.466   3.743   6.396
   13DA      H8  392   3.377   3.788   6.438
   13DA      N7  393   3.571   3.812   6.363
   13DA      C5  394   3.663   3.714   6.324
   13DA      C6  395   3.799   3.716   6.286
   13DA      N6  396   3.872   3.825   6.276
   13DA     H61  397   3.830   3.914   6.297
   13DA     H62  398   3.969   3.822   6.247
   13DA      N1  399   3.862   3.602   6.259
   13DA      C2  400   3.794   3.489   6.269
   13DA      H2  401   3.851   3.399   6.248
   13DA      N3  402   3.667   3.470   6.302
   13DA      C4  403   3.607   3.589   6.330
   13DA     C3'  404   3.286   3.501   6.606
   13DA     H3'  405   3.332   3.587   6.657
   13DA     C2'  406   3.384   3.429   6.514
   13DA    H2'1  407   3.485   3.431   6.553
   13DA    H2'2  408   3.352   3.325   6.500
   13DA     O3'  409   3.228   3.407   6.695
   14DG       P  410   3.287   3.381   6.842
   14DG     O1P  411   3.203   3.274   6.899
   14DG     O2P  412   3.294   3.509   6.913
   14DG     O5'  413   3.435   3.325   6.815
   14DG     C5'  414   3.456   3.187   6.789
   14DG    H5'1  415   3.389   3.156   6.708
   14DG    H5'2  416   3.430   3.131   6.879
   14DG     C4'  417   3.600   3.151   6.750
   14DG     H4'  418   3.602   3.044   6.735
   14DG     O4'  419   3.642   3.211   6.627
   14DG     C1'  420   3.780   3.244   6.634
   14DG     H1'  421   3.835   3.198   6.552
   14DG      N9  422   3.805   3.390   6.627
   14DG      C8  423   3.724   3.495   6.663
   14DG      H8  424   3.625   3.480   6.704
   14DG      N7  425   3.778   3.613   6.644
   14DG      C5  426   3.907   3.583   6.596
   14DG      C6  427   4.018   3.666   6.559
   14DG      O6  428   4.028   3.789   6.554
   14DG      N1  429   4.132   3.596   6.525
   14DG      H1  430   4.213   3.650   6.502
   14DG      C2  431   4.138   3.461   6.523
   14DG      N2  432   4.255   3.409   6.495
   14DG     H21  433   4.334   3.470   6.480
   14DG     H22  434   4.259   3.309   6.489
   14DG      N3  435   4.038   3.379   6.551
   14DG      C4  436   3.924   3.446   6.588
   14DG     C3'  437   3.707   3.181   6.855
   14DG     H3'  438   3.685   3.276   6.906
   14DG     C2'  439   3.831   3.190   6.768
   14DG    H2'1  440   3.906   3.255   6.812
   14DG    H2'2  441   3.874   3.091   6.753
   14DG     O3'  442   3.722   3.071   6.943
   15DG       P  443   3.777   3.092   7.092
   15DG     O1P  444   3.775   2.957   7.153
   15DG     O2P  445   3.701   3.201   7.154
   15DG     O5'  446   3.932   3.134   7.068
   15DG     C5'  447   4.029   3.033   7.045
   15DG    H5'1  448   3.992   2.967   6.968
   15DG    H5'2  449   4.040   2.975   7.137
   15DG     C4'  450   4.169   3.080   7.002
   15DG     H4'  451   4.227   2.989   6.986
   15DG     O4'  452   4.171   3.152   6.879
   15DG     C1'  453   4.276   3.249   6.883
   15DG     H1'  454   4.345   3.237   6.800
   15DG      N9  455   4.224   3.387   6.876
   15DG      C8  456   4.099   3.434   6.907
   15DG      H8  457   4.021   3.371   6.946
   15DG      N7  458   4.084   3.562   6.884
   15DG      C5  459   4.211   3.605   6.845
   15DG      C6  460   4.264   3.734   6.814
   15DG      O6  461   4.206   3.843   6.809
   15DG      N1  462   4.398   3.735   6.783
   15DG      H1  463   4.438   3.824   6.759
   15DG      C2  464   4.475   3.624   6.781
   15DG      N2  465   4.602   3.642   6.755
   15DG     H21  466   4.637   3.737   6.742
   15DG     H22  467   4.662   3.563   6.754
   15DG      N3  468   4.432   3.500   6.806
   15DG      C4  469   4.299   3.497   6.839
   15DG     C3'  470   4.247   3.161   7.105
   15DG     H3'  471   4.181   3.232   7.156
   15DG     C2'  472   4.349   3.231   7.016
   15DG    H2'1  473   4.380   3.326   7.059
   15DG    H2'2  474   4.436   3.168   7.000
   15DG     O3'  475   4.318   3.076   7.192
   16DG       P  476   4.360   3.124   7.339
   16DG     O1P  477   4.431   3.008   7.398
   16DG     O2P  478   4.240   3.180   7.406
   16DG     O5'  479   4.469   3.240   7.311
   16DG     C5'  480   4.606   3.205   7.293
   16DG    H5'1  481   4.612   3.128   7.216
   16DG    H5'2  482   4.640   3.163   7.387
   16DG     C4'  483   4.704   3.316   7.257
   16DG     H4'  484   4.801   3.267   7.248
   16DG     O4'  485   4.677   3.379   7.132
   16DG     C1'  486   4.702   3.519   7.145
   16DG     H1'  487   4.766   3.556   7.065
   16DG      N9  488   4.578   3.600   7.138
   16DG      C8  489   4.450   3.569   7.174
   16DG      H8  490   4.420   3.472   7.211
   16DG      N7  491   4.367   3.668   7.158
   16DG      C5  492   4.445   3.774   7.114
   16DG      C6  493   4.416   3.911   7.084
   16DG      O6  494   4.308   3.972   7.087
   16DG      N1  495   4.527   3.985   7.051
   16DG      H1  496   4.511   4.082   7.031
   16DG      C2  497   4.652   3.935   7.044
   16DG      N2  498   4.749   4.018   7.020
   16DG     H21  499   4.729   4.117   7.012
   16DG     H22  500   4.840   3.978   7.011
   16DG      N3  501   4.685   3.809   7.069
   16DG      C4  502   4.577   3.733   7.103
   16DG     C3'  503   4.724   3.423   7.365
   16DG     H3'  504   4.630   3.443   7.418
   16DG     C2'  505   4.769   3.541   7.280
   16DG    H2'1  506   4.739   3.635   7.325
   16DG    H2'2  507   4.877   3.540   7.268
   16DG     O3'  508   4.831   3.383   7.449
   17DC       P  509   4.846   3.435   7.600
   17DC     O1P  510   4.972   3.374   7.648
   17DC     O2P  511   4.720   3.408   7.672
   17DC     O5'  512   4.869   3.592   7.581
   17DC     C5'  513   4.998   3.636   7.544
   17DC    H5'1  514   5.029   3.580   7.456
   17DC    H5'2  515   5.067   3.615   7.626
   17DC     C4'  516   5.012   3.783   7.508
   17DC     H4'  517   5.118   3.799   7.488
   17DC     O4'  518   4.941   3.819   7.390
   17DC     C1'  519   4.892   3.952   7.404
   17DC     H1'  520   4.924   4.012   7.319
   17DC      N1  521   4.744   3.960   7.411
   17DC      C6  522   4.665   3.857   7.453
   17DC      H6  523   4.710   3.765   7.490
   17DC      C5  524   4.530   3.869   7.449
   17DC      H5  525   4.466   3.788   7.480
   17DC      C4  526   4.477   3.993   7.405
   17DC      N4  527   4.348   4.009   7.398
   17DC     H41  528   4.291   3.926   7.406
   17DC     H42  529   4.310   4.092   7.353
   17DC      N3  530   4.551   4.096   7.368
   17DC      C2  531   4.685   4.082   7.373
   17DC      O2  532   4.756   4.179   7.344
   17DC     C3'  533   4.975   3.881   7.618
   17DC     H3'  534   4.885   3.848   7.671
   17DC     C2'  535   4.951   4.006   7.534
   17DC    H2'1  536   4.883   4.075   7.584
   17DC    H2'2  537   5.045   4.057   7.513
   17DC     O3'  538   5.087   3.902   7.702
   18DA       P  539   5.070   3.946   7.855
   18DA     O1P  540   5.207   3.963   7.907
   18DA     O2P  541   4.975   3.854   7.920
   18DA     O5'  542   5.004   4.092   7.837
   18DA     C5'  543   5.087   4.202   7.807
   18DA    H5'1  544   5.147   4.178   7.719
   18DA    H5'2  545   5.152   4.217   7.892
   18DA     C4'  546   5.016   4.334   7.780
   18DA     H4'  547   5.093   4.409   7.765
   18DA     O4'  548   4.936   4.333   7.663
   18DA     C1'  549   4.822   4.414   7.686
   18DA     H1'  550   4.810   4.489   7.607
   18DA      N9  551   4.699   4.333   7.688
   18DA      C8  552   4.681   4.199   7.717
   18DA      H8  553   4.761   4.135   7.750
   18DA      N7  554   4.558   4.158   7.701
   18DA      C5  555   4.489   4.275   7.663
   18DA      C6  556   4.356   4.309   7.631
   18DA      N6  557   4.256   4.223   7.621
   18DA     H61  558   4.277   4.125   7.621
   18DA     H62  559   4.165   4.257   7.590
   18DA      N1  560   4.322   4.436   7.607
   18DA      C2  561   4.415   4.528   7.609
   18DA      H2  562   4.383   4.629   7.587
   18DA      N3  563   4.545   4.513   7.634
   18DA      C4  564   4.574   4.382   7.660
   18DA     C3'  565   4.930   4.384   7.897
   18DA     H3'  566   4.871   4.302   7.939
   18DA     C2'  567   4.843   4.483   7.820
   18DA    H2'1  568   4.749   4.502   7.871
   18DA    H2'2  569   4.896   4.577   7.805
   18DA     O3'  570   5.011   4.450   7.993
   19DT       P  571   4.959   4.477   8.143
   19DT     O1P  572   5.070   4.549   8.210
   19DT     O2P  573   4.906   4.352   8.201
   19DT     O5'  574   4.836   4.578   8.124
   19DT     C5'  575   4.856   4.718   8.110
   19DT    H5'1  576   4.921   4.735   8.024
   19DT    H5'2  577   4.905   4.755   8.200
   19DT     C4'  578   4.726   4.796   8.088
   19DT     H4'  579   4.753   4.901   8.076
   19DT     O4'  580   4.660   4.755   7.969
   19DT     C1'  581   4.519   4.764   7.986
   19DT     H1'  582   4.476   4.828   7.909
   19DT      N1  583   4.451   4.632   7.979
   19DT      C6  584   4.517   4.514   8.011
   19DT      H6  585   4.620   4.518   8.044
   19DT      C5  586   4.454   4.394   8.002
   19DT      C7  587   4.532   4.268   8.035
   19DT     H71  588   4.488   4.183   7.983
   19DT     H72  589   4.635   4.278   8.003
   19DT     H73  590   4.527   4.249   8.142
   19DT      C4  591   4.314   4.386   7.959
   19DT      O4  592   4.246   4.285   7.951
   19DT      N3  593   4.256   4.508   7.930
   19DT      H3  594   4.159   4.505   7.900
   19DT      C2  595   4.317   4.631   7.941
   19DT      O2  596   4.252   4.733   7.921
   19DT     C3'  597   4.624   4.789   8.203
   19DT     H3'  598   4.616   4.687   8.241
   19DT     C2'  599   4.500   4.830   8.123
   19DT    H2'1  600   4.409   4.797   8.169
   19DT    H2'2  601   4.498   4.938   8.110
   19DT     O3'  602   4.650   4.884   8.306
   20DC       P  603   4.577   4.878   8.451
   20DC     O1P  604   4.633   4.992   8.528
   20DC     O2P  605   4.584   4.743   8.508
   20DC     O5'  606   4.425   4.911   8.423
   20DC     C5'  607   4.379   5.043   8.403
   20DC    H5'1  608   4.434   5.089   8.322
   20DC    H5'2  609   4.392   5.101   8.494
   20DC     C4'  610   4.230   5.040   8.368
   20DC     H4'  611   4.197   5.141   8.344
   20DC     O4'  612   4.209   4.958   8.254
   20DC     C1'  613   4.084   4.892   8.265
   20DC     H1'  614   4.021   4.923   8.182
   20DC      N1  615   4.096   4.743   8.263
   20DC      C6  616   4.212   4.676   8.292
   20DC      H6  617   4.298   4.731   8.330
   20DC      C5  618   4.220   4.542   8.274
   20DC      H5  619   4.311   4.489   8.294
   20DC      C4  620   4.102   4.475   8.231
   20DC      N4  621   4.104   4.347   8.210
   20DC     H41  622   4.191   4.298   8.206
   20DC     H42  623   4.020   4.302   8.174
   20DC      N3  624   3.987   4.537   8.212
   20DC      C2  625   3.983   4.671   8.225
   20DC      O2  626   3.876   4.728   8.203
   20DC     C3'  627   4.141   4.986   8.480
   20DC     H3'  628   4.191   4.904   8.532
   20DC     C2'  629   4.023   4.938   8.398
   20DC    H2'1  630   3.970   4.858   8.448
   20DC    H2'2  631   3.954   5.020   8.379
   20DC     O3'  632   4.101   5.092   8.566
   21DT       P  633   4.069   5.068   8.721
   21DT     O1P  634   4.021   5.198   8.773
   21DT     O2P  635   4.184   5.001   8.787
   21DT     O5'  636   3.942   4.966   8.718
   21DT     C5'  637   3.813   5.017   8.688
   21DT    H5'1  638   3.822   5.084   8.603
   21DT    H5'2  639   3.780   5.076   8.774
   21DT     C4'  640   3.701   4.917   8.655
   21DT     H4'  641   3.614   4.979   8.636
   21DT     O4'  642   3.719   4.844   8.535
   21DT     C1'  643   3.646   4.722   8.544
   21DT     H1'  644   3.573   4.714   8.463
   21DT      N1  645   3.738   4.605   8.539
   21DT      C6  646   3.872   4.619   8.569
   21DT      H6  647   3.910   4.715   8.601
   21DT      C5  648   3.957   4.514   8.563
   21DT      C7  649   4.103   4.538   8.595
   21DT     H71  650   4.165   4.464   8.544
   21DT     H72  651   4.134   4.638   8.562
   21DT     H73  652   4.120   4.529   8.702
   21DT      C4  653   3.908   4.381   8.524
   21DT      O4  654   3.973   4.278   8.518
   21DT      N3  655   3.774   4.377   8.493
   21DT      H3  656   3.738   4.286   8.466
   21DT      C2  657   3.684   4.480   8.504
   21DT      O2  658   3.564   4.459   8.486
   21DT     C3'  659   3.662   4.817   8.764
   21DT     H3'  660   3.751   4.764   8.800
   21DT     C2'  661   3.573   4.727   8.679
   21DT    H2'1  662   3.562   4.628   8.723
   21DT    H2'2  663   3.475   4.772   8.666
   21DT     O3'  664   3.588   4.878   8.869
   22DG       P  665   3.577   4.813   9.016
   22DG     O1P  666   3.503   4.909   9.100
   22DG     O2P  667   3.712   4.766   9.058
   22DG     O5'  668   3.485   4.684   8.997
   22DG     C5'  669   3.345   4.697   8.977
   22DG    H5'1  670   3.328   4.766   8.894
   22DG    H5'2  671   3.300   4.738   9.067
   22DG     C4'  672   3.277   4.564   8.942
   22DG     H4'  673   3.170   4.582   8.928
   22DG     O4'  674   3.329   4.511   8.821
   22DG     C1'  675   3.338   4.370   8.830
   22DG     H1'  676   3.280   4.324   8.750
   22DG      N9  677   3.478   4.324   8.819
   22DG      C8  678   3.595   4.392   8.846
   22DG      H8  679   3.597   4.493   8.884
   22DG      N7  680   3.703   4.323   8.821
   22DG      C5  681   3.655   4.198   8.779
   22DG      C6  682   3.722   4.076   8.743
   22DG      O6  683   3.842   4.051   8.733
   22DG      N1  684   3.635   3.971   8.722
   22DG      H1  685   3.677   3.883   8.697
   22DG      C2  686   3.500   3.981   8.727
   22DG      N2  687   3.431   3.873   8.708
   22DG     H21  688   3.480   3.785   8.692
   22DG     H22  689   3.331   3.880   8.702
   22DG      N3  690   3.433   4.093   8.756
   22DG      C4  691   3.517   4.198   8.782
   22DG     C3'  692   3.293   4.457   9.050
   22DG     H3'  693   3.393   4.463   9.093
   22DG     C2'  694   3.279   4.330   8.966
   22DG    H2'1  695   3.333   4.247   9.010
   22DG    H2'2  696   3.174   4.304   8.954
   22DG     O3'  697   3.190   4.462   9.148
   23DC       P  698   3.216   4.415   9.298
   23DC     O1P  699   3.093   4.440   9.377
   23DC     O2P  700   3.342   4.477   9.341
   23DC     O5'  701   3.236   4.256   9.290
   23DC     C5'  702   3.124   4.171   9.274
   23DC    H5'1  703   3.061   4.210   9.194
   23DC    H5'2  704   3.067   4.172   9.366
   23DC     C4'  705   3.154   4.025   9.241
   23DC     H4'  706   3.059   3.973   9.236
   23DC     O4'  707   3.217   4.010   9.114
   23DC     C1'  708   3.299   3.895   9.116
   23DC     H1'  709   3.270   3.824   9.037
   23DC      N1  710   3.444   3.928   9.097
   23DC      C6  711   3.494   4.053   9.124
   23DC      H6  712   3.429   4.130   9.164
   23DC      C5  713   3.625   4.078   9.102
   23DC      H5  714   3.665   4.176   9.121
   23DC      C4  715   3.706   3.972   9.055
   23DC      N4  716   3.833   3.993   9.035
   23DC     H41  717   3.868   4.087   9.045
   23DC     H42  718   3.890   3.923   8.990
   23DC      N3  719   3.661   3.851   9.030
   23DC      C2  720   3.529   3.828   9.051
   23DC      O2  721   3.486   3.714   9.029
   23DC     C3'  722   3.238   3.947   9.343
   23DC     H3'  723   3.325   4.007   9.374
   23DC     C2'  724   3.278   3.831   9.253
   23DC    H2'1  725   3.368   3.781   9.289
   23DC    H2'2  726   3.197   3.758   9.247
   23DC     O3'  727   3.159   3.901   9.453
   24DG       P  728   3.226   3.851   9.590
   24DG     O1P  729   3.116   3.813   9.681
   24DG     O2P  730   3.321   3.954   9.636
   24DG     O5'  731   3.307   3.718   9.554
   24DG     C5'  732   3.238   3.597   9.532
   24DG    H5'1  733   3.166   3.611   9.451
   24DG    H5'2  734   3.183   3.570   9.623
   24DG     C4'  735   3.330   3.481   9.497
   24DG     H4'  736   3.269   3.391   9.489
   24DG     O4'  737   3.391   3.502   9.370
   24DG     C1'  738   3.525   3.455   9.374
   24DG     H1'  739   3.546   3.386   9.293
   24DG      N9  740   3.622   3.568   9.363
   24DG      C8  741   3.608   3.701   9.394
   24DG      H8  742   3.518   3.742   9.436
   24DG      N7  743   3.714   3.773   9.368
   24DG      C5  744   3.806   3.681   9.317
   24DG      C6  745   3.942   3.693   9.274
   24DG      O6  746   4.013   3.794   9.264
   24DG      N1  747   4.002   3.574   9.242
   24DG      H1  748   4.098   3.577   9.213
   24DG      C2  749   3.937   3.454   9.246
   24DG      N2  750   4.007   3.349   9.214
   24DG     H21  751   4.104   3.362   9.187
   24DG     H22  752   3.958   3.262   9.207
   24DG      N3  753   3.811   3.436   9.283
   24DG      C4  754   3.751   3.554   9.318
   24DG     C3'  755   3.440   3.453   9.600
   24DG     H3'  756   3.482   3.547   9.638
   24DG     C2'  757   3.539   3.382   9.507
   24DG    H2'1  758   3.640   3.386   9.544
   24DG    H2'2  759   3.509   3.278   9.494
   24DG     O3'  760   3.395   3.367   9.706
   25DC       P  761   3.472   3.354   9.848
   25DC     O1P  762   3.406   3.245   9.925
   25DC     O2P  763   3.491   3.486   9.910
   25DC     O5'  764   3.619   3.301   9.810
   25DC     C5'  765   3.639   3.166   9.775
   25DC    H5'1  766   3.572   3.142   9.693
   25DC    H5'2  767   3.616   3.105   9.862
   25DC     C4'  768   3.782   3.134   9.730
   25DC     H4'  769   3.789   3.026   9.711
   25DC     O4'  770   3.813   3.202   9.611
   25DC     C1'  771   3.952   3.234   9.610
   25DC     H1'  772   4.000   3.191   9.522
   25DC      N1  773   3.975   3.382   9.611
   25DC      C6  774   3.878   3.473   9.647
   25DC      H6  775   3.783   3.438   9.685
   25DC      C5  776   3.903   3.606   9.636
   25DC      H5  777   3.827   3.678   9.662
   25DC      C4  778   4.031   3.645   9.588
   25DC      N4  779   4.059   3.769   9.566
   25DC     H41  780   3.987   3.838   9.570
   25DC     H42  781   4.147   3.789   9.519
   25DC      N3  782   4.127   3.559   9.559
   25DC      C2  783   4.100   3.427   9.571
   25DC      O2  784   4.193   3.349   9.552
   25DC     C3'  785   3.890   3.170   9.831
   25DC     H3'  786   3.871   3.271   9.871
   25DC     C2'  787   4.010   3.171   9.738
   25DC    H2'1  788   4.093   3.228   9.779
   25DC    H2'2  789   4.041   3.068   9.716
   25DC     O3'  790   3.906   3.074   9.934
   25DC     H3T  791   3.947   3.117  10.010
   26G      O5'  792   5.057   3.972   9.215
   26G      H5T  793   4.997   3.980   9.138
   26G      C5'  794   5.139   3.859   9.194
   26G     H5'1  795   5.232   3.868   9.251
   26G     H5'2  796   5.165   3.854   9.089
   26G      C4'  797   5.073   3.726   9.231
   26G      H4'  798   5.153   3.652   9.235
   26G      O4'  799   5.007   3.730   9.358
   26G      C1'  800   4.889   3.651   9.350
   26G      H1'  801   4.888   3.577   9.430
   26G       N9  802   4.765   3.731   9.362
   26G       C8  803   4.744   3.867   9.348
   26G       H8  804   4.822   3.935   9.318
   26G       N7  805   4.623   3.905   9.380
   26G       C5  806   4.556   3.785   9.408
   26G       C6  807   4.420   3.757   9.445
   26G       O6  808   4.326   3.835   9.467
   26G       N1  809   4.394   3.623   9.462
   26G       H1  810   4.298   3.597   9.481
   26G       C2  811   4.488   3.527   9.449
   26G       N2  812   4.450   3.404   9.470
   26G      H21  813   4.352   3.382   9.484
   26G      H22  814   4.518   3.331   9.464
   26G       N3  815   4.616   3.547   9.423
   26G       C4  816   4.644   3.679   9.399
   26G      C3'  817   4.972   3.673   9.129
   26G      H3'  818   4.907   3.754   9.096
   26G      C2'  819   4.894   3.576   9.217
   26G     H2'1  820   4.793   3.559   9.177
   26G      O2'  821   4.963   3.453   9.239
   26G     HO'2  822   4.970   3.412   9.151
   26G      O3'  823   5.036   3.607   9.021
   27C        P  824   4.961   3.595   8.880
   27C      O1P  825   5.050   3.526   8.785
   27C      O2P  826   4.911   3.729   8.849
   27C      O5'  827   4.840   3.498   8.915
   27C      C5'  828   4.860   3.358   8.923
   27C     H5'1  829   4.945   3.336   8.988
   27C     H5'2  830   4.884   3.320   8.823
   27C      C4'  831   4.738   3.281   8.974
   27C      H4'  832   4.770   3.179   8.994
   27C      O4'  833   4.685   3.337   9.094
   27C      C1'  834   4.543   3.329   9.091
   27C      H1'  835   4.509   3.272   9.178
   27C       N1  836   4.474   3.461   9.094
   27C       C6  837   4.535   3.577   9.054
   27C       H6  838   4.633   3.575   9.009
   27C       C5  839   4.470   3.695   9.069
   27C       H5  840   4.518   3.786   9.036
   27C       C4  841   4.340   3.693   9.123
   27C       N4  842   4.275   3.804   9.142
   27C      H41  843   4.315   3.890   9.108
   27C      H42  844   4.180   3.799   9.175
   27C       N3  845   4.279   3.582   9.162
   27C       C2  846   4.344   3.464   9.145
   27C       O2  847   4.285   3.361   9.178
   27C      C3'  848   4.625   3.273   8.872
   27C      H3'  849   4.617   3.368   8.818
   27C      C2'  850   4.505   3.252   8.965
   27C     H2'1  851   4.415   3.294   8.919
   27C      O2'  852   4.484   3.116   9.000
   27C     HO'2  853   4.446   3.077   8.919
   27C      O3'  854   4.644   3.162   8.786
   28G        P  855   4.584   3.163   8.639
   28G      O1P  856   4.616   3.030   8.581
   28G      O2P  857   4.627   3.285   8.570
   28G      O5'  858   4.428   3.167   8.673
   28G      C5'  859   4.354   3.047   8.678
   28G     H5'1  860   4.402   2.976   8.745
   28G     H5'2  861   4.352   3.003   8.578
   28G      C4'  862   4.211   3.066   8.726
   28G      H4'  863   4.167   2.968   8.742
   28G      O4'  864   4.199   3.141   8.847
   28G      C1'  865   4.080   3.218   8.837
   28G      H1'  866   4.010   3.195   8.917
   28G       N9  867   4.106   3.364   8.841
   28G       C8  868   4.217   3.437   8.805
   28G       H8  869   4.304   3.392   8.759
   28G       N7  870   4.208   3.564   8.834
   28G       C5  871   4.077   3.579   8.883
   28G       C6  872   4.002   3.693   8.925
   28G       O6  873   4.036   3.811   8.938
   28G       N1  874   3.871   3.664   8.956
   28G       H1  875   3.808   3.741   8.974
   28G       C2  876   3.818   3.540   8.948
   28G       N2  877   3.690   3.529   8.967
   28G      H21  878   3.634   3.613   8.976
   28G      H22  879   3.649   3.442   8.940
   28G       N3  880   3.884   3.430   8.916
   28G       C4  881   4.014   3.456   8.883
   28G      C3'  882   4.128   3.135   8.619
   28G      H3'  883   4.182   3.218   8.574
   28G      C2'  884   4.012   3.183   8.705
   28G     H2'1  885   3.963   3.269   8.660
   28G      O2'  886   3.920   3.077   8.727
   28G     HO'2  887   3.902   3.046   8.637
   28G      O3'  888   4.088   3.037   8.525
   29C        P  889   4.036   3.079   8.382
   29C      O1P  890   3.999   2.953   8.314
   29C      O2P  891   4.135   3.172   8.324
   29C      O5'  892   3.904   3.159   8.423
   29C      C5'  893   3.780   3.092   8.432
   29C     H5'1  894   3.788   3.005   8.497
   29C     H5'2  895   3.753   3.058   8.333
   29C      C4'  896   3.665   3.180   8.481
   29C      H4'  897   3.580   3.116   8.498
   29C      O4'  898   3.691   3.250   8.603
   29C      C1'  899   3.628   3.378   8.596
   29C      H1'  900   3.558   3.388   8.679
   29C       N1  901   3.723   3.491   8.601
   29C       C6  902   3.852   3.481   8.556
   29C       H6  903   3.886   3.389   8.508
   29C       C5  904   3.936   3.586   8.565
   29C       H5  905   4.037   3.577   8.529
   29C       C4  906   3.882   3.708   8.614
   29C       N4  907   3.957   3.814   8.615
   29C      H41  908   4.041   3.811   8.562
   29C      H42  909   3.916   3.902   8.647
   29C       N3  910   3.759   3.720   8.660
   29C       C2  911   3.677   3.612   8.653
   29C       O2  912   3.562   3.623   8.697
   29C      C3'  913   3.620   3.282   8.377
   29C      H3'  914   3.706   3.325   8.325
   29C      C2'  915   3.549   3.384   8.466
   29C     H2'1  916   3.550   3.483   8.420
   29C      O2'  917   3.416   3.340   8.493
   29C     HO'2  918   3.389   3.303   8.407
   29C      O3'  919   3.527   3.220   8.290
   30A        P  920   3.506   3.272   8.142
   30A      O1P  921   3.411   3.173   8.086
   30A      O2P  922   3.638   3.291   8.083
   30A      O5'  923   3.432   3.412   8.170
   30A      C5'  924   3.292   3.417   8.190
   30A     H5'1  925   3.265   3.347   8.269
   30A     H5'2  926   3.241   3.386   8.099
   30A      C4'  927   3.239   3.556   8.230
   30A      H4'  928   3.135   3.544   8.258
   30A      O4'  929   3.308   3.609   8.344
   30A      C1'  930   3.327   3.749   8.325
   30A      H1'  931   3.285   3.804   8.410
   30A       N9  932   3.470   3.787   8.317
   30A       C8  933   3.580   3.715   8.275
   30A       H8  934   3.572   3.616   8.231
   30A       N7  935   3.694   3.776   8.294
   30A       C5  936   3.656   3.901   8.345
   30A       C6  937   3.725   4.017   8.386
   30A       N6  938   3.856   4.032   8.388
   30A      H61  939   3.911   3.961   8.345
   30A      H62  940   3.895   4.120   8.419
   30A       N1  941   3.658   4.123   8.431
   30A       C2  942   3.527   4.116   8.435
   30A       H2  943   3.478   4.204   8.475
   30A       N3  944   3.447   4.015   8.403
   30A       C4  945   3.520   3.909   8.356
   30A      C3'  946   3.239   3.661   8.118
   30A      H3'  947   3.325   3.648   8.051
   30A      C2'  948   3.251   3.790   8.200
   30A     H2'1  949   3.305   3.867   8.144
   30A      O2'  950   3.124   3.839   8.243
   30A     HO'2  951   3.073   3.843   8.160
   30A      O3'  952   3.113   3.658   8.050
   31G        P  953   3.093   3.726   7.906
   31G      O1P  954   2.946   3.731   7.882
   31G      O2P  955   3.180   3.658   7.809
   31G      O5'  956   3.143   3.875   7.931
   31G      C5'  957   3.048   3.978   7.944
   31G     H5'1  958   2.975   3.950   8.020
   31G     H5'2  959   2.998   3.987   7.848
   31G      C4'  960   3.100   4.116   7.979
   31G      H4'  961   3.014   4.179   8.002
   31G      O4'  962   3.189   4.119   8.089
   31G      C1'  963   3.277   4.228   8.068
   31G      H1'  964   3.265   4.301   8.148
   31G       N9  965   3.418   4.184   8.067
   31G       C8  966   3.473   4.063   8.036
   31G       H8  967   3.413   3.979   8.002
   31G       N7  968   3.602   4.057   8.055
   31G       C5  969   3.636   4.187   8.092
   31G       C6  970   3.762   4.249   8.124
   31G       O6  971   3.874   4.200   8.134
   31G       N1  972   3.752   4.384   8.150
   31G       H1  973   3.838   4.434   8.164
   31G       C2  974   3.635   4.452   8.149
   31G       N2  975   3.639   4.581   8.173
   31G      H21  976   3.730   4.626   8.181
   31G      H22  977   3.554   4.632   8.165
   31G       N3  978   3.515   4.399   8.128
   31G       C4  979   3.523   4.266   8.097
   31G      C3'  980   3.171   4.182   7.861
   31G      H3'  981   3.242   4.112   7.816
   31G      C2'  982   3.243   4.294   7.935
   31G     H2'1  983   3.332   4.326   7.881
   31G      O2'  984   3.157   4.404   7.961
   31G     HO'2  985   3.127   4.432   7.873
   31G      O3'  986   3.075   4.230   7.770
   32A        P  987   3.114   4.261   7.620
   32A      O1P  988   2.988   4.298   7.552
   32A      O2P  989   3.192   4.148   7.569
   32A      O5'  990   3.212   4.388   7.638
   32A      C5'  991   3.162   4.519   7.647
   32A     H5'1  992   3.081   4.524   7.720
   32A     H5'2  993   3.123   4.547   7.549
   32A      C4'  994   3.270   4.622   7.687
   32A      H4'  995   3.219   4.716   7.710
   32A      O4'  996   3.347   4.585   7.801
   32A      C1'  997   3.482   4.630   7.785
   32A      H1'  998   3.511   4.696   7.867
   32A       N9  999   3.579   4.519   7.782
   32A       C8 1000   3.562   4.388   7.745
   32A       H8 1001   3.469   4.350   7.705
   32A       N7 1002   3.666   4.313   7.767
   32A       C5 1003   3.764   4.404   7.811
   32A       C6 1004   3.900   4.395   7.847
   32A       N6 1005   3.971   4.284   7.848
   32A      H61 1006   3.928   4.201   7.810
   32A      H62 1007   4.069   4.285   7.873
   32A       N1 1008   3.969   4.504   7.883
   32A       C2 1009   3.905   4.619   7.886
   32A       H2 1010   3.964   4.704   7.915
   32A       N3 1011   3.777   4.644   7.858
   32A       C4 1012   3.712   4.530   7.819
   32A      C3' 1013   3.369   4.654   7.575
   32A      H3' 1014   3.396   4.562   7.521
   32A      C2' 1015   3.487   4.709   7.655
   32A     H2'1 1016   3.581   4.693   7.602
   32A      O2' 1017   3.465   4.847   7.682
   32A     HO'2 1018   3.429   4.877   7.598
   32A      O3' 1019   3.316   4.756   7.491
   33U        P 1020   3.358   4.763   7.337
   33U      O1P 1021   3.282   4.876   7.278
   33U      O2P 1022   3.346   4.627   7.284
   33U      O5' 1023   3.513   4.803   7.351
   33U      C5' 1024   3.552   4.938   7.357
   33U     H5'1 1025   3.488   4.989   7.428
   33U     H5'2 1026   3.537   4.983   7.259
   33U      C4' 1027   3.698   4.959   7.399
   33U      H4' 1028   3.711   5.065   7.422
   33U      O4' 1029   3.740   4.884   7.512
   33U      C1' 1030   3.879   4.854   7.499
   33U      H1' 1031   3.936   4.899   7.580
   33U       N1 1032   3.907   4.708   7.499
   33U       C6 1033   3.812   4.614   7.465
   33U       H6 1034   3.715   4.645   7.427
   33U       C5 1035   3.838   4.481   7.481
   33U       H5 1036   3.763   4.407   7.456
   33U       C4 1037   3.966   4.434   7.528
   33U       O4 1038   3.996   4.318   7.551
   33U       N3 1039   4.057   4.533   7.552
   33U       H3 1040   4.149   4.501   7.578
   33U       C2 1041   4.035   4.668   7.539
   33U       O2 1042   4.126   4.747   7.563
   33U      C3' 1043   3.797   4.928   7.287
   33U      H3' 1044   3.771   4.833   7.240
   33U      C2' 1045   3.927   4.916   7.368
   33U     H2'1 1046   3.999   4.853   7.316
   33U      O2' 1047   3.984   5.044   7.395
   33U     HO'2 1048   3.992   5.086   7.308
   33U      O3' 1049   3.800   5.038   7.198
   34G        P 1050   3.834   5.017   7.044
   34G      O1P 1051   3.831   5.153   6.987
   34G      O2P 1052   3.744   4.913   6.992
   34G      O5' 1053   3.986   4.968   7.057
   34G      C5' 1054   4.088   5.065   7.062
   34G     H5'1 1055   4.061   5.143   7.134
   34G     H5'2 1056   4.096   5.112   6.964
   34G      C4' 1057   4.226   5.011   7.102
   34G      H4' 1058   4.291   5.097   7.114
   34G      O4' 1059   4.227   4.939   7.224
   34G      C1' 1060   4.326   4.837   7.214
   34G      H1' 1061   4.397   4.843   7.295
   34G       N9 1062   4.265   4.702   7.218
   34G       C8 1063   4.136   4.663   7.191
   34G       H8 1064   4.060   4.731   7.155
   34G       N7 1065   4.113   4.537   7.217
   34G       C5 1066   4.238   4.486   7.254
   34G       C6 1067   4.284   4.354   7.288
   34G       O6 1068   4.221   4.249   7.302
   34G       N1 1069   4.421   4.346   7.305
   34G       H1 1070   4.459   4.254   7.320
   34G       C2 1071   4.504   4.452   7.297
   34G       N2 1072   4.632   4.429   7.310
   34G      H21 1073   4.665   4.333   7.319
   34G      H22 1074   4.693   4.507   7.306
   34G       N3 1075   4.467   4.577   7.273
   34G       C4 1076   4.332   4.587   7.251
   34G      C3' 1077   4.289   4.923   6.995
   34G      H3' 1078   4.217   4.852   6.955
   34G      C2' 1079   4.397   4.855   7.080
   34G     H2'1 1080   4.428   4.759   7.036
   34G      O2' 1081   4.508   4.943   7.094
   34G     HO'2 1082   4.504   4.993   7.011
   34G      O3' 1083   4.348   5.007   6.898
   35C        P 1084   4.372   4.957   6.750
   35C      O1P 1085   4.433   5.074   6.682
   35C      O2P 1086   4.248   4.897   6.699
   35C      O5' 1087   4.481   4.843   6.770
   35C      C5' 1088   4.618   4.876   6.779
   35C     H5'1 1089   4.628   4.958   6.849
   35C     H5'2 1090   4.650   4.910   6.680
   35C      C4' 1091   4.708   4.760   6.824
   35C      H4' 1092   4.808   4.800   6.842
   35C      O4' 1093   4.667   4.695   6.943
   35C      C1' 1094   4.695   4.556   6.931
   35C      H1' 1095   4.761   4.523   7.011
   35C       N1 1096   4.571   4.473   6.936
   35C       C6 1097   4.447   4.521   6.900
   35C       H6 1098   4.437   4.620   6.859
   35C       C5 1099   4.337   4.444   6.917
   35C       H5 1100   4.240   4.481   6.889
   35C       C4 1101   4.356   4.313   6.968
   35C       N4 1102   4.254   4.236   6.990
   35C      H41 1103   4.161   4.267   6.968
   35C      H42 1104   4.270   4.142   7.027
   35C       N3 1105   4.475   4.264   6.998
   35C       C2 1106   4.584   4.341   6.980
   35C       O2 1107   4.695   4.293   7.004
   35C      C3' 1108   4.722   4.655   6.715
   35C      H3' 1109   4.625   4.635   6.669
   35C      C2' 1110   4.767   4.533   6.797
   35C     H2'1 1111   4.732   4.441   6.750
   35C      O2' 1112   4.908   4.526   6.817
   35C     HO'2 1113   4.938   4.459   6.755
   35C      O3' 1114   4.820   4.697   6.622
   36C        P 1115   4.809   4.656   6.470
   36C      O1P 1116   4.927   4.715   6.404
   36C      O2P 1117   4.673   4.693   6.424
   36C      O5' 1118   4.828   4.497   6.482
   36C      C5' 1119   4.959   4.443   6.487
   36C     H5'1 1120   5.019   4.501   6.557
   36C     H5'2 1121   5.002   4.454   6.388
   36C      C4' 1122   4.968   4.295   6.527
   36C      H4' 1123   5.073   4.272   6.545
   36C      O4' 1124   4.897   4.265   6.646
   36C      C1' 1125   4.847   4.131   6.637
   36C      H1' 1126   4.888   4.070   6.718
   36C       N1 1127   4.698   4.125   6.647
   36C       C6 1128   4.619   4.234   6.622
   36C       H6 1129   4.662   4.324   6.580
   36C       C5 1130   4.486   4.228   6.649
   36C       H5 1131   4.423   4.314   6.633
   36C       C4 1132   4.434   4.105   6.698
   36C       N4 1133   4.307   4.093   6.721
   36C      H41 1134   4.244   4.169   6.701
   36C      H42 1135   4.272   4.003   6.753
   36C       N3 1136   4.509   3.998   6.718
   36C       C2 1137   4.641   4.006   6.692
   36C       O2 1138   4.709   3.904   6.710
   36C      C3' 1139   4.922   4.198   6.418
   36C      H3' 1140   4.831   4.235   6.369
   36C      C2' 1141   4.894   4.074   6.503
   36C     H2'1 1142   4.815   4.014   6.457
   36C      O2' 1143   5.010   3.993   6.525
   36C     HO'2 1144   5.015   3.939   6.445
   36C      O3' 1145   5.030   4.180   6.326
   37C        P 1146   5.011   4.112   6.184
   37C      O1P 1147   5.149   4.090   6.135
   37C      O2P 1148   4.920   4.195   6.103
   37C      O5' 1149   4.942   3.969   6.211
   37C      C5' 1150   5.017   3.848   6.214
   37C     H5'1 1151   5.100   3.859   6.285
   37C     H5'2 1152   5.060   3.831   6.115
   37C      C4' 1153   4.934   3.725   6.253
   37C      H4' 1154   5.004   3.644   6.274
   37C      O4' 1155   4.856   3.748   6.370
   37C      C1' 1156   4.739   3.665   6.366
   37C      H1' 1157   4.745   3.589   6.444
   37C       N1 1158   4.611   3.739   6.384
   37C       C6 1159   4.599   3.872   6.353
   37C       H6 1160   4.682   3.925   6.309
   37C       C5 1161   4.482   3.936   6.376
   37C       H5 1162   4.472   4.040   6.351
   37C       C4 1163   4.374   3.862   6.430
   37C       N4 1164   4.261   3.922   6.453
   37C      H41 1165   4.249   4.018   6.424
   37C      H42 1166   4.181   3.871   6.489
   37C       N3 1167   4.381   3.732   6.455
   37C       C2 1168   4.499   3.668   6.431
   37C       O2 1169   4.503   3.546   6.449
   37C      C3' 1170   4.839   3.674   6.145
   37C      H3' 1171   4.790   3.759   6.096
   37C      C2' 1172   4.739   3.595   6.230
   37C     H2'1 1173   4.640   3.599   6.184
   37C      O2' 1174   4.776   3.459   6.252
   37C     HO'2 1175   4.715   3.407   6.198
   37C      O3' 1176   4.908   3.591   6.051
   38U        P 1177   4.848   3.561   5.906
   38U      O1P 1178   4.938   3.461   5.843
   38U      O2P 1179   4.826   3.689   5.839
   38U      O5' 1180   4.709   3.486   5.936
   38U      C5' 1181   4.710   3.345   5.955
   38U     H5'1 1182   4.788   3.320   6.027
   38U     H5'2 1183   4.733   3.297   5.860
   38U      C4' 1184   4.579   3.287   6.007
   38U      H4' 1185   4.597   3.183   6.036
   38U      O4' 1186   4.530   3.358   6.121
   38U      C1' 1187   4.388   3.350   6.119
   38U      H1' 1188   4.353   3.296   6.207
   38U       N1 1189   4.324   3.485   6.119
   38U       C6 1190   4.389   3.598   6.076
   38U       H6 1191   4.487   3.590   6.029
   38U       C5 1192   4.332   3.721   6.092
   38U       H5 1193   4.383   3.811   6.060
   38U       C4 1194   4.202   3.736   6.152
   38U       O4 1195   4.143   3.841   6.174
   38U       N3 1196   4.141   3.618   6.187
   38U       H3 1197   4.047   3.624   6.224
   38U       C2 1198   4.194   3.492   6.170
   38U       O2 1199   4.126   3.393   6.197
   38U      C3' 1200   4.468   3.285   5.903
   38U      H3' 1201   4.465   3.380   5.849
   38U      C2' 1202   4.347   3.269   5.995
   38U     H2'1 1203   4.256   3.308   5.949
   38U      O2' 1204   4.331   3.135   6.036
   38U     HO'2 1205   4.353   3.078   5.961
   38U      O3' 1206   4.484   3.173   5.817
   39U        P 1207   4.439   3.178   5.665
   39U      O1P 1208   4.476   3.048   5.606
   39U      O2P 1209   4.494   3.302   5.606
   39U      O5' 1210   4.279   3.187   5.677
   39U      C5' 1211   4.203   3.070   5.704
   39U     H5'1 1212   4.246   3.019   5.790
   39U     H5'2 1213   4.210   3.003   5.618
   39U      C4' 1214   4.055   3.093   5.735
   39U      H4' 1215   4.007   2.996   5.748
   39U      O4' 1216   4.040   3.165   5.857
   39U      C1' 1217   3.918   3.238   5.851
   39U      H1' 1218   3.851   3.207   5.932
   39U       N1 1219   3.941   3.385   5.863
   39U       C6 1220   4.057   3.445   5.818
   39U       H6 1221   4.135   3.384   5.772
   39U       C5 1222   4.075   3.579   5.831
   39U       H5 1223   4.166   3.626   5.797
   39U       C4 1224   3.974   3.663   5.890
   39U       O4 1225   3.981   3.784   5.905
   39U       N3 1226   3.860   3.597   5.930
   39U       H3 1227   3.786   3.654   5.967
   39U       C2 1228   3.838   3.462   5.918
   39U       O2 1229   3.731   3.414   5.955
   39U      C3' 1230   3.972   3.167   5.630
   39U      H3' 1231   4.026   3.257   5.598
   39U      C2' 1232   3.852   3.205   5.718
   39U     H2'1 1233   3.800   3.291   5.679
   39U      O2' 1234   3.762   3.097   5.739
   39U     HO'2 1235   3.691   3.108   5.675
   39U      O3' 1236   3.935   3.086   5.519
   40C        P 1237   3.874   3.152   5.388
   40C      O1P 1238   3.850   3.045   5.289
   40C      O2P 1239   3.958   3.267   5.351
   40C      O5' 1240   3.734   3.210   5.433
   40C      C5' 1241   3.619   3.129   5.446
   40C     H5'1 1242   3.639   3.047   5.514
   40C     H5'2 1243   3.591   3.089   5.349
   40C      C4' 1244   3.506   3.216   5.500
   40C      H4' 1245   3.421   3.152   5.524
   40C      O4' 1246   3.540   3.285   5.619
   40C      C1' 1247   3.472   3.411   5.619
   40C      H1' 1248   3.407   3.419   5.707
   40C       N1 1249   3.568   3.525   5.620
   40C       C6 1250   3.699   3.513   5.579
   40C       H6 1251   3.732   3.421   5.534
   40C       C5 1252   3.786   3.616   5.592
   40C       H5 1253   3.888   3.605   5.559
   40C       C4 1254   3.735   3.737   5.644
   40C       N4 1255   3.814   3.839   5.659
   40C      H41 1256   3.913   3.831   5.642
   40C      H42 1257   3.776   3.924   5.700
   40C       N3 1258   3.608   3.753   5.677
   40C       C2 1259   3.523   3.649   5.667
   40C       O2 1260   3.406   3.666   5.698
   40C      C3' 1261   3.460   3.320   5.399
   40C      H3' 1262   3.546   3.370   5.353
   40C      C2' 1263   3.385   3.415   5.493
   40C     H2'1 1264   3.380   3.516   5.452
   40C      O2' 1265   3.255   3.366   5.521
   40C     HO'2 1266   3.223   3.332   5.436
   40C      O3' 1267   3.374   3.260   5.304
   41C        P 1268   3.356   3.319   5.157
   41C      O1P 1269   3.258   3.229   5.093
   41C      O2P 1270   3.488   3.339   5.095
   41C      O5' 1271   3.285   3.460   5.184
   41C      C5' 1272   3.145   3.466   5.206
   41C     H5'1 1273   3.117   3.393   5.282
   41C     H5'2 1274   3.093   3.440   5.114
   41C      C4' 1275   3.096   3.604   5.251
   41C      H4' 1276   2.991   3.597   5.275
   41C      O4' 1277   3.162   3.650   5.369
   41C      C1' 1278   3.173   3.792   5.363
   41C      H1' 1279   3.123   3.837   5.449
   41C       N1 1280   3.315   3.837   5.362
   41C       C6 1281   3.418   3.752   5.332
   41C       H6 1282   3.396   3.652   5.298
   41C       C5 1283   3.545   3.793   5.346
   41C       H5 1284   3.626   3.724   5.327
   41C       C4 1285   3.568   3.927   5.388
   41C       N4 1286   3.691   3.968   5.404
   41C      H41 1287   3.764   3.899   5.394
   41C      H42 1288   3.709   4.063   5.435
   41C       N3 1289   3.470   4.012   5.414
   41C       C2 1290   3.342   3.969   5.400
   41C       O2 1291   3.251   4.050   5.421
   41C      C3' 1292   3.111   3.713   5.145
   41C      H3' 1293   3.209   3.705   5.097
   41C      C2' 1294   3.104   3.837   5.235
   41C     H2'1 1295   3.156   3.921   5.190
   41C      O2' 1296   2.970   3.871   5.266
   41C     HO'2 1297   2.943   3.933   5.197
   41C      O3' 1298   3.004   3.714   5.051
   42G        P 1299   3.020   3.790   4.911
   42G      O1P 1300   2.893   3.778   4.837
   42G      O2P 1301   3.144   3.741   4.849
   42G      O5' 1302   3.040   3.945   4.946
   42G      C5' 1303   2.929   4.031   4.960
   42G     H5'1 1304   2.863   3.993   5.038
   42G     H5'2 1305   2.874   4.035   4.867
   42G      C4' 1306   2.969   4.175   4.996
   42G      H4' 1307   2.878   4.231   5.017
   42G      O4' 1308   3.051   4.178   5.113
   42G      C1' 1309   3.143   4.286   5.101
   42G      H1' 1310   3.133   4.356   5.184
   42G       N9 1311   3.283   4.237   5.099
   42G       C8 1312   3.330   4.110   5.076
   42G       H8 1313   3.266   4.027   5.048
   42G       N7 1314   3.458   4.097   5.092
   42G       C5 1315   3.502   4.226   5.123
   42G       C6 1316   3.633   4.280   5.149
   42G       O6 1317   3.742   4.225   5.153
   42G       N1 1318   3.632   4.416   5.172
   42G       H1 1319   3.722   4.459   5.190
   42G       C2 1320   3.520   4.492   5.171
   42G       N2 1321   3.536   4.621   5.185
   42G      H21 1322   3.630   4.658   5.193
   42G      H22 1323   3.457   4.679   5.167
   42G       N3 1324   3.397   4.448   5.149
   42G       C4 1325   3.394   4.313   5.126
   42G      C3' 1326   3.043   4.250   4.885
   42G      H3' 1327   3.117   4.186   4.837
   42G      C2' 1328   3.110   4.359   4.971
   42G     H2'1 1329   3.199   4.399   4.923
   42G      O2' 1330   3.016   4.462   4.998
   42G     HO'2 1331   2.962   4.466   4.918
   42G      O3' 1332   2.951   4.307   4.793
   43U        P 1333   2.992   4.350   4.645
   43U      O1P 1334   2.870   4.408   4.582
   43U      O2P 1335   3.062   4.239   4.579
   43U      O5' 1336   3.097   4.468   4.666
   43U      C5' 1337   3.052   4.600   4.690
   43U     H5'1 1338   2.980   4.600   4.772
   43U     H5'2 1339   3.004   4.637   4.600
   43U      C4' 1340   3.166   4.695   4.726
   43U      H4' 1341   3.122   4.792   4.748
   43U      O4' 1342   3.242   4.654   4.839
   43U      C1' 1343   3.377   4.695   4.821
   43U      H1' 1344   3.409   4.761   4.902
   43U       N1 1345   3.470   4.578   4.816
   43U       C6 1346   3.428   4.451   4.779
   43U       H6 1347   3.325   4.435   4.752
   43U       C5 1348   3.515   4.347   4.778
   43U       H5 1349   3.482   4.247   4.752
   43U       C4 1350   3.655   4.365   4.811
   43U       O4 1351   3.742   4.280   4.804
   43U       N3 1352   3.687   4.492   4.851
   43U       H3 1353   3.784   4.507   4.873
   43U       C2 1354   3.604   4.601   4.851
   43U       O2 1355   3.648   4.713   4.881
   43U      C3' 1356   3.265   4.714   4.611
   43U      H3' 1357   3.293   4.618   4.567
   43U      C2' 1358   3.382   4.774   4.690
   43U     H2'1 1359   3.476   4.759   4.638
   43U      O2' 1360   3.356   4.913   4.711
   43U     HO'2 1361   3.305   4.937   4.632
   43U      O3' 1362   3.213   4.807   4.516
   44A        P 1363   3.251   4.796   4.362
   44A      O1P 1364   3.176   4.904   4.295
   44A      O2P 1365   3.231   4.657   4.319
   44A      O5' 1366   3.407   4.834   4.364
   44A      C5' 1367   3.446   4.969   4.382
   44A     H5'1 1368   3.387   5.011   4.463
   44A     H5'2 1369   3.423   5.024   4.291
   44A      C4' 1370   3.593   4.991   4.417
   44A      H4' 1371   3.605   5.098   4.433
   44A      O4' 1372   3.634   4.925   4.537
   44A      C1' 1373   3.772   4.891   4.526
   44A      H1' 1374   3.830   4.933   4.609
   44A       N9 1375   3.791   4.743   4.529
   44A       C8 1376   3.697   4.644   4.516
   44A       H8 1377   3.594   4.663   4.491
   44A       N7 1378   3.743   4.524   4.538
   44A       C5 1379   3.879   4.545   4.562
   44A       C6 1380   3.990   4.461   4.589
   44A       N6 1381   3.982   4.330   4.603
   44A      H61 1382   3.891   4.286   4.610
   44A      H62 1383   4.064   4.274   4.625
   44A       N1 1384   4.112   4.512   4.604
   44A       C2 1385   4.125   4.644   4.597
   44A       H2 1386   4.226   4.681   4.612
   44A       N3 1387   4.032   4.736   4.574
   44A       C4 1388   3.909   4.678   4.556
   44A      C3' 1389   3.693   4.952   4.309
   44A      H3' 1390   3.670   4.852   4.272
   44A      C2' 1391   3.820   4.951   4.394
   44A     H2'1 1392   3.898   4.890   4.349
   44A      O2' 1393   3.866   5.084   4.417
   44A     HO'2 1394   3.879   5.121   4.330
   44A      O3' 1395   3.695   5.050   4.205
   45G        P 1396   3.726   5.007   4.054
   45G      O1P 1397   3.712   5.125   3.966
   45G      O2P 1398   3.648   4.886   4.024
   45G      O5' 1399   3.883   4.973   4.068
   45G      C5' 1400   3.977   5.078   4.086
   45G     H5'1 1401   3.942   5.145   4.165
   45G     H5'2 1402   3.982   5.136   3.994
   45G      C4' 1403   4.119   5.033   4.123
   45G      H4' 1404   4.178   5.124   4.131
   45G      O4' 1405   4.130   4.968   4.249
   45G      C1' 1406   4.225   4.862   4.237
   45G      H1' 1407   4.299   4.863   4.318
   45G       N9 1408   4.162   4.729   4.242
   45G       C8 1409   4.031   4.693   4.221
   45G       H8 1410   3.955   4.763   4.190
   45G       N7 1411   4.007   4.567   4.241
   45G       C5 1412   4.132   4.513   4.273
   45G       C6 1413   4.173   4.379   4.301
   45G       O6 1414   4.107   4.276   4.303
   45G       N1 1415   4.308   4.367   4.326
   45G       H1 1416   4.343   4.275   4.345
   45G       C2 1417   4.394   4.472   4.324
   45G       N2 1418   4.521   4.445   4.341
   45G      H21 1419   4.551   4.348   4.352
   45G      H22 1420   4.584   4.522   4.334
   45G       N3 1421   4.361   4.598   4.299
   45G       C4 1422   4.227   4.612   4.274
   45G      C3' 1423   4.189   4.948   4.018
   45G      H3' 1424   4.120   4.874   3.977
   45G      C2' 1425   4.298   4.881   4.104
   45G     H2'1 1426   4.327   4.784   4.061
   45G      O2' 1427   4.412   4.963   4.128
   45G     HO'2 1428   4.488   4.911   4.099
   45G      O3' 1429   4.246   5.031   3.918
   46A        P 1430   4.286   4.973   3.775
   46A      O1P 1431   4.364   5.082   3.713
   46A      O2P 1432   4.163   4.925   3.708
   46A      O5' 1433   4.386   4.851   3.799
   46A      C5' 1434   4.525   4.876   3.807
   46A     H5'1 1435   4.543   4.949   3.885
   46A     H5'2 1436   4.559   4.916   3.712
   46A      C4' 1437   4.610   4.753   3.839
   46A      H4' 1438   4.713   4.786   3.852
   46A      O4' 1439   4.567   4.694   3.960
   46A      C1' 1440   4.589   4.554   3.951
   46A      H1' 1441   4.654   4.520   4.032
   46A       N9 1442   4.462   4.480   3.959
   46A       C8 1443   4.334   4.524   3.936
   46A       H8 1444   4.311   4.626   3.908
   46A       N7 1445   4.242   4.433   3.953
   46A       C5 1446   4.316   4.318   3.988
   46A       C6 1447   4.284   4.184   4.021
   46A       N6 1448   4.162   4.135   4.031
   46A      H61 1449   4.085   4.200   4.027
   46A      H62 1450   4.148   4.042   4.068
   46A       N1 1451   4.381   4.096   4.046
   46A       C2 1452   4.506   4.139   4.047
   46A       H2 1453   4.581   4.064   4.071
   46A       N3 1454   4.552   4.261   4.023
   46A       C4 1455   4.450   4.347   3.992
   46A      C3' 1456   4.611   4.646   3.730
   46A      H3' 1457   4.509   4.628   3.694
   46A      C2' 1458   4.659   4.529   3.817
   46A     H2'1 1459   4.631   4.432   3.775
   46A      O2' 1460   4.799   4.535   3.841
   46A     HO'2 1461   4.843   4.542   3.755
   46A      O3' 1462   4.701   4.678   3.623
   47G        P 1463   4.681   4.619   3.475
   47G      O1P 1464   4.789   4.669   3.388
   47G      O2P 1465   4.542   4.641   3.431
   47G      O5' 1466   4.704   4.462   3.491
   47G      C5' 1467   4.836   4.413   3.504
   47G     H5'1 1468   4.889   4.472   3.579
   47G     H5'2 1469   4.889   4.424   3.409
   47G      C4' 1470   4.844   4.267   3.547
   47G      H4' 1471   4.949   4.241   3.560
   47G      O4' 1472   4.780   4.244   3.671
   47G      C1' 1473   4.728   4.112   3.672
   47G      H1' 1474   4.766   4.054   3.757
   47G       N9 1475   4.580   4.116   3.680
   47G       C8 1476   4.494   4.220   3.652
   47G       H8 1477   4.528   4.317   3.621
   47G       N7 1478   4.367   4.189   3.663
   47G       C5 1479   4.369   4.056   3.706
   47G       C6 1480   4.263   3.962   3.737
   47G       O6 1481   4.141   3.974   3.730
   47G       N1 1482   4.309   3.837   3.772
   47G       H1 1483   4.240   3.769   3.799
   47G       C2 1484   4.440   3.803   3.773
   47G       N2 1485   4.468   3.677   3.791
   47G      H21 1486   4.394   3.609   3.810
   47G      H22 1487   4.565   3.653   3.793
   47G       N3 1488   4.541   3.883   3.742
   47G       C4 1489   4.499   4.010   3.713
   47G      C3' 1490   4.784   4.168   3.448
   47G      H3' 1491   4.686   4.202   3.416
   47G      C2' 1492   4.771   4.046   3.540
   47G     H2'1 1493   4.695   3.977   3.504
   47G      O2' 1494   4.896   3.980   3.551
   47G     HO'2 1495   4.934   3.988   3.463
   47G      O3' 1496   4.873   4.144   3.339
   48U        P 1497   4.817   4.105   3.194
   48U      O1P 1498   4.931   4.098   3.101
   48U      O2P 1499   4.701   4.191   3.165
   48U      O5' 1500   4.765   3.957   3.219
   48U      C5' 1501   4.855   3.849   3.229
   48U     H5'1 1502   4.934   3.873   3.301
   48U     H5'2 1503   4.900   3.831   3.132
   48U      C4' 1504   4.785   3.721   3.276
   48U      H4' 1505   4.861   3.643   3.287
   48U      O4' 1506   4.718   3.738   3.400
   48U      C1' 1507   4.596   3.662   3.398
   48U      H1' 1508   4.592   3.597   3.486
   48U       N1 1509   4.473   3.746   3.402
   48U       C6 1510   4.474   3.881   3.371
   48U       H6 1511   4.566   3.928   3.340
   48U       C5 1512   4.360   3.955   3.378
   48U       H5 1513   4.361   4.060   3.355
   48U       C4 1514   4.235   3.897   3.419
   48U       O4 1515   4.127   3.954   3.419
   48U       N3 1516   4.243   3.764   3.454
   48U       H3 1517   4.158   3.722   3.488
   48U       C2 1518   4.354   3.684   3.443
   48U       O2 1519   4.346   3.563   3.464
   48U      C3' 1520   4.681   3.669   3.177
   48U      H3' 1521   4.618   3.752   3.144
   48U      C2' 1522   4.603   3.577   3.271
   48U     H2'1 1523   4.503   3.556   3.232
   48U      O2' 1524   4.673   3.455   3.297
   48U     HO'2 1525   4.677   3.406   3.214
   48U      O3' 1526   4.743   3.603   3.068
   49C        P 1527   4.676   3.605   2.923
   49C      O1P 1528   4.772   3.546   2.828
   49C      O2P 1529   4.626   3.741   2.897
   49C      O5' 1530   4.550   3.508   2.939
   49C      C5' 1531   4.568   3.367   2.949
   49C     H5'1 1532   4.646   3.345   3.021
   49C     H5'2 1533   4.598   3.328   2.852
   49C      C4' 1534   4.439   3.297   2.994
   49C      H4' 1535   4.462   3.191   3.006
   49C      O4' 1536   4.393   3.345   3.120
   49C      C1' 1537   4.250   3.339   3.123
   49C      H1' 1538   4.218   3.280   3.209
   49C       N1 1539   4.188   3.475   3.133
   49C       C6 1540   4.259   3.590   3.106
   49C       H6 1541   4.361   3.584   3.072
   49C       C5 1542   4.201   3.712   3.122
   49C       H5 1543   4.256   3.802   3.102
   49C       C4 1544   4.065   3.715   3.164
   49C       N4 1545   4.006   3.830   3.180
   49C      H41 1546   4.062   3.912   3.189
   49C      H42 1547   3.912   3.832   3.218
   49C       N3 1548   3.995   3.606   3.190
   49C       C2 1549   4.055   3.485   3.177
   49C       O2 1550   3.989   3.384   3.203
   49C      C3' 1551   4.321   3.307   2.897
   49C      H3' 1552   4.311   3.410   2.863
   49C      C2' 1553   4.207   3.270   2.993
   49C     H2'1 1554   4.112   3.307   2.957
   49C      O2' 1555   4.201   3.129   3.017
   49C     HO'2 1556   4.110   3.107   3.042
   49C      O3' 1557   4.333   3.217   2.788
   50G        P 1558   4.248   3.234   2.653
   50G      O1P 1559   4.274   3.115   2.569
   50G      O2P 1560   4.276   3.368   2.598
   50G      O5' 1561   4.093   3.230   2.695
   50G      C5' 1562   4.027   3.107   2.720
   50G     H5'1 1563   4.081   3.051   2.796
   50G     H5'2 1564   4.027   3.047   2.628
   50G      C4' 1565   3.882   3.126   2.765
   50G      H4' 1566   3.837   3.028   2.778
   50G      O4' 1567   3.873   3.195   2.889
   50G      C1' 1568   3.753   3.272   2.889
   50G      H1' 1569   3.685   3.244   2.971
   50G       N9 1570   3.785   3.417   2.901
   50G       C8 1571   3.898   3.485   2.862
   50G       H8 1572   3.986   3.434   2.825
   50G       N7 1573   3.887   3.615   2.870
   50G       C5 1574   3.758   3.635   2.919
   50G       C6 1575   3.682   3.755   2.944
   50G       O6 1576   3.712   3.873   2.929
   50G       N1 1577   3.553   3.729   2.989
   50G       H1 1578   3.498   3.809   3.017
   50G       C2 1579   3.502   3.605   3.005
   50G       N2 1580   3.379   3.597   3.048
   50G      H21 1581   3.326   3.682   3.066
   50G      H22 1582   3.349   3.505   3.075
   50G       N3 1583   3.567   3.492   2.981
   50G       C4 1584   3.695   3.514   2.939
   50G      C3' 1585   3.796   3.207   2.667
   50G      H3' 1586   3.850   3.297   2.638
   50G      C2' 1587   3.680   3.249   2.756
   50G     H2'1 1588   3.634   3.341   2.720
   50G      O2' 1589   3.583   3.146   2.769
   50G     HO'2 1590   3.529   3.150   2.689
   50G      O3' 1591   3.753   3.136   2.551
   50G      H3T 1592   3.810   3.168   2.478
   51SOL     OW 1593   0.266   0.639   0.065
   51SOL    HW1 1594   0.211   0.660   0.141
   51SOL    HW2 1595   0.217   0.570   0.019
   52SOL     OW 1596   0.239   0.285   0.977
   52SOL    HW1 1597   0.270   0.219   1.040
   52SOL    HW2 1598   0.147   0.263   0.963
   53SOL     OW 1599   8.008   0.389   0.594
   53SOL    HW1 1600   7.919   0.365   0.618
   53SOL    HW2 1601   8.028   0.334   0.518
   54SOL     OW 1602   0.571   1.298   1.190
   54SOL    HW1 1603   0.485   1.306   1.148
   54SOL    HW2 1604   0.590   1.385   1.223
   55SOL     OW 1605   1.570   1.521   0.716
   55SOL    HW1 1606   1.528   1.497   0.799
   55SOL    HW2 1607   1.499   1.523   0.653
   56SOL     OW 1608   1.137   0.698   0.693
   56SOL    HW1 1609   1.182   0.782   0.684
   56SOL    HW2 1610   1.086   0.706   0.774
   57SOL     OW 1611   1.747   0.626   0.273
   57SOL    HW1 1612   1.733   0.619   0.178
   57SOL    HW2 1613   1.718   0.542   0.308
   58SOL     OW 1614   0.736   1.132   1.048
   58SOL    HW1 1615   0.673   1.172   1.108
   58SOL    HW2 1616   0.780   1.206   1.007
   59SOL     OW 1617   0.874   0.758   1.818
   59SOL    HW1 1618   0.846   0.834   1.870
   59SOL    HW2 1619   0.902   0.796   1.735
   60SOL     OW 1620   0.688   0.996   0.646
   60SOL    HW1 1621   0.755   0.990   0.714
   60SOL    HW2 1622   0.621   1.053   0.684
   61SOL     OW 1623   0.714   1.151   1.827
   61SOL    HW1 1624   0.764   1.228   1.856
   61SOL    HW2 1625   0.638   1.188   1.783
   62SOL     OW 1626   0.342   1.411   1.065
   62SOL    HW1 1627   0.279   1.367   1.008
   62SOL    HW2 1628   0.389   1.472   1.007
   63SOL     OW 1629   1.459   1.506   1.366
   63SOL    HW1 1630   1.513   1.584   1.377
   63SOL    HW2 1631   1.387   1.517   1.427
   64SOL     OW 1632   0.447   0.382   1.489
   64SOL    HW1 1633   0.534   0.344   1.480
   64SOL    HW2 1634   0.397   0.315   1.535
   65SOL     OW 1635   1.606   0.454   0.731
   65SOL    HW1 1636   1.539   0.475   0.666
   65SOL    HW2 1637   1.598   0.522   0.798
   66SOL     OW 1638   0.236   1.703   0.485
   66SOL    HW1 1639   0.239   1.782   0.538
   66SOL    HW2 1640   0.309   1.712   0.424
   67SOL     OW 1641   1.137   1.339   1.690
   67SOL    HW1 1642   1.181   1.334   1.775
   67SOL    HW2 1643   1.086   1.258   1.685
   68SOL     OW 1644   0.286   1.437   0.518
   68SOL    HW1 1645   0.260   1.529   0.525
   68SOL    HW2 1646   0.235   1.392   0.585
   69SOL     OW 1647   0.277   1.082   0.893
   69SOL    HW1 1648   0.280   0.990   0.918
   69SOL    HW2 1649   0.202   1.118   0.941
   70SOL     OW 1650   0.633   1.771   1.441
   70SOL    HW1 1651   0.546   1.768   1.481
   70SOL    HW2 1652   0.641   1.860   1.406
   71SOL     OW 1653   0.582   0.980   0.157
   71SOL    HW1 1654   0.644   1.002   0.088
   71SOL    HW2 1655   0.618   1.021   0.236
   72SOL     OW 1656   1.656   0.122   1.490
   72SOL    HW1 1657   1.603   0.152   1.416
   72SOL    HW2 1658   1.610   0.154   1.567
   73SOL     OW 1659   0.140   0.638   0.546
   73SOL    HW1 1660   0.104   0.551   0.565
   73SOL    HW2 1661   0.120   0.690   0.625
   74SOL     OW 1662   1.860   1.736   0.309
   74SOL    HW1 1663   1.924   1.712   0.376
   74SOL    HW2 1664   1.870   1.830   0.298
   75SOL     OW 1665   0.045   1.551   0.105
   75SOL    HW1 1666   0.026   1.486   0.172
   75SOL    HW2 1667   0.059   1.632   0.153
   76SOL     OW 1668   1.680   0.936   0.650
   76SOL    HW1 1669   1.746   0.889   0.599
   76SOL    HW2 1670   1.644   1.000   0.589
   77SOL     OW 1671   1.634   1.119   0.435
   77SOL    HW1 1672   1.719   1.116   0.392
   77SOL    HW2 1673   1.645   1.182   0.506
   78SOL     OW 1674   0.147   0.765   1.579
   78SOL    HW1 1675   0.243   0.765   1.575
   78SOL    HW2 1676   0.125   0.845   1.627
   79SOL     OW 1677   0.621   1.394   0.735
   79SOL    HW1 1678   0.577   1.310   0.745
   79SOL    HW2 1679   0.606   1.419   0.644
   80SOL     OW 1680   1.283   1.232   1.417
   80SOL    HW1 1681   1.314   1.164   1.357
   80SOL    HW2 1682   1.343   1.227   1.492
   81SOL     OW 1683   0.839   0.035   0.582
   81SOL    HW1 1684   0.872   0.114   0.539
   81SOL    HW2 1685   0.745   0.034   0.562
   82SOL     OW 1686   0.169   0.914   1.265
   82SOL    HW1 1687   0.262   0.891   1.266
   82SOL    HW2 1688   0.144   0.910   1.173
   83SOL     OW 1689   1.497   1.008   0.225
   83SOL    HW1 1690   1.431   0.951   0.263
   83SOL    HW2 1691   1.546   1.043   0.300
   84SOL     OW 1692   1.186   1.823   1.632
   84SOL    HW1 1693   1.186   1.888   1.562
   84SOL    HW2 1694   1.207   1.740   1.589
   85SOL     OW 1695   0.328   0.259   1.765
   85SOL    HW1 1696   0.387   0.310   1.820
   85SOL    HW2 1697   0.244   0.261   1.811
   86SOL     OW 1698   1.472   1.415   0.951
   86SOL    HW1 1699   1.404   1.433   1.017
   86SOL    HW2 1700   1.455   1.324   0.924
   87SOL     OW 1701   1.657   1.759   0.583
   87SOL    HW1 1702   1.630   1.722   0.499
   87SOL    HW2 1703   1.636   1.691   0.647
   88SOL     OW 1704   0.596   0.722   0.278
   88SOL    HW1 1705   0.601   0.813   0.247
   88SOL    HW2 1706   0.532   0.725   0.350
   89SOL     OW 1707   1.297   0.376   0.933
   89SOL    HW1 1708   1.206   0.347   0.936
   89SOL    HW2 1709   1.343   0.320   0.995
   90SOL     OW 1710   1.591   1.677   0.326
   90SOL    HW1 1711   1.687   1.685   0.320
   90SOL    HW2 1712   1.560   1.701   0.239
   91SOL     OW 1713   0.769   0.643   1.445
   91SOL    HW1 1714   0.759   0.606   1.533
   91SOL    HW2 1715   0.760   0.568   1.387
   92SOL     OW 1716   1.408   0.487   1.670
   92SOL    HW1 1717   1.416   0.536   1.752
   92SOL    HW2 1718   1.471   0.415   1.679
   93SOL     OW 1719   0.950   0.881   1.584
   93SOL    HW1 1720   0.999   0.810   1.543
   93SOL    HW2 1721   0.902   0.922   1.512
   94SOL     OW 1722   1.006   0.412   1.211
   94SOL    HW1 1723   0.919   0.432   1.245
   94SOL    HW2 1724   0.989   0.369   1.127
   95SOL     OW 1725   1.056   0.704   0.427
   95SOL    HW1 1726   1.072   0.697   0.521
   95SOL    HW2 1727   0.971   0.660   0.414
   96SOL     OW 1728   0.098   0.786   0.774
   96SOL    HW1 1729   0.178   0.797   0.826
   96SOL    HW2 1730   0.046   0.864   0.794
   97SOL     OW 1731   0.141   1.830   1.575
   97SOL    HW1 1732   0.134   1.811   1.668
   97SOL    HW2 1733   0.052   1.818   1.542
   98SOL     OW 1734   0.897   0.365   0.208
   98SOL    HW1 1735   0.920   0.442   0.157
   98SOL    HW2 1736   0.864   0.302   0.144
   99SOL     OW 1737   1.686   0.567   1.833
   99SOL    HW1 1738   1.662   0.646   1.786
   99SOL    HW2 1739   1.722   0.509   1.767
  100SOL     OW 1740   1.376   1.144   0.540
  100SOL    HW1 1741   1.458   1.140   0.490
  100SOL    HW2 1742   1.322   1.207   0.493
  101SOL     OW 1743   0.568   0.202   0.934
  101SOL    HW1 1744   0.531   0.271   0.989
  101SOL    HW2 1745   0.583   0.245   0.850
  102SOL     OW 1746   0.989   1.438   0.469
  102SOL    HW1 1747   0.956   1.516   0.426
  102SOL    HW2 1748   0.969   1.451   0.562
  103SOL     OW 1749   0.350   1.826   0.881
  103SOL    HW1 1750   0.405   1.749   0.889
  103SOL    HW2 1751   0.410   1.900   0.888
  104SOL     OW 1752   1.804   1.044   0.875
  104SOL    HW1 1753   1.750   1.022   0.799
  104SOL    HW2 1754   1.741   1.055   0.946
  105SOL     OW 1755   1.224   1.546   1.510
  105SOL    HW1 1756   1.209   1.469   1.565
  105SOL    HW2 1757   1.138   1.563   1.471
  106SOL     OW 1758   0.324   0.960   0.253
  106SOL    HW1 1759   0.408   0.988   0.216
  106SOL    HW2 1760   0.301   0.881   0.204
  107SOL     OW 1761   1.481   0.756   0.720
  107SOL    HW1 1762   1.477   0.716   0.807
  107SOL    HW2 1763   1.557   0.814   0.724
  108SOL     OW 1764   0.466   1.266   1.743
  108SOL    HW1 1765   0.443   1.271   1.650
  108SOL    HW2 1766   0.382   1.254   1.788
  109SOL     OW 1767   1.084   1.787   0.232
  109SOL    HW1 1768   1.042   1.743   0.306
  109SOL    HW2 1769   1.148   1.724   0.199
  110SOL     OW 1770   0.156   0.278   1.498
  110SOL    HW1 1771   0.144   0.372   1.485
  110SOL    HW2 1772   0.177   0.269   1.591
  111SOL     OW 1773   1.657   1.412   0.053
  111SOL    HW1 1774   1.588   1.476   0.037
  111SOL    HW2 1775   1.609   1.330   0.069
  112SOL     OW 1776   0.453   1.741   0.320
  112SOL    HW1 1777   0.499   1.797   0.382
  112SOL    HW2 1778   0.522   1.701   0.267
  113SOL     OW 1779   1.415   0.120   0.427
  113SOL    HW1 1780   1.408   0.079   0.341
  113SOL    HW2 1781   1.509   0.124   0.445
  114SOL     OW 1782   0.240   1.761   1.237
  114SOL    HW1 1783   0.296   1.696   1.278
  114SOL    HW2 1784   0.274   1.769   1.148
  115SOL     OW 1785   0.939   1.703   0.900
  115SOL    HW1 1786   1.013   1.654   0.936
  115SOL    HW2 1787   0.906   1.647   0.830
  116SOL     OW 1788   0.408   0.686   0.477
  116SOL    HW1 1789   0.435   0.594   0.486
  116SOL    HW2 1790   0.316   0.686   0.503
  117SOL     OW 1791   1.539   0.224   1.721
  117SOL    HW1 1792   1.554   0.242   1.814
  117SOL    HW2 1793   1.464   0.165   1.721
  118SOL     OW 1794   0.600   0.085   0.095
  118SOL    HW1 1795   0.672   0.074   0.157
  118SOL    HW2 1796   0.617   0.018   0.028
  119SOL     OW 1797   0.753   0.287   1.778
  119SOL    HW1 1798   0.791   0.200   1.766
  119SOL    HW2 1799   0.686   0.275   1.846
  120SOL     OW 1800   0.877   1.517   1.188
  120SOL    HW1 1801   0.857   1.476   1.104
  120SOL    HW2 1802   0.946   1.463   1.226
  121SOL     OW 1803   1.337   0.597   1.429
  121SOL    HW1 1804   1.375   0.567   1.512
  121SOL    HW2 1805   1.373   0.685   1.417
  122SOL     OW 1806   0.823   1.378   0.948
  122SOL    HW1 1807   0.909   1.372   0.906
  122SOL    HW2 1808   0.762   1.393   0.876
  123SOL     OW 1809   0.929   0.522   0.893
  123SOL    HW1 1810   0.902   0.514   0.802
  123SOL    HW2 1811   0.964   0.436   0.916
  124SOL     OW 1812   0.591   0.033   0.444
  124SOL    HW1 1813   0.515  -0.014   0.478
  124SOL    HW2 1814   0.556   0.118   0.416
  125SOL     OW 1815   1.461   1.221   0.058
  125SOL    HW1 1816   1.474   1.140   0.107
  125SOL    HW2 1817   1.370   1.245   0.074
  126SOL     OW 1818   0.301   0.053   0.207
  126SOL    HW1 1819   0.386   0.089   0.180
  126SOL    HW2 1820   0.322  -0.003   0.282
  127SOL     OW 1821   0.949   0.258   0.464
  127SOL    HW1 1822   0.920   0.285   0.377
  127SOL    HW2 1823   1.043   0.275   0.464
  128SOL     OW 1824   1.074   0.669   1.461
  128SOL    HW1 1825   1.022   0.590   1.473
  128SOL    HW2 1826   1.164   0.638   1.451
  129SOL     OW 1827   1.229   1.567   0.790
  129SOL    HW1 1828   1.234   1.636   0.724
  129SOL    HW2 1829   1.278   1.601   0.864
  130SOL     OW 1830   0.478   1.157   0.724
  130SOL    HW1 1831   0.414   1.134   0.792
  130SOL    HW2 1832   0.431   1.142   0.641
  131SOL     OW 1833   1.256   1.787   0.610
  131SOL    HW1 1834   1.306   1.855   0.564
  131SOL    HW2 1835   1.185   1.835   0.654
  132SOL     OW 1836   1.014   0.595   0.094
  132SOL    HW1 1837   1.052   0.583   0.008
  132SOL    HW2 1838   1.085   0.578   0.155
  133SOL     OW 1839   0.115   0.558   1.399
  133SOL    HW1 1840   0.204   0.561   1.364
  133SOL    HW2 1841   0.109   0.634   1.456
  134SOL     OW 1842   0.550   0.252   1.223
  134SOL    HW1 1843   0.594   0.189   1.280
  134SOL    HW2 1844   0.457   0.233   1.232
  135SOL     OW 1845   0.872   0.474   0.633
  135SOL    HW1 1846   0.833   0.524   0.562
  135SOL    HW2 1847   0.882   0.385   0.598
  136SOL     OW 1848   0.987   0.031   0.804
  136SOL    HW1 1849   0.936   0.034   0.723
  136SOL    HW2 1850   1.005  -0.062   0.817
  137SOL     OW 1851   1.440   1.155   0.861
  137SOL    HW1 1852   1.366   1.094   0.866
  137SOL    HW2 1853   1.457   1.165   0.767
  138SOL     OW 1854   1.465   0.610   0.956
  138SOL    HW1 1855   1.407   0.533   0.961
  138SOL    HW2 1856   1.520   0.602   1.034
  139SOL     OW 1857   1.830   0.829   0.434
  139SOL    HW1 1858   1.887   0.771   0.484
  139SOL    HW2 1859   1.791   0.773   0.367
  140SOL     OW 1860   0.496   1.387   0.143
  140SOL    HW1 1861   0.429   1.352   0.202
  140SOL    HW2 1862   0.447   1.417   0.066
  141SOL     OW 1863   1.675   1.272   0.646
  141SOL    HW1 1864   1.769   1.269   0.664
  141SOL    HW2 1865   1.649   1.360   0.673
  142SOL     OW 1866   1.398   0.551   0.080
  142SOL    HW1 1867   1.345   0.552   0.160
  142SOL    HW2 1868   1.453   0.473   0.089
  143SOL     OW 1869   0.510   0.256   0.297
  143SOL    HW1 1870   0.549   0.210   0.223
  143SOL    HW2 1871   0.492   0.344   0.264
  144SOL     OW 1872   1.744   1.243   1.550
  144SOL    HW1 1873   1.832   1.207   1.539
  144SOL    HW2 1874   1.759   1.332   1.583
  145SOL     OW 1875   1.052   1.340   1.316
  145SOL    HW1 1876   0.976   1.318   1.370
  145SOL    HW2 1877   1.127   1.308   1.367
  146SOL     OW 1878   1.609   1.628   1.661
  146SOL    HW1 1879   1.600   1.664   1.573
  146SOL    HW2 1880   1.690   1.577   1.658
  147SOL     OW 1881   1.130   1.199   1.093
  147SOL    HW1 1882   1.082   1.244   1.162
  147SOL    HW2 1883   1.108   1.246   1.013
  148SOL     OW 1884   1.623   1.097   1.075
  148SOL    HW1 1885   1.615   1.161   1.146
  148SOL    HW2 1886   1.549   1.116   1.017
  149SOL     OW 1887   0.925   0.124   1.409
  149SOL    HW1 1888   0.934   0.108   1.315
  149SOL    HW2 1889   1.014   0.123   1.443
  150SOL     OW 1890   0.985   1.108   1.732
  150SOL    HW1 1891   0.893   1.129   1.750
  150SOL    HW2 1892   0.982   1.032   1.674
  151SOL     OW 1893   0.715   1.066   0.379
  151SOL    HW1 1894   0.700   1.045   0.472
  151SOL    HW2 1895   0.792   1.015   0.355
  152SOL     OW 1896   0.428   0.823   1.253
  152SOL    HW1 1897   0.490   0.842   1.322
  152SOL    HW2 1898   0.405   0.730   1.265
  153SOL     OW 1899   1.265   0.378   1.283
  153SOL    HW1 1900   1.295   0.460   1.323
  153SOL    HW2 1901   1.177   0.398   1.252
  154SOL     OW 1902   0.033   1.596   1.331
  154SOL    HW1 1903   0.098   1.659   1.299
  154SOL    HW2 1904   0.070   1.563   1.413
  155SOL     OW 1905   0.337   1.116   0.489
  155SOL    HW1 1906   0.328   1.196   0.437
  155SOL    HW2 1907   0.346   1.046   0.424
  156SOL     OW 1908   0.547   0.537   0.861
  156SOL    HW1 1909   0.563   0.595   0.787
  156SOL    HW2 1910   0.618   0.557   0.923
  157SOL     OW 1911   1.241   1.351   0.397
  157SOL    HW1 1912   1.297   1.421   0.431
  157SOL    HW2 1913   1.154   1.371   0.431
  158SOL     OW 1914   1.294   1.461   1.154
  158SOL    HW1 1915   1.352   1.472   1.230
  158SOL    HW2 1916   1.228   1.399   1.183
  159SOL     OW 1917   1.546   0.613   0.491
  159SOL    HW1 1918   1.508   0.664   0.563
  159SOL    HW2 1919   1.578   0.679   0.429
  160SOL     OW 1920   0.355   1.516   1.317
  160SOL    HW1 1921   0.337   1.476   1.231
  160SOL    HW2 1922   0.449   1.531   1.317
  161SOL     OW 1923   0.426   0.731   1.611
  161SOL    HW1 1924   0.480   0.785   1.554
  161SOL    HW2 1925   0.485   0.660   1.639
  162SOL     OW 1926   1.611   0.785   1.693
  162SOL    HW1 1927   1.525   0.826   1.685
  162SOL    HW2 1928   1.664   0.824   1.624
  163SOL     OW 1929   1.048   0.072   1.747
  163SOL    HW1 1930   1.063   0.164   1.725
  163SOL    HW2 1931   0.954   0.060   1.734
  164SOL     OW 1932   0.506   0.034   1.729
  164SOL    HW1 1933   0.483  -0.031   1.663
  164SOL    HW2 1934   0.427   0.089   1.736
  165SOL     OW 1935   0.590   0.877   1.032
  165SOL    HW1 1936   0.627   0.965   1.035
  165SOL    HW2 1937   0.534   0.872   1.110
  166SOL     OW 1938   1.335   0.855   1.012
  166SOL    HW1 1939   1.245   0.836   0.985
  166SOL    HW2 1940   1.381   0.772   1.000
  167SOL     OW 1941   1.210   0.532   0.279
  167SOL    HW1 1942   1.223   0.455   0.335
  167SOL    HW2 1943   1.165   0.595   0.335
  168SOL     OW 1944   0.284   0.202   1.262
  168SOL    HW1 1945   0.245   0.235   1.343
  168SOL    HW2 1946   0.215   0.147   1.223
  169SOL     OW 1947   0.041   1.311   1.268
  169SOL    HW1 1948   0.070   1.259   1.343
  169SOL    HW2 1949   0.051   1.402   1.297
  170SOL     OW 1950   0.721   0.630   1.052
  170SOL    HW1 1951   0.798   0.618   0.996
  170SOL    HW2 1952   0.692   0.719   1.035
  171SOL     OW 1953   1.744   0.960   1.864
  171SOL    HW1 1954   1.699   0.895   1.812
  171SOL    HW2 1955   1.683   0.982   1.934
  172SOL     OW 1956   0.397   0.096   0.665
  172SOL    HW1 1957   0.342   0.172   0.683
  172SOL    HW2 1958   0.338   0.032   0.624
  173SOL     OW 1959   1.632   0.384   0.365
  173SOL    HW1 1960   1.644   0.309   0.424
  173SOL    HW2 1961   1.589   0.450   0.420
  174SOL     OW 1962   1.036   0.763   0.962
  174SOL    HW1 1963   1.021   0.777   1.056
  174SOL    HW2 1964   1.004   0.674   0.946
  175SOL     OW 1965   0.983   1.563   1.727
  175SOL    HW1 1966   0.965   1.609   1.645
  175SOL    HW2 1967   1.026   1.482   1.700
  176SOL     OW 1968   1.847   1.497   1.603
  176SOL    HW1 1969   1.871   1.527   1.515
  176SOL    HW2 1970   1.926   1.510   1.655
  177SOL     OW 1971   0.362   0.947   1.790
  177SOL    HW1 1972   0.438   0.963   1.845
  177SOL    HW2 1973   0.380   0.864   1.747
  178SOL     OW 1974   1.498   0.301   0.138
  178SOL    HW1 1975   1.470   0.211   0.153
  178SOL    HW2 1976   1.551   0.323   0.215
  179SOL     OW 1977   1.287   0.804   0.049
  179SOL    HW1 1978   1.342   0.725   0.045
  179SOL    HW2 1979   1.335   0.868  -0.004
  180SOL     OW 1980   1.075   1.343   0.857
  180SOL    HW1 1981   1.082   1.272   0.793
  180SOL    HW2 1982   1.134   1.411   0.822
  181SOL     OW 1983   0.321   0.807   0.940
  181SOL    HW1 1984   0.415   0.827   0.940
  181SOL    HW2 1985   0.315   0.719   0.976
  182SOL     OW 1986   0.333   0.531   1.018
  182SOL    HW1 1987   0.297   0.444   1.001
  182SOL    HW2 1988   0.409   0.537   0.960
  183SOL     OW 1989   1.164   0.361   1.715
  183SOL    HW1 1990   1.097   0.420   1.749
  183SOL    HW2 1991   1.238   0.418   1.692
  184SOL     OW 1992   1.177   0.213   1.481
  184SOL    HW1 1993   1.173   0.269   1.559
  184SOL    HW2 1994   1.206   0.272   1.411
  185SOL     OW 1995   7.989   1.292   0.195
  185SOL    HW1 1996   7.903   1.316   0.230
  185SOL    HW2 1997   8.003   1.202   0.225
  186SOL     OW 1998   0.082   1.736   0.898
  186SOL    HW1 1999   0.113   1.661   0.846
  186SOL    HW2 2000   0.158   1.792   0.908
  187SOL     OW 2001   0.490   1.576   0.904
  187SOL    HW1 2002   0.556   1.639   0.932
  187SOL    HW2 2003   0.537   1.517   0.845
  188SOL     OW 2004   0.967   0.780   1.227
  188SOL    HW1 2005   1.026   0.756   1.299
  188SOL    HW2 2006   0.881   0.751   1.256
  189SOL     OW 2007   0.074   0.551   1.124
  189SOL    HW1 2008   0.168   0.550   1.103
  189SOL    HW2 2009   0.071   0.547   1.219
  190SOL     OW 2010   0.194   0.524   1.704
  190SOL    HW1 2011   0.281   0.511   1.665
  190SOL    HW2 2012   0.163   0.607   1.666
  191SOL     OW 2013   1.382   0.928   1.655
  191SOL    HW1 2014   1.403   1.022   1.652
  191SOL    HW2 2015   1.377   0.902   1.563
  192SOL     OW 2016   0.816   0.579   0.378
  192SOL    HW1 2017   0.824   0.501   0.322
  192SOL    HW2 2018   0.742   0.627   0.342
  193SOL     OW 2019   1.639   0.605   1.168
  193SOL    HW1 2020   1.631   0.553   1.248
  193SOL    HW2 2021   1.728   0.588   1.138
  194SOL     OW 2022   0.290   1.533   1.721
  194SOL    HW1 2023   0.252   1.606   1.770
  194SOL    HW2 2024   0.280   1.458   1.778
  195SOL     OW 2025   0.734   0.452   1.257
  195SOL    HW1 2026   0.668   0.384   1.245
  195SOL    HW2 2027   0.719   0.513   1.184
  196SOL     OW 2028   0.946   1.667   1.466
  196SOL    HW1 2029   0.898   1.633   1.391
  196SOL    HW2 2030   0.934   1.762   1.461
  197SOL     OW 2031   0.472   0.496   0.186
  197SOL    HW1 2032   0.528   0.569   0.213
  197SOL    HW2 2033   0.399   0.538   0.141
  198SOL     OW 2034   0.152   1.123   1.450
  198SOL    HW1 2035   0.132   1.079   1.532
  198SOL    HW2 2036   0.157   1.053   1.385
  199SOL     OW 2037   1.318   1.039   1.212
  199SOL    HW1 2038   1.337   0.976   1.143
  199SOL    HW2 2039   1.251   1.096   1.175
  200SOL     OW 2040   1.298   0.847   0.324
  200SOL    HW1 2041   1.224   0.813   0.375
  200SOL    HW2 2042   1.282   0.817   0.235
  201SOL     OW 2043   1.777   1.735   1.157
  201SOL    HW1 2044   1.839   1.760   1.088
  201SOL    HW2 2045   1.752   1.645   1.135
  202SOL     OW 2046   1.233   1.722   1.079
  202SOL    HW1 2047   1.319   1.754   1.051
  202SOL    HW2 2048   1.251   1.634   1.114
  203SOL     OW 2049   0.060   1.186   1.031
  203SOL    HW1 2050   0.057   1.231   1.115
  203SOL    HW2 2051  -0.007   1.230   0.978
  204SOL     OW 2052   0.676   1.677   1.739
  204SOL    HW1 2053   0.608   1.744   1.745
  204SOL    HW2 2054   0.726   1.701   1.661
  205SOL     OW 2055   0.931   0.111   0.044
  205SOL    HW1 2056   1.018   0.132   0.079
  205SOL    HW2 2057   0.883   0.078   0.120
  206SOL     OW 2058   1.687   0.131   0.502
  206SOL    HW1 2059   1.782   0.126   0.511
  206SOL    HW2 2060   1.652   0.084   0.578
  207SOL     OW 2061   1.391   1.568   0.493
  207SOL    HW1 2062   1.453   1.605   0.430
  207SOL    HW2 2063   1.341   1.644   0.525
  208SOL     OW 2064   0.168   1.741   1.845
  208SOL    HW1 2065   0.103   1.694   1.898
  208SOL    HW2 2066   0.213   1.799   1.907
  209SOL     OW 2067   1.275   0.930   0.669
  209SOL    HW1 2068   1.350   0.872   0.682
  209SOL    HW2 2069   1.309   1.001   0.615
  210SOL     OW 2070   0.800   1.284   1.425
  210SOL    HW1 2071   0.774   1.324   1.507
  210SOL    HW2 2072   0.730   1.306   1.364
  211SOL     OW 2073   0.658   1.605   0.189
  211SOL    HW1 2074   0.716   1.616   0.114
  211SOL    HW2 2075   0.612   1.522   0.172
  212SOL     OW 2076   1.618   1.730   1.394
  212SOL    HW1 2077   1.672   1.735   1.315
  212SOL    HW2 2078   1.604   1.822   1.418
  213SOL     OW 2079   1.869   0.154   0.922
  213SOL    HW1 2080   1.861   0.078   0.980
  213SOL    HW2 2081   1.779   0.179   0.902
  214SOL     OW 2082   0.266   0.341   0.706
  214SOL    HW1 2083   0.176   0.350   0.676
  214SOL    HW2 2084   0.259   0.328   0.801
  215SOL     OW 2085   1.199   1.595   0.071
  215SOL    HW1 2086   1.196   1.502   0.092
  215SOL    HW2 2087   1.120   1.610   0.019
  216SOL     OW 2088   0.825   1.015   1.378
  216SOL    HW1 2089   0.864   1.009   1.292
  216SOL    HW2 2090   0.818   1.109   1.396
  217SOL     OW 2091   0.926   0.924   0.291
  217SOL    HW1 2092   0.987   0.944   0.221
  217SOL    HW2 2093   0.966   0.850   0.338
  218SOL     OW 2094   1.458   1.582  -0.003
  218SOL    HW1 2095   1.372   1.603   0.033
  218SOL    HW2 2096   1.510   1.661   0.011
  219SOL     OW 2097   0.368   1.296   1.494
  219SOL    HW1 2098   0.356   1.375   1.441
  219SOL    HW2 2099   0.293   1.241   1.471
  220SOL     OW 2100   1.608   1.288   1.280
  220SOL    HW1 2101   1.663   1.268   1.356
  220SOL    HW2 2102   1.547   1.355   1.311
  221SOL     OW 2103   1.066   1.114   0.711
  221SOL    HW1 2104   0.993   1.066   0.750
  221SOL    HW2 2105   1.130   1.046   0.689
  222SOL     OW 2106   1.041   0.266   0.951
  222SOL    HW1 2107   1.021   0.209   0.876
  222SOL    HW2 2108   1.046   0.206   1.025
  223SOL     OW 2109   0.605   1.482   0.479
  223SOL    HW1 2110   0.641   1.444   0.399
  223SOL    HW2 2111   0.519   1.516   0.453
  224SOL     OW 2112   1.722   0.429   1.381
  224SOL    HW1 2113   1.798   0.487   1.388
  224SOL    HW2 2114   1.751   0.357   1.326
  225SOL     OW 2115   0.264   1.318   0.280
  225SOL    HW1 2116   0.173   1.320   0.253
  225SOL    HW2 2117   0.267   1.371   0.359
  226SOL     OW 2118   0.102   1.001   1.707
  226SOL    HW1 2119   0.065   1.085   1.733
  226SOL    HW2 2120   0.187   0.997   1.752
  227SOL     OW 2121   0.685   0.235   1.499
  227SOL    HW1 2122   0.756   0.178   1.469
  227SOL    HW2 2123   0.697   0.241   1.594
  228SOL     OW 2124   0.099   0.350  12.481
  228SOL    HW1 2125   0.034   0.281  12.475
  228SOL    HW2 2126   0.062   0.413  12.543
  229SOL     OW 2127   1.422   0.859   1.393
  229SOL    HW1 2128   1.372   0.920   1.338
  229SOL    HW2 2129   1.511   0.863   1.358
  230SOL     OW 2130   0.128   0.268   0.350
  230SOL    HW1 2131   0.045   0.263   0.303
  230SOL    HW2 2132   0.185   0.205   0.306
  231SOL     OW 2133   1.189   1.325   0.124
  231SOL    HW1 2134   1.094   1.320   0.116
  231SOL    HW2 2135   1.206   1.322   0.219
  232SOL     OW 2136   0.611   0.854   1.447
  232SOL    HW1 2137   0.670   0.928   1.431
  232SOL    HW2 2138   0.669   0.777   1.448
  233SOL     OW 2139   1.485   1.788   0.981
  233SOL    HW1 2140   1.502   1.867   0.929
  233SOL    HW2 2141   1.569   1.770   1.024
  234SOL     OW 2142   0.710   0.559   1.700
  234SOL    HW1 2143   0.759   0.619   1.756
  234SOL    HW2 2144   0.732   0.472   1.732
  235SOL     OW 2145   1.474   1.188   1.625
  235SOL    HW1 2146   1.462   1.207   1.718
  235SOL    HW2 2147   1.565   1.212   1.607
  236SOL     OW 2148   0.392   1.736   1.560
  236SOL    HW1 2149   0.305   1.773   1.544
  236SOL    HW2 2150   0.375   1.650   1.599
  237SOL     OW 2151   1.661   0.880   1.252
  237SOL    HW1 2152   1.656   0.796   1.207
  237SOL    HW2 2153   1.651   0.946   1.183
  238SOL     OW 2154   1.224   0.317   0.448
  238SOL    HW1 2155   1.287   0.245   0.445
  238SOL    HW2 2156   1.247   0.365   0.528
  239SOL     OW 2157   0.592   0.735   0.677
  239SOL    HW1 2158   0.630   0.822   0.663
  239SOL    HW2 2159   0.528   0.726   0.606
  240SOL     OW 2160   1.753   0.379   1.648
  240SOL    HW1 2161   1.742   0.397   1.555
  240SOL    HW2 2162   1.685   0.315   1.668
  241SOL     OW 2163   1.744   0.932   1.510
  241SOL    HW1 2164   1.737   1.027   1.522
  241SOL    HW2 2165   1.727   0.919   1.417
  242SOL     OW 2166   0.917   1.372   0.051
  242SOL    HW1 2167   0.863   1.351   0.127
  242SOL    HW2 2168   0.904   1.466   0.036
  243SOL     OW 2169   0.662   1.774   0.962
  243SOL    HW1 2170   0.645   1.850   1.018
  243SOL    HW2 2171   0.757   1.774   0.950
  244SOL     OW 2172   0.873   0.975   0.854
  244SOL    HW1 2173   0.925   0.904   0.892
  244SOL    HW2 2174   0.831   1.016   0.928
  245SOL     OW 2175   1.084   0.982   0.071
  245SOL    HW1 2176   1.125   1.061   0.035
  245SOL    HW2 2177   1.155   0.918   0.074
  246SOL     OW 2178   1.838   1.548   0.840
  246SOL    HW1 2179   1.757   1.544   0.789
  246SOL    HW2 2180   1.817   1.504   0.922
  247SOL     OW 2181   0.217   1.298   1.857
  247SOL    HW1 2182   0.125   1.283   1.836
  247SOL    HW2 2183   0.220   1.300   1.953
  248SOL     OW 2184   0.135   1.264   0.664
  248SOL    HW1 2185   0.056   1.220   0.698
  248SOL    HW2 2186   0.199   1.193   0.653
  249SOL     OW 2187   0.688   1.409   1.642
  249SOL    HW1 2188   0.603   1.374   1.668
  249SOL    HW2 2189   0.687   1.499   1.674
  250SOL     OW 2190   1.821   0.238   1.223
  250SOL    HW1 2191   1.769   0.158   1.223
  250SOL    HW2 2192   1.846   0.250   1.131
  251SOL     OW 2193   0.450   0.425   0.524
  251SOL    HW1 2194   0.443   0.360   0.454
  251SOL    HW2 2195   0.383   0.398   0.587
  252SOL     OW 2196   1.705   1.480   1.082
  252SOL    HW1 2197   1.622   1.462   1.038
  252SOL    HW2 2198   1.709   1.415   1.153
  253SOL     OW 2199   0.363   0.560   1.296
  253SOL    HW1 2200   0.405   0.495   1.353
  253SOL    HW2 2201   0.377   0.527   1.207
  254SOL     OW 2202   0.839   1.574   0.679
  254SOL    HW1 2203   0.812   1.647   0.624
  254SOL    HW2 2204   0.761   1.518   0.684
  255SOL     OW 2205   1.432   0.227   1.117
  255SOL    HW1 2206   1.488   0.166   1.165
  255SOL    HW2 2207   1.379   0.270   1.185
  256SOL     OW 2208   1.012   0.077   1.146
  256SOL    HW1 2209   0.925   0.070   1.105
  256SOL    HW2 2210   1.035  -0.012   1.170
  257SOL     OW 2211   0.800   1.318   0.296
  257SOL    HW1 2212   0.762   1.235   0.326
  257SOL    HW2 2213   0.864   1.341   0.363
  258SOL     OW 2214   0.627   1.548   1.289
  258SOL    HW1 2215   0.628   1.627   1.343
  258SOL    HW2 2216   0.712   1.547   1.245
  259SOL     OW 2217   1.393   0.044   0.163
  259SOL    HW1 2218   1.400  -0.016   0.088
  259SOL    HW2 2219   1.304   0.080   0.157
  260SOL     OW 2220   1.292   0.463   0.670
  260SOL    HW1 2221   1.241   0.543   0.675
  260SOL    HW2 2222   1.297   0.431   0.760
  261SOL     OW 2223   1.615   0.222   0.875
  261SOL    HW1 2224   1.538   0.218   0.933
  261SOL    HW2 2225   1.602   0.300   0.822
  262SOL     OW 2226   0.052   1.053   0.293
  262SOL    HW1 2227   0.147   1.040   0.294
  262SOL    HW2 2228   0.026   1.048   0.385
  263SOL     OW 2229   0.873   1.657   0.359
  263SOL    HW1 2230   0.791   1.638   0.314
  263SOL    HW2 2231   0.854   1.733   0.415
  264SOL     OW 2232   0.239   0.702   1.945
  264SOL    HW1 2233   0.188   0.668   2.018
  264SOL    HW2 2234   0.231   0.636   1.877
  265SOL     OW 2235   0.235   0.285   2.846
  265SOL    HW1 2236   0.255   0.246   2.931
  265SOL    HW2 2237   0.145   0.258   2.828
  266SOL     OW 2238   8.003   0.384   2.460
  266SOL    HW1 2239   7.915   0.370   2.496
  266SOL    HW2 2240   8.003   0.337   2.377
  267SOL     OW 2241   0.574   1.300   3.054
  267SOL    HW1 2242   0.487   1.304   3.016
  267SOL    HW2 2243   0.590   1.388   3.087
  268SOL     OW 2244   1.580   1.513   2.571
  268SOL    HW1 2245   1.533   1.491   2.652
  268SOL    HW2 2246   1.511   1.518   2.505
  269SOL     OW 2247   1.106   0.714   2.541
  269SOL    HW1 2248   1.165   0.789   2.529
  269SOL    HW2 2249   1.077   0.721   2.632
  270SOL     OW 2250   1.796   0.591   2.079
  270SOL    HW1 2251   1.757   0.587   1.991
  270SOL    HW2 2252   1.752   0.521   2.127
  271SOL     OW 2253   0.736   1.134   2.906
  271SOL    HW1 2254   0.674   1.172   2.968
  271SOL    HW2 2255   0.779   1.210   2.866
  272SOL     OW 2256   0.881   0.750   3.687
  272SOL    HW1 2257   0.877   0.816   3.756
  272SOL    HW2 2258   0.902   0.799   3.607
  273SOL     OW 2259   0.691   0.991   2.509
  273SOL    HW1 2260   0.756   0.990   2.579
  273SOL    HW2 2261   0.621   1.048   2.543
  274SOL     OW 2262   0.713   1.149   3.681
  274SOL    HW1 2263   0.760   1.226   3.714
  274SOL    HW2 2264   0.634   1.185   3.641
  275SOL     OW 2265   0.342   1.409   2.931
  275SOL    HW1 2266   0.274   1.366   2.878
  275SOL    HW2 2267   0.386   1.468   2.870
  276SOL     OW 2268   1.459   1.508   3.225
  276SOL    HW1 2269   1.514   1.585   3.237
  276SOL    HW2 2270   1.391   1.516   3.293
  277SOL     OW 2271   0.448   0.380   3.337
  277SOL    HW1 2272   0.534   0.337   3.338
  277SOL    HW2 2273   0.391   0.322   3.386
  278SOL     OW 2274   1.609   0.460   2.594
  278SOL    HW1 2275   1.538   0.490   2.538
  278SOL    HW2 2276   1.613   0.524   2.665
  279SOL     OW 2277   0.235   1.694   2.343
  279SOL    HW1 2278   0.231   1.778   2.389
  279SOL    HW2 2279   0.300   1.708   2.274
  280SOL     OW 2280   1.136   1.344   3.557
  280SOL    HW1 2281   1.180   1.336   3.641
  280SOL    HW2 2282   1.084   1.264   3.549
  281SOL     OW 2283   0.296   1.432   2.375
  281SOL    HW1 2284   0.271   1.524   2.383
  281SOL    HW2 2285   0.241   1.386   2.438
  282SOL     OW 2286   0.276   1.084   2.751
  282SOL    HW1 2287   0.277   0.992   2.777
  282SOL    HW2 2288   0.202   1.122   2.799
  283SOL     OW 2289   0.612   1.794   3.283
  283SOL    HW1 2290   0.532   1.770   3.330
  283SOL    HW2 2291   0.632   1.883   3.314
  284SOL     OW 2292   0.580   0.992   2.012
  284SOL    HW1 2293   0.625   1.040   1.942
  284SOL    HW2 2294   0.624   1.019   2.092
  285SOL     OW 2295   1.642   0.131   3.332
  285SOL    HW1 2296   1.644   0.211   3.280
  285SOL    HW2 2297   1.591   0.154   3.410
  286SOL     OW 2298   0.142   0.622   2.411
  286SOL    HW1 2299   0.096   0.542   2.437
  286SOL    HW2 2300   0.123   0.685   2.481
  287SOL     OW 2301   1.846   1.752   2.192
  287SOL    HW1 2302   1.917   1.729   2.251
  287SOL    HW2 2303   1.861   1.844   2.170
  288SOL     OW 2304   0.011   1.583   2.004
  288SOL    HW1 2305  -0.001   1.489   1.992
  288SOL    HW2 2306   0.001   1.598   2.098
  289SOL     OW 2307   1.685   0.909   2.507
  289SOL    HW1 2308   1.776   0.879   2.507
  289SOL    HW2 2309   1.677   0.961   2.427
  290SOL     OW 2310   1.653   1.102   2.291
  290SOL    HW1 2311   1.739   1.100   2.250
  290SOL    HW2 2312   1.663   1.163   2.364
  291SOL     OW 2313   0.148   0.767   3.448
  291SOL    HW1 2314   0.243   0.760   3.448
  291SOL    HW2 2315   0.129   0.846   3.497
  292SOL     OW 2316   0.619   1.393   2.599
  292SOL    HW1 2317   0.575   1.308   2.605
  292SOL    HW2 2318   0.603   1.421   2.508
  293SOL     OW 2319   1.285   1.237   3.277
  293SOL    HW1 2320   1.316   1.168   3.219
  293SOL    HW2 2321   1.341   1.230   3.355
  294SOL     OW 2322   0.839   0.035   2.425
  294SOL    HW1 2323   0.872   0.118   2.391
  294SOL    HW2 2324   0.747   0.034   2.402
  295SOL     OW 2325   0.172   0.916   3.127
  295SOL    HW1 2326   0.265   0.893   3.128
  295SOL    HW2 2327   0.145   0.908   3.036
  296SOL     OW 2328   1.527   1.000   2.065
  296SOL    HW1 2329   1.471   0.930   2.099
  296SOL    HW2 2330   1.571   1.035   2.142
  297SOL     OW 2331   1.189   1.822   3.482
  297SOL    HW1 2332   1.191   1.859   3.393
  297SOL    HW2 2333   1.204   1.728   3.469
  298SOL     OW 2334   0.326   0.238   3.627
  298SOL    HW1 2335   0.394   0.291   3.670
  298SOL    HW2 2336   0.246   0.260   3.674
  299SOL     OW 2337   1.456   1.426   2.804
  299SOL    HW1 2338   1.395   1.440   2.876
  299SOL    HW2 2339   1.446   1.333   2.783
  300SOL     OW 2340   1.644   1.770   2.437
  300SOL    HW1 2341   1.630   1.731   2.350
  300SOL    HW2 2342   1.641   1.695   2.497
  301SOL     OW 2343   0.588   0.728   2.129
  301SOL    HW1 2344   0.579   0.814   2.088
  301SOL    HW2 2345   0.528   0.731   2.203
  302SOL     OW 2346   1.292   0.371   2.791
  302SOL    HW1 2347   1.201   0.340   2.799
  302SOL    HW2 2348   1.341   0.317   2.854
  303SOL     OW 2349   1.579   1.674   2.175
  303SOL    HW1 2350   1.672   1.696   2.167
  303SOL    HW2 2351   1.550   1.658   2.086
  304SOL     OW 2352   0.773   0.640   3.302
  304SOL    HW1 2353   0.762   0.609   3.392
  304SOL    HW2 2354   0.766   0.560   3.248
  305SOL     OW 2355   1.413   0.487   3.542
  305SOL    HW1 2356   1.417   0.530   3.627
  305SOL    HW2 2357   1.472   0.412   3.551
  306SOL     OW 2358   0.949   0.882   3.449
  306SOL    HW1 2359   1.002   0.813   3.409
  306SOL    HW2 2360   0.900   0.920   3.376
  307SOL     OW 2361   1.005   0.416   3.078
  307SOL    HW1 2362   0.921   0.442   3.116
  307SOL    HW2 2363   0.982   0.352   3.011
  308SOL     OW 2364   0.098   0.783   2.634
  308SOL    HW1 2365   0.178   0.795   2.686
  308SOL    HW2 2366   0.046   0.861   2.652
  309SOL     OW 2367   0.125   1.806   3.425
  309SOL    HW1 2368   0.135   1.799   3.520
  309SOL    HW2 2369   0.030   1.802   3.411
  310SOL     OW 2370   0.887   0.355   2.070
  310SOL    HW1 2371   0.930   0.398   1.996
  310SOL    HW2 2372   0.853   0.273   2.033
  311SOL     OW 2373   1.699   0.564   3.694
  311SOL    HW1 2374   1.667   0.642   3.648
  311SOL    HW2 2375   1.730   0.505   3.625
  312SOL     OW 2376   1.379   1.133   2.386
  312SOL    HW1 2377   1.466   1.136   2.345
  312SOL    HW2 2378   1.331   1.204   2.343
  313SOL     OW 2379   0.565   0.243   2.789
  313SOL    HW1 2380   0.535   0.258   2.878
  313SOL    HW2 2381   0.559   0.329   2.747
  314SOL     OW 2382   0.993   1.446   2.326
  314SOL    HW1 2383   0.967   1.522   2.275
  314SOL    HW2 2384   0.968   1.467   2.416
  315SOL     OW 2385   0.356   1.824   2.725
  315SOL    HW1 2386   0.400   1.741   2.739
  315SOL    HW2 2387   0.421   1.890   2.750
  316SOL     OW 2388   1.797   1.045   2.745
  316SOL    HW1 2389   1.743   1.043   2.666
  316SOL    HW2 2390   1.734   1.054   2.817
  317SOL     OW 2391   1.225   1.547   3.379
  317SOL    HW1 2392   1.215   1.473   3.438
  317SOL    HW2 2393   1.146   1.545   3.325
  318SOL     OW 2394   0.304   0.946   2.100
  318SOL    HW1 2395   0.389   0.974   2.065
  318SOL    HW2 2396   0.282   0.868   2.048
  319SOL     OW 2397   1.476   0.749   2.580
  319SOL    HW1 2398   1.476   0.714   2.669
  319SOL    HW2 2399   1.554   0.805   2.576
  320SOL     OW 2400   0.468   1.266   3.599
  320SOL    HW1 2401   0.444   1.271   3.507
  320SOL    HW2 2402   0.385   1.253   3.645
  321SOL     OW 2403   1.129   1.775   2.094
  321SOL    HW1 2404   1.049   1.739   2.132
  321SOL    HW2 2405   1.152   1.712   2.025
  322SOL     OW 2406   0.166   0.281   3.361
  322SOL    HW1 2407   0.150   0.375   3.353
  322SOL    HW2 2408   0.186   0.268   3.453
  323SOL     OW 2409   1.623   1.381   1.954
  323SOL    HW1 2410   1.585   1.468   1.940
  323SOL    HW2 2411   1.554   1.320   1.929
  324SOL     OW 2412   0.456   1.747   2.171
  324SOL    HW1 2413   0.503   1.797   2.238
  324SOL    HW2 2414   0.526   1.706   2.119
  325SOL     OW 2415   1.416   0.136   2.262
  325SOL    HW1 2416   1.416   0.094   2.177
  325SOL    HW2 2417   1.506   0.128   2.293
  326SOL     OW 2418   0.247   1.789   3.089
  326SOL    HW1 2419   0.288   1.712   3.129
  326SOL    HW2 2420   0.203   1.754   3.011
  327SOL     OW 2421   0.942   1.701   2.754
  327SOL    HW1 2422   1.018   1.649   2.779
  327SOL    HW2 2423   0.901   1.651   2.683
  328SOL     OW 2424   0.414   0.692   2.342
  328SOL    HW1 2425   0.429   0.598   2.358
  328SOL    HW2 2426   0.320   0.704   2.357
  329SOL     OW 2427   1.533   0.216   3.582
  329SOL    HW1 2428   1.537   0.241   3.675
  329SOL    HW2 2429   1.471   0.143   3.579
  330SOL     OW 2430   0.600   0.147   1.959
  330SOL    HW1 2431   0.669   0.095   2.000
  330SOL    HW2 2432   0.565   0.091   1.890
  331SOL     OW 2433   0.711   0.308   3.619
  331SOL    HW1 2434   0.805   0.288   3.625
  331SOL    HW2 2435   0.673   0.266   3.696
  332SOL     OW 2436   0.879   1.525   3.054
  332SOL    HW1 2437   0.857   1.485   2.970
  332SOL    HW2 2438   0.944   1.467   3.092
  333SOL     OW 2439   1.342   0.596   3.298
  333SOL    HW1 2440   1.380   0.567   3.381
  333SOL    HW2 2441   1.376   0.684   3.285
  334SOL     OW 2442   0.820   1.385   2.812
  334SOL    HW1 2443   0.905   1.375   2.769
  334SOL    HW2 2444   0.758   1.397   2.740
  335SOL     OW 2445   0.935   0.520   2.749
  335SOL    HW1 2446   0.910   0.508   2.658
  335SOL    HW2 2447   0.965   0.434   2.778
  336SOL     OW 2448   0.591   0.034   2.293
  336SOL    HW1 2449   0.519  -0.015   2.333
  336SOL    HW2 2450   0.558   0.124   2.288
  337SOL     OW 2451   1.423   1.201   1.897
  337SOL    HW1 2452   1.451   1.128   1.952
  337SOL    HW2 2453   1.339   1.228   1.934
  338SOL     OW 2454   0.301   0.042   2.057
  338SOL    HW1 2455   0.357   0.120   2.068
  338SOL    HW2 2456   0.318  -0.011   2.135
  339SOL     OW 2457   0.956   0.266   2.324
  339SOL    HW1 2458   0.926   0.291   2.236
  339SOL    HW2 2459   1.051   0.275   2.321
  340SOL     OW 2460   1.078   0.677   3.319
  340SOL    HW1 2461   1.022   0.602   3.339
  340SOL    HW2 2462   1.167   0.641   3.319
  341SOL     OW 2463   1.215   1.570   2.657
  341SOL    HW1 2464   1.230   1.638   2.591
  341SOL    HW2 2465   1.294   1.571   2.711
  342SOL     OW 2466   0.478   1.153   2.582
  342SOL    HW1 2467   0.415   1.133   2.650
  342SOL    HW2 2468   0.432   1.136   2.500
  343SOL     OW 2469   1.261   1.789   2.479
  343SOL    HW1 2470   1.309   1.852   2.425
  343SOL    HW2 2471   1.188   1.839   2.515
  344SOL     OW 2472   1.025   0.536   1.898
  344SOL    HW1 2473   0.977   0.613   1.867
  344SOL    HW2 2474   1.072   0.567   1.975
  345SOL     OW 2475   0.105   0.578   3.252
  345SOL    HW1 2476   0.196   0.574   3.221
  345SOL    HW2 2477   0.106   0.644   3.321
  346SOL     OW 2478   0.559   0.236   3.072
  346SOL    HW1 2479   0.599   0.197   3.150
  346SOL    HW2 2480   0.465   0.227   3.085
  347SOL     OW 2481   0.868   0.479   2.477
  347SOL    HW1 2482   0.774   0.475   2.493
  347SOL    HW2 2483   0.890   0.393   2.442
  348SOL     OW 2484   0.982   0.032   2.653
  348SOL    HW1 2485   0.933   0.034   2.571
  348SOL    HW2 2486   0.995  -0.061   2.671
  349SOL     OW 2487   1.440   1.161   2.726
  349SOL    HW1 2488   1.371   1.095   2.731
  349SOL    HW2 2489   1.465   1.163   2.634
  350SOL     OW 2490   1.463   0.611   2.824
  350SOL    HW1 2491   1.407   0.534   2.831
  350SOL    HW2 2492   1.521   0.607   2.899
  351SOL     OW 2493   1.830   0.805   2.244
  351SOL    HW1 2494   1.890   0.763   2.305
  351SOL    HW2 2495   1.818   0.741   2.174
  352SOL     OW 2496   0.491   1.419   2.004
  352SOL    HW1 2497   0.411   1.391   2.049
  352SOL    HW2 2498   0.489   1.372   1.920
  353SOL     OW 2499   1.685   1.257   2.508
  353SOL    HW1 2500   1.779   1.253   2.522
  353SOL    HW2 2501   1.661   1.348   2.527
  354SOL     OW 2502   1.398   0.572   1.932
  354SOL    HW1 2503   1.364   0.489   1.965
  354SOL    HW2 2504   1.491   0.571   1.957
  355SOL     OW 2505   0.492   0.273   2.170
  355SOL    HW1 2506   0.541   0.224   2.103
  355SOL    HW2 2507   0.479   0.359   2.131
  356SOL     OW 2508   1.742   1.245   3.411
  356SOL    HW1 2509   1.830   1.208   3.400
  356SOL    HW2 2510   1.757   1.333   3.446
  357SOL     OW 2511   1.052   1.346   3.183
  357SOL    HW1 2512   0.975   1.319   3.234
  357SOL    HW2 2513   1.126   1.309   3.230
  358SOL     OW 2514   1.603   1.633   3.517
  358SOL    HW1 2515   1.601   1.666   3.427
  358SOL    HW2 2516   1.683   1.581   3.521
  359SOL     OW 2517   1.129   1.202   2.957
  359SOL    HW1 2518   1.080   1.247   3.026
  359SOL    HW2 2519   1.105   1.247   2.876
  360SOL     OW 2520   1.618   1.097   2.942
  360SOL    HW1 2521   1.612   1.158   3.015
  360SOL    HW2 2522   1.544   1.121   2.885
  361SOL     OW 2523   0.916   0.139   3.256
  361SOL    HW1 2524   0.940   0.123   3.165
  361SOL    HW2 2525   0.998   0.133   3.304
  362SOL     OW 2526   0.982   1.117   3.581
  362SOL    HW1 2527   0.892   1.132   3.609
  362SOL    HW2 2528   0.978   1.037   3.530
  363SOL     OW 2529   0.734   1.049   2.238
  363SOL    HW1 2530   0.708   1.036   2.329
  363SOL    HW2 2531   0.813   0.996   2.227
  364SOL     OW 2532   0.429   0.819   3.112
  364SOL    HW1 2533   0.490   0.839   3.183
  364SOL    HW2 2534   0.402   0.729   3.128
  365SOL     OW 2535   1.270   0.386   3.137
  365SOL    HW1 2536   1.300   0.463   3.186
  365SOL    HW2 2537   1.180   0.407   3.112
  366SOL     OW 2538   0.048   1.595   3.193
  366SOL    HW1 2539   0.080   1.685   3.198
  366SOL    HW2 2540   0.091   1.550   3.266
  367SOL     OW 2541   0.340   1.107   2.346
  367SOL    HW1 2542   0.336   1.186   2.291
  367SOL    HW2 2543   0.335   1.034   2.284
  368SOL     OW 2544   0.558   0.519   2.713
  368SOL    HW1 2545   0.570   0.580   2.640
  368SOL    HW2 2546   0.616   0.551   2.781
  369SOL     OW 2547   1.244   1.351   2.255
  369SOL    HW1 2548   1.300   1.422   2.286
  369SOL    HW2 2549   1.157   1.373   2.288
  370SOL     OW 2550   1.289   1.470   3.017
  370SOL    HW1 2551   1.350   1.477   3.090
  370SOL    HW2 2552   1.226   1.404   3.046
  371SOL     OW 2553   1.573   0.637   2.338
  371SOL    HW1 2554   1.524   0.679   2.408
  371SOL    HW2 2555   1.637   0.703   2.311
  372SOL     OW 2556   0.349   1.534   3.174
  372SOL    HW1 2557   0.332   1.484   3.093
  372SOL    HW2 2558   0.444   1.542   3.177
  373SOL     OW 2559   0.432   0.721   3.479
  373SOL    HW1 2560   0.480   0.778   3.419
  373SOL    HW2 2561   0.498   0.662   3.515
  374SOL     OW 2562   1.611   0.780   3.557
  374SOL    HW1 2563   1.525   0.821   3.551
  374SOL    HW2 2564   1.662   0.822   3.488
  375SOL     OW 2565   1.052   0.060   3.588
  375SOL    HW1 2566   1.079   0.132   3.645
  375SOL    HW2 2567   0.956   0.059   3.595
  376SOL     OW 2568   0.500   0.019   3.596
  376SOL    HW1 2569   0.484  -0.028   3.514
  376SOL    HW2 2570   0.444   0.096   3.591
  377SOL     OW 2571   0.587   0.878   2.894
  377SOL    HW1 2572   0.625   0.966   2.897
  377SOL    HW2 2573   0.534   0.871   2.973
  378SOL     OW 2574   1.334   0.859   2.869
  378SOL    HW1 2575   1.243   0.834   2.851
  378SOL    HW2 2576   1.383   0.777   2.864
  379SOL     OW 2577   1.156   0.572   2.198
  379SOL    HW1 2578   1.189   0.485   2.219
  379SOL    HW2 2579   1.235   0.625   2.187
  380SOL     OW 2580   0.292   0.210   3.110
  380SOL    HW1 2581   0.253   0.247   3.190
  380SOL    HW2 2582   0.267   0.118   3.111
  381SOL     OW 2583   0.053   1.307   3.131
  381SOL    HW1 2584   0.076   1.255   3.208
  381SOL    HW2 2585   0.053   1.398   3.162
  382SOL     OW 2586   0.711   0.629   2.904
  382SOL    HW1 2587   0.797   0.626   2.862
  382SOL    HW2 2588   0.684   0.720   2.898
  383SOL     OW 2589   1.741   0.963   3.724
  383SOL    HW1 2590   1.697   0.893   3.676
  383SOL    HW2 2591   1.682   0.983   3.797
  384SOL     OW 2592   0.410   0.095   2.538
  384SOL    HW1 2593   0.359   0.174   2.556
  384SOL    HW2 2594   0.351   0.040   2.486
  385SOL     OW 2595   1.631   0.400   2.219
  385SOL    HW1 2596   1.634   0.334   2.288
  385SOL    HW2 2597   1.603   0.480   2.264
  386SOL     OW 2598   1.040   0.759   2.824
  386SOL    HW1 2599   1.024   0.774   2.918
  386SOL    HW2 2600   1.011   0.669   2.809
  387SOL     OW 2601   0.984   1.571   3.584
  387SOL    HW1 2602   0.966   1.608   3.497
  387SOL    HW2 2603   1.021   1.485   3.566
  388SOL     OW 2604   1.843   1.502   3.464
  388SOL    HW1 2605   1.873   1.528   3.377
  388SOL    HW2 2606   1.919   1.513   3.520
  389SOL     OW 2607   0.361   0.946   3.654
  389SOL    HW1 2608   0.435   0.964   3.712
  389SOL    HW2 2609   0.380   0.860   3.616
  390SOL     OW 2610   1.577   0.275   1.983
  390SOL    HW1 2611   1.481   0.276   1.990
  390SOL    HW2 2612   1.608   0.312   2.065
  391SOL     OW 2613   1.284   0.826   1.890
  391SOL    HW1 2614   1.325   0.739   1.894
  391SOL    HW2 2615   1.316   0.864   1.809
  392SOL     OW 2616   1.069   1.341   2.719
  392SOL    HW1 2617   1.078   1.270   2.655
  392SOL    HW2 2618   1.124   1.411   2.684
  393SOL     OW 2619   0.321   0.807   2.801
  393SOL    HW1 2620   0.413   0.832   2.811
  393SOL    HW2 2621   0.316   0.719   2.839
  394SOL     OW 2622   0.340   0.529   2.875
  394SOL    HW1 2623   0.300   0.444   2.861
  394SOL    HW2 2624   0.414   0.532   2.814
  395SOL     OW 2625   1.150   0.409   3.519
  395SOL    HW1 2626   1.107   0.441   3.598
  395SOL    HW2 2627   1.240   0.441   3.525
  396SOL     OW 2628   1.177   0.213   3.329
  396SOL    HW1 2629   1.172   0.267   3.408
  396SOL    HW2 2630   1.208   0.272   3.261
  397SOL     OW 2631   7.980   1.301   2.061
  397SOL    HW1 2632   7.891   1.321   2.090
  397SOL    HW2 2633   7.989   1.207   2.076
  398SOL     OW 2634   0.098   1.742   2.798
  398SOL    HW1 2635   0.110   1.667   2.740
  398SOL    HW2 2636   0.174   1.798   2.781
  399SOL     OW 2637   0.487   1.575   2.764
  399SOL    HW1 2638   0.555   1.638   2.788
  399SOL    HW2 2639   0.531   1.512   2.707
  400SOL     OW 2640   0.964   0.778   3.087
  400SOL    HW1 2641   1.028   0.755   3.155
  400SOL    HW2 2642   0.879   0.757   3.125
  401SOL     OW 2643   0.076   0.547   2.981
  401SOL    HW1 2644   0.170   0.548   2.966
  401SOL    HW2 2645   0.067   0.555   3.076
  402SOL     OW 2646   0.196   0.506   3.544
  402SOL    HW1 2647   0.288   0.520   3.523
  402SOL    HW2 2648   0.159   0.594   3.547
  403SOL     OW 2649   1.383   0.928   3.517
  403SOL    HW1 2650   1.404   1.021   3.515
  403SOL    HW2 2651   1.381   0.902   3.425
  404SOL     OW 2652   0.830   0.607   2.179
  404SOL    HW1 2653   0.833   0.519   2.143
  404SOL    HW2 2654   0.741   0.637   2.163
  405SOL     OW 2655   1.639   0.606   3.031
  405SOL    HW1 2656   1.630   0.554   3.111
  405SOL    HW2 2657   1.729   0.590   3.002
  406SOL     OW 2658   0.291   1.532   3.583
  406SOL    HW1 2659   0.254   1.605   3.632
  406SOL    HW2 2660   0.282   1.456   3.641
  407SOL     OW 2661   0.731   0.450   3.108
  407SOL    HW1 2662   0.667   0.380   3.096
  407SOL    HW2 2663   0.711   0.512   3.038
  408SOL     OW 2664   0.935   1.671   3.325
  408SOL    HW1 2665   0.896   1.630   3.248
  408SOL    HW2 2666   0.915   1.765   3.316
  409SOL     OW 2667   0.460   0.500   2.030
  409SOL    HW1 2668   0.508   0.581   2.047
  409SOL    HW2 2669   0.372   0.517   2.064
  410SOL     OW 2670   0.156   1.120   3.316
  410SOL    HW1 2671   0.134   1.076   3.398
  410SOL    HW2 2672   0.161   1.049   3.252
  411SOL     OW 2673   1.318   1.041   3.074
  411SOL    HW1 2674   1.338   0.979   3.004
  411SOL    HW2 2675   1.250   1.098   3.037
  412SOL     OW 2676   1.304   0.831   2.163
  412SOL    HW1 2677   1.243   0.895   2.201
  412SOL    HW2 2678   1.288   0.835   2.069
  413SOL     OW 2679   1.767   1.736   3.009
  413SOL    HW1 2680   1.833   1.759   2.944
  413SOL    HW2 2681   1.748   1.643   2.992
  414SOL     OW 2682   1.251   1.746   2.982
  414SOL    HW1 2683   1.334   1.766   2.939
  414SOL    HW2 2684   1.253   1.652   2.998
  415SOL     OW 2685   0.063   1.190   2.892
  415SOL    HW1 2686   0.065   1.230   2.978
  415SOL    HW2 2687  -0.011   1.232   2.847
  416SOL     OW 2688   0.679   1.674   3.610
  416SOL    HW1 2689   0.617   1.746   3.601
  416SOL    HW2 2690   0.753   1.699   3.554
  417SOL     OW 2691   1.679   0.119   2.353
  417SOL    HW1 2692   1.766   0.142   2.318
  417SOL    HW2 2693   1.689   0.129   2.447
  418SOL     OW 2694   1.395   1.566   2.356
  418SOL    HW1 2695   1.453   1.601   2.288
  418SOL    HW2 2696   1.344   1.642   2.385
  419SOL     OW 2697   0.175   1.745   3.702
  419SOL    HW1 2698   0.110   1.699   3.754
  419SOL    HW2 2699   0.219   1.803   3.764
  420SOL     OW 2700   1.274   0.925   2.519
  420SOL    HW1 2701   1.348   0.868   2.539
  420SOL    HW2 2702   1.311   0.997   2.469
  421SOL     OW 2703   0.798   1.283   3.282
  421SOL    HW1 2704   0.772   1.324   3.364
  421SOL    HW2 2705   0.722   1.294   3.225
  422SOL     OW 2706   0.667   1.627   2.017
  422SOL    HW1 2707   0.682   1.643   1.923
  422SOL    HW2 2708   0.612   1.549   2.019
  423SOL     OW 2709   1.615   1.738   3.250
  423SOL    HW1 2710   1.670   1.736   3.172
  423SOL    HW2 2711   1.607   1.831   3.271
  424SOL     OW 2712   1.842   0.179   2.820
  424SOL    HW1 2713   1.845   0.088   2.851
  424SOL    HW2 2714   1.759   0.185   2.772
  425SOL     OW 2715   0.259   0.327   2.573
  425SOL    HW1 2716   0.170   0.349   2.546
  425SOL    HW2 2717   0.254   0.318   2.668
  426SOL     OW 2718   1.210   1.599   1.896
  426SOL    HW1 2719   1.198   1.508   1.921
  426SOL    HW2 2720   1.143   1.615   1.830
  427SOL     OW 2721   0.825   1.013   3.239
  427SOL    HW1 2722   0.869   1.009   3.155
  427SOL    HW2 2723   0.818   1.106   3.259
  428SOL     OW 2724   0.948   0.866   2.184
  428SOL    HW1 2725   0.990   0.913   2.112
  428SOL    HW2 2726   0.904   0.792   2.142
  429SOL     OW 2727   1.488   1.630   1.910
  429SOL    HW1 2728   1.394   1.621   1.894
  429SOL    HW2 2729   1.527   1.636   1.823
  430SOL     OW 2730   0.371   1.297   3.349
  430SOL    HW1 2731   0.348   1.379   3.304
  430SOL    HW2 2732   0.296   1.240   3.333
  431SOL     OW 2733   1.602   1.283   3.147
  431SOL    HW1 2734   1.660   1.264   3.222
  431SOL    HW2 2735   1.544   1.351   3.179
  432SOL     OW 2736   1.068   1.111   2.573
  432SOL    HW1 2737   0.997   1.062   2.615
  432SOL    HW2 2738   1.133   1.044   2.550
  433SOL     OW 2739   1.032   0.261   2.801
  433SOL    HW1 2740   1.017   0.201   2.727
  433SOL    HW2 2741   1.035   0.204   2.878
  434SOL     OW 2742   0.609   1.489   2.344
  434SOL    HW1 2743   0.656   1.441   2.276
  434SOL    HW2 2744   0.521   1.503   2.307
  435SOL     OW 2745   1.719   0.424   3.243
  435SOL    HW1 2746   1.791   0.485   3.254
  435SOL    HW2 2747   1.752   0.358   3.183
  436SOL     OW 2748   0.248   1.335   2.130
  436SOL    HW1 2749   0.153   1.340   2.124
  436SOL    HW2 2750   0.269   1.376   2.214
  437SOL     OW 2751   0.100   1.002   3.574
  437SOL    HW1 2752   0.064   1.088   3.597
  437SOL    HW2 2753   0.185   0.999   3.619
  438SOL     OW 2754   0.662   0.207   3.353
  438SOL    HW1 2755   0.742   0.163   3.323
  438SOL    HW2 2756   0.684   0.242   3.439
  439SOL     OW 2757   0.071   0.338   1.860
  439SOL    HW1 2758   0.019   0.385   1.926
  439SOL    HW2 2759   0.106   0.407   1.804
  440SOL     OW 2760   1.422   0.859   3.254
  440SOL    HW1 2761   1.374   0.921   3.200
  440SOL    HW2 2762   1.512   0.863   3.223
  441SOL     OW 2763   0.106   0.256   2.209
  441SOL    HW1 2764   0.074   0.207   2.134
  441SOL    HW2 2765   0.126   0.189   2.275
  442SOL     OW 2766   1.176   1.331   1.979
  442SOL    HW1 2767   1.081   1.316   1.976
  442SOL    HW2 2768   1.197   1.334   2.072
  443SOL     OW 2769   0.611   0.850   3.306
  443SOL    HW1 2770   0.671   0.923   3.294
  443SOL    HW2 2771   0.667   0.773   3.309
  444SOL     OW 2772   1.496   1.797   2.870
  444SOL    HW1 2773   1.522   1.854   2.797
  444SOL    HW2 2774   1.579   1.768   2.908
  445SOL     OW 2775   0.683   0.583   3.562
  445SOL    HW1 2776   0.745   0.629   3.619
  445SOL    HW2 2777   0.695   0.491   3.584
  446SOL     OW 2778   1.470   1.192   3.488
  446SOL    HW1 2779   1.459   1.206   3.582
  446SOL    HW2 2780   1.563   1.211   3.472
  447SOL     OW 2781   0.388   1.735   3.423
  447SOL    HW1 2782   0.299   1.764   3.401
  447SOL    HW2 2783   0.375   1.650   3.465
  448SOL     OW 2784   1.662   0.880   3.114
  448SOL    HW1 2785   1.659   0.796   3.069
  448SOL    HW2 2786   1.653   0.945   3.044
  449SOL     OW 2787   1.225   0.327   2.313
  449SOL    HW1 2788   1.289   0.258   2.298
  449SOL    HW2 2789   1.254   0.369   2.394
  450SOL     OW 2790   0.616   0.720   2.528
  450SOL    HW1 2791   0.645   0.811   2.527
  450SOL    HW2 2792   0.544   0.717   2.465
  451SOL     OW 2793   1.751   0.370   3.510
  451SOL    HW1 2794   1.736   0.391   3.417
  451SOL    HW2 2795   1.678   0.311   3.533
  452SOL     OW 2796   1.733   0.933   3.373
  452SOL    HW1 2797   1.737   1.028   3.385
  452SOL    HW2 2798   1.723   0.921   3.279
  453SOL     OW 2799   0.878   1.363   1.915
  453SOL    HW1 2800   0.832   1.390   1.995
  453SOL    HW2 2801   0.886   1.443   1.863
  454SOL     OW 2802   0.665   1.777   2.791
  454SOL    HW1 2803   0.645   1.870   2.779
  454SOL    HW2 2804   0.760   1.773   2.789
  455SOL     OW 2805   0.876   0.973   2.718
  455SOL    HW1 2806   0.927   0.904   2.761
  455SOL    HW2 2807   0.832   1.018   2.790
  456SOL     OW 2808   1.068   0.978   1.965
  456SOL    HW1 2809   1.045   1.038   1.894
  456SOL    HW2 2810   1.142   0.929   1.931
  457SOL     OW 2811   1.849   1.549   2.701
  457SOL    HW1 2812   1.764   1.535   2.658
  457SOL    HW2 2813   1.853   1.480   2.768
  458SOL     OW 2814   0.218   1.297   3.717
  458SOL    HW1 2815   0.125   1.284   3.699
  458SOL    HW2 2816   0.224   1.301   3.813
  459SOL     OW 2817   0.135   1.262   2.516
  459SOL    HW1 2818   0.056   1.221   2.552
  459SOL    HW2 2819   0.198   1.191   2.509
  460SOL     OW 2820   0.683   1.414   3.494
  460SOL    HW1 2821   0.604   1.371   3.526
  460SOL    HW2 2822   0.681   1.501   3.534
  461SOL     OW 2823   1.826   0.237   3.092
  461SOL    HW1 2824   1.855   0.150   3.119
  461SOL    HW2 2825   1.832   0.235   2.996
  462SOL     OW 2826   0.443   0.428   2.397
  462SOL    HW1 2827   0.440   0.367   2.323
  462SOL    HW2 2828   0.375   0.398   2.457
  463SOL     OW 2829   1.693   1.481   2.955
  463SOL    HW1 2830   1.613   1.461   2.907
  463SOL    HW2 2831   1.700   1.412   3.020
  464SOL     OW 2832   0.356   0.560   3.156
  464SOL    HW1 2833   0.399   0.499   3.216
  464SOL    HW2 2834   0.376   0.525   3.069
  465SOL     OW 2835   0.835   1.582   2.532
  465SOL    HW1 2836   0.810   1.652   2.472
  465SOL    HW2 2837   0.759   1.524   2.535
  466SOL     OW 2838   1.436   0.228   2.971
  466SOL    HW1 2839   1.493   0.164   3.015
  466SOL    HW2 2840   1.390   0.271   3.043
  467SOL     OW 2841   1.023   0.079   2.998
  467SOL    HW1 2842   0.950   0.019   2.982
  467SOL    HW2 2843   1.095   0.023   3.026
  468SOL     OW 2844   0.775   1.330   2.186
  468SOL    HW1 2845   0.759   1.236   2.197
  468SOL    HW2 2846   0.855   1.346   2.236
  469SOL     OW 2847   0.624   1.556   3.147
  469SOL    HW1 2848   0.622   1.639   3.195
  469SOL    HW2 2849   0.712   1.552   3.110
  470SOL     OW 2850   1.345   7.999   2.011
  470SOL    HW1 2851   1.395   7.918   2.004
  470SOL    HW2 2852   1.262   7.972   2.050
  471SOL     OW 2853   1.293   0.468   2.536
  471SOL    HW1 2854   1.251   0.553   2.549
  471SOL    HW2 2855   1.296   0.430   2.624
  472SOL     OW 2856   1.601   0.207   2.700
  472SOL    HW1 2857   1.536   0.203   2.770
  472SOL    HW2 2858   1.593   0.297   2.666
  473SOL     OW 2859   0.040   1.035   2.137
  473SOL    HW1 2860   0.133   1.016   2.124
  473SOL    HW2 2861   0.030   1.043   2.232
  474SOL     OW 2862   0.889   1.665   2.195
  474SOL    HW1 2863   0.812   1.651   2.139
  474SOL    HW2 2864   0.863   1.735   2.254
  475SOL     OW 2865   0.220   0.698   3.789
  475SOL    HW1 2866   0.155   0.688   3.858
  475SOL    HW2 2867   0.270   0.616   3.791
  476SOL     OW 2868   0.228   0.289   4.709
  476SOL    HW1 2869   0.255   0.247   4.791
  476SOL    HW2 2870   0.140   0.255   4.693
  477SOL     OW 2871   7.994   0.383   4.326
  477SOL    HW1 2872   7.906   0.368   4.362
  477SOL    HW2 2873   8.002   0.319   4.256
  478SOL     OW 2874   0.570   1.300   4.914
  478SOL    HW1 2875   0.484   1.308   4.875
  478SOL    HW2 2876   0.590   1.388   4.947
  479SOL     OW 2877   1.575   1.513   4.434
  479SOL    HW1 2878   1.532   1.493   4.518
  479SOL    HW2 2879   1.503   1.518   4.371
  480SOL     OW 2880   1.133   0.701   4.416
  480SOL    HW1 2881   1.182   0.783   4.404
  480SOL    HW2 2882   1.087   0.713   4.499
  481SOL     OW 2883   1.799   0.591   3.942
  481SOL    HW1 2884   1.762   0.587   3.854
  481SOL    HW2 2885   1.751   0.523   3.991
  482SOL     OW 2886   0.733   1.132   4.770
  482SOL    HW1 2887   0.671   1.173   4.831
  482SOL    HW2 2888   0.778   1.205   4.730
  483SOL     OW 2889   0.880   0.752   5.545
  483SOL    HW1 2890   0.881   0.819   5.614
  483SOL    HW2 2891   0.901   0.800   5.465
  484SOL     OW 2892   0.688   0.995   4.369
  484SOL    HW1 2893   0.757   0.990   4.436
  484SOL    HW2 2894   0.621   1.052   4.407
  485SOL     OW 2895   0.712   1.149   5.546
  485SOL    HW1 2896   0.760   1.225   5.578
  485SOL    HW2 2897   0.635   1.187   5.503
  486SOL     OW 2898   0.339   1.414   4.790
  486SOL    HW1 2899   0.282   1.363   4.732
  486SOL    HW2 2900   0.388   1.472   4.732
  487SOL     OW 2901   1.461   1.507   5.089
  487SOL    HW1 2902   1.517   1.584   5.097
  487SOL    HW2 2903   1.394   1.518   5.156
  488SOL     OW 2904   0.445   0.380   5.205
  488SOL    HW1 2905   0.532   0.341   5.200
  488SOL    HW2 2906   0.394   0.317   5.257
  489SOL     OW 2907   1.604   0.460   4.451
  489SOL    HW1 2908   1.531   0.481   4.394
  489SOL    HW2 2909   1.610   0.534   4.511
  490SOL     OW 2910   0.234   1.694   4.206
  490SOL    HW1 2911   0.229   1.778   4.251
  490SOL    HW2 2912   0.301   1.707   4.139
  491SOL     OW 2913   1.138   1.343   5.418
  491SOL    HW1 2914   1.185   1.335   5.502
  491SOL    HW2 2915   1.086   1.263   5.411
  492SOL     OW 2916   0.293   1.430   4.235
  492SOL    HW1 2917   0.270   1.523   4.244
  492SOL    HW2 2918   0.240   1.386   4.300
  493SOL     OW 2919   0.276   1.083   4.617
  493SOL    HW1 2920   0.279   0.990   4.641
  493SOL    HW2 2921   0.200   1.118   4.664
  494SOL     OW 2922   0.600   1.802   5.128
  494SOL    HW1 2923   0.527   1.777   5.185
  494SOL    HW2 2924   0.632   1.884   5.165
  495SOL     OW 2925   0.572   0.994   3.869
  495SOL    HW1 2926   0.625   1.034   3.800
  495SOL    HW2 2927   0.614   1.023   3.950
  496SOL     OW 2928   1.638   0.126   5.202
  496SOL    HW1 2929   1.642   0.207   5.151
  496SOL    HW2 2930   1.599   0.151   5.285
  497SOL     OW 2931   0.136   0.620   4.269
  497SOL    HW1 2932   0.089   0.541   4.295
  497SOL    HW2 2933   0.121   0.682   4.341
  498SOL     OW 2934   1.847   1.750   4.049
  498SOL    HW1 2935   1.916   1.723   4.110
  498SOL    HW2 2936   1.862   1.843   4.036
  499SOL     OW 2937   0.020   1.584   3.861
  499SOL    HW1 2938   0.002   1.491   3.851
  499SOL    HW2 2939   0.007   1.601   3.955
  500SOL     OW 2940   1.686   0.911   4.366
  500SOL    HW1 2941   1.777   0.881   4.362
  500SOL    HW2 2942   1.675   0.966   4.288
  501SOL     OW 2943   1.654   1.104   4.154
  501SOL    HW1 2944   1.741   1.103   4.114
  501SOL    HW2 2945   1.663   1.166   4.228
  502SOL     OW 2946   0.150   0.763   5.306
  502SOL    HW1 2947   0.245   0.763   5.303
  502SOL    HW2 2948   0.127   0.842   5.356
  503SOL     OW 2949   0.618   1.394   4.459
  503SOL    HW1 2950   0.575   1.309   4.466
  503SOL    HW2 2951   0.604   1.421   4.368
  504SOL     OW 2952   1.283   1.232   5.143
  504SOL    HW1 2953   1.315   1.165   5.082
  504SOL    HW2 2954   1.344   1.229   5.216
  505SOL     OW 2955   0.845   0.025   4.277
  505SOL    HW1 2956   0.887   0.103   4.242
  505SOL    HW2 2957   0.752   0.048   4.284
  506SOL     OW 2958   0.167   0.910   4.990
  506SOL    HW1 2959   0.260   0.889   4.992
  506SOL    HW2 2960   0.145   0.910   4.896
  507SOL     OW 2961   1.531   1.005   3.926
  507SOL    HW1 2962   1.463   0.947   3.960
  507SOL    HW2 2963   1.576   1.038   4.004
  508SOL     OW 2964   1.170   1.816   5.350
  508SOL    HW1 2965   1.185   1.882   5.283
  508SOL    HW2 2966   1.202   1.734   5.311
  509SOL     OW 2967   0.327   0.257   5.494
  509SOL    HW1 2968   0.391   0.309   5.543
  509SOL    HW2 2969   0.244   0.272   5.539
  510SOL     OW 2970   1.465   1.418   4.671
  510SOL    HW1 2971   1.401   1.435   4.740
  510SOL    HW2 2972   1.451   1.326   4.647
  511SOL     OW 2973   1.649   1.758   4.300
  511SOL    HW1 2974   1.631   1.718   4.215
  511SOL    HW2 2975   1.637   1.687   4.363
  512SOL     OW 2976   0.591   0.713   3.991
  512SOL    HW1 2977   0.599   0.802   3.955
  512SOL    HW2 2978   0.532   0.724   4.066
  513SOL     OW 2979   1.293   0.374   4.657
  513SOL    HW1 2980   1.202   0.344   4.661
  513SOL    HW2 2981   1.339   0.319   4.720
  514SOL     OW 2982   1.580   1.671   4.036
  514SOL    HW1 2983   1.673   1.696   4.030
  514SOL    HW2 2984   1.554   1.655   3.945
  515SOL     OW 2985   0.782   0.638   5.165
  515SOL    HW1 2986   0.764   0.606   5.254
  515SOL    HW2 2987   0.762   0.564   5.108
  516SOL     OW 2988   1.419   0.492   5.407
  516SOL    HW1 2989   1.417   0.535   5.493
  516SOL    HW2 2990   1.499   0.441   5.408
  517SOL     OW 2991   0.946   0.884   5.310
  517SOL    HW1 2992   1.003   0.819   5.270
  517SOL    HW2 2993   0.899   0.924   5.237
  518SOL     OW 2994   0.999   0.410   4.951
  518SOL    HW1 2995   0.909   0.433   4.974
  518SOL    HW2 2996   0.992   0.370   4.864
  519SOL     OW 2997   1.054   0.699   4.147
  519SOL    HW1 2998   1.075   0.695   4.240
  519SOL    HW2 2999   0.970   0.654   4.139
  520SOL     OW 3000   0.099   0.779   4.495
  520SOL    HW1 3001   0.178   0.793   4.546
  520SOL    HW2 3002   0.049   0.860   4.507
  521SOL     OW 3003   0.134   1.813   5.294
  521SOL    HW1 3004   0.139   1.800   5.388
  521SOL    HW2 3005   0.041   1.821   5.275
  522SOL     OW 3006   0.894   0.349   3.931
  522SOL    HW1 3007   0.946   0.391   3.863
  522SOL    HW2 3008   0.895   0.256   3.908
  523SOL     OW 3009   1.692   0.566   5.557
  523SOL    HW1 3010   1.666   0.643   5.507
  523SOL    HW2 3011   1.732   0.507   5.493
  524SOL     OW 3012   1.383   1.141   4.258
  524SOL    HW1 3013   1.466   1.135   4.211
  524SOL    HW2 3014   1.333   1.206   4.210
  525SOL     OW 3015   0.557   0.242   4.649
  525SOL    HW1 3016   0.539   0.256   4.742
  525SOL    HW2 3017   0.552   0.329   4.610
  526SOL     OW 3018   0.993   1.444   4.188
  526SOL    HW1 3019   0.969   1.523   4.139
  526SOL    HW2 3020   0.973   1.465   4.279
  527SOL     OW 3021   0.360   1.827   4.590
  527SOL    HW1 3022   0.408   1.745   4.601
  527SOL    HW2 3023   0.424   1.895   4.610
  528SOL     OW 3024   1.796   1.039   4.606
  528SOL    HW1 3025   1.742   1.040   4.527
  528SOL    HW2 3026   1.734   1.051   4.677
  529SOL     OW 3027   1.226   1.543   5.239
  529SOL    HW1 3028   1.215   1.470   5.299
  529SOL    HW2 3029   1.153   1.535   5.178
  530SOL     OW 3030   0.306   0.951   3.963
  530SOL    HW1 3031   0.393   0.977   3.932
  530SOL    HW2 3032   0.284   0.874   3.911
  531SOL     OW 3033   1.479   0.752   4.442
  531SOL    HW1 3034   1.478   0.718   4.531
  531SOL    HW2 3035   1.557   0.808   4.438
  532SOL     OW 3036   0.465   1.266   5.465
  532SOL    HW1 3037   0.442   1.271   5.372
  532SOL    HW2 3038   0.381   1.254   5.509
  533SOL     OW 3039   1.125   1.785   3.940
  533SOL    HW1 3040   1.051   1.748   3.988
  533SOL    HW2 3041   1.150   1.716   3.879
  534SOL     OW 3042   0.159   0.276   5.224
  534SOL    HW1 3043   0.154   0.370   5.208
  534SOL    HW2 3044   0.179   0.269   5.318
  535SOL     OW 3045   1.624   1.381   3.806
  535SOL    HW1 3046   1.582   1.467   3.799
  535SOL    HW2 3047   1.554   1.318   3.787
  536SOL     OW 3048   0.456   1.744   4.037
  536SOL    HW1 3049   0.503   1.795   4.103
  536SOL    HW2 3050   0.526   1.703   3.985
  537SOL     OW 3051   1.419   0.133   4.129
  537SOL    HW1 3052   1.443   0.101   4.042
  537SOL    HW2 3053   1.503   0.144   4.175
  538SOL     OW 3054   0.241   1.781   4.957
  538SOL    HW1 3055   0.294   1.711   4.995
  538SOL    HW2 3056   0.221   1.750   4.868
  539SOL     OW 3057   0.942   1.701   4.623
  539SOL    HW1 3058   1.024   1.659   4.647
  539SOL    HW2 3059   0.907   1.647   4.551
  540SOL     OW 3060   0.411   0.690   4.203
  540SOL    HW1 3061   0.429   0.598   4.221
  540SOL    HW2 3062   0.316   0.699   4.216
  541SOL     OW 3063   1.548   0.202   5.455
  541SOL    HW1 3064   1.539   0.238   5.543
  541SOL    HW2 3065   1.475   0.140   5.447
  542SOL     OW 3066   0.603   0.148   3.818
  542SOL    HW1 3067   0.674   0.104   3.864
  542SOL    HW2 3068   0.571   0.082   3.756
  543SOL     OW 3069   0.732   0.273   5.493
  543SOL    HW1 3070   0.820   0.303   5.470
  543SOL    HW2 3071   0.728   0.282   5.589
  544SOL     OW 3072   0.874   1.518   4.917
  544SOL    HW1 3073   0.857   1.479   4.832
  544SOL    HW2 3074   0.946   1.466   4.954
  545SOL     OW 3075   1.342   0.595   5.161
  545SOL    HW1 3076   1.381   0.570   5.244
  545SOL    HW2 3077   1.375   0.683   5.144
  546SOL     OW 3078   0.821   1.380   4.673
  546SOL    HW1 3079   0.908   1.372   4.633
  546SOL    HW2 3080   0.762   1.394   4.599
  547SOL     OW 3081   0.924   0.520   4.617
  547SOL    HW1 3082   0.896   0.512   4.526
  547SOL    HW2 3083   0.961   0.435   4.639
  548SOL     OW 3084   0.580   0.024   4.134
  548SOL    HW1 3085   0.509  -0.018   4.184
  548SOL    HW2 3086   0.566   0.118   4.147
  549SOL     OW 3087   1.423   1.199   3.760
  549SOL    HW1 3088   1.456   1.128   3.814
  549SOL    HW2 3089   1.340   1.224   3.800
  550SOL     OW 3090   0.294   0.041   3.908
  550SOL    HW1 3091   0.356   0.113   3.920
  550SOL    HW2 3092   0.310  -0.017   3.982
  551SOL     OW 3093   0.954   0.260   4.189
  551SOL    HW1 3094   0.921   0.294   4.106
  551SOL    HW2 3095   1.048   0.278   4.186
  552SOL     OW 3096   1.083   0.686   5.182
  552SOL    HW1 3097   1.025   0.611   5.197
  552SOL    HW2 3098   1.171   0.648   5.180
  553SOL     OW 3099   1.218   1.574   4.517
  553SOL    HW1 3100   1.232   1.640   4.450
  553SOL    HW2 3101   1.282   1.596   4.585
  554SOL     OW 3102   0.476   1.156   4.446
  554SOL    HW1 3103   0.413   1.134   4.515
  554SOL    HW2 3104   0.429   1.137   4.365
  555SOL     OW 3105   1.260   1.791   4.336
  555SOL    HW1 3106   1.313   1.855   4.287
  555SOL    HW2 3107   1.195   1.844   4.382
  556SOL     OW 3108   1.033   0.520   3.746
  556SOL    HW1 3109   0.985   0.601   3.729
  556SOL    HW2 3110   1.089   0.540   3.821
  557SOL     OW 3111   0.103   0.564   5.119
  557SOL    HW1 3112   0.193   0.564   5.086
  557SOL    HW2 3113   0.102   0.635   5.184
  558SOL     OW 3114   0.565   0.240   4.928
  558SOL    HW1 3115   0.606   0.186   4.995
  558SOL    HW2 3116   0.471   0.230   4.943
  559SOL     OW 3117   0.857   0.467   4.358
  559SOL    HW1 3118   0.828   0.519   4.284
  559SOL    HW2 3119   0.879   0.381   4.320
  560SOL     OW 3120   0.956   0.037   4.526
  560SOL    HW1 3121   0.917   0.038   4.438
  560SOL    HW2 3122   0.995  -0.050   4.534
  561SOL     OW 3123   1.442   1.157   4.583
  561SOL    HW1 3124   1.371   1.092   4.583
  561SOL    HW2 3125   1.467   1.166   4.491
  562SOL     OW 3126   1.463   0.614   4.685
  562SOL    HW1 3127   1.409   0.535   4.687
  562SOL    HW2 3128   1.521   0.605   4.761
  563SOL     OW 3129   1.836   0.806   4.105
  563SOL    HW1 3130   1.894   0.763   4.167
  563SOL    HW2 3131   1.821   0.741   4.037
  564SOL     OW 3132   0.491   1.419   3.868
  564SOL    HW1 3133   0.410   1.391   3.912
  564SOL    HW2 3134   0.492   1.369   3.786
  565SOL     OW 3135   1.684   1.259   4.371
  565SOL    HW1 3136   1.778   1.255   4.386
  565SOL    HW2 3137   1.659   1.349   4.394
  566SOL     OW 3138   1.394   0.574   3.801
  566SOL    HW1 3139   1.330   0.558   3.870
  566SOL    HW2 3140   1.479   0.566   3.844
  567SOL     OW 3141   0.498   0.282   4.031
  567SOL    HW1 3142   0.548   0.231   3.967
  567SOL    HW2 3143   0.481   0.365   3.988
  568SOL     OW 3144   1.748   1.242   5.281
  568SOL    HW1 3145   1.836   1.207   5.266
  568SOL    HW2 3146   1.762   1.332   5.311
  569SOL     OW 3147   1.055   1.346   5.047
  569SOL    HW1 3148   0.979   1.320   5.098
  569SOL    HW2 3149   1.129   1.307   5.093
  570SOL     OW 3150   1.605   1.622   5.378
  570SOL    HW1 3151   1.602   1.667   5.294
  570SOL    HW2 3152   1.689   1.576   5.378
  571SOL     OW 3153   1.123   1.197   4.821
  571SOL    HW1 3154   1.079   1.248   4.889
  571SOL    HW2 3155   1.105   1.246   4.740
  572SOL     OW 3156   1.616   1.094   4.802
  572SOL    HW1 3157   1.609   1.159   4.872
  572SOL    HW2 3158   1.544   1.116   4.742
  573SOL     OW 3159   0.922   0.129   5.123
  573SOL    HW1 3160   0.929   0.107   5.030
  573SOL    HW2 3161   1.011   0.148   5.150
  574SOL     OW 3162   0.982   1.117   5.446
  574SOL    HW1 3163   0.892   1.134   5.471
  574SOL    HW2 3164   0.978   1.038   5.393
  575SOL     OW 3165   0.711   1.062   4.098
  575SOL    HW1 3166   0.699   1.042   4.191
  575SOL    HW2 3167   0.785   1.008   4.071
  576SOL     OW 3168   0.425   0.821   4.979
  576SOL    HW1 3169   0.491   0.839   5.047
  576SOL    HW2 3170   0.401   0.729   4.993
  577SOL     OW 3171   1.264   0.379   5.011
  577SOL    HW1 3172   1.298   0.458   5.054
  577SOL    HW2 3173   1.176   0.402   4.983
  578SOL     OW 3174   0.046   1.594   5.055
  578SOL    HW1 3175   0.102   1.670   5.037
  578SOL    HW2 3176   0.082   1.556   5.135
  579SOL     OW 3177   0.330   1.108   4.213
  579SOL    HW1 3178   0.341   1.186   4.158
  579SOL    HW2 3179   0.333   1.035   4.152
  580SOL     OW 3180   0.554   0.516   4.579
  580SOL    HW1 3181   0.563   0.576   4.505
  580SOL    HW2 3182   0.617   0.548   4.644
  581SOL     OW 3183   1.246   1.353   4.114
  581SOL    HW1 3184   1.301   1.423   4.148
  581SOL    HW2 3185   1.159   1.372   4.149
  582SOL     OW 3186   1.294   1.463   4.881
  582SOL    HW1 3187   1.356   1.476   4.952
  582SOL    HW2 3188   1.231   1.399   4.915
  583SOL     OW 3189   1.574   0.637   4.201
  583SOL    HW1 3190   1.523   0.676   4.273
  583SOL    HW2 3191   1.633   0.707   4.173
  584SOL     OW 3192   0.349   1.529   5.037
  584SOL    HW1 3193   0.333   1.483   4.955
  584SOL    HW2 3194   0.444   1.539   5.041
  585SOL     OW 3195   0.434   0.724   5.339
  585SOL    HW1 3196   0.483   0.780   5.279
  585SOL    HW2 3197   0.499   0.664   5.375
  586SOL     OW 3198   1.610   0.780   5.414
  586SOL    HW1 3199   1.525   0.823   5.409
  586SOL    HW2 3200   1.663   0.823   5.347
  587SOL     OW 3201   1.019   0.076   5.465
  587SOL    HW1 3202   1.081   0.130   5.515
  587SOL    HW2 3203   1.014   0.119   5.380
  588SOL     OW 3204   0.437   0.003   5.466
  588SOL    HW1 3205   0.521  -0.004   5.421
  588SOL    HW2 3206   0.416   0.096   5.465
  589SOL     OW 3207   0.587   0.879   4.757
  589SOL    HW1 3208   0.628   0.966   4.759
  589SOL    HW2 3209   0.534   0.876   4.836
  590SOL     OW 3210   1.336   0.858   4.734
  590SOL    HW1 3211   1.248   0.837   4.705
  590SOL    HW2 3212   1.384   0.776   4.725
  591SOL     OW 3213   1.192   0.528   3.980
  591SOL    HW1 3214   1.203   0.451   4.036
  591SOL    HW2 3215   1.152   0.594   4.037
  592SOL     OW 3216   0.301   0.205   4.965
  592SOL    HW1 3217   0.253   0.226   5.045
  592SOL    HW2 3218   0.291   0.110   4.955
  593SOL     OW 3219   0.046   1.309   4.993
  593SOL    HW1 3220   0.070   1.257   5.069
  593SOL    HW2 3221   0.054   1.400   5.023
  594SOL     OW 3222   0.711   0.628   4.770
  594SOL    HW1 3223   0.792   0.619   4.719
  594SOL    HW2 3224   0.686   0.720   4.757
  595SOL     OW 3225   1.746   0.956   5.587
  595SOL    HW1 3226   1.697   0.892   5.536
  595SOL    HW2 3227   1.688   0.980   5.659
  596SOL     OW 3228   0.409   0.088   4.398
  596SOL    HW1 3229   0.352   0.163   4.410
  596SOL    HW2 3230   0.359   0.028   4.343
  597SOL     OW 3231   1.626   0.405   4.070
  597SOL    HW1 3232   1.643   0.334   4.132
  597SOL    HW2 3233   1.600   0.479   4.124
  598SOL     OW 3234   1.032   0.761   4.683
  598SOL    HW1 3235   1.018   0.776   4.776
  598SOL    HW2 3236   1.000   0.672   4.667
  599SOL     OW 3237   0.975   1.561   5.448
  599SOL    HW1 3238   0.963   1.607   5.365
  599SOL    HW2 3239   1.024   1.482   5.425
  600SOL     OW 3240   1.851   1.498   5.327
  600SOL    HW1 3241   1.874   1.530   5.240
  600SOL    HW2 3242   1.923   1.528   5.383
  601SOL     OW 3243   0.361   0.947   5.512
  601SOL    HW1 3244   0.433   0.967   5.571
  601SOL    HW2 3245   0.384   0.863   5.473
  602SOL     OW 3246   1.545   0.270   3.845
  602SOL    HW1 3247   1.577   0.184   3.874
  602SOL    HW2 3248   1.566   0.329   3.918
  603SOL     OW 3249   1.279   0.822   3.747
  603SOL    HW1 3250   1.324   0.738   3.755
  603SOL    HW2 3251   1.315   0.861   3.667
  604SOL     OW 3252   1.073   1.343   4.583
  604SOL    HW1 3253   1.082   1.272   4.519
  604SOL    HW2 3254   1.130   1.412   4.549
  605SOL     OW 3255   0.321   0.808   4.663
  605SOL    HW1 3256   0.414   0.832   4.665
  605SOL    HW2 3257   0.317   0.720   4.701
  606SOL     OW 3258   0.337   0.531   4.739
  606SOL    HW1 3259   0.298   0.445   4.724
  606SOL    HW2 3260   0.413   0.534   4.680
  607SOL     OW 3261   1.158   0.414   5.385
  607SOL    HW1 3262   1.112   0.451   5.460
  607SOL    HW2 3263   1.247   0.448   5.393
  608SOL     OW 3264   1.169   0.215   5.206
  608SOL    HW1 3265   1.175   0.276   5.280
  608SOL    HW2 3266   1.202   0.264   5.131
  609SOL     OW 3267   7.980   1.301   3.921
  609SOL    HW1 3268   7.892   1.322   3.951
  609SOL    HW2 3269   7.990   1.207   3.937
  610SOL     OW 3270   0.107   1.747   4.663
  610SOL    HW1 3271   0.113   1.666   4.613
  610SOL    HW2 3272   0.186   1.796   4.641
  611SOL     OW 3273   0.489   1.575   4.626
  611SOL    HW1 3274   0.557   1.638   4.650
  611SOL    HW2 3275   0.532   1.513   4.568
  612SOL     OW 3276   0.966   0.778   4.948
  612SOL    HW1 3277   1.031   0.762   5.016
  612SOL    HW2 3278   0.882   0.755   4.988
  613SOL     OW 3279   0.075   0.548   4.846
  613SOL    HW1 3280   0.169   0.550   4.826
  613SOL    HW2 3281   0.071   0.552   4.941
  614SOL     OW 3282   0.199   0.514   5.413
  614SOL    HW1 3283   0.289   0.515   5.383
  614SOL    HW2 3284   0.166   0.602   5.395
  615SOL     OW 3285   1.383   0.929   5.378
  615SOL    HW1 3286   1.405   1.022   5.376
  615SOL    HW2 3287   1.380   0.904   5.286
  616SOL     OW 3288   0.816   0.570   4.094
  616SOL    HW1 3289   0.826   0.496   4.034
  616SOL    HW2 3290   0.742   0.619   4.059
  617SOL     OW 3291   1.637   0.600   4.896
  617SOL    HW1 3292   1.629   0.549   4.976
  617SOL    HW2 3293   1.726   0.585   4.866
  618SOL     OW 3294   0.289   1.532   5.444
  618SOL    HW1 3295   0.253   1.605   5.494
  618SOL    HW2 3296   0.282   1.457   5.503
  619SOL     OW 3297   0.728   0.454   4.976
  619SOL    HW1 3298   0.668   0.381   4.959
  619SOL    HW2 3299   0.712   0.515   4.904
  620SOL     OW 3300   0.919   1.676   5.198
  620SOL    HW1 3301   0.891   1.640   5.113
  620SOL    HW2 3302   0.921   1.771   5.185
  621SOL     OW 3303   0.445   0.505   3.878
  621SOL    HW1 3304   0.504   0.576   3.905
  621SOL    HW2 3305   0.368   0.515   3.934
  622SOL     OW 3306   0.151   1.120   5.176
  622SOL    HW1 3307   0.133   1.076   5.259
  622SOL    HW2 3308   0.157   1.049   5.112
  623SOL     OW 3309   1.312   1.038   4.938
  623SOL    HW1 3310   1.336   0.978   4.868
  623SOL    HW2 3311   1.245   1.094   4.900
  624SOL     OW 3312   1.320   0.857   4.022
  624SOL    HW1 3313   1.249   0.829   4.080
  624SOL    HW2 3314   1.285   0.844   3.934
  625SOL     OW 3315   1.755   1.734   4.863
  625SOL    HW1 3316   1.827   1.761   4.806
  625SOL    HW2 3317   1.746   1.640   4.846
  626SOL     OW 3318   1.236   1.725   4.805
  626SOL    HW1 3319   1.322   1.758   4.777
  626SOL    HW2 3320   1.254   1.637   4.838
  627SOL     OW 3321   0.059   1.185   4.756
  627SOL    HW1 3322   0.060   1.228   4.841
  627SOL    HW2 3323  -0.008   1.231   4.706
  628SOL     OW 3324   0.684   1.671   5.470
  628SOL    HW1 3325   0.627   1.748   5.459
  628SOL    HW2 3326   0.762   1.692   5.419
  629SOL     OW 3327   1.680   0.158   4.212
  629SOL    HW1 3328   1.768   0.154   4.174
  629SOL    HW2 3329   1.692   0.121   4.300
  630SOL     OW 3330   1.391   1.569   4.215
  630SOL    HW1 3331   1.451   1.605   4.150
  630SOL    HW2 3332   1.343   1.645   4.248
  631SOL     OW 3333   0.173   1.744   5.566
  631SOL    HW1 3334   0.108   1.698   5.620
  631SOL    HW2 3335   0.218   1.801   5.627
  632SOL     OW 3336   1.277   0.930   4.390
  632SOL    HW1 3337   1.351   0.872   4.405
  632SOL    HW2 3338   1.313   1.002   4.337
  633SOL     OW 3339   0.802   1.281   5.146
  633SOL    HW1 3340   0.775   1.322   5.228
  633SOL    HW2 3341   0.731   1.301   5.085
  634SOL     OW 3342   0.665   1.628   3.883
  634SOL    HW1 3343   0.678   1.644   3.790
  634SOL    HW2 3344   0.611   1.549   3.887
  635SOL     OW 3345   1.615   1.732   5.110
  635SOL    HW1 3346   1.667   1.738   5.030
  635SOL    HW2 3347   1.603   1.823   5.138
  636SOL     OW 3348   1.848   0.177   4.678
  636SOL    HW1 3349   1.849   0.082   4.689
  636SOL    HW2 3350   1.764   0.194   4.634
  637SOL     OW 3351   0.251   0.311   4.434
  637SOL    HW1 3352   0.168   0.352   4.412
  637SOL    HW2 3353   0.253   0.311   4.530
  638SOL     OW 3354   1.207   1.595   3.756
  638SOL    HW1 3355   1.198   1.505   3.789
  638SOL    HW2 3356   1.134   1.605   3.694
  639SOL     OW 3357   0.826   1.013   5.099
  639SOL    HW1 3358   0.870   1.009   5.014
  639SOL    HW2 3359   0.820   1.106   5.119
  640SOL     OW 3360   0.912   0.906   4.013
  640SOL    HW1 3361   0.972   0.941   3.946
  640SOL    HW2 3362   0.965   0.842   4.061
  641SOL     OW 3363   1.485   1.632   3.770
  641SOL    HW1 3364   1.391   1.620   3.755
  641SOL    HW2 3365   1.523   1.639   3.683
  642SOL     OW 3366   0.366   1.298   5.215
  642SOL    HW1 3367   0.351   1.378   5.165
  642SOL    HW2 3368   0.291   1.242   5.194
  643SOL     OW 3369   1.602   1.286   4.999
  643SOL    HW1 3370   1.672   1.275   5.063
  643SOL    HW2 3371   1.547   1.355   5.036
  644SOL     OW 3372   1.067   1.114   4.435
  644SOL    HW1 3373   0.995   1.064   4.474
  644SOL    HW2 3374   1.132   1.048   4.413
  645SOL     OW 3375   1.031   0.267   4.673
  645SOL    HW1 3376   1.008   0.214   4.597
  645SOL    HW2 3377   1.034   0.204   4.746
  646SOL     OW 3378   0.610   1.485   4.203
  646SOL    HW1 3379   0.659   1.439   4.135
  646SOL    HW2 3380   0.524   1.502   4.163
  647SOL     OW 3381   1.724   0.414   5.113
  647SOL    HW1 3382   1.795   0.478   5.119
  647SOL    HW2 3383   1.755   0.350   5.049
  648SOL     OW 3384   0.248   1.338   3.989
  648SOL    HW1 3385   0.153   1.342   3.982
  648SOL    HW2 3386   0.268   1.376   4.074
  649SOL     OW 3387   0.099   0.999   5.433
  649SOL    HW1 3388   0.065   1.085   5.458
  649SOL    HW2 3389   0.185   0.995   5.477
  650SOL     OW 3390   0.664   0.212   5.218
  650SOL    HW1 3391   0.733   0.152   5.190
  650SOL    HW2 3392   0.679   0.224   5.312
  651SOL     OW 3393   0.072   0.336   3.720
  651SOL    HW1 3394   0.022   0.387   3.783
  651SOL    HW2 3395   0.106   0.400   3.659
  652SOL     OW 3396   1.421   0.857   5.116
  652SOL    HW1 3397   1.371   0.919   5.062
  652SOL    HW2 3398   1.511   0.863   5.083
  653SOL     OW 3399   0.113   0.260   4.059
  653SOL    HW1 3400   0.068   0.210   3.991
  653SOL    HW2 3401   0.127   0.198   4.130
  654SOL     OW 3402   1.178   1.331   3.845
  654SOL    HW1 3403   1.087   1.300   3.848
  654SOL    HW2 3404   1.205   1.335   3.937
  655SOL     OW 3405   0.615   0.847   5.167
  655SOL    HW1 3406   0.672   0.923   5.153
  655SOL    HW2 3407   0.675   0.773   5.170
  656SOL     OW 3408   1.492   1.787   4.709
  656SOL    HW1 3409   1.512   1.863   4.654
  656SOL    HW2 3410   1.572   1.771   4.759
  657SOL     OW 3411   0.688   0.584   5.422
  657SOL    HW1 3412   0.746   0.638   5.476
  657SOL    HW2 3413   0.718   0.494   5.438
  658SOL     OW 3414   1.474   1.189   5.349
  658SOL    HW1 3415   1.463   1.207   5.442
  658SOL    HW2 3416   1.566   1.212   5.331
  659SOL     OW 3417   0.391   1.734   5.286
  659SOL    HW1 3418   0.303   1.765   5.268
  659SOL    HW2 3419   0.379   1.648   5.326
  660SOL     OW 3420   1.659   0.880   4.977
  660SOL    HW1 3421   1.659   0.797   4.929
  660SOL    HW2 3422   1.650   0.947   4.909
  661SOL     OW 3423   1.222   0.324   4.170
  661SOL    HW1 3424   1.287   0.255   4.158
  661SOL    HW2 3425   1.250   0.371   4.248
  662SOL     OW 3426   0.590   0.732   4.408
  662SOL    HW1 3427   0.633   0.817   4.397
  662SOL    HW2 3428   0.528   0.726   4.335
  663SOL     OW 3429   1.759   0.367   5.382
  663SOL    HW1 3430   1.749   0.384   5.288
  663SOL    HW2 3431   1.691   0.303   5.402
  664SOL     OW 3432   1.741   0.932   5.236
  664SOL    HW1 3433   1.740   1.026   5.250
  664SOL    HW2 3434   1.727   0.921   5.142
  665SOL     OW 3435   0.860   1.362   3.773
  665SOL    HW1 3436   0.827   1.377   3.862
  665SOL    HW2 3437   0.871   1.450   3.737
  666SOL     OW 3438   0.665   1.778   4.652
  666SOL    HW1 3439   0.649   1.872   4.642
  666SOL    HW2 3440   0.760   1.770   4.655
  667SOL     OW 3441   0.873   0.974   4.577
  667SOL    HW1 3442   0.925   0.903   4.615
  667SOL    HW2 3443   0.831   1.016   4.652
  668SOL     OW 3444   1.070   0.984   3.809
  668SOL    HW1 3445   1.053   1.040   3.733
  668SOL    HW2 3446   1.145   0.931   3.783
  669SOL     OW 3447   1.841   1.546   4.561
  669SOL    HW1 3448   1.760   1.542   4.510
  669SOL    HW2 3449   1.819   1.505   4.645
  670SOL     OW 3450   0.215   1.295   5.579
  670SOL    HW1 3451   0.122   1.283   5.563
  670SOL    HW2 3452   0.223   1.299   5.674
  671SOL     OW 3453   0.134   1.262   4.379
  671SOL    HW1 3454   0.058   1.216   4.416
  671SOL    HW2 3455   0.197   1.192   4.359
  672SOL     OW 3456   0.682   1.410   5.357
  672SOL    HW1 3457   0.601   1.373   5.391
  672SOL    HW2 3458   0.686   1.498   5.394
  673SOL     OW 3459   1.813   0.227   4.948
  673SOL    HW1 3460   1.757   0.150   4.949
  673SOL    HW2 3461   1.841   0.236   4.857
  674SOL     OW 3462   0.442   0.429   4.263
  674SOL    HW1 3463   0.459   0.365   4.194
  674SOL    HW2 3464   0.377   0.387   4.320
  675SOL     OW 3465   1.708   1.471   4.797
  675SOL    HW1 3466   1.621   1.456   4.758
  675SOL    HW2 3467   1.711   1.409   4.870
  676SOL     OW 3468   0.353   0.558   5.020
  676SOL    HW1 3469   0.397   0.497   5.078
  676SOL    HW2 3470   0.374   0.527   4.932
  677SOL     OW 3471   0.838   1.582   4.397
  677SOL    HW1 3472   0.814   1.655   4.340
  677SOL    HW2 3473   0.760   1.526   4.398
  678SOL     OW 3474   1.426   0.225   4.842
  678SOL    HW1 3475   1.490   0.168   4.885
  678SOL    HW2 3476   1.381   0.269   4.913
  679SOL     OW 3477   1.034   0.073   4.859
  679SOL    HW1 3478   0.968   0.004   4.847
  679SOL    HW2 3479   1.115   0.026   4.876
  680SOL     OW 3480   0.779   1.332   4.042
  680SOL    HW1 3481   0.756   1.240   4.058
  680SOL    HW2 3482   0.857   1.346   4.096
  681SOL     OW 3483   0.622   1.557   5.008
  681SOL    HW1 3484   0.619   1.643   5.050
  681SOL    HW2 3485   0.711   1.549   4.974
  682SOL     OW 3486   1.366   7.997   3.836
  682SOL    HW1 3487   1.443   7.949   3.866
  682SOL    HW2 3488   1.296   7.972   3.896
  683SOL     OW 3489   1.293   0.465   4.395
  683SOL    HW1 3490   1.242   0.546   4.400
  683SOL    HW2 3491   1.296   0.433   4.485
  684SOL     OW 3492   1.603   0.219   4.576
  684SOL    HW1 3493   1.529   0.215   4.636
  684SOL    HW2 3494   1.595   0.303   4.531
  685SOL     OW 3495   0.042   1.035   4.001
  685SOL    HW1 3496   0.135   1.020   3.986
  685SOL    HW2 3497   0.035   1.046   4.096
  686SOL     OW 3498   0.893   1.666   4.055
  686SOL    HW1 3499   0.814   1.650   4.003
  686SOL    HW2 3500   0.867   1.734   4.117
  687SOL     OW 3501   0.229   0.704   5.661
  687SOL    HW1 3502   0.175   0.677   5.735
  687SOL    HW2 3503   0.255   0.622   5.619
  688SOL     OW 3504   0.212   0.299   6.575
  688SOL    HW1 3505   0.253   0.242   6.640
  688SOL    HW2 3506   0.125   0.262   6.561
  689SOL     OW 3507   8.002   0.381   6.199
  689SOL    HW1 3508   7.911   0.377   6.227
  689SOL    HW2 3509   8.018   0.297   6.156
  690SOL     OW 3510   0.560   1.300   6.780
  690SOL    HW1 3511   0.484   1.314   6.724
  690SOL    HW2 3512   0.586   1.388   6.806
  691SOL     OW 3513   1.580   1.503   6.289
  691SOL    HW1 3514   1.533   1.489   6.371
  691SOL    HW2 3515   1.511   1.515   6.223
  692SOL     OW 3516   1.129   0.704   6.277
  692SOL    HW1 3517   1.181   0.784   6.265
  692SOL    HW2 3518   1.084   0.718   6.361
  693SOL     OW 3519   1.801   0.580   5.802
  693SOL    HW1 3520   1.760   0.581   5.715
  693SOL    HW2 3521   1.748   0.519   5.852
  694SOL     OW 3522   0.728   1.132   6.635
  694SOL    HW1 3523   0.667   1.173   6.696
  694SOL    HW2 3524   0.771   1.205   6.591
  695SOL     OW 3525   0.880   0.756   7.407
  695SOL    HW1 3526   0.888   0.825   7.472
  695SOL    HW2 3527   0.900   0.799   7.324
  696SOL     OW 3528   0.688   0.997   6.231
  696SOL    HW1 3529   0.757   0.993   6.298
  696SOL    HW2 3530   0.621   1.054   6.269
  697SOL     OW 3531   0.710   1.147   7.411
  697SOL    HW1 3532   0.760   1.224   7.442
  697SOL    HW2 3533   0.637   1.185   7.362
  698SOL     OW 3534   0.340   1.413   6.643
  698SOL    HW1 3535   0.284   1.366   6.582
  698SOL    HW2 3536   0.389   1.474   6.588
  699SOL     OW 3537   1.463   1.504   6.951
  699SOL    HW1 3538   1.523   1.579   6.952
  699SOL    HW2 3539   1.407   1.518   7.027
  700SOL     OW 3540   0.443   0.384   7.072
  700SOL    HW1 3541   0.533   0.352   7.071
  700SOL    HW2 3542   0.389   0.307   7.092
  701SOL     OW 3543   1.610   0.464   6.314
  701SOL    HW1 3544   1.543   0.495   6.253
  701SOL    HW2 3545   1.631   0.540   6.368
  702SOL     OW 3546   0.238   1.694   6.070
  702SOL    HW1 3547   0.234   1.779   6.114
  702SOL    HW2 3548   0.305   1.706   6.003
  703SOL     OW 3549   1.138   1.341   7.282
  703SOL    HW1 3550   1.193   1.327   7.360
  703SOL    HW2 3551   1.088   1.261   7.274
  704SOL     OW 3552   0.280   1.428   6.096
  704SOL    HW1 3553   0.266   1.522   6.107
  704SOL    HW2 3554   0.232   1.388   6.169
  705SOL     OW 3555   0.279   1.080   6.486
  705SOL    HW1 3556   0.280   0.988   6.509
  705SOL    HW2 3557   0.198   1.114   6.524
  706SOL     OW 3558   0.592   1.806   6.989
  706SOL    HW1 3559   0.519   1.785   7.047
  706SOL    HW2 3560   0.627   1.888   7.024
  707SOL     OW 3561   0.572   0.993   5.731
  707SOL    HW1 3562   0.623   1.035   5.662
  707SOL    HW2 3563   0.613   1.022   5.812
  708SOL     OW 3564   1.591   0.153   7.051
  708SOL    HW1 3565   1.642   0.221   7.007
  708SOL    HW2 3566   1.574   0.188   7.138
  709SOL     OW 3567   0.136   0.621   6.131
  709SOL    HW1 3568   0.093   0.540   6.158
  709SOL    HW2 3569   0.119   0.682   6.203
  710SOL     OW 3570   1.845   1.749   5.914
  710SOL    HW1 3571   1.917   1.726   5.973
  710SOL    HW2 3572   1.860   1.841   5.893
  711SOL     OW 3573   0.015   1.587   5.726
  711SOL    HW1 3574  -0.000   1.493   5.714
  711SOL    HW2 3575   0.005   1.600   5.820
  712SOL     OW 3576   1.672   0.874   6.198
  712SOL    HW1 3577   1.742   0.895   6.261
  712SOL    HW2 3578   1.679   0.943   6.133
  713SOL     OW 3579   1.656   1.105   6.021
  713SOL    HW1 3580   1.742   1.105   5.980
  713SOL    HW2 3581   1.666   1.159   6.099
  714SOL     OW 3582   0.158   0.757   7.161
  714SOL    HW1 3583   0.254   0.763   7.160
  714SOL    HW2 3584   0.129   0.837   7.204
  715SOL     OW 3585   0.610   1.393   6.324
  715SOL    HW1 3586   0.568   1.307   6.327
  715SOL    HW2 3587   0.601   1.421   6.233
  716SOL     OW 3588   1.284   1.231   7.009
  716SOL    HW1 3589   1.314   1.166   6.945
  716SOL    HW2 3590   1.351   1.229   7.078
  717SOL     OW 3591   0.838   0.028   6.142
  717SOL    HW1 3592   0.875   0.110   6.109
  717SOL    HW2 3593   0.744   0.037   6.128
  718SOL     OW 3594   0.174   0.949   6.866
  718SOL    HW1 3595   0.262   0.913   6.859
  718SOL    HW2 3596   0.137   0.940   6.778
  719SOL     OW 3597   1.532   1.005   5.790
  719SOL    HW1 3598   1.465   0.946   5.825
  719SOL    HW2 3599   1.578   1.038   5.867
  720SOL     OW 3600   1.166   1.811   7.215
  720SOL    HW1 3601   1.181   1.878   7.149
  720SOL    HW2 3602   1.194   1.730   7.174
  721SOL     OW 3603   0.324   0.254   7.357
  721SOL    HW1 3604   0.390   0.314   7.393
  721SOL    HW2 3605   0.244   0.276   7.404
  722SOL     OW 3606   1.454   1.428   6.522
  722SOL    HW1 3607   1.396   1.440   6.597
  722SOL    HW2 3608   1.449   1.334   6.503
  723SOL     OW 3609   1.650   1.760   6.162
  723SOL    HW1 3610   1.635   1.723   6.075
  723SOL    HW2 3611   1.647   1.686   6.222
  724SOL     OW 3612   0.593   0.715   5.855
  724SOL    HW1 3613   0.599   0.802   5.815
  724SOL    HW2 3614   0.532   0.727   5.927
  725SOL     OW 3615   1.292   0.371   6.520
  725SOL    HW1 3616   1.201   0.341   6.525
  725SOL    HW2 3617   1.339   0.316   6.583
  726SOL     OW 3618   1.581   1.667   5.898
  726SOL    HW1 3619   1.672   1.694   5.891
  726SOL    HW2 3620   1.553   1.653   5.807
  727SOL     OW 3621   0.774   0.641   7.025
  727SOL    HW1 3622   0.765   0.606   7.113
  727SOL    HW2 3623   0.759   0.566   6.968
  728SOL     OW 3624   1.420   0.500   7.258
  728SOL    HW1 3625   1.429   0.543   7.344
  728SOL    HW2 3626   1.464   0.416   7.269
  729SOL     OW 3627   0.946   0.883   7.171
  729SOL    HW1 3628   1.001   0.815   7.132
  729SOL    HW2 3629   0.900   0.922   7.097
  730SOL     OW 3630   1.000   0.408   6.810
  730SOL    HW1 3631   0.910   0.431   6.833
  730SOL    HW2 3632   0.995   0.376   6.720
  731SOL     OW 3633   1.054   0.698   6.008
  731SOL    HW1 3634   1.074   0.696   6.102
  731SOL    HW2 3635   0.970   0.653   6.001
  732SOL     OW 3636   0.095   0.787   6.355
  732SOL    HW1 3637   0.174   0.799   6.408
  732SOL    HW2 3638   0.058   0.875   6.346
  733SOL     OW 3639   0.116   1.795   7.147
  733SOL    HW1 3640   0.127   1.805   7.241
  733SOL    HW2 3641   0.022   1.806   7.131
  734SOL     OW 3642   0.892   0.346   5.778
  734SOL    HW1 3643   0.946   0.399   5.719
  734SOL    HW2 3644   0.916   0.256   5.757
  735SOL     OW 3645   1.687   0.571   7.419
  735SOL    HW1 3646   1.662   0.648   7.368
  735SOL    HW2 3647   1.729   0.513   7.356
  736SOL     OW 3648   1.382   1.137   6.114
  736SOL    HW1 3649   1.467   1.131   6.070
  736SOL    HW2 3650   1.335   1.205   6.066
  737SOL     OW 3651   0.492   0.211   6.512
  737SOL    HW1 3652   0.527   0.254   6.590
  737SOL    HW2 3653   0.541   0.248   6.439
  738SOL     OW 3654   0.995   1.443   6.050
  738SOL    HW1 3655   0.968   1.520   6.001
  738SOL    HW2 3656   0.978   1.465   6.142
  739SOL     OW 3657   0.366   1.828   6.452
  739SOL    HW1 3658   0.415   1.747   6.464
  739SOL    HW2 3659   0.429   1.898   6.470
  740SOL     OW 3660   1.754   1.021   6.434
  740SOL    HW1 3661   1.739   1.103   6.387
  740SOL    HW2 3662   1.732   1.040   6.525
  741SOL     OW 3663   1.221   1.545   7.107
  741SOL    HW1 3664   1.210   1.468   7.163
  741SOL    HW2 3665   1.179   1.519   7.024
  742SOL     OW 3666   0.305   0.948   5.821
  742SOL    HW1 3667   0.392   0.974   5.792
  742SOL    HW2 3668   0.283   0.871   5.768
  743SOL     OW 3669   1.465   0.744   6.308
  743SOL    HW1 3670   1.475   0.713   6.398
  743SOL    HW2 3671   1.545   0.792   6.289
  744SOL     OW 3672   0.460   1.275   7.336
  744SOL    HW1 3673   0.435   1.290   7.244
  744SOL    HW2 3674   0.385   1.230   7.374
  745SOL     OW 3675   1.121   1.780   5.809
  745SOL    HW1 3676   1.046   1.739   5.853
  745SOL    HW2 3677   1.149   1.716   5.743
  746SOL     OW 3678   0.165   0.268   7.089
  746SOL    HW1 3679   0.158   0.361   7.065
  746SOL    HW2 3680   0.189   0.269   7.181
  747SOL     OW 3681   1.626   1.378   5.675
  747SOL    HW1 3682   1.588   1.465   5.662
  747SOL    HW2 3683   1.556   1.317   5.651
  748SOL     OW 3684   0.459   1.741   5.901
  748SOL    HW1 3685   0.505   1.796   5.963
  748SOL    HW2 3686   0.527   1.706   5.844
  749SOL     OW 3687   1.418   0.130   5.991
  749SOL    HW1 3688   1.443   0.101   5.903
  749SOL    HW2 3689   1.501   0.142   6.037
  750SOL     OW 3690   0.233   1.793   6.804
  750SOL    HW1 3691   0.295   1.723   6.826
  750SOL    HW2 3692   0.194   1.765   6.721
  751SOL     OW 3693   0.947   1.697   6.484
  751SOL    HW1 3694   1.035   1.659   6.493
  751SOL    HW2 3695   0.907   1.647   6.413
  752SOL     OW 3696   0.411   0.694   6.066
  752SOL    HW1 3697   0.431   0.602   6.083
  752SOL    HW2 3698   0.316   0.700   6.077
  753SOL     OW 3699   1.515   0.238   7.310
  753SOL    HW1 3700   1.523   0.252   7.404
  753SOL    HW2 3701   1.473   0.152   7.302
  754SOL     OW 3702   0.554   0.101   5.704
  754SOL    HW1 3703   0.641   0.078   5.736
  754SOL    HW2 3704   0.547   0.059   5.618
  755SOL     OW 3705   0.738   0.289   7.354
  755SOL    HW1 3706   0.832   0.293   7.333
  755SOL    HW2 3707   0.735   0.287   7.450
  756SOL     OW 3708   0.866   1.505   6.785
  756SOL    HW1 3709   0.856   1.476   6.695
  756SOL    HW2 3710   0.947   1.465   6.816
  757SOL     OW 3711   1.339   0.598   7.017
  757SOL    HW1 3712   1.382   0.572   7.098
  757SOL    HW2 3713   1.373   0.685   6.998
  758SOL     OW 3714   0.815   1.377   6.533
  758SOL    HW1 3715   0.903   1.371   6.495
  758SOL    HW2 3716   0.758   1.394   6.459
  759SOL     OW 3717   0.921   0.517   6.479
  759SOL    HW1 3718   0.891   0.508   6.388
  759SOL    HW2 3719   0.960   0.432   6.499
  760SOL     OW 3720   0.579   0.046   6.037
  760SOL    HW1 3721   0.497   0.013   6.074
  760SOL    HW2 3722   0.554   0.129   5.995
  761SOL     OW 3723   1.424   1.199   5.621
  761SOL    HW1 3724   1.456   1.128   5.677
  761SOL    HW2 3725   1.342   1.226   5.661
  762SOL     OW 3726   0.284   0.036   5.785
  762SOL    HW1 3727   0.368   0.067   5.750
  762SOL    HW2 3728   0.308  -0.023   5.856
  763SOL     OW 3729   0.945   0.264   6.045
  763SOL    HW1 3730   0.916   0.296   5.960
  763SOL    HW2 3731   1.040   0.276   6.044
  764SOL     OW 3732   1.080   0.680   7.049
  764SOL    HW1 3733   1.028   0.600   7.056
  764SOL    HW2 3734   1.170   0.649   7.039
  765SOL     OW 3735   1.208   1.582   6.385
  765SOL    HW1 3736   1.227   1.644   6.315
  765SOL    HW2 3737   1.287   1.583   6.441
  766SOL     OW 3738   0.473   1.153   6.309
  766SOL    HW1 3739   0.411   1.131   6.379
  766SOL    HW2 3740   0.425   1.136   6.228
  767SOL     OW 3741   1.262   1.792   6.200
  767SOL    HW1 3742   1.316   1.851   6.147
  767SOL    HW2 3743   1.201   1.850   6.245
  768SOL     OW 3744   1.032   0.524   5.609
  768SOL    HW1 3745   0.986   0.605   5.590
  768SOL    HW2 3746   1.090   0.545   5.683
  769SOL     OW 3747   0.110   0.553   6.986
  769SOL    HW1 3748   0.198   0.556   6.949
  769SOL    HW2 3749   0.106   0.628   7.044
  770SOL     OW 3750   0.578   0.233   6.782
  770SOL    HW1 3751   0.615   0.177   6.850
  770SOL    HW2 3752   0.483   0.226   6.795
  771SOL     OW 3753   0.846   0.458   6.220
  771SOL    HW1 3754   0.819   0.518   6.149
  771SOL    HW2 3755   0.883   0.383   6.174
  772SOL     OW 3756   0.951   0.037   6.391
  772SOL    HW1 3757   0.910   0.036   6.304
  772SOL    HW2 3758   0.998  -0.047   6.395
  773SOL     OW 3759   1.446   1.163   6.447
  773SOL    HW1 3760   1.380   1.094   6.439
  773SOL    HW2 3761   1.487   1.168   6.360
  774SOL     OW 3762   1.462   0.615   6.555
  774SOL    HW1 3763   1.412   0.533   6.553
  774SOL    HW2 3764   1.523   0.603   6.628
  775SOL     OW 3765   1.850   0.807   5.948
  775SOL    HW1 3766   1.898   0.767   6.020
  775SOL    HW2 3767   1.830   0.734   5.889
  776SOL     OW 3768   0.490   1.418   5.727
  776SOL    HW1 3769   0.410   1.388   5.771
  776SOL    HW2 3770   0.493   1.367   5.646
  777SOL     OW 3771   1.687   1.245   6.253
  777SOL    HW1 3772   1.783   1.248   6.256
  777SOL    HW2 3773   1.660   1.337   6.261
  778SOL     OW 3774   1.393   0.577   5.664
  778SOL    HW1 3775   1.331   0.559   5.735
  778SOL    HW2 3776   1.479   0.573   5.706
  779SOL     OW 3777   0.509   0.277   5.903
  779SOL    HW1 3778   0.525   0.216   5.830
  779SOL    HW2 3779   0.496   0.362   5.861
  780SOL     OW 3780   1.750   1.241   7.173
  780SOL    HW1 3781   1.834   1.207   7.141
  780SOL    HW2 3782   1.766   1.334   7.190
  781SOL     OW 3783   1.059   1.349   6.917
  781SOL    HW1 3784   0.984   1.320   6.968
  781SOL    HW2 3785   1.134   1.306   6.958
  782SOL     OW 3786   1.604   1.625   7.244
  782SOL    HW1 3787   1.597   1.666   7.158
  782SOL    HW2 3788   1.686   1.577   7.241
  783SOL     OW 3789   1.123   1.206   6.686
  783SOL    HW1 3790   1.077   1.258   6.752
  783SOL    HW2 3791   1.105   1.249   6.603
  784SOL     OW 3792   1.610   1.082   6.670
  784SOL    HW1 3793   1.603   1.147   6.739
  784SOL    HW2 3794   1.548   1.110   6.604
  785SOL     OW 3795   0.905   0.125   6.979
  785SOL    HW1 3796   0.920   0.098   6.889
  785SOL    HW2 3797   0.991   0.151   7.011
  786SOL     OW 3798   0.982   1.114   7.310
  786SOL    HW1 3799   0.890   1.130   7.331
  786SOL    HW2 3800   0.981   1.037   7.253
  787SOL     OW 3801   0.710   1.060   5.961
  787SOL    HW1 3802   0.699   1.041   6.054
  787SOL    HW2 3803   0.784   1.006   5.933
  788SOL     OW 3804   0.419   0.828   6.844
  788SOL    HW1 3805   0.488   0.842   6.909
  788SOL    HW2 3806   0.396   0.736   6.852
  789SOL     OW 3807   1.263   0.371   6.884
  789SOL    HW1 3808   1.298   0.453   6.919
  789SOL    HW2 3809   1.177   0.395   6.849
  790SOL     OW 3810   0.081   1.559   6.952
  790SOL    HW1 3811   0.071   1.649   6.983
  790SOL    HW2 3812   0.174   1.551   6.929
  791SOL     OW 3813   0.322   1.110   6.077
  791SOL    HW1 3814   0.339   1.187   6.023
  791SOL    HW2 3815   0.330   1.036   6.017
  792SOL     OW 3816   0.550   0.533   6.445
  792SOL    HW1 3817   0.563   0.592   6.371
  792SOL    HW2 3818   0.618   0.558   6.508
  793SOL     OW 3819   1.247   1.352   5.975
  793SOL    HW1 3820   1.303   1.423   6.007
  793SOL    HW2 3821   1.160   1.373   6.010
  794SOL     OW 3822   1.297   1.461   6.742
  794SOL    HW1 3823   1.360   1.474   6.813
  794SOL    HW2 3824   1.249   1.382   6.765
  795SOL     OW 3825   1.575   0.634   6.065
  795SOL    HW1 3826   1.512   0.674   6.125
  795SOL    HW2 3827   1.643   0.700   6.053
  796SOL     OW 3828   0.348   1.522   6.889
  796SOL    HW1 3829   0.337   1.481   6.804
  796SOL    HW2 3830   0.441   1.545   6.894
  797SOL     OW 3831   0.440   0.730   7.202
  797SOL    HW1 3832   0.490   0.781   7.139
  797SOL    HW2 3833   0.501   0.664   7.234
  798SOL     OW 3834   1.609   0.787   7.277
  798SOL    HW1 3835   1.524   0.829   7.268
  798SOL    HW2 3836   1.664   0.826   7.209
  799SOL     OW 3837   1.015   0.089   7.318
  799SOL    HW1 3838   1.077   0.133   7.377
  799SOL    HW2 3839   1.037   0.122   7.231
  800SOL     OW 3840   0.424  -0.003   7.339
  800SOL    HW1 3841   0.506  -0.013   7.290
  800SOL    HW2 3842   0.404   0.091   7.335
  801SOL     OW 3843   0.589   0.878   6.621
  801SOL    HW1 3844   0.629   0.965   6.620
  801SOL    HW2 3845   0.531   0.880   6.697
  802SOL     OW 3846   1.335   0.858   6.603
  802SOL    HW1 3847   1.253   0.838   6.557
  802SOL    HW2 3848   1.388   0.778   6.594
  803SOL     OW 3849   1.191   0.524   5.843
  803SOL    HW1 3850   1.203   0.449   5.901
  803SOL    HW2 3851   1.154   0.592   5.900
  804SOL     OW 3852   0.311   0.197   6.827
  804SOL    HW1 3853   0.250   0.206   6.900
  804SOL    HW2 3854   0.304   0.105   6.801
  805SOL     OW 3855   0.049   1.306   6.844
  805SOL    HW1 3856   0.049   1.251   6.922
  805SOL    HW2 3857   0.055   1.395   6.877
  806SOL     OW 3858   0.717   0.630   6.638
  806SOL    HW1 3859   0.795   0.620   6.583
  806SOL    HW2 3860   0.689   0.721   6.624
  807SOL     OW 3861   1.748   0.949   7.458
  807SOL    HW1 3862   1.702   0.892   7.397
  807SOL    HW2 3863   1.683   0.975   7.522
  808SOL     OW 3864   0.364   0.087   6.238
  808SOL    HW1 3865   0.341   0.173   6.274
  808SOL    HW2 3866   0.363   0.028   6.314
  809SOL     OW 3867   1.625   0.404   5.933
  809SOL    HW1 3868   1.642   0.334   5.996
  809SOL    HW2 3869   1.601   0.479   5.986
  810SOL     OW 3870   1.026   0.761   6.542
  810SOL    HW1 3871   1.017   0.776   6.636
  810SOL    HW2 3872   0.997   0.671   6.529
  811SOL     OW 3873   0.970   1.554   7.312
  811SOL    HW1 3874   0.958   1.605   7.232
  811SOL    HW2 3875   1.026   1.481   7.285
  812SOL     OW 3876   1.846   1.504   7.189
  812SOL    HW1 3877   1.870   1.529   7.100
  812SOL    HW2 3878   1.926   1.517   7.240
  813SOL     OW 3879   0.381   0.947   7.374
  813SOL    HW1 3880   0.448   0.954   7.441
  813SOL    HW2 3881   0.403   0.867   7.326
  814SOL     OW 3882   1.528   0.267   5.715
  814SOL    HW1 3883   1.566   0.183   5.741
  814SOL    HW2 3884   1.555   0.328   5.784
  815SOL     OW 3885   1.278   0.823   5.607
  815SOL    HW1 3886   1.325   0.740   5.616
  815SOL    HW2 3887   1.314   0.863   5.528
  816SOL     OW 3888   1.070   1.344   6.448
  816SOL    HW1 3889   1.079   1.273   6.384
  816SOL    HW2 3890   1.125   1.414   6.414
  817SOL     OW 3891   0.321   0.805   6.521
  817SOL    HW1 3892   0.414   0.826   6.518
  817SOL    HW2 3893   0.317   0.717   6.558
  818SOL     OW 3894   0.337   0.531   6.605
  818SOL    HW1 3895   0.296   0.447   6.588
  818SOL    HW2 3896   0.412   0.534   6.546
  819SOL     OW 3897   1.173   0.397   7.287
  819SOL    HW1 3898   1.113   0.452   7.338
  819SOL    HW2 3899   1.249   0.452   7.272
  820SOL     OW 3900   1.134   0.231   7.082
  820SOL    HW1 3901   1.165   0.283   7.156
  820SOL    HW2 3902   1.183   0.265   7.007
  821SOL     OW 3903   7.979   1.303   5.785
  821SOL    HW1 3904   7.890   1.322   5.813
  821SOL    HW2 3905   7.989   1.209   5.798
  822SOL     OW 3906   0.123   1.738   6.538
  822SOL    HW1 3907   0.104   1.687   6.459
  822SOL    HW2 3908   0.201   1.789   6.515
  823SOL     OW 3909   0.495   1.577   6.493
  823SOL    HW1 3910   0.564   1.640   6.514
  823SOL    HW2 3911   0.536   1.516   6.432
  824SOL     OW 3912   0.965   0.779   6.811
  824SOL    HW1 3913   1.033   0.765   6.877
  824SOL    HW2 3914   0.885   0.747   6.853
  825SOL     OW 3915   0.072   0.553   6.712
  825SOL    HW1 3916   0.165   0.547   6.687
  825SOL    HW2 3917   0.072   0.547   6.807
  826SOL     OW 3918   0.206   0.522   7.285
  826SOL    HW1 3919   0.291   0.507   7.243
  826SOL    HW2 3920   0.174   0.604   7.247
  827SOL     OW 3921   1.380   0.934   7.239
  827SOL    HW1 3922   1.406   1.026   7.236
  827SOL    HW2 3923   1.378   0.906   7.148
  828SOL     OW 3924   0.815   0.567   5.954
  828SOL    HW1 3925   0.821   0.496   5.891
  828SOL    HW2 3926   0.743   0.621   5.923
  829SOL     OW 3927   1.639   0.585   6.760
  829SOL    HW1 3928   1.636   0.539   6.844
  829SOL    HW2 3929   1.729   0.572   6.729
  830SOL     OW 3930   0.254   1.523   7.303
  830SOL    HW1 3931   0.220   1.607   7.334
  830SOL    HW2 3932   0.312   1.494   7.373
  831SOL     OW 3933   0.728   0.452   6.840
  831SOL    HW1 3934   0.670   0.378   6.819
  831SOL    HW2 3935   0.714   0.514   6.768
  832SOL     OW 3936   0.895   1.685   7.075
  832SOL    HW1 3937   0.890   1.641   6.989
  832SOL    HW2 3938   0.906   1.777   7.054
  833SOL     OW 3939   0.456   0.497   5.750
  833SOL    HW1 3940   0.510   0.573   5.770
  833SOL    HW2 3941   0.372   0.513   5.793
  834SOL     OW 3942   0.120   1.137   7.062
  834SOL    HW1 3943   0.112   1.080   7.139
  834SOL    HW2 3944   0.137   1.078   6.989
  835SOL     OW 3945   1.302   1.036   6.806
  835SOL    HW1 3946   1.330   0.977   6.736
  835SOL    HW2 3947   1.238   1.095   6.764
  836SOL     OW 3948   1.319   0.853   5.883
  836SOL    HW1 3949   1.244   0.831   5.938
  836SOL    HW2 3950   1.286   0.846   5.793
  837SOL     OW 3951   1.786   1.743   6.755
  837SOL    HW1 3952   1.847   1.765   6.684
  837SOL    HW2 3953   1.749   1.658   6.730
  838SOL     OW 3954   1.238   1.729   6.684
  838SOL    HW1 3955   1.320   1.760   6.645
  838SOL    HW2 3956   1.255   1.638   6.707
  839SOL     OW 3957   0.051   1.187   6.603
  839SOL    HW1 3958   0.053   1.232   6.687
  839SOL    HW2 3959  -0.011   1.237   6.550
  840SOL     OW 3960   0.683   1.673   7.324
  840SOL    HW1 3961   0.629   1.751   7.317
  840SOL    HW2 3962   0.759   1.691   7.268
  841SOL     OW 3963   1.680   0.155   6.073
  841SOL    HW1 3964   1.761   0.152   6.023
  841SOL    HW2 3965   1.703   0.122   6.160
  842SOL     OW 3966   1.393   1.567   6.078
  842SOL    HW1 3967   1.453   1.601   6.012
  842SOL    HW2 3968   1.346   1.645   6.109
  843SOL     OW 3969   0.179   1.750   7.423
  843SOL    HW1 3970   0.113   1.706   7.477
  843SOL    HW2 3971   0.224   1.809   7.483
  844SOL     OW 3972   1.276   0.933   6.255
  844SOL    HW1 3973   1.349   0.873   6.269
  844SOL    HW2 3974   1.313   1.002   6.200
  845SOL     OW 3975   0.806   1.280   7.011
  845SOL    HW1 3976   0.771   1.321   7.090
  845SOL    HW2 3977   0.754   1.318   6.939
  846SOL     OW 3978   0.665   1.625   5.745
  846SOL    HW1 3979   0.680   1.643   5.652
  846SOL    HW2 3980   0.611   1.547   5.746
  847SOL     OW 3981   1.617   1.730   6.980
  847SOL    HW1 3982   1.676   1.734   6.906
  847SOL    HW2 3983   1.600   1.822   7.001
  848SOL     OW 3984   1.843   0.180   6.541
  848SOL    HW1 3985   1.850   0.085   6.535
  848SOL    HW2 3986   1.760   0.201   6.497
  849SOL     OW 3987   0.260   0.330   6.304
  849SOL    HW1 3988   0.172   0.355   6.277
  849SOL    HW2 3989   0.256   0.327   6.399
  850SOL     OW 3990   1.208   1.599   5.620
  850SOL    HW1 3991   1.197   1.508   5.645
  850SOL    HW2 3992   1.142   1.614   5.552
  851SOL     OW 3993   0.825   1.012   6.960
  851SOL    HW1 3994   0.872   1.003   6.877
  851SOL    HW2 3995   0.822   1.106   6.976
  852SOL     OW 3996   0.912   0.905   5.879
  852SOL    HW1 3997   0.969   0.938   5.809
  852SOL    HW2 3998   0.967   0.842   5.925
  853SOL     OW 3999   1.489   1.625   5.631
  853SOL    HW1 4000   1.395   1.618   5.615
  853SOL    HW2 4001   1.527   1.632   5.543
  854SOL     OW 4002   0.345   1.320   7.085
  854SOL    HW1 4003   0.365   1.394   7.027
  854SOL    HW2 4004   0.345   1.244   7.028
  855SOL     OW 4005   1.593   1.268   6.867
  855SOL    HW1 4006   1.687   1.285   6.880
  855SOL    HW2 4007   1.550   1.347   6.900
  856SOL     OW 4008   1.066   1.116   6.299
  856SOL    HW1 4009   0.995   1.063   6.337
  856SOL    HW2 4010   1.133   1.052   6.276
  857SOL     OW 4011   1.025   0.264   6.541
  857SOL    HW1 4012   1.004   0.212   6.464
  857SOL    HW2 4013   1.031   0.200   6.612
  858SOL     OW 4014   0.610   1.487   6.069
  858SOL    HW1 4015   0.662   1.438   6.005
  858SOL    HW2 4016   0.535   1.520   6.020
  859SOL     OW 4017   1.729   0.404   6.984
  859SOL    HW1 4018   1.798   0.470   6.991
  859SOL    HW2 4019   1.760   0.345   6.916
  860SOL     OW 4020   0.247   1.336   5.849
  860SOL    HW1 4021   0.152   1.340   5.842
  860SOL    HW2 4022   0.267   1.374   5.935
  861SOL     OW 4023   0.125   0.994   7.296
  861SOL    HW1 4024   0.080   1.049   7.360
  861SOL    HW2 4025   0.213   0.982   7.331
  862SOL     OW 4026   0.666   0.221   7.084
  862SOL    HW1 4027   0.737   0.165   7.052
  862SOL    HW2 4028   0.681   0.226   7.179
  863SOL     OW 4029   0.055   0.341   5.571
  863SOL    HW1 4030   0.009   0.392   5.638
  863SOL    HW2 4031   0.096   0.407   5.515
  864SOL     OW 4032   1.418   0.859   6.979
  864SOL    HW1 4033   1.368   0.921   6.926
  864SOL    HW2 4034   1.507   0.862   6.943
  865SOL     OW 4035   0.111   0.269   5.912
  865SOL    HW1 4036   0.064   0.229   5.839
  865SOL    HW2 4037   0.146   0.195   5.962
  866SOL     OW 4038   1.180   1.331   5.705
  866SOL    HW1 4039   1.088   1.304   5.708
  866SOL    HW2 4040   1.207   1.336   5.796
  867SOL     OW 4041   0.613   0.852   7.028
  867SOL    HW1 4042   0.673   0.925   7.010
  867SOL    HW2 4043   0.670   0.775   7.029
  868SOL     OW 4044   1.481   1.790   6.566
  868SOL    HW1 4045   1.507   1.865   6.512
  868SOL    HW2 4046   1.564   1.753   6.598
  869SOL     OW 4047   0.691   0.579   7.286
  869SOL    HW1 4048   0.750   0.633   7.338
  869SOL    HW2 4049   0.719   0.489   7.302
  870SOL     OW 4050   1.477   1.191   7.212
  870SOL    HW1 4051   1.470   1.208   7.306
  870SOL    HW2 4052   1.568   1.211   7.191
  871SOL     OW 4053   0.382   1.736   7.148
  871SOL    HW1 4054   0.293   1.767   7.128
  871SOL    HW2 4055   0.369   1.647   7.182
  872SOL     OW 4056   1.655   0.873   6.845
  872SOL    HW1 4057   1.668   0.794   6.793
  872SOL    HW2 4058   1.649   0.944   6.781
  873SOL     OW 4059   1.216   0.319   6.032
  873SOL    HW1 4060   1.283   0.252   6.020
  873SOL    HW2 4061   1.243   0.367   6.110
  874SOL     OW 4062   0.592   0.738   6.267
  874SOL    HW1 4063   0.634   0.823   6.254
  874SOL    HW2 4064   0.530   0.730   6.195
  875SOL     OW 4065   1.757   0.353   7.257
  875SOL    HW1 4066   1.756   0.375   7.164
  875SOL    HW2 4067   1.670   0.317   7.274
  876SOL     OW 4068   1.750   0.931   7.099
  876SOL    HW1 4069   1.746   1.026   7.110
  876SOL    HW2 4070   1.731   0.917   7.006
  877SOL     OW 4071   0.861   1.363   5.633
  877SOL    HW1 4072   0.827   1.394   5.717
  877SOL    HW2 4073   0.880   1.443   5.584
  878SOL     OW 4074   0.670   1.779   6.522
  878SOL    HW1 4075   0.653   1.872   6.505
  878SOL    HW2 4076   0.765   1.771   6.518
  879SOL     OW 4077   0.871   0.973   6.439
  879SOL    HW1 4078   0.923   0.902   6.475
  879SOL    HW2 4079   0.832   1.016   6.516
  880SOL     OW 4080   1.064   0.977   5.669
  880SOL    HW1 4081   1.048   1.038   5.597
  880SOL    HW2 4082   1.142   0.927   5.643
  881SOL     OW 4083   1.859   1.536   6.427
  881SOL    HW1 4084   1.774   1.522   6.386
  881SOL    HW2 4085   1.871   1.460   6.484
  882SOL     OW 4086   0.193   1.261   7.436
  882SOL    HW1 4087   0.098   1.269   7.445
  882SOL    HW2 4088   0.227   1.281   7.524
  883SOL     OW 4089   0.134   1.256   6.252
  883SOL    HW1 4090   0.061   1.203   6.284
  883SOL    HW2 4091   0.196   1.193   6.216
  884SOL     OW 4092   0.673   1.409   7.213
  884SOL    HW1 4093   0.604   1.376   7.270
  884SOL    HW2 4094   0.690   1.498   7.244
  885SOL     OW 4095   1.825   0.227   6.814
  885SOL    HW1 4096   1.813   0.132   6.817
  885SOL    HW2 4097   1.837   0.246   6.721
  886SOL     OW 4098   0.446   0.433   6.125
  886SOL    HW1 4099   0.451   0.368   6.055
  886SOL    HW2 4100   0.382   0.398   6.187
  887SOL     OW 4101   1.676   1.510   6.677
  887SOL    HW1 4102   1.599   1.480   6.628
  887SOL    HW2 4103   1.739   1.439   6.667
  888SOL     OW 4104   0.355   0.562   6.880
  888SOL    HW1 4105   0.402   0.500   6.935
  888SOL    HW2 4106   0.373   0.533   6.791
  889SOL     OW 4107   0.834   1.590   6.257
  889SOL    HW1 4108   0.823   1.666   6.199
  889SOL    HW2 4109   0.757   1.536   6.241
  890SOL     OW 4110   1.422   0.221   6.706
  890SOL    HW1 4111   1.493   0.169   6.743
  890SOL    HW2 4112   1.386   0.268   6.781
  891SOL     OW 4113   1.044   0.067   6.726
  891SOL    HW1 4114   1.006  -0.020   6.739
  891SOL    HW2 4115   1.139   0.052   6.733
  892SOL     OW 4116   0.775   1.332   5.912
  892SOL    HW1 4117   0.754   1.239   5.922
  892SOL    HW2 4118   0.857   1.344   5.960
  893SOL     OW 4119   0.617   1.560   6.873
  893SOL    HW1 4120   0.617   1.647   6.912
  893SOL    HW2 4121   0.706   1.549   6.838
  894SOL     OW 4122   1.360   7.983   5.695
  894SOL    HW1 4123   1.430   7.925   5.723
  894SOL    HW2 4124   1.292   7.972   5.761
  895SOL     OW 4125   1.280   0.461   6.256
  895SOL    HW1 4126   1.238   0.547   6.263
  895SOL    HW2 4127   1.293   0.433   6.347
  896SOL     OW 4128   1.602   0.219   6.431
  896SOL    HW1 4129   1.525   0.212   6.487
  896SOL    HW2 4130   1.594   0.305   6.390
  897SOL     OW 4131   0.043   1.036   5.860
  897SOL    HW1 4132   0.135   1.019   5.842
  897SOL    HW2 4133   0.039   1.047   5.955
  898SOL     OW 4134   0.888   1.662   5.921
  898SOL    HW1 4135   0.812   1.649   5.865
  898SOL    HW2 4136   0.864   1.734   5.979
  899SOL     OW 4137   0.239   0.702   7.534
  899SOL    HW1 4138   0.201   0.650   7.604
  899SOL    HW2 4139   0.242   0.643   7.459
  900SOL     OW 4140   0.223   0.290   8.432
  900SOL    HW1 4141   0.246   0.247   8.515
  900SOL    HW2 4142   0.131   0.270   8.420
  901SOL     OW 4143   8.001   0.392   8.050
  901SOL    HW1 4144   7.916   0.381   8.092
  901SOL    HW2 4145   8.005   0.323   7.984
  902SOL     OW 4146   0.571   1.300   8.641
  902SOL    HW1 4147   0.486   1.308   8.596
  902SOL    HW2 4148   0.589   1.389   8.673
  903SOL     OW 4149   1.577   1.506   8.154
  903SOL    HW1 4150   1.531   1.487   8.236
  903SOL    HW2 4151   1.508   1.513   8.089
  904SOL     OW 4152   1.132   0.702   8.141
  904SOL    HW1 4153   1.182   0.783   8.126
  904SOL    HW2 4154   1.087   0.716   8.224
  905SOL     OW 4155   1.785   0.597   7.668
  905SOL    HW1 4156   1.752   0.597   7.578
  905SOL    HW2 4157   1.742   0.522   7.709
  906SOL     OW 4158   0.736   1.133   8.497
  906SOL    HW1 4159   0.673   1.174   8.557
  906SOL    HW2 4160   0.778   1.207   8.453
  907SOL     OW 4161   0.880   0.752   9.268
  907SOL    HW1 4162   0.877   0.821   9.334
  907SOL    HW2 4163   0.901   0.797   9.186
  908SOL     OW 4164   0.687   0.997   8.094
  908SOL    HW1 4165   0.756   0.992   8.161
  908SOL    HW2 4166   0.621   1.054   8.132
  909SOL     OW 4167   0.714   1.152   9.275
  909SOL    HW1 4168   0.764   1.228   9.304
  909SOL    HW2 4169   0.639   1.189   9.229
  910SOL     OW 4170   0.342   1.413   8.513
  910SOL    HW1 4171   0.282   1.367   8.454
  910SOL    HW2 4172   0.390   1.473   8.456
  911SOL     OW 4173   1.461   1.501   8.816
  911SOL    HW1 4174   1.517   1.579   8.820
  911SOL    HW2 4175   1.393   1.516   8.882
  912SOL     OW 4176   0.447   0.378   8.927
  912SOL    HW1 4177   0.534   0.337   8.925
  912SOL    HW2 4178   0.391   0.314   8.971
  913SOL     OW 4179   1.588   0.455   8.180
  913SOL    HW1 4180   1.511   0.464   8.124
  913SOL    HW2 4181   1.592   0.538   8.229
  914SOL     OW 4182   0.242   1.690   7.931
  914SOL    HW1 4183   0.233   1.775   7.975
  914SOL    HW2 4184   0.308   1.705   7.863
  915SOL     OW 4185   1.138   1.342   9.142
  915SOL    HW1 4186   1.183   1.332   9.226
  915SOL    HW2 4187   1.087   1.262   9.132
  916SOL     OW 4188   0.274   1.422   7.947
  916SOL    HW1 4189   0.265   1.517   7.960
  916SOL    HW2 4190   0.230   1.383   8.023
  917SOL     OW 4191   0.277   1.082   8.349
  917SOL    HW1 4192   0.277   0.989   8.371
  917SOL    HW2 4193   0.199   1.117   8.393
  918SOL     OW 4194   0.605   1.799   8.866
  918SOL    HW1 4195   0.526   1.779   8.916
  918SOL    HW2 4196   0.630   1.887   8.896
  919SOL     OW 4197   0.571   0.992   7.594
  919SOL    HW1 4198   0.624   1.033   7.526
  919SOL    HW2 4199   0.611   1.020   7.676
  920SOL     OW 4200   1.653   0.120   8.932
  920SOL    HW1 4201   1.624   0.173   8.858
  920SOL    HW2 4202   1.605   0.155   9.007
  921SOL     OW 4203   0.136   0.627   7.991
  921SOL    HW1 4204   0.093   0.546   8.019
  921SOL    HW2 4205   0.121   0.688   8.063
  922SOL     OW 4206   1.848   1.790   7.788
  922SOL    HW1 4207   1.918   1.758   7.845
  922SOL    HW2 4208   1.893   1.837   7.718
  923SOL     OW 4209   0.025   1.582   7.580
  923SOL    HW1 4210   0.001   1.489   7.578
  923SOL    HW2 4211   0.011   1.608   7.671
  924SOL     OW 4212   1.688   0.914   8.092
  924SOL    HW1 4213   1.774   0.878   8.073
  924SOL    HW2 4214   1.668   0.970   8.016
  925SOL     OW 4215   1.650   1.103   7.883
  925SOL    HW1 4216   1.736   1.101   7.839
  925SOL    HW2 4217   1.662   1.164   7.955
  926SOL     OW 4218   0.149   0.762   9.029
  926SOL    HW1 4219   0.245   0.768   9.025
  926SOL    HW2 4220   0.123   0.840   9.078
  927SOL     OW 4221   0.612   1.393   8.188
  927SOL    HW1 4222   0.569   1.307   8.192
  927SOL    HW2 4223   0.601   1.421   8.097
  928SOL     OW 4224   1.281   1.231   8.871
  928SOL    HW1 4225   1.309   1.165   8.808
  928SOL    HW2 4226   1.346   1.227   8.941
  929SOL     OW 4227   0.832   0.035   8.002
  929SOL    HW1 4228   0.867   0.119   7.973
  929SOL    HW2 4229   0.737   0.045   7.996
  930SOL     OW 4230   0.164   0.907   8.716
  930SOL    HW1 4231   0.257   0.887   8.715
  930SOL    HW2 4232   0.140   0.914   8.623
  931SOL     OW 4233   1.528   1.004   7.651
  931SOL    HW1 4234   1.462   0.945   7.687
  931SOL    HW2 4235   1.575   1.037   7.728
  932SOL     OW 4236   1.175   1.813   9.079
  932SOL    HW1 4237   1.183   1.879   9.010
  932SOL    HW2 4238   1.198   1.731   9.037
  933SOL     OW 4239   0.325   0.239   9.211
  933SOL    HW1 4240   0.389   0.299   9.250
  933SOL    HW2 4241   0.244   0.257   9.259
  934SOL     OW 4242   1.464   1.421   8.390
  934SOL    HW1 4243   1.400   1.437   8.460
  934SOL    HW2 4244   1.453   1.329   8.367
  935SOL     OW 4245   1.637   1.755   8.036
  935SOL    HW1 4246   1.626   1.727   7.945
  935SOL    HW2 4247   1.630   1.675   8.088
  936SOL     OW 4248   0.596   0.717   7.718
  936SOL    HW1 4249   0.602   0.803   7.676
  936SOL    HW2 4250   0.534   0.730   7.790
  937SOL     OW 4251   1.294   0.375   8.383
  937SOL    HW1 4252   1.204   0.342   8.389
  937SOL    HW2 4253   1.344   0.319   8.441
  938SOL     OW 4254   1.584   1.678   7.764
  938SOL    HW1 4255   1.671   1.717   7.755
  938SOL    HW2 4256   1.556   1.661   7.675
  939SOL     OW 4257   0.777   0.639   8.893
  939SOL    HW1 4258   0.761   0.604   8.981
  939SOL    HW2 4259   0.759   0.565   8.834
  940SOL     OW 4260   1.409   0.489   9.126
  940SOL    HW1 4261   1.413   0.535   9.209
  940SOL    HW2 4262   1.481   0.426   9.130
  941SOL     OW 4263   0.947   0.884   9.034
  941SOL    HW1 4264   1.001   0.815   8.994
  941SOL    HW2 4265   0.900   0.923   8.960
  942SOL     OW 4266   1.000   0.411   8.665
  942SOL    HW1 4267   0.910   0.433   8.689
  942SOL    HW2 4268   0.993   0.374   8.577
  943SOL     OW 4269   1.055   0.697   7.871
  943SOL    HW1 4270   1.074   0.695   7.964
  943SOL    HW2 4271   0.971   0.653   7.862
  944SOL     OW 4272   0.098   0.786   8.216
  944SOL    HW1 4273   0.176   0.799   8.270
  944SOL    HW2 4274   0.051   0.869   8.222
  945SOL     OW 4275   0.126   1.819   9.010
  945SOL    HW1 4276   0.125   1.814   9.106
  945SOL    HW2 4277   0.038   1.794   8.984
  946SOL     OW 4278   0.895   0.345   7.639
  946SOL    HW1 4279   0.942   0.406   7.583
  946SOL    HW2 4280   0.929   0.259   7.614
  947SOL     OW 4281   1.697   0.576   9.285
  947SOL    HW1 4282   1.668   0.652   9.234
  947SOL    HW2 4283   1.725   0.513   9.219
  948SOL     OW 4284   1.380   1.138   7.978
  948SOL    HW1 4285   1.463   1.131   7.931
  948SOL    HW2 4286   1.331   1.205   7.930
  949SOL     OW 4287   0.515   0.190   8.372
  949SOL    HW1 4288   0.518   0.261   8.437
  949SOL    HW2 4289   0.552   0.229   8.293
  950SOL     OW 4290   0.995   1.445   7.914
  950SOL    HW1 4291   0.968   1.521   7.863
  950SOL    HW2 4292   0.973   1.468   8.004
  951SOL     OW 4293   0.364   1.829   8.315
  951SOL    HW1 4294   0.412   1.747   8.326
  951SOL    HW2 4295   0.430   1.897   8.331
  952SOL     OW 4296   1.800   1.042   8.339
  952SOL    HW1 4297   1.756   1.045   8.254
  952SOL    HW2 4298   1.730   1.048   8.403
  953SOL     OW 4299   1.224   1.543   8.964
  953SOL    HW1 4300   1.213   1.467   9.022
  953SOL    HW2 4301   1.165   1.526   8.891
  954SOL     OW 4302   0.300   0.944   7.680
  954SOL    HW1 4303   0.387   0.969   7.652
  954SOL    HW2 4304   0.281   0.865   7.629
  955SOL     OW 4305   1.481   0.756   8.171
  955SOL    HW1 4306   1.482   0.724   8.261
  955SOL    HW2 4307   1.559   0.811   8.164
  956SOL     OW 4308   0.464   1.267   9.191
  956SOL    HW1 4309   0.442   1.272   9.098
  956SOL    HW2 4310   0.380   1.254   9.235
  957SOL     OW 4311   1.123   1.775   7.675
  957SOL    HW1 4312   1.046   1.736   7.716
  957SOL    HW2 4313   1.149   1.713   7.608
  958SOL     OW 4314   0.165   0.284   8.948
  958SOL    HW1 4315   0.146   0.376   8.926
  958SOL    HW2 4316   0.180   0.285   9.043
  959SOL     OW 4317   1.619   1.386   7.553
  959SOL    HW1 4318   1.583   1.471   7.529
  959SOL    HW2 4319   1.556   1.323   7.519
  960SOL     OW 4320   0.463   1.740   7.763
  960SOL    HW1 4321   0.508   1.797   7.825
  960SOL    HW2 4322   0.532   1.710   7.704
  961SOL     OW 4323   1.414   0.130   7.861
  961SOL    HW1 4324   1.418   0.090   7.774
  961SOL    HW2 4325   1.505   0.141   7.887
  962SOL     OW 4326   0.230   1.782   8.668
  962SOL    HW1 4327   0.286   1.709   8.697
  962SOL    HW2 4328   0.203   1.759   8.580
  963SOL     OW 4329   0.945   1.699   8.343
  963SOL    HW1 4330   1.031   1.658   8.354
  963SOL    HW2 4331   0.904   1.649   8.272
  964SOL     OW 4332   0.409   0.697   7.926
  964SOL    HW1 4333   0.428   0.605   7.942
  964SOL    HW2 4334   0.315   0.705   7.941
  965SOL     OW 4335   1.540   0.211   9.168
  965SOL    HW1 4336   1.548   0.238   9.260
  965SOL    HW2 4337   1.465   0.152   9.167
  966SOL     OW 4338   0.566   0.101   7.566
  966SOL    HW1 4339   0.649   0.074   7.605
  966SOL    HW2 4340   0.568   0.064   7.478
  967SOL     OW 4341   0.721   0.302   9.214
  967SOL    HW1 4342   0.806   0.257   9.215
  967SOL    HW2 4343   0.675   0.267   9.291
  968SOL     OW 4344   0.872   1.518   8.645
  968SOL    HW1 4345   0.858   1.483   8.557
  968SOL    HW2 4346   0.946   1.468   8.680
  969SOL     OW 4347   1.338   0.598   8.882
  969SOL    HW1 4348   1.377   0.570   8.965
  969SOL    HW2 4349   1.375   0.685   8.866
  970SOL     OW 4350   0.819   1.381   8.397
  970SOL    HW1 4351   0.906   1.375   8.356
  970SOL    HW2 4352   0.759   1.396   8.323
  971SOL     OW 4353   0.921   0.517   8.338
  971SOL    HW1 4354   0.888   0.507   8.248
  971SOL    HW2 4355   0.960   0.432   8.359
  972SOL     OW 4356   0.564   0.045   7.913
  972SOL    HW1 4357   0.496   0.050   7.980
  972SOL    HW2 4358   0.548   0.121   7.857
  973SOL     OW 4359   1.427   1.201   7.483
  973SOL    HW1 4360   1.458   1.128   7.537
  973SOL    HW2 4361   1.345   1.228   7.524
  974SOL     OW 4362   0.287   0.063   7.643
  974SOL    HW1 4363   0.366   0.096   7.599
  974SOL    HW2 4364   0.313  -0.023   7.676
  975SOL     OW 4365   0.944   0.266   7.906
  975SOL    HW1 4366   0.918   0.296   7.818
  975SOL    HW2 4367   1.039   0.276   7.906
  976SOL     OW 4368   1.079   0.680   8.910
  976SOL    HW1 4369   1.025   0.602   8.921
  976SOL    HW2 4370   1.168   0.646   8.902
  977SOL     OW 4371   1.210   1.583   8.248
  977SOL    HW1 4372   1.225   1.644   8.176
  977SOL    HW2 4373   1.285   1.596   8.306
  978SOL     OW 4374   0.473   1.153   8.174
  978SOL    HW1 4375   0.411   1.133   8.244
  978SOL    HW2 4376   0.426   1.135   8.093
  979SOL     OW 4377   1.259   1.792   8.063
  979SOL    HW1 4378   1.312   1.850   8.009
  979SOL    HW2 4379   1.194   1.849   8.103
  980SOL     OW 4380   1.024   0.529   7.479
  980SOL    HW1 4381   0.982   0.612   7.457
  980SOL    HW2 4382   1.089   0.553   7.546
  981SOL     OW 4383   0.115   0.556   8.849
  981SOL    HW1 4384   0.203   0.562   8.812
  981SOL    HW2 4385   0.107   0.632   8.906
  982SOL     OW 4386   0.569   0.236   8.655
  982SOL    HW1 4387   0.607   0.174   8.717
  982SOL    HW2 4388   0.474   0.223   8.663
  983SOL     OW 4389   0.838   0.453   8.080
  983SOL    HW1 4390   0.813   0.516   8.013
  983SOL    HW2 4391   0.882   0.383   8.032
  984SOL     OW 4392   0.952   0.035   8.250
  984SOL    HW1 4393   0.910   0.035   8.164
  984SOL    HW2 4394   0.991  -0.052   8.258
  985SOL     OW 4395   1.449   1.160   8.302
  985SOL    HW1 4396   1.374   1.105   8.280
  985SOL    HW2 4397   1.495   1.171   8.219
  986SOL     OW 4398   1.464   0.615   8.413
  986SOL    HW1 4399   1.412   0.535   8.413
  986SOL    HW2 4400   1.525   0.605   8.486
  987SOL     OW 4401   1.829   0.808   7.834
  987SOL    HW1 4402   1.893   0.764   7.890
  987SOL    HW2 4403   1.814   0.746   7.762
  988SOL     OW 4404   0.488   1.425   7.581
  988SOL    HW1 4405   0.411   1.395   7.628
  988SOL    HW2 4406   0.499   1.361   7.511
  989SOL     OW 4407   1.681   1.249   8.110
  989SOL    HW1 4408   1.776   1.246   8.116
  989SOL    HW2 4409   1.659   1.342   8.118
  990SOL     OW 4410   1.395   0.579   7.521
  990SOL    HW1 4411   1.337   0.555   7.593
  990SOL    HW2 4412   1.484   0.567   7.556
  991SOL     OW 4413   0.511   0.272   7.766
  991SOL    HW1 4414   0.533   0.213   7.694
  991SOL    HW2 4415   0.500   0.358   7.724
  992SOL     OW 4416   1.748   1.243   9.020
  992SOL    HW1 4417   1.834   1.210   8.995
  992SOL    HW2 4418   1.763   1.335   9.043
  993SOL     OW 4419   1.053   1.353   8.781
  993SOL    HW1 4420   0.977   1.322   8.830
  993SOL    HW2 4421   1.128   1.308   8.822
  994SOL     OW 4422   1.609   1.629   9.110
  994SOL    HW1 4423   1.598   1.666   9.022
  994SOL    HW2 4424   1.691   1.580   9.104
  995SOL     OW 4425   1.135   1.215   8.550
  995SOL    HW1 4426   1.077   1.258   8.613
  995SOL    HW2 4427   1.111   1.253   8.465
  996SOL     OW 4428   1.606   1.084   8.525
  996SOL    HW1 4429   1.597   1.150   8.594
  996SOL    HW2 4430   1.538   1.107   8.461
  997SOL     OW 4431   0.914   0.121   8.841
  997SOL    HW1 4432   0.930   0.106   8.747
  997SOL    HW2 4433   1.001   0.126   8.879
  998SOL     OW 4434   0.983   1.114   9.172
  998SOL    HW1 4435   0.892   1.130   9.195
  998SOL    HW2 4436   0.980   1.036   9.117
  999SOL     OW 4437   0.708   1.058   7.823
  999SOL    HW1 4438   0.697   1.039   7.917
  999SOL    HW2 4439   0.784   1.007   7.797
 1000SOL     OW 4440   0.424   0.824   8.704
 1000SOL    HW1 4441   0.490   0.842   8.770
 1000SOL    HW2 4442   0.403   0.732   8.715
 1001SOL     OW 4443   1.261   0.379   8.741
 1001SOL    HW1 4444   1.295   0.461   8.777
 1001SOL    HW2 4445   1.175   0.402   8.706
 1002SOL     OW 4446   0.048   1.592   8.774
 1002SOL    HW1 4447   0.099   1.668   8.746
 1002SOL    HW2 4448   0.093   1.559   8.851
 1003SOL     OW 4449   0.326   1.108   7.941
 1003SOL    HW1 4450   0.343   1.187   7.890
 1003SOL    HW2 4451   0.335   1.036   7.879
 1004SOL     OW 4452   0.549   0.535   8.309
 1004SOL    HW1 4453   0.563   0.594   8.234
 1004SOL    HW2 4454   0.617   0.559   8.372
 1005SOL     OW 4455   1.246   1.351   7.842
 1005SOL    HW1 4456   1.302   1.422   7.872
 1005SOL    HW2 4457   1.159   1.374   7.874
 1006SOL     OW 4458   1.296   1.462   8.600
 1006SOL    HW1 4459   1.354   1.469   8.676
 1006SOL    HW2 4460   1.245   1.383   8.617
 1007SOL     OW 4461   1.581   0.630   7.930
 1007SOL    HW1 4462   1.530   0.678   7.996
 1007SOL    HW2 4463   1.635   0.697   7.888
 1008SOL     OW 4464   0.348   1.532   8.758
 1008SOL    HW1 4465   0.333   1.484   8.676
 1008SOL    HW2 4466   0.443   1.543   8.762
 1009SOL     OW 4467   0.435   0.728   9.064
 1009SOL    HW1 4468   0.485   0.781   9.002
 1009SOL    HW2 4469   0.499   0.665   9.098
 1010SOL     OW 4470   1.612   0.787   9.139
 1010SOL    HW1 4471   1.527   0.829   9.130
 1010SOL    HW2 4472   1.666   0.826   9.070
 1011SOL     OW 4473   1.047   0.078   9.202
 1011SOL    HW1 4474   1.062   0.165   9.167
 1011SOL    HW2 4475   0.954   0.061   9.186
 1012SOL     OW 4476   0.506   0.026   9.181
 1012SOL    HW1 4477   0.486  -0.026   9.103
 1012SOL    HW2 4478   0.444   0.099   9.178
 1013SOL     OW 4479   0.591   0.877   8.483
 1013SOL    HW1 4480   0.628   0.965   8.482
 1013SOL    HW2 4481   0.532   0.877   8.559
 1014SOL     OW 4482   1.337   0.856   8.470
 1014SOL    HW1 4483   1.255   0.842   8.423
 1014SOL    HW2 4484   1.386   0.774   8.457
 1015SOL     OW 4485   1.196   0.525   7.707
 1015SOL    HW1 4486   1.207   0.447   7.762
 1015SOL    HW2 4487   1.158   0.591   7.765
 1016SOL     OW 4488   0.295   0.205   8.693
 1016SOL    HW1 4489   0.268   0.253   8.771
 1016SOL    HW2 4490   0.249   0.121   8.699
 1017SOL     OW 4491   0.048   1.307   8.721
 1017SOL    HW1 4492   0.076   1.258   8.799
 1017SOL    HW2 4493   0.053   1.399   8.748
 1018SOL     OW 4494   0.718   0.630   8.502
 1018SOL    HW1 4495   0.795   0.620   8.446
 1018SOL    HW2 4496   0.690   0.720   8.487
 1019SOL     OW 4497   1.747   0.955   9.317
 1019SOL    HW1 4498   1.704   0.892   9.259
 1019SOL    HW2 4499   1.681   0.976   9.383
 1020SOL     OW 4500   0.375   0.070   8.104
 1020SOL    HW1 4501   0.347   0.159   8.125
 1020SOL    HW2 4502   0.311   0.014   8.148
 1021SOL     OW 4503   1.626   0.400   7.794
 1021SOL    HW1 4504   1.637   0.327   7.854
 1021SOL    HW2 4505   1.600   0.473   7.850
 1022SOL     OW 4506   1.027   0.760   8.404
 1022SOL    HW1 4507   1.018   0.774   8.498
 1022SOL    HW2 4508   0.997   0.670   8.390
 1023SOL     OW 4509   0.978   1.561   9.172
 1023SOL    HW1 4510   0.961   1.607   9.090
 1023SOL    HW2 4511   1.028   1.483   9.146
 1024SOL     OW 4512   1.848   1.503   9.048
 1024SOL    HW1 4513   1.871   1.528   8.958
 1024SOL    HW2 4514   1.929   1.514   9.097
 1025SOL     OW 4515   0.361   0.944   9.236
 1025SOL    HW1 4516   0.434   0.963   9.294
 1025SOL    HW2 4517   0.387   0.864   9.190
 1026SOL     OW 4518   1.526   0.260   7.578
 1026SOL    HW1 4519   1.562   0.175   7.605
 1026SOL    HW2 4520   1.558   0.321   7.644
 1027SOL     OW 4521   1.283   0.826   7.472
 1027SOL    HW1 4522   1.329   0.742   7.476
 1027SOL    HW2 4523   1.317   0.867   7.392
 1028SOL     OW 4524   1.073   1.344   8.309
 1028SOL    HW1 4525   1.080   1.274   8.245
 1028SOL    HW2 4526   1.127   1.415   8.274
 1029SOL     OW 4527   0.320   0.806   8.386
 1029SOL    HW1 4528   0.413   0.828   8.383
 1029SOL    HW2 4529   0.317   0.718   8.422
 1030SOL     OW 4530   0.336   0.529   8.467
 1030SOL    HW1 4531   0.295   0.445   8.448
 1030SOL    HW2 4532   0.411   0.535   8.408
 1031SOL     OW 4533   1.169   0.362   9.162
 1031SOL    HW1 4534   1.105   0.420   9.202
 1031SOL    HW2 4535   1.246   0.417   9.145
 1032SOL     OW 4536   1.161   0.217   8.932
 1032SOL    HW1 4537   1.175   0.269   9.011
 1032SOL    HW2 4538   1.198   0.271   8.861
 1033SOL     OW 4539   7.977   1.300   7.639
 1033SOL    HW1 4540   7.890   1.323   7.671
 1033SOL    HW2 4541   7.988   1.208   7.663
 1034SOL     OW 4542   0.122   1.743   8.403
 1034SOL    HW1 4543   0.106   1.681   8.332
 1034SOL    HW2 4544   0.199   1.793   8.374
 1035SOL     OW 4545   0.493   1.578   8.355
 1035SOL    HW1 4546   0.562   1.640   8.378
 1035SOL    HW2 4547   0.535   1.516   8.296
 1036SOL     OW 4548   0.967   0.778   8.672
 1036SOL    HW1 4549   1.031   0.762   8.741
 1036SOL    HW2 4550   0.884   0.750   8.710
 1037SOL     OW 4551   0.074   0.552   8.572
 1037SOL    HW1 4552   0.168   0.552   8.551
 1037SOL    HW2 4553   0.072   0.548   8.668
 1038SOL     OW 4554   0.208   0.523   9.149
 1038SOL    HW1 4555   0.295   0.521   9.110
 1038SOL    HW2 4556   0.167   0.602   9.114
 1039SOL     OW 4557   1.382   0.932   9.102
 1039SOL    HW1 4558   1.406   1.025   9.097
 1039SOL    HW2 4559   1.378   0.904   9.011
 1040SOL     OW 4560   0.816   0.567   7.817
 1040SOL    HW1 4561   0.823   0.496   7.753
 1040SOL    HW2 4562   0.744   0.622   7.785
 1041SOL     OW 4563   1.647   0.600   8.616
 1041SOL    HW1 4564   1.640   0.548   8.696
 1041SOL    HW2 4565   1.735   0.581   8.582
 1042SOL     OW 4566   0.295   1.532   9.171
 1042SOL    HW1 4567   0.255   1.605   9.218
 1042SOL    HW2 4568   0.282   1.457   9.228
 1043SOL     OW 4569   0.729   0.451   8.705
 1043SOL    HW1 4570   0.670   0.378   8.687
 1043SOL    HW2 4571   0.714   0.513   8.634
 1044SOL     OW 4572   0.909   1.680   8.928
 1044SOL    HW1 4573   0.891   1.636   8.845
 1044SOL    HW2 4574   0.910   1.773   8.907
 1045SOL     OW 4575   0.460   0.494   7.623
 1045SOL    HW1 4576   0.512   0.573   7.638
 1045SOL    HW2 4577   0.373   0.516   7.657
 1046SOL     OW 4578   0.158   1.118   8.903
 1046SOL    HW1 4579   0.136   1.073   8.984
 1046SOL    HW2 4580   0.159   1.049   8.837
 1047SOL     OW 4581   1.308   1.039   8.667
 1047SOL    HW1 4582   1.331   0.977   8.598
 1047SOL    HW2 4583   1.247   1.100   8.626
 1048SOL     OW 4584   1.318   0.850   7.748
 1048SOL    HW1 4585   1.240   0.823   7.796
 1048SOL    HW2 4586   1.293   0.842   7.656
 1049SOL     OW 4587   1.786   1.734   8.612
 1049SOL    HW1 4588   1.846   1.761   8.543
 1049SOL    HW2 4589   1.755   1.648   8.584
 1050SOL     OW 4590   1.240   1.731   8.551
 1050SOL    HW1 4591   1.322   1.760   8.511
 1050SOL    HW2 4592   1.254   1.639   8.571
 1051SOL     OW 4593   0.054   1.186   8.482
 1051SOL    HW1 4594   0.057   1.228   8.568
 1051SOL    HW2 4595  -0.009   1.238   8.432
 1052SOL     OW 4596   0.686   1.674   9.192
 1052SOL    HW1 4597   0.622   1.744   9.175
 1052SOL    HW2 4598   0.756   1.689   9.129
 1053SOL     OW 4599   1.683   0.166   7.935
 1053SOL    HW1 4600   1.740   0.144   7.861
 1053SOL    HW2 4601   1.713   0.108   8.006
 1054SOL     OW 4602   1.394   1.567   7.941
 1054SOL    HW1 4603   1.454   1.601   7.874
 1054SOL    HW2 4604   1.345   1.644   7.970
 1055SOL     OW 4605   0.173   1.739   9.291
 1055SOL    HW1 4606   0.105   1.695   9.342
 1055SOL    HW2 4607   0.211   1.802   9.352
 1056SOL     OW 4608   1.278   0.932   8.118
 1056SOL    HW1 4609   1.352   0.873   8.131
 1056SOL    HW2 4610   1.311   1.001   8.061
 1057SOL     OW 4611   0.800   1.280   8.873
 1057SOL    HW1 4612   0.772   1.321   8.955
 1057SOL    HW2 4613   0.732   1.303   8.810
 1058SOL     OW 4614   0.670   1.627   7.603
 1058SOL    HW1 4615   0.686   1.645   7.511
 1058SOL    HW2 4616   0.612   1.550   7.603
 1059SOL     OW 4617   1.617   1.727   8.841
 1059SOL    HW1 4618   1.674   1.730   8.764
 1059SOL    HW2 4619   1.601   1.818   8.863
 1060SOL     OW 4620   0.262   0.318   8.157
 1060SOL    HW1 4621   0.174   0.346   8.134
 1060SOL    HW2 4622   0.262   0.311   8.252
 1061SOL     OW 4623   1.209   1.600   7.482
 1061SOL    HW1 4624   1.198   1.507   7.501
 1061SOL    HW2 4625   1.149   1.617   7.410
 1062SOL     OW 4626   0.825   1.012   8.823
 1062SOL    HW1 4627   0.865   1.007   8.737
 1062SOL    HW2 4628   0.819   1.106   8.841
 1063SOL     OW 4629   0.915   0.908   7.745
 1063SOL    HW1 4630   0.970   0.939   7.673
 1063SOL    HW2 4631   0.969   0.842   7.789
 1064SOL     OW 4632   1.490   1.634   7.496
 1064SOL    HW1 4633   1.396   1.623   7.479
 1064SOL    HW2 4634   1.529   1.639   7.409
 1065SOL     OW 4635   0.369   1.300   8.940
 1065SOL    HW1 4636   0.353   1.378   8.888
 1065SOL    HW2 4637   0.296   1.241   8.919
 1066SOL     OW 4638   1.595   1.278   8.718
 1066SOL    HW1 4639   1.681   1.280   8.760
 1066SOL    HW2 4640   1.546   1.347   8.763
 1067SOL     OW 4641   1.067   1.115   8.164
 1067SOL    HW1 4642   0.994   1.064   8.199
 1067SOL    HW2 4643   1.131   1.050   8.137
 1068SOL     OW 4644   1.028   0.264   8.399
 1068SOL    HW1 4645   1.007   0.211   8.322
 1068SOL    HW2 4646   1.032   0.201   8.471
 1069SOL     OW 4647   0.608   1.489   7.934
 1069SOL    HW1 4648   0.660   1.439   7.871
 1069SOL    HW2 4649   0.539   1.530   7.882
 1070SOL     OW 4650   1.716   0.427   8.838
 1070SOL    HW1 4651   1.791   0.487   8.842
 1070SOL    HW2 4652   1.745   0.357   8.779
 1071SOL     OW 4653   0.248   1.339   7.696
 1071SOL    HW1 4654   0.153   1.346   7.687
 1071SOL    HW2 4655   0.267   1.374   7.783
 1072SOL     OW 4656   0.099   0.999   9.161
 1072SOL    HW1 4657   0.069   1.087   9.184
 1072SOL    HW2 4658   0.185   0.992   9.202
 1073SOL     OW 4659   0.672   0.220   8.945
 1073SOL    HW1 4660   0.747   0.168   8.914
 1073SOL    HW2 4661   0.696   0.246   9.034
 1074SOL     OW 4662   0.077   0.351   7.451
 1074SOL    HW1 4663   0.020   0.397   7.512
 1074SOL    HW2 4664   0.111   0.419   7.394
 1075SOL     OW 4665   1.421   0.859   8.842
 1075SOL    HW1 4666   1.371   0.920   8.788
 1075SOL    HW2 4667   1.510   0.862   8.805
 1076SOL     OW 4668   0.125   0.245   7.791
 1076SOL    HW1 4669   0.053   0.237   7.729
 1076SOL    HW2 4670   0.195   0.191   7.753
 1077SOL     OW 4671   1.185   1.327   7.571
 1077SOL    HW1 4672   1.095   1.296   7.574
 1077SOL    HW2 4673   1.211   1.335   7.662
 1078SOL     OW 4674   0.615   0.849   8.892
 1078SOL    HW1 4675   0.672   0.923   8.875
 1078SOL    HW2 4676   0.673   0.773   8.895
 1079SOL     OW 4677   1.483   1.791   8.431
 1079SOL    HW1 4678   1.503   1.862   8.370
 1079SOL    HW2 4679   1.568   1.758   8.459
 1080SOL     OW 4680   0.688   0.575   9.148
 1080SOL    HW1 4681   0.749   0.627   9.202
 1080SOL    HW2 4682   0.704   0.484   9.175
 1081SOL     OW 4683   1.477   1.190   9.073
 1081SOL    HW1 4684   1.469   1.209   9.167
 1081SOL    HW2 4685   1.568   1.211   9.053
 1082SOL     OW 4686   0.386   1.740   9.014
 1082SOL    HW1 4687   0.299   1.772   8.992
 1082SOL    HW2 4688   0.372   1.654   9.052
 1083SOL     OW 4689   1.659   0.876   8.704
 1083SOL    HW1 4690   1.661   0.793   8.657
 1083SOL    HW2 4691   1.647   0.942   8.636
 1084SOL     OW 4692   1.215   0.319   7.901
 1084SOL    HW1 4693   1.282   0.251   7.887
 1084SOL    HW2 4694   1.247   0.368   7.977
 1085SOL     OW 4695   0.593   0.736   8.128
 1085SOL    HW1 4696   0.634   0.822   8.116
 1085SOL    HW2 4697   0.530   0.730   8.056
 1086SOL     OW 4698   1.748   0.378   9.107
 1086SOL    HW1 4699   1.740   0.398   9.013
 1086SOL    HW2 4700   1.683   0.310   9.122
 1087SOL     OW 4701   1.754   0.931   8.959
 1087SOL    HW1 4702   1.745   1.025   8.971
 1087SOL    HW2 4703   1.735   0.916   8.866
 1088SOL     OW 4704   0.847   1.369   7.487
 1088SOL    HW1 4705   0.824   1.408   7.571
 1088SOL    HW2 4706   0.880   1.442   7.435
 1089SOL     OW 4707   0.669   1.780   8.386
 1089SOL    HW1 4708   0.652   1.872   8.366
 1089SOL    HW2 4709   0.764   1.772   8.379
 1090SOL     OW 4710   0.871   0.973   8.301
 1090SOL    HW1 4711   0.922   0.901   8.338
 1090SOL    HW2 4712   0.831   1.016   8.377
 1091SOL     OW 4713   1.064   0.974   7.532
 1091SOL    HW1 4714   1.048   1.034   7.459
 1091SOL    HW2 4715   1.143   0.927   7.508
 1092SOL     OW 4716   1.852   1.548   8.284
 1092SOL    HW1 4717   1.770   1.537   8.236
 1092SOL    HW2 4718   1.853   1.477   8.348
 1093SOL     OW 4719   0.214   1.298   9.305
 1093SOL    HW1 4720   0.121   1.285   9.283
 1093SOL    HW2 4721   0.216   1.297   9.400
 1094SOL     OW 4722   0.136   1.256   8.114
 1094SOL    HW1 4723   0.061   1.206   8.148
 1094SOL    HW2 4724   0.197   1.190   8.084
 1095SOL     OW 4725   0.687   1.407   9.089
 1095SOL    HW1 4726   0.601   1.373   9.114
 1095SOL    HW2 4727   0.687   1.497   9.121
 1096SOL     OW 4728   1.825   0.235   8.689
 1096SOL    HW1 4729   1.808   0.143   8.706
 1096SOL    HW2 4730   1.864   0.236   8.601
 1097SOL     OW 4731   0.440   0.435   7.980
 1097SOL    HW1 4732   0.450   0.369   7.912
 1097SOL    HW2 4733   0.380   0.396   8.043
 1098SOL     OW 4734   1.690   1.491   8.538
 1098SOL    HW1 4735   1.613   1.471   8.484
 1098SOL    HW2 4736   1.698   1.416   8.597
 1099SOL     OW 4737   0.360   0.561   8.743
 1099SOL    HW1 4738   0.406   0.498   8.798
 1099SOL    HW2 4739   0.376   0.531   8.653
 1100SOL     OW 4740   0.834   1.590   8.118
 1100SOL    HW1 4741   0.823   1.665   8.059
 1100SOL    HW2 4742   0.756   1.536   8.104
 1101SOL     OW 4743   1.422   0.226   8.571
 1101SOL    HW1 4744   1.483   0.165   8.613
 1101SOL    HW2 4745   1.379   0.270   8.644
 1102SOL     OW 4746   1.040   0.068   8.585
 1102SOL    HW1 4747   0.992  -0.015   8.590
 1102SOL    HW2 4748   1.132   0.043   8.589
 1103SOL     OW 4749   0.771   1.332   7.779
 1103SOL    HW1 4750   0.753   1.238   7.786
 1103SOL    HW2 4751   0.856   1.343   7.823
 1104SOL     OW 4752   0.621   1.556   8.739
 1104SOL    HW1 4753   0.621   1.642   8.783
 1104SOL    HW2 4754   0.709   1.549   8.702
 1105SOL     OW 4755   1.381   7.992   7.605
 1105SOL    HW1 4756   1.415   7.903   7.603
 1105SOL    HW2 4757   1.286   7.982   7.614
 1106SOL     OW 4758   1.293   0.465   8.121
 1106SOL    HW1 4759   1.244   0.547   8.125
 1106SOL    HW2 4760   1.296   0.435   8.212
 1107SOL     OW 4761   1.669   0.229   8.317
 1107SOL    HW1 4762   1.598   0.182   8.361
 1107SOL    HW2 4763   1.626   0.304   8.276
 1108SOL     OW 4764   0.041   1.040   7.728
 1108SOL    HW1 4765   0.132   1.019   7.707
 1108SOL    HW2 4766   0.041   1.052   7.823
 1109SOL     OW 4767   0.887   1.663   7.784
 1109SOL    HW1 4768   0.812   1.651   7.726
 1109SOL    HW2 4769   0.863   1.736   7.841
 1110SOL     OW 4770   0.239   0.700   9.395
 1110SOL    HW1 4771   0.201   0.650   9.468
 1110SOL    HW2 4772   0.238   0.639   9.321
 1111SOL     OW 4773   0.238   0.288  10.290
 1111SOL    HW1 4774   0.274   0.221  10.348
 1111SOL    HW2 4775   0.146   0.265  10.280
 1112SOL     OW 4776   8.000   0.380   9.915
 1112SOL    HW1 4777   7.909   0.371   9.941
 1112SOL    HW2 4778   8.007   0.335   9.831
 1113SOL     OW 4779   0.573   1.301  10.506
 1113SOL    HW1 4780   0.488   1.304  10.462
 1113SOL    HW2 4781   0.588   1.391  10.533
 1114SOL     OW 4782   1.582   1.516  10.015
 1114SOL    HW1 4783   1.534   1.491  10.094
 1114SOL    HW2 4784   1.515   1.520   9.947
 1115SOL     OW 4785   1.137   0.701  10.005
 1115SOL    HW1 4786   1.184   0.784   9.992
 1115SOL    HW2 4787   1.087   0.714  10.085
 1116SOL     OW 4788   1.778   0.603   9.538
 1116SOL    HW1 4789   1.751   0.600   9.446
 1116SOL    HW2 4790   1.742   0.523   9.577
 1117SOL     OW 4791   0.740   1.134  10.364
 1117SOL    HW1 4792   0.677   1.175  10.424
 1117SOL    HW2 4793   0.781   1.208  10.319
 1118SOL     OW 4794   0.880   0.756  11.129
 1118SOL    HW1 4795   0.867   0.831  11.188
 1118SOL    HW2 4796   0.902   0.795  11.045
 1119SOL     OW 4797   0.688   0.998   9.955
 1119SOL    HW1 4798   0.755   0.992  10.023
 1119SOL    HW2 4799   0.621   1.055   9.992
 1120SOL     OW 4800   0.715   1.153  11.139
 1120SOL    HW1 4801   0.765   1.229  11.165
 1120SOL    HW2 4802   0.639   1.188  11.092
 1121SOL     OW 4803   0.338   1.413  10.375
 1121SOL    HW1 4804   0.287   1.358  10.316
 1121SOL    HW2 4805   0.386   1.472  10.317
 1122SOL     OW 4806   1.458   1.501  10.678
 1122SOL    HW1 4807   1.513   1.579  10.684
 1122SOL    HW2 4808   1.388   1.515  10.741
 1123SOL     OW 4809   0.446   0.381  10.802
 1123SOL    HW1 4810   0.534   0.345  10.788
 1123SOL    HW2 4811   0.400   0.315  10.853
 1124SOL     OW 4812   1.605   0.455  10.027
 1124SOL    HW1 4813   1.530   0.471   9.970
 1124SOL    HW2 4814   1.627   0.540  10.063
 1125SOL     OW 4815   0.226   1.696   9.785
 1125SOL    HW1 4816   0.220   1.780   9.831
 1125SOL    HW2 4817   0.290   1.711   9.716
 1126SOL     OW 4818   1.137   1.340  11.004
 1126SOL    HW1 4819   1.180   1.331  11.089
 1126SOL    HW2 4820   1.087   1.259  10.994
 1127SOL     OW 4821   0.295   1.437   9.826
 1127SOL    HW1 4822   0.269   1.528   9.831
 1127SOL    HW2 4823   0.241   1.392   9.891
 1128SOL     OW 4824   0.285   1.085  10.215
 1128SOL    HW1 4825   0.286   0.991  10.232
 1128SOL    HW2 4826   0.205   1.117  10.256
 1129SOL     OW 4827   0.602   1.801  10.726
 1129SOL    HW1 4828   0.525   1.779  10.778
 1129SOL    HW2 4829   0.628   1.888  10.757
 1130SOL     OW 4830   0.572   0.991   9.454
 1130SOL    HW1 4831   0.623   1.034   9.385
 1130SOL    HW2 4832   0.613   1.020   9.536
 1131SOL     OW 4833   1.648   0.121  10.791
 1131SOL    HW1 4834   1.648   0.092  10.700
 1131SOL    HW2 4835   1.558   0.106  10.821
 1132SOL     OW 4836   0.139   0.620   9.858
 1132SOL    HW1 4837   0.093   0.541   9.887
 1132SOL    HW2 4838   0.121   0.684   9.927
 1133SOL     OW 4839   1.844   1.755   9.644
 1133SOL    HW1 4840   1.920   1.732   9.698
 1133SOL    HW2 4841   1.861   1.844   9.615
 1134SOL     OW 4842   0.013   1.582   9.452
 1134SOL    HW1 4843   0.003   1.487   9.451
 1134SOL    HW2 4844  -0.006   1.607   9.543
 1135SOL     OW 4845   1.694   0.921   9.956
 1135SOL    HW1 4846   1.769   0.872   9.921
 1135SOL    HW2 4847   1.666   0.976   9.883
 1136SOL     OW 4848   1.650   1.103   9.743
 1136SOL    HW1 4849   1.736   1.100   9.701
 1136SOL    HW2 4850   1.660   1.167   9.814
 1137SOL     OW 4851   0.150   0.764  10.886
 1137SOL    HW1 4852   0.246   0.766  10.883
 1137SOL    HW2 4853   0.126   0.845  10.931
 1138SOL     OW 4854   0.616   1.396  10.047
 1138SOL    HW1 4855   0.573   1.311  10.051
 1138SOL    HW2 4856   0.601   1.426   9.957
 1139SOL     OW 4857   1.279   1.231  10.732
 1139SOL    HW1 4858   1.307   1.165  10.670
 1139SOL    HW2 4859   1.344   1.226  10.803
 1140SOL     OW 4860   0.842   0.036   9.877
 1140SOL    HW1 4861   0.878   0.116   9.838
 1140SOL    HW2 4862   0.750   0.037   9.851
 1141SOL     OW 4863   0.169   0.917  10.576
 1141SOL    HW1 4864   0.261   0.892  10.576
 1141SOL    HW2 4865   0.143   0.914  10.484
 1142SOL     OW 4866   1.529   1.003   9.512
 1142SOL    HW1 4867   1.461   0.945   9.545
 1142SOL    HW2 4868   1.573   1.036   9.590
 1143SOL     OW 4869   1.177   1.814  10.939
 1143SOL    HW1 4870   1.183   1.878  10.868
 1143SOL    HW2 4871   1.197   1.730  10.898
 1144SOL     OW 4872   0.321   0.259  11.065
 1144SOL    HW1 4873   0.385   0.300  11.124
 1144SOL    HW2 4874   0.240   0.257  11.116
 1145SOL     OW 4875   1.463   1.423  10.247
 1145SOL    HW1 4876   1.400   1.438  10.317
 1145SOL    HW2 4877   1.453   1.331  10.223
 1146SOL     OW 4878   1.647   1.767   9.886
 1146SOL    HW1 4879   1.637   1.733   9.797
 1146SOL    HW2 4880   1.636   1.691   9.942
 1147SOL     OW 4881   0.593   0.719   9.579
 1147SOL    HW1 4882   0.594   0.804   9.534
 1147SOL    HW2 4883   0.531   0.731   9.651
 1148SOL     OW 4884   1.301   0.373  10.247
 1148SOL    HW1 4885   1.209   0.346  10.248
 1148SOL    HW2 4886   1.343   0.316  10.312
 1149SOL     OW 4887   1.579   1.674   9.622
 1149SOL    HW1 4888   1.671   1.697   9.613
 1149SOL    HW2 4889   1.549   1.659   9.532
 1150SOL     OW 4890   0.770   0.642  10.758
 1150SOL    HW1 4891   0.759   0.605  10.845
 1150SOL    HW2 4892   0.761   0.568  10.699
 1151SOL     OW 4893   1.433   0.495  10.994
 1151SOL    HW1 4894   1.415   0.529  11.082
 1151SOL    HW2 4895   1.466   0.406  11.009
 1152SOL     OW 4896   0.952   0.880  10.894
 1152SOL    HW1 4897   1.000   0.808  10.854
 1152SOL    HW2 4898   0.902   0.919  10.822
 1153SOL     OW 4899   1.005   0.416  10.518
 1153SOL    HW1 4900   0.917   0.431  10.553
 1153SOL    HW2 4901   0.991   0.376  10.432
 1154SOL     OW 4902   1.056   0.698   9.735
 1154SOL    HW1 4903   1.075   0.691   9.828
 1154SOL    HW2 4904   0.971   0.655   9.725
 1155SOL     OW 4905   0.098   0.785  10.079
 1155SOL    HW1 4906   0.176   0.798  10.132
 1155SOL    HW2 4907   0.052   0.869  10.083
 1156SOL     OW 4908   0.134   1.848  10.874
 1156SOL    HW1 4909   0.128   1.832  10.968
 1156SOL    HW2 4910   0.052   1.813  10.839
 1157SOL     OW 4911   0.888   0.355   9.519
 1157SOL    HW1 4912   0.933   0.405   9.451
 1157SOL    HW2 4913   0.884   0.266   9.484
 1158SOL     OW 4914   1.699   0.579  11.129
 1158SOL    HW1 4915   1.701   0.670  11.099
 1158SOL    HW2 4916   1.628   0.540  11.079
 1159SOL     OW 4917   1.382   1.140   9.844
 1159SOL    HW1 4918   1.462   1.129   9.792
 1159SOL    HW2 4919   1.330   1.203   9.794
 1160SOL     OW 4920   0.563   0.202  10.246
 1160SOL    HW1 4921   0.533   0.278  10.296
 1160SOL    HW2 4922   0.584   0.238  10.160
 1161SOL     OW 4923   1.003   1.447   9.779
 1161SOL    HW1 4924   0.970   1.519   9.726
 1161SOL    HW2 4925   0.973   1.466   9.868
 1162SOL     OW 4926   0.364   1.828  10.177
 1162SOL    HW1 4927   0.410   1.744  10.186
 1162SOL    HW2 4928   0.433   1.894  10.191
 1163SOL     OW 4929   1.803   1.043  10.193
 1163SOL    HW1 4930   1.758   1.029  10.109
 1163SOL    HW2 4931   1.733   1.050  10.257
 1164SOL     OW 4932   1.222   1.541  10.824
 1164SOL    HW1 4933   1.212   1.467  10.884
 1164SOL    HW2 4934   1.161   1.521  10.752
 1165SOL     OW 4935   0.306   0.939   9.545
 1165SOL    HW1 4936   0.392   0.967   9.512
 1165SOL    HW2 4937   0.284   0.863   9.493
 1166SOL     OW 4938   1.483   0.760  10.034
 1166SOL    HW1 4939   1.483   0.719  10.120
 1166SOL    HW2 4940   1.563   0.813  10.032
 1167SOL     OW 4941   0.465   1.270  11.053
 1167SOL    HW1 4942   0.441   1.276  10.960
 1167SOL    HW2 4943   0.382   1.253  11.098
 1168SOL     OW 4944   1.119   1.776   9.543
 1168SOL    HW1 4945   1.042   1.734   9.581
 1168SOL    HW2 4946   1.146   1.717   9.473
 1169SOL     OW 4947   0.157   0.273  10.807
 1169SOL    HW1 4948   0.150   0.367  10.794
 1169SOL    HW2 4949   0.184   0.263  10.898
 1170SOL     OW 4950   1.628   1.385   9.416
 1170SOL    HW1 4951   1.592   1.470   9.391
 1170SOL    HW2 4952   1.564   1.322   9.386
 1171SOL     OW 4953   0.453   1.747   9.618
 1171SOL    HW1 4954   0.502   1.798   9.683
 1171SOL    HW2 4955   0.521   1.705   9.565
 1172SOL     OW 4956   1.405   0.127   9.719
 1172SOL    HW1 4957   1.421   0.109   9.626
 1172SOL    HW2 4958   1.492   0.135   9.757
 1173SOL     OW 4959   0.230   1.782  10.538
 1173SOL    HW1 4960   0.287   1.708  10.562
 1173SOL    HW2 4961   0.202   1.762  10.449
 1174SOL     OW 4962   0.947   1.696  10.203
 1174SOL    HW1 4963   1.033   1.655  10.213
 1174SOL    HW2 4964   0.904   1.646  10.134
 1175SOL     OW 4965   0.411   0.690   9.792
 1175SOL    HW1 4966   0.433   0.599   9.807
 1175SOL    HW2 4967   0.316   0.694   9.803
 1176SOL     OW 4968   1.564   0.241  11.044
 1176SOL    HW1 4969   1.588   0.271  11.132
 1176SOL    HW2 4970   1.475   0.207  11.054
 1177SOL     OW 4971   0.601   0.139   9.410
 1177SOL    HW1 4972   0.675   0.093   9.450
 1177SOL    HW2 4973   0.574   0.082   9.338
 1178SOL     OW 4974   0.755   0.287  11.088
 1178SOL    HW1 4975   0.796   0.201  11.077
 1178SOL    HW2 4976   0.690   0.274  11.157
 1179SOL     OW 4977   0.874   1.524  10.508
 1179SOL    HW1 4978   0.858   1.487  10.421
 1179SOL    HW2 4979   0.945   1.471  10.544
 1180SOL     OW 4980   1.340   0.597  10.752
 1180SOL    HW1 4981   1.387   0.570  10.831
 1180SOL    HW2 4982   1.373   0.684  10.733
 1181SOL     OW 4983   0.818   1.384  10.262
 1181SOL    HW1 4984   0.904   1.376  10.220
 1181SOL    HW2 4985   0.757   1.394  10.189
 1182SOL     OW 4986   0.925   0.521  10.201
 1182SOL    HW1 4987   0.898   0.514  10.110
 1182SOL    HW2 4988   0.963   0.436  10.222
 1183SOL     OW 4989   0.595   0.038   9.745
 1183SOL    HW1 4990   0.522  -0.013   9.781
 1183SOL    HW2 4991   0.556   0.123   9.724
 1184SOL     OW 4992   1.431   1.205   9.347
 1184SOL    HW1 4993   1.459   1.129   9.398
 1184SOL    HW2 4994   1.345   1.227   9.381
 1185SOL     OW 4995   0.297   0.043   9.484
 1185SOL    HW1 4996   0.364   0.111   9.488
 1185SOL    HW2 4997   0.316  -0.015   9.558
 1186SOL     OW 4998   0.949   0.265   9.774
 1186SOL    HW1 4999   0.920   0.297   9.688
 1186SOL    HW2 5000   1.044   0.280   9.773
 1187SOL     OW 5001   1.075   0.668  10.772
 1187SOL    HW1 5002   1.023   0.588  10.781
 1187SOL    HW2 5003   1.165   0.636  10.765
 1188SOL     OW 5004   1.208   1.584  10.111
 1188SOL    HW1 5005   1.226   1.643  10.038
 1188SOL    HW2 5006   1.288   1.587  10.164
 1189SOL     OW 5007   0.475   1.158  10.033
 1189SOL    HW1 5008   0.413   1.135  10.102
 1189SOL    HW2 5009   0.428   1.142   9.951
 1190SOL     OW 5010   1.264   1.790   9.924
 1190SOL    HW1 5011   1.318   1.847   9.869
 1190SOL    HW2 5012   1.195   1.846   9.956
 1191SOL     OW 5013   1.023   0.520   9.338
 1191SOL    HW1 5014   0.980   0.603   9.315
 1191SOL    HW2 5015   1.086   0.545   9.405
 1192SOL     OW 5016   0.114   0.558  10.708
 1192SOL    HW1 5017   0.203   0.560  10.673
 1192SOL    HW2 5018   0.109   0.633  10.767
 1193SOL     OW 5019   0.553   0.254  10.534
 1193SOL    HW1 5020   0.599   0.181  10.574
 1193SOL    HW2 5021   0.460   0.232  10.543
 1194SOL     OW 5022   0.866   0.475   9.941
 1194SOL    HW1 5023   0.830   0.525   9.868
 1194SOL    HW2 5024   0.885   0.389   9.904
 1195SOL     OW 5025   0.955   0.034  10.119
 1195SOL    HW1 5026   0.913   0.040  10.033
 1195SOL    HW2 5027   0.994  -0.053  10.121
 1196SOL     OW 5028   1.446   1.160  10.163
 1196SOL    HW1 5029   1.372   1.102  10.148
 1196SOL    HW2 5030   1.487   1.170  10.077
 1197SOL     OW 5031   1.463   0.617  10.276
 1197SOL    HW1 5032   1.414   0.536  10.269
 1197SOL    HW2 5033   1.522   0.604  10.350
 1198SOL     OW 5034   1.834   0.808   9.706
 1198SOL    HW1 5035   1.899   0.762   9.758
 1198SOL    HW2 5036   1.814   0.749   9.634
 1199SOL     OW 5037   0.491   1.420   9.452
 1199SOL    HW1 5038   0.412   1.388   9.496
 1199SOL    HW2 5039   0.492   1.373   9.368
 1200SOL     OW 5040   1.680   1.257   9.964
 1200SOL    HW1 5041   1.775   1.253   9.973
 1200SOL    HW2 5042   1.659   1.350   9.973
 1201SOL     OW 5043   1.398   0.582   9.381
 1201SOL    HW1 5044   1.336   0.555   9.449
 1201SOL    HW2 5045   1.484   0.564   9.419
 1202SOL     OW 5046   0.500   0.270   9.621
 1202SOL    HW1 5047   0.547   0.222   9.553
 1202SOL    HW2 5048   0.482   0.356   9.583
 1203SOL     OW 5049   1.748   1.241  10.872
 1203SOL    HW1 5050   1.836   1.208  10.854
 1203SOL    HW2 5051   1.762   1.332  10.900
 1204SOL     OW 5052   1.052   1.360  10.649
 1204SOL    HW1 5053   0.975   1.325  10.694
 1204SOL    HW2 5054   1.126   1.312  10.686
 1205SOL     OW 5055   1.611   1.629  10.972
 1205SOL    HW1 5056   1.599   1.664  10.884
 1205SOL    HW2 5057   1.692   1.578  10.968
 1206SOL     OW 5058   1.143   1.225  10.413
 1206SOL    HW1 5059   1.075   1.257  10.473
 1206SOL    HW2 5060   1.115   1.255  10.327
 1207SOL     OW 5061   1.612   1.088  10.384
 1207SOL    HW1 5062   1.602   1.154  10.453
 1207SOL    HW2 5063   1.542   1.108  10.322
 1208SOL     OW 5064   0.929   0.128  10.718
 1208SOL    HW1 5065   0.936   0.108  10.624
 1208SOL    HW2 5066   1.018   0.122  10.750
 1209SOL     OW 5067   0.983   1.109  11.038
 1209SOL    HW1 5068   0.891   1.127  11.056
 1209SOL    HW2 5069   0.983   1.033  10.981
 1210SOL     OW 5070   0.709   1.060   9.684
 1210SOL    HW1 5071   0.697   1.039   9.776
 1210SOL    HW2 5072   0.785   1.009   9.657
 1211SOL     OW 5073   0.425   0.823  10.565
 1211SOL    HW1 5074   0.490   0.841  10.633
 1211SOL    HW2 5075   0.404   0.730  10.576
 1212SOL     OW 5076   1.262   0.382  10.598
 1212SOL    HW1 5077   1.292   0.463  10.639
 1212SOL    HW2 5078   1.175   0.402  10.565
 1213SOL     OW 5079   0.037   1.599  10.641
 1213SOL    HW1 5080   0.104   1.662  10.613
 1213SOL    HW2 5081   0.072   1.561  10.722
 1214SOL     OW 5082   0.326   1.110   9.799
 1214SOL    HW1 5083   0.335   1.181   9.735
 1214SOL    HW2 5084   0.334   1.030   9.747
 1215SOL     OW 5085   0.547   0.537  10.176
 1215SOL    HW1 5086   0.561   0.595  10.101
 1215SOL    HW2 5087   0.620   0.555  10.235
 1216SOL     OW 5088   1.248   1.348   9.702
 1216SOL    HW1 5089   1.305   1.419   9.732
 1216SOL    HW2 5090   1.161   1.373   9.734
 1217SOL     OW 5091   1.296   1.463  10.457
 1217SOL    HW1 5092   1.349   1.465  10.537
 1217SOL    HW2 5093   1.244   1.383  10.465
 1218SOL     OW 5094   1.572   0.629   9.792
 1218SOL    HW1 5095   1.520   0.682   9.853
 1218SOL    HW2 5096   1.622   0.692   9.741
 1219SOL     OW 5097   0.347   1.535  10.617
 1219SOL    HW1 5098   0.332   1.486  10.535
 1219SOL    HW2 5099   0.442   1.545  10.622
 1220SOL     OW 5100   0.428   0.734  10.923
 1220SOL    HW1 5101   0.483   0.785  10.864
 1220SOL    HW2 5102   0.484   0.661  10.950
 1221SOL     OW 5103   1.615   0.804  11.000
 1221SOL    HW1 5104   1.527   0.838  10.988
 1221SOL    HW2 5105   1.665   0.840  10.926
 1222SOL     OW 5106   1.046   0.075  11.056
 1222SOL    HW1 5107   1.057   0.165  11.027
 1222SOL    HW2 5108   0.953   0.058  11.046
 1223SOL     OW 5109   0.505   0.033  11.040
 1223SOL    HW1 5110   0.484  -0.031  10.972
 1223SOL    HW2 5111   0.425   0.084  11.050
 1224SOL     OW 5112   0.593   0.875  10.345
 1224SOL    HW1 5113   0.627   0.965  10.347
 1224SOL    HW2 5114   0.533   0.871  10.419
 1225SOL     OW 5115   1.336   0.857  10.333
 1225SOL    HW1 5116   1.253   0.843  10.287
 1225SOL    HW2 5117   1.385   0.776  10.318
 1226SOL     OW 5118   1.195   0.530   9.565
 1226SOL    HW1 5119   1.206   0.450   9.616
 1226SOL    HW2 5120   1.154   0.592   9.625
 1227SOL     OW 5121   0.288   0.196  10.572
 1227SOL    HW1 5122   0.248   0.230  10.652
 1227SOL    HW2 5123   0.219   0.144  10.531
 1228SOL     OW 5124   0.037   1.309  10.580
 1228SOL    HW1 5125   0.068   1.252  10.651
 1228SOL    HW2 5126   0.051   1.398  10.612
 1229SOL     OW 5127   0.725   0.630  10.365
 1229SOL    HW1 5128   0.798   0.616  10.305
 1229SOL    HW2 5129   0.694   0.719  10.346
 1230SOL     OW 5130   1.748   0.959  11.180
 1230SOL    HW1 5131   1.702   0.903  11.118
 1230SOL    HW2 5132   1.684   0.978  11.249
 1231SOL     OW 5133   0.403   0.091   9.975
 1231SOL    HW1 5134   0.345   0.166   9.988
 1231SOL    HW2 5135   0.353   0.032   9.919
 1232SOL     OW 5136   1.629   0.395   9.664
 1232SOL    HW1 5137   1.639   0.322   9.725
 1232SOL    HW2 5138   1.601   0.469   9.718
 1233SOL     OW 5139   1.028   0.764  10.269
 1233SOL    HW1 5140   1.018   0.776  10.363
 1233SOL    HW2 5141   0.999   0.674  10.253
 1234SOL     OW 5142   0.978   1.562  11.033
 1234SOL    HW1 5143   0.962   1.608  10.950
 1234SOL    HW2 5144   1.026   1.483  11.007
 1235SOL     OW 5145   1.849   1.500  10.912
 1235SOL    HW1 5146   1.871   1.526  10.823
 1235SOL    HW2 5147   1.930   1.512  10.962
 1236SOL     OW 5148   0.366   0.949  11.101
 1236SOL    HW1 5149   0.439   0.957  11.163
 1236SOL    HW2 5150   0.383   0.868  11.054
 1237SOL     OW 5151   1.567   0.281   9.425
 1237SOL    HW1 5152   1.471   0.284   9.431
 1237SOL    HW2 5153   1.597   0.319   9.508
 1238SOL     OW 5154   1.287   0.830   9.337
 1238SOL    HW1 5155   1.330   0.745   9.342
 1238SOL    HW2 5156   1.319   0.868   9.255
 1239SOL     OW 5157   1.070   1.344  10.171
 1239SOL    HW1 5158   1.076   1.272  10.109
 1239SOL    HW2 5159   1.123   1.414  10.133
 1240SOL     OW 5160   0.320   0.809  10.247
 1240SOL    HW1 5161   0.414   0.824  10.238
 1240SOL    HW2 5162   0.313   0.721  10.285
 1241SOL     OW 5163   0.331   0.534  10.330
 1241SOL    HW1 5164   0.296   0.446  10.313
 1241SOL    HW2 5165   0.408   0.540  10.273
 1242SOL     OW 5166   1.167   0.370  11.017
 1242SOL    HW1 5167   1.095   0.419  11.057
 1242SOL    HW2 5168   1.230   0.437  10.991
 1243SOL     OW 5169   1.184   0.210  10.793
 1243SOL    HW1 5170   1.172   0.268  10.868
 1243SOL    HW2 5171   1.207   0.268  10.720
 1244SOL     OW 5172   7.985   1.306   9.521
 1244SOL    HW1 5173   7.892   1.319   9.541
 1244SOL    HW2 5174   7.999   1.212   9.529
 1245SOL     OW 5175   0.128   1.749  10.281
 1245SOL    HW1 5176   0.101   1.685  10.215
 1245SOL    HW2 5177   0.204   1.792  10.242
 1246SOL     OW 5178   0.491   1.578  10.217
 1246SOL    HW1 5179   0.561   1.638  10.241
 1246SOL    HW2 5180   0.532   1.517  10.156
 1247SOL     OW 5181   0.967   0.782  10.538
 1247SOL    HW1 5182   1.025   0.757  10.610
 1247SOL    HW2 5183   0.882   0.744  10.561
 1248SOL     OW 5184   0.072   0.550  10.434
 1248SOL    HW1 5185   0.165   0.550  10.411
 1248SOL    HW2 5186   0.070   0.545  10.530
 1249SOL     OW 5187   0.195   0.526  11.014
 1249SOL    HW1 5188   0.281   0.508  10.976
 1249SOL    HW2 5189   0.168   0.608  10.973
 1250SOL     OW 5190   1.375   0.933  10.965
 1250SOL    HW1 5191   1.398   1.026  10.959
 1250SOL    HW2 5192   1.370   0.904  10.874
 1251SOL     OW 5193   0.814   0.575   9.682
 1251SOL    HW1 5194   0.824   0.501   9.623
 1251SOL    HW2 5195   0.741   0.625   9.646
 1252SOL     OW 5196   1.638   0.602  10.492
 1252SOL    HW1 5197   1.628   0.548  10.570
 1252SOL    HW2 5198   1.726   0.582  10.460
 1253SOL     OW 5199   0.287   1.538  11.034
 1253SOL    HW1 5200   0.246   1.609  11.084
 1253SOL    HW2 5201   0.278   1.461  11.089
 1254SOL     OW 5202   0.734   0.453  10.570
 1254SOL    HW1 5203   0.669   0.384  10.558
 1254SOL    HW2 5204   0.720   0.513  10.496
 1255SOL     OW 5205   0.908   1.681  10.790
 1255SOL    HW1 5206   0.892   1.636  10.707
 1255SOL    HW2 5207   0.907   1.774  10.767
 1256SOL     OW 5208   0.460   0.495   9.480
 1256SOL    HW1 5209   0.513   0.573   9.496
 1256SOL    HW2 5210   0.374   0.517   9.514
 1257SOL     OW 5211   0.154   1.127  10.759
 1257SOL    HW1 5212   0.136   1.083  10.843
 1257SOL    HW2 5213   0.160   1.055  10.696
 1258SOL     OW 5214   1.312   1.042  10.529
 1258SOL    HW1 5215   1.331   0.978  10.460
 1258SOL    HW2 5216   1.252   1.104  10.487
 1259SOL     OW 5217   1.317   0.854   9.613
 1259SOL    HW1 5218   1.241   0.820   9.661
 1259SOL    HW2 5219   1.293   0.844   9.521
 1260SOL     OW 5220   1.789   1.729  10.478
 1260SOL    HW1 5221   1.847   1.757  10.407
 1260SOL    HW2 5222   1.754   1.645  10.449
 1261SOL     OW 5223   1.242   1.735  10.418
 1261SOL    HW1 5224   1.324   1.761  10.375
 1261SOL    HW2 5225   1.253   1.642  10.435
 1262SOL     OW 5226   0.059   1.185  10.341
 1262SOL    HW1 5227   0.053   1.231  10.425
 1262SOL    HW2 5228  -0.004   1.230  10.284
 1263SOL     OW 5229   0.684   1.675  11.053
 1263SOL    HW1 5230   0.622   1.745  11.031
 1263SOL    HW2 5231   0.758   1.689  10.993
 1264SOL     OW 5232   1.668   0.149   9.792
 1264SOL    HW1 5233   1.710   0.117   9.712
 1264SOL    HW2 5234   1.731   0.130   9.862
 1265SOL     OW 5235   1.399   1.565   9.805
 1265SOL    HW1 5236   1.456   1.597   9.735
 1265SOL    HW2 5237   1.346   1.640   9.830
 1266SOL     OW 5238   0.165   1.752  11.153
 1266SOL    HW1 5239   0.104   1.701  11.206
 1266SOL    HW2 5240   0.220   1.797  11.217
 1267SOL     OW 5241   1.279   0.936   9.986
 1267SOL    HW1 5242   1.352   0.875   9.997
 1267SOL    HW2 5243   1.312   1.003   9.927
 1268SOL     OW 5244   0.798   1.281  10.732
 1268SOL    HW1 5245   0.769   1.323  10.813
 1268SOL    HW2 5246   0.726   1.297  10.670
 1269SOL     OW 5247   0.667   1.626   9.466
 1269SOL    HW1 5248   0.681   1.643   9.373
 1269SOL    HW2 5249   0.611   1.549   9.469
 1270SOL     OW 5250   1.617   1.726  10.705
 1270SOL    HW1 5251   1.673   1.729  10.628
 1270SOL    HW2 5252   1.602   1.818  10.727
 1271SOL     OW 5253   1.850   0.175  10.271
 1271SOL    HW1 5254   1.851   0.079  10.272
 1271SOL    HW2 5255   1.766   0.198  10.230
 1272SOL     OW 5256   0.256   0.319  10.014
 1272SOL    HW1 5257   0.169   0.350   9.990
 1272SOL    HW2 5258   0.256   0.321  10.110
 1273SOL     OW 5259   1.206   1.603   9.347
 1273SOL    HW1 5260   1.196   1.510   9.368
 1273SOL    HW2 5261   1.145   1.618   9.275
 1274SOL     OW 5262   0.824   1.012  10.689
 1274SOL    HW1 5263   0.864   1.000  10.603
 1274SOL    HW2 5264   0.820   1.107  10.700
 1275SOL     OW 5265   0.920   0.913   9.609
 1275SOL    HW1 5266   0.975   0.944   9.537
 1275SOL    HW2 5267   0.971   0.844   9.651
 1276SOL     OW 5268   1.488   1.636   9.357
 1276SOL    HW1 5269   1.395   1.622   9.339
 1276SOL    HW2 5270   1.529   1.640   9.271
 1277SOL     OW 5271   0.365   1.306  10.804
 1277SOL    HW1 5272   0.351   1.382  10.748
 1277SOL    HW2 5273   0.295   1.245  10.781
 1278SOL     OW 5274   1.599   1.283  10.581
 1278SOL    HW1 5275   1.674   1.275  10.639
 1278SOL    HW2 5276   1.543   1.348  10.623
 1279SOL     OW 5277   1.066   1.116  10.029
 1279SOL    HW1 5278   0.992   1.064  10.061
 1279SOL    HW2 5279   1.130   1.051  10.000
 1280SOL     OW 5280   1.039   0.268  10.260
 1280SOL    HW1 5281   1.011   0.214  10.186
 1280SOL    HW2 5282   1.045   0.207  10.334
 1281SOL     OW 5283   0.608   1.496   9.794
 1281SOL    HW1 5284   0.660   1.444   9.733
 1281SOL    HW2 5285   0.522   1.503   9.753
 1282SOL     OW 5286   1.743   0.414  10.721
 1282SOL    HW1 5287   1.815   0.477  10.719
 1282SOL    HW2 5288   1.764   0.352  10.650
 1283SOL     OW 5289   0.255   1.332   9.582
 1283SOL    HW1 5290   0.159   1.335   9.575
 1283SOL    HW2 5291   0.274   1.375   9.666
 1284SOL     OW 5292   0.110   1.003  11.011
 1284SOL    HW1 5293   0.067   1.081  11.046
 1284SOL    HW2 5294   0.192   0.997  11.059
 1285SOL     OW 5295   0.684   0.235  10.813
 1285SOL    HW1 5296   0.754   0.179  10.780
 1285SOL    HW2 5297   0.698   0.237  10.908
 1286SOL     OW 5298   0.079   0.342   9.307
 1286SOL    HW1 5299   0.023   0.387   9.370
 1286SOL    HW2 5300   0.115   0.411   9.252
 1287SOL     OW 5301   1.421   0.859  10.704
 1287SOL    HW1 5302   1.370   0.918  10.650
 1287SOL    HW2 5303   1.509   0.861  10.666
 1288SOL     OW 5304   0.099   0.261   9.659
 1288SOL    HW1 5305   0.069   0.217   9.580
 1288SOL    HW2 5306   0.117   0.190   9.721
 1289SOL     OW 5307   1.179   1.331   9.427
 1289SOL    HW1 5308   1.086   1.308   9.425
 1289SOL    HW2 5309   1.202   1.331   9.519
 1290SOL     OW 5310   0.612   0.853  10.757
 1290SOL    HW1 5311   0.671   0.926  10.739
 1290SOL    HW2 5312   0.668   0.775  10.758
 1291SOL     OW 5313   1.483   1.797  10.297
 1291SOL    HW1 5314   1.506   1.864  10.233
 1291SOL    HW2 5315   1.566   1.752  10.316
 1292SOL     OW 5316   0.712   0.557  11.011
 1292SOL    HW1 5317   0.762   0.616  11.067
 1292SOL    HW2 5318   0.732   0.470  11.044
 1293SOL     OW 5319   1.476   1.190  10.935
 1293SOL    HW1 5320   1.467   1.209  11.029
 1293SOL    HW2 5321   1.567   1.211  10.915
 1294SOL     OW 5322   0.387   1.744  10.880
 1294SOL    HW1 5323   0.301   1.778  10.856
 1294SOL    HW2 5324   0.370   1.658  10.917
 1295SOL     OW 5325   1.659   0.878  10.565
 1295SOL    HW1 5326   1.657   0.793  10.521
 1295SOL    HW2 5327   1.647   0.942  10.494
 1296SOL     OW 5328   1.217   0.324   9.761
 1296SOL    HW1 5329   1.280   0.253   9.748
 1296SOL    HW2 5330   1.249   0.372   9.837
 1297SOL     OW 5331   0.587   0.741   9.997
 1297SOL    HW1 5332   0.632   0.823   9.978
 1297SOL    HW2 5333   0.527   0.729   9.923
 1298SOL     OW 5334   1.760   0.938  10.814
 1298SOL    HW1 5335   1.743   1.031  10.825
 1298SOL    HW2 5336   1.736   0.919  10.723
 1299SOL     OW 5337   0.872   1.368   9.359
 1299SOL    HW1 5338   0.825   1.409   9.432
 1299SOL    HW2 5339   0.889   1.440   9.298
 1300SOL     OW 5340   0.670   1.780  10.249
 1300SOL    HW1 5341   0.653   1.871  10.226
 1300SOL    HW2 5342   0.765   1.770  10.240
 1301SOL     OW 5343   0.870   0.974  10.165
 1301SOL    HW1 5344   0.920   0.901  10.200
 1301SOL    HW2 5345   0.829   1.014  10.242
 1302SOL     OW 5346   1.070   0.982   9.398
 1302SOL    HW1 5347   1.051   1.038   9.322
 1302SOL    HW2 5348   1.147   0.932   9.372
 1303SOL     OW 5349   1.845   1.555  10.148
 1303SOL    HW1 5350   1.767   1.544  10.094
 1303SOL    HW2 5351   1.845   1.480  10.207
 1304SOL     OW 5352   0.213   1.303  11.166
 1304SOL    HW1 5353   0.123   1.284  11.140
 1304SOL    HW2 5354   0.212   1.299  11.261
 1305SOL     OW 5355   0.137   1.263   9.968
 1305SOL    HW1 5356   0.061   1.214  10.001
 1305SOL    HW2 5357   0.195   1.195   9.932
 1306SOL     OW 5358   0.687   1.407  10.951
 1306SOL    HW1 5359   0.603   1.371  10.978
 1306SOL    HW2 5360   0.686   1.497  10.983
 1307SOL     OW 5361   1.840   0.231  10.544
 1307SOL    HW1 5362   1.783   0.155  10.551
 1307SOL    HW2 5363   1.854   0.242  10.450
 1308SOL     OW 5364   0.450   0.427   9.848
 1308SOL    HW1 5365   0.454   0.366   9.774
 1308SOL    HW2 5366   0.381   0.393   9.903
 1309SOL     OW 5367   1.685   1.490  10.402
 1309SOL    HW1 5368   1.612   1.471  10.344
 1309SOL    HW2 5369   1.686   1.416  10.463
 1310SOL     OW 5370   0.363   0.560  10.607
 1310SOL    HW1 5371   0.405   0.494  10.663
 1310SOL    HW2 5372   0.376   0.528  10.518
 1311SOL     OW 5373   0.833   1.576   9.987
 1311SOL    HW1 5374   0.807   1.635   9.916
 1311SOL    HW2 5375   0.760   1.514   9.994
 1312SOL     OW 5376   1.419   0.216  10.442
 1312SOL    HW1 5377   1.489   0.176  10.494
 1312SOL    HW2 5378   1.368   0.267  10.504
 1313SOL     OW 5379   1.010   0.076  10.452
 1313SOL    HW1 5380   0.924   0.066  10.412
 1313SOL    HW2 5381   1.038  -0.013  10.473
 1314SOL     OW 5382   0.769   1.333   9.647
 1314SOL    HW1 5383   0.745   1.240   9.647
 1314SOL    HW2 5384   0.858   1.334   9.681
 1315SOL     OW 5385   0.620   1.559  10.598
 1315SOL    HW1 5386   0.620   1.645  10.642
 1315SOL    HW2 5387   0.709   1.551  10.562
 1316SOL     OW 5388   1.348   7.980   9.433
 1316SOL    HW1 5389   1.404   7.903   9.442
 1316SOL    HW2 5390   1.276   7.965   9.494
 1317SOL     OW 5391   1.297   0.466   9.983
 1317SOL    HW1 5392   1.244   0.546   9.987
 1317SOL    HW2 5393   1.300   0.435  10.074
 1318SOL     OW 5394   1.607   0.232  10.180
 1318SOL    HW1 5395   1.516   0.217  10.209
 1318SOL    HW2 5396   1.601   0.308  10.122
 1319SOL     OW 5397   0.054   1.046   9.580
 1319SOL    HW1 5398   0.144   1.017   9.564
 1319SOL    HW2 5399   0.042   1.031   9.674
 1320SOL     OW 5400   0.883   1.659   9.649
 1320SOL    HW1 5401   0.810   1.642   9.590
 1320SOL    HW2 5402   0.850   1.727   9.708
 1321SOL     OW 5403   0.238   0.704  11.257
 1321SOL    HW1 5404   0.194   0.661  11.330
 1321SOL    HW2 5405   0.232   0.641  11.185
 1322SOL     OW 5406   0.237   0.294  12.155
 1322SOL    HW1 5407   0.267   0.242  12.229
 1322SOL    HW2 5408   0.148   0.262  12.138
 1323SOL     OW 5409   7.997   0.393  11.771
 1323SOL    HW1 5410   7.912   0.377  11.813
 1323SOL    HW2 5411   8.000   0.330  11.698
 1324SOL     OW 5412   0.517   1.263  12.326
 1324SOL    HW1 5413   0.494   1.196  12.392
 1324SOL    HW2 5414   0.579   1.320  12.370
 1325SOL     OW 5415   1.579   1.516  11.881
 1325SOL    HW1 5416   1.536   1.497  11.964
 1325SOL    HW2 5417   1.507   1.523  11.818
 1326SOL     OW 5418   1.113   0.714  11.871
 1326SOL    HW1 5419   1.203   0.739  11.890
 1326SOL    HW2 5420   1.077   0.688  11.955
 1327SOL     OW 5421   1.795   0.588  11.386
 1327SOL    HW1 5422   1.757   0.582  11.298
 1327SOL    HW2 5423   1.754   0.517  11.435
 1328SOL     OW 5424   0.762   1.118  12.184
 1328SOL    HW1 5425   0.725   1.133  12.272
 1328SOL    HW2 5426   0.778   1.206  12.150
 1329SOL     OW 5427   0.706   1.004  11.821
 1329SOL    HW1 5428   0.755   0.994  11.902
 1329SOL    HW2 5429   0.629   1.056  11.845
 1330SOL     OW 5430   1.604   0.452  11.899
 1330SOL    HW1 5431   1.527   0.468  11.844
 1330SOL    HW2 5432   1.602   0.523  11.963
 1331SOL     OW 5433   0.232   1.694  11.654
 1331SOL    HW1 5434   0.224   1.780  11.696
 1331SOL    HW2 5435   0.301   1.705  11.590
 1332SOL     OW 5436   0.302   1.434  11.689
 1332SOL    HW1 5437   0.271   1.524  11.697
 1332SOL    HW2 5438   0.249   1.385  11.751
 1333SOL     OW 5439   0.308   1.096  12.089
 1333SOL    HW1 5440   0.296   1.003  12.106
 1333SOL    HW2 5441   0.226   1.136  12.118
 1334SOL     OW 5442   0.572   0.990  11.316
 1334SOL    HW1 5443   0.621   1.034  11.247
 1334SOL    HW2 5444   0.613   1.020  11.397
 1335SOL     OW 5445   0.141   0.627  11.719
 1335SOL    HW1 5446   0.094   0.547  11.742
 1335SOL    HW2 5447   0.120   0.688  11.790
 1336SOL     OW 5448   1.844   1.750  11.500
 1336SOL    HW1 5449   1.915   1.728  11.560
 1336SOL    HW2 5450   1.858   1.843  11.479
 1337SOL     OW 5451   0.017   1.590  11.314
 1337SOL    HW1 5452   0.001   1.498  11.295
 1337SOL    HW2 5453   0.003   1.598  11.409
 1338SOL     OW 5454   1.677   0.909  11.818
 1338SOL    HW1 5455   1.764   0.870  11.810
 1338SOL    HW2 5456   1.668   0.963  11.739
 1339SOL     OW 5457   1.650   1.101  11.607
 1339SOL    HW1 5458   1.737   1.101  11.566
 1339SOL    HW2 5459   1.659   1.163  11.679
 1340SOL     OW 5460   0.151   0.746   0.299
 1340SOL    HW1 5461   0.141   0.689   0.374
 1340SOL    HW2 5462   0.192   0.825   0.334
 1341SOL     OW 5463   0.605   1.394  11.905
 1341SOL    HW1 5464   0.565   1.306  11.904
 1341SOL    HW2 5465   0.592   1.426  11.816
 1342SOL     OW 5466   0.844   0.028  11.730
 1342SOL    HW1 5467   0.875   0.112  11.698
 1342SOL    HW2 5468   0.749   0.031  11.718
 1343SOL     OW 5469   0.196   0.965  12.382
 1343SOL    HW1 5470   0.282   0.923  12.386
 1343SOL    HW2 5471   0.141   0.915  12.442
 1344SOL     OW 5472   1.529   1.004  11.376
 1344SOL    HW1 5473   1.460   0.946  11.410
 1344SOL    HW2 5474   1.574   1.035  11.454
 1345SOL     OW 5475   1.476   1.414  12.119
 1345SOL    HW1 5476   1.407   1.433  12.183
 1345SOL    HW2 5477   1.459   1.325  12.090
 1346SOL     OW 5478   1.652   1.765  11.746
 1346SOL    HW1 5479   1.633   1.727  11.660
 1346SOL    HW2 5480   1.639   1.692  11.807
 1347SOL     OW 5481   0.589   0.724  11.444
 1347SOL    HW1 5482   0.577   0.807  11.397
 1347SOL    HW2 5483   0.526   0.728  11.516
 1348SOL     OW 5484   1.294   0.372  12.107
 1348SOL    HW1 5485   1.204   0.338  12.106
 1348SOL    HW2 5486   1.339   0.316  12.171
 1349SOL     OW 5487   1.578   1.672  11.485
 1349SOL    HW1 5488   1.671   1.695  11.476
 1349SOL    HW2 5489   1.548   1.657  11.396
 1350SOL     OW 5490   0.998   0.403  12.367
 1350SOL    HW1 5491   0.911   0.428  12.399
 1350SOL    HW2 5492   0.983   0.321  12.320
 1351SOL     OW 5493   1.048   0.690  11.603
 1351SOL    HW1 5494   1.065   0.665  11.694
 1351SOL    HW2 5495   0.966   0.645  11.581
 1352SOL     OW 5496   0.094   0.783  11.947
 1352SOL    HW1 5497   0.176   0.796  11.995
 1352SOL    HW2 5498   0.032   0.842  11.989
 1353SOL     OW 5499   0.056   1.772   0.257
 1353SOL    HW1 5500   0.103   1.769   0.340
 1353SOL    HW2 5501  -0.037   1.778   0.282
 1354SOL     OW 5502   0.883   0.351  11.383
 1354SOL    HW1 5503   0.920   0.391  11.304
 1354SOL    HW2 5504   0.852   0.265  11.354
 1355SOL     OW 5505   1.377   1.153  11.699
 1355SOL    HW1 5506   1.460   1.138  11.653
 1355SOL    HW2 5507   1.332   1.219  11.645
 1356SOL     OW 5508   0.572   0.246  12.099
 1356SOL    HW1 5509   0.548   0.265  12.190
 1356SOL    HW2 5510   0.562   0.329  12.053
 1357SOL     OW 5511   0.991   1.445  11.643
 1357SOL    HW1 5512   0.966   1.518  11.587
 1357SOL    HW2 5513   0.965   1.472  11.731
 1358SOL     OW 5514   0.365   1.826  12.027
 1358SOL    HW1 5515   0.418   1.750  12.050
 1358SOL    HW2 5516   0.420   1.901  12.050
 1359SOL     OW 5517   1.795   1.044  12.052
 1359SOL    HW1 5518   1.741   1.034  11.974
 1359SOL    HW2 5519   1.733   1.057  12.123
 1360SOL     OW 5520   0.302   0.942  11.412
 1360SOL    HW1 5521   0.385   0.970  11.373
 1360SOL    HW2 5522   0.277   0.864  11.363
 1361SOL     OW 5523   1.447   0.775  11.892
 1361SOL    HW1 5524   1.459   0.721  11.970
 1361SOL    HW2 5525   1.532   0.819  11.881
 1362SOL     OW 5526   1.127   1.776  11.399
 1362SOL    HW1 5527   1.048   1.738  11.439
 1362SOL    HW2 5528   1.151   1.714  11.331
 1363SOL     OW 5529   1.632   1.383  11.272
 1363SOL    HW1 5530   1.592   1.469  11.254
 1363SOL    HW2 5531   1.565   1.320  11.246
 1364SOL     OW 5532   0.456   1.740  11.487
 1364SOL    HW1 5533   0.505   1.790  11.553
 1364SOL    HW2 5534   0.524   1.698  11.434
 1365SOL     OW 5535   1.415   0.140  11.565
 1365SOL    HW1 5536   1.421   0.089  11.485
 1365SOL    HW2 5537   1.504   0.143  11.599
 1366SOL     OW 5538   0.256   1.758  12.377
 1366SOL    HW1 5539   0.194   1.789  12.443
 1366SOL    HW2 5540   0.206   1.758  12.295
 1367SOL     OW 5541   0.937   1.698  12.073
 1367SOL    HW1 5542   1.021   1.654  12.087
 1367SOL    HW2 5543   0.896   1.648  12.002
 1368SOL     OW 5544   0.413   0.693  11.658
 1368SOL    HW1 5545   0.431   0.600  11.671
 1368SOL    HW2 5546   0.318   0.701  11.670
 1369SOL     OW 5547   0.603   0.152  11.270
 1369SOL    HW1 5548   0.671   0.100  11.313
 1369SOL    HW2 5549   0.565   0.093  11.205
 1370SOL     OW 5550   0.818   1.363  12.088
 1370SOL    HW1 5551   0.905   1.373  12.049
 1370SOL    HW2 5552   0.758   1.390  12.019
 1371SOL     OW 5553   0.940   0.527  12.056
 1371SOL    HW1 5554   0.908   0.513  11.967
 1371SOL    HW2 5555   0.963   0.439  12.088
 1372SOL     OW 5556   0.589   0.025  11.594
 1372SOL    HW1 5557   0.518  -0.026  11.634
 1372SOL    HW2 5558   0.563   0.116  11.608
 1373SOL     OW 5559   1.431   1.205  11.209
 1373SOL    HW1 5560   1.458   1.129  11.261
 1373SOL    HW2 5561   1.344   1.228  11.243
 1374SOL     OW 5562   0.300   0.051  11.361
 1374SOL    HW1 5563   0.345   0.127  11.399
 1374SOL    HW2 5564   0.314  -0.019  11.425
 1375SOL     OW 5565   0.958   0.261  11.636
 1375SOL    HW1 5566   0.926   0.288  11.550
 1375SOL    HW2 5567   1.052   0.276  11.632
 1376SOL     OW 5568   1.214   1.591  11.977
 1376SOL    HW1 5569   1.228   1.648  11.903
 1376SOL    HW2 5570   1.277   1.620  12.043
 1377SOL     OW 5571   0.482   1.147  11.886
 1377SOL    HW1 5572   0.424   1.128  11.960
 1377SOL    HW2 5573   0.428   1.132  11.808
 1378SOL     OW 5574   1.259   1.791  11.785
 1378SOL    HW1 5575   1.308   1.854  11.733
 1378SOL    HW2 5576   1.188   1.842  11.825
 1379SOL     OW 5577   1.020   0.525  11.196
 1379SOL    HW1 5578   0.977   0.607  11.175
 1379SOL    HW2 5579   1.079   0.546  11.268
 1380SOL     OW 5580   0.566   0.261  12.378
 1380SOL    HW1 5581   0.600   0.201  12.444
 1380SOL    HW2 5582   0.471   0.251  12.384
 1381SOL     OW 5583   0.879   0.481  11.796
 1381SOL    HW1 5584   0.822   0.521  11.730
 1381SOL    HW2 5585   0.886   0.389  11.769
 1382SOL     OW 5586   1.012   8.025  11.940
 1382SOL    HW1 5587   0.953   8.027  11.865
 1382SOL    HW2 5588   0.997   7.940  11.980
 1383SOL     OW 5589   1.437   1.157  12.028
 1383SOL    HW1 5590   1.385   1.078  12.022
 1383SOL    HW2 5591   1.475   1.168  11.941
 1384SOL     OW 5592   1.461   0.611  12.122
 1384SOL    HW1 5593   1.408   0.531  12.130
 1384SOL    HW2 5594   1.524   0.605  12.194
 1385SOL     OW 5595   1.829   0.801  11.557
 1385SOL    HW1 5596   1.892   0.758  11.615
 1385SOL    HW2 5597   1.817   0.739  11.485
 1386SOL     OW 5598   0.488   1.419  11.312
 1386SOL    HW1 5599   0.409   1.389  11.358
 1386SOL    HW2 5600   0.488   1.371  11.229
 1387SOL     OW 5601   1.675   1.257  11.826
 1387SOL    HW1 5602   1.770   1.253  11.837
 1387SOL    HW2 5603   1.652   1.349  11.841
 1388SOL     OW 5604   1.396   0.575  11.250
 1388SOL    HW1 5605   1.326   0.555  11.313
 1388SOL    HW2 5606   1.476   0.546  11.294
 1389SOL     OW 5607   0.488   0.274  11.480
 1389SOL    HW1 5608   0.538   0.223  11.417
 1389SOL    HW2 5609   0.475   0.359  11.438
 1390SOL     OW 5610   1.100   1.237  12.293
 1390SOL    HW1 5611   1.024   1.260  12.346
 1390SOL    HW2 5612   1.079   1.270  12.206
 1391SOL     OW 5613   1.609   1.102  12.250
 1391SOL    HW1 5614   1.583   1.138  12.334
 1391SOL    HW2 5615   1.538   1.126  12.190
 1392SOL     OW 5616   0.717   1.064  11.542
 1392SOL    HW1 5617   0.694   1.046  11.634
 1392SOL    HW2 5618   0.800   1.018  11.529
 1393SOL     OW 5619   0.436   0.828  12.438
 1393SOL    HW1 5620   0.492   0.844  12.513
 1393SOL    HW2 5621   0.387   0.748  12.460
 1394SOL     OW 5622   1.253   0.360  12.439
 1394SOL    HW1 5623   1.291   0.441  12.474
 1394SOL    HW2 5624   1.166   0.385  12.410
 1395SOL     OW 5625   0.336   1.105  11.654
 1395SOL    HW1 5626   0.334   1.180  11.594
 1395SOL    HW2 5627   0.331   1.028  11.597
 1396SOL     OW 5628   0.564   0.517  12.025
 1396SOL    HW1 5629   0.578   0.581  11.955
 1396SOL    HW2 5630   0.620   0.546  12.097
 1397SOL     OW 5631   1.240   1.358  11.563
 1397SOL    HW1 5632   1.298   1.428  11.593
 1397SOL    HW2 5633   1.154   1.382  11.595
 1398SOL     OW 5634   1.291   1.447  12.312
 1398SOL    HW1 5635   1.343   1.459  12.391
 1398SOL    HW2 5636   1.234   1.372  12.332
 1399SOL     OW 5637   1.572   0.640  11.656
 1399SOL    HW1 5638   1.512   0.691  11.711
 1399SOL    HW2 5639   1.631   0.705  11.618
 1400SOL     OW 5640   0.352   1.494  12.431
 1400SOL    HW1 5641   0.266   1.466  12.463
 1400SOL    HW2 5642   0.348   1.589  12.433
 1401SOL     OW 5643   0.585   0.866  12.202
 1401SOL    HW1 5644   0.611   0.957  12.200
 1401SOL    HW2 5645   0.533   0.857  12.282
 1402SOL     OW 5646   1.317   0.853  12.167
 1402SOL    HW1 5647   1.228   0.817  12.163
 1402SOL    HW2 5648   1.374   0.776  12.163
 1403SOL     OW 5649   1.193   0.530  11.429
 1403SOL    HW1 5650   1.206   0.450  11.480
 1403SOL    HW2 5651   1.146   0.588  11.487
 1404SOL     OW 5652   0.309   0.204  12.409
 1404SOL    HW1 5653   0.239   0.259  12.443
 1404SOL    HW2 5654   0.287   0.116  12.439
 1405SOL     OW 5655   0.112   1.348  12.443
 1405SOL    HW1 5656   0.086   1.274  12.498
 1405SOL    HW2 5657   0.077   1.425  12.488
 1406SOL     OW 5658   0.723   0.627  12.219
 1406SOL    HW1 5659   0.799   0.620  12.160
 1406SOL    HW2 5660   0.689   0.715  12.204
 1407SOL     OW 5661   0.409   0.099  11.844
 1407SOL    HW1 5662   0.351   0.173  11.859
 1407SOL    HW2 5663   0.356   0.036  11.796
 1408SOL     OW 5664   1.643   0.402  11.543
 1408SOL    HW1 5665   1.645   0.328  11.604
 1408SOL    HW2 5666   1.610   0.475  11.596
 1409SOL     OW 5667   1.049   0.754  12.152
 1409SOL    HW1 5668   1.020   0.775  12.240
 1409SOL    HW2 5669   1.014   0.667  12.135
 1410SOL     OW 5670   1.581   0.321  11.295
 1410SOL    HW1 5671   1.490   0.292  11.300
 1410SOL    HW2 5672   1.606   0.338  11.386
 1411SOL     OW 5673   1.285   0.829  11.203
 1411SOL    HW1 5674   1.329   0.745  11.206
 1411SOL    HW2 5675   1.313   0.869  11.120
 1412SOL     OW 5676   1.091   1.350  12.018
 1412SOL    HW1 5677   1.148   1.289  11.972
 1412SOL    HW2 5678   1.132   1.435  12.006
 1413SOL     OW 5679   0.319   0.813  12.107
 1413SOL    HW1 5680   0.414   0.824  12.112
 1413SOL    HW2 5681   0.303   0.725  12.141
 1414SOL     OW 5682   0.334   0.545  12.168
 1414SOL    HW1 5683   0.295   0.458  12.166
 1414SOL    HW2 5684   0.413   0.537  12.115
 1415SOL     OW 5685   1.169   0.197   0.144
 1415SOL    HW1 5686   1.148   0.256   0.216
 1415SOL    HW2 5687   1.202   0.255   0.075
 1416SOL     OW 5688   7.982   1.303  11.375
 1416SOL    HW1 5689   7.892   1.323  11.402
 1416SOL    HW2 5690   7.990   1.209  11.387
 1417SOL     OW 5691   0.124   1.747  12.123
 1417SOL    HW1 5692   0.070   1.737  12.045
 1417SOL    HW2 5693   0.207   1.782  12.091
 1418SOL     OW 5694   0.484   1.538  12.106
 1418SOL    HW1 5695   0.543   1.610  12.128
 1418SOL    HW2 5696   0.527   1.494  12.033
 1419SOL     OW 5697   0.950   0.809  12.399
 1419SOL    HW1 5698   1.003   0.857  12.463
 1419SOL    HW2 5699   0.907   0.741  12.451
 1420SOL     OW 5700   0.064   0.579  12.306
 1420SOL    HW1 5701   0.140   0.521  12.309
 1420SOL    HW2 5702   0.011   0.553  12.381
 1421SOL     OW 5703   0.814   0.580  11.530
 1421SOL    HW1 5704   0.821   0.499  11.480
 1421SOL    HW2 5705   0.734   0.622  11.498
 1422SOL     OW 5706   1.653   0.610  12.322
 1422SOL    HW1 5707   1.642   0.565  12.406
 1422SOL    HW2 5708   1.748   0.607  12.306
 1423SOL     OW 5709   0.744   0.459  12.432
 1423SOL    HW1 5710   0.674   0.395  12.422
 1423SOL    HW2 5711   0.725   0.525  12.365
 1424SOL     OW 5712   0.905   1.656   0.034
 1424SOL    HW1 5713   0.911   1.725  -0.032
 1424SOL    HW2 5714   0.930   1.699   0.116
 1425SOL     OW 5715   0.458   0.500  11.336
 1425SOL    HW1 5716   0.508   0.579  11.357
 1425SOL    HW2 5717   0.371   0.518  11.372
 1426SOL     OW 5718   1.289   1.038  12.366
 1426SOL    HW1 5719   1.305   0.981  12.291
 1426SOL    HW2 5720   1.231   1.107  12.332
 1427SOL     OW 5721   1.311   0.858  11.475
 1427SOL    HW1 5722   1.243   0.805  11.518
 1427SOL    HW2 5723   1.292   0.849  11.382
 1428SOL     OW 5724   1.757   1.748  12.306
 1428SOL    HW1 5725   1.825   1.768  12.241
 1428SOL    HW2 5726   1.742   1.654  12.297
 1429SOL     OW 5727   1.244   1.719  12.259
 1429SOL    HW1 5728   1.328   1.752  12.228
 1429SOL    HW2 5729   1.261   1.629  12.284
 1430SOL     OW 5730   0.124   1.290  12.180
 1430SOL    HW1 5731   0.097   1.302  12.271
 1430SOL    HW2 5732   0.043   1.272  12.132
 1431SOL     OW 5733   1.672   0.155  11.674
 1431SOL    HW1 5734   1.732   0.113  11.612
 1431SOL    HW2 5735   1.666   0.093  11.747
 1432SOL     OW 5736   1.393   1.569  11.667
 1432SOL    HW1 5737   1.451   1.603  11.599
 1432SOL    HW2 5738   1.343   1.645  11.696
 1433SOL     OW 5739   1.251   0.962  11.834
 1433SOL    HW1 5740   1.321   0.900  11.855
 1433SOL    HW2 5741   1.294   1.031  11.783
 1434SOL     OW 5742   0.665   1.626  11.328
 1434SOL    HW1 5743   0.679   1.643  11.235
 1434SOL    HW2 5744   0.610   1.548  11.330
 1435SOL     OW 5745   1.627   1.787   0.045
 1435SOL    HW1 5746   1.677   1.776  -0.035
 1435SOL    HW2 5747   1.653   1.873   0.078
 1436SOL     OW 5748   1.860   0.172  12.112
 1436SOL    HW1 5749   1.860   0.083  12.148
 1436SOL    HW2 5750   1.771   0.186  12.082
 1437SOL     OW 5751   0.259   0.332  11.882
 1437SOL    HW1 5752   0.169   0.355  11.857
 1437SOL    HW2 5753   0.257   0.325  11.977
 1438SOL     OW 5754   1.209   1.599  11.205
 1438SOL    HW1 5755   1.198   1.507  11.227
 1438SOL    HW2 5756   1.145   1.615  11.135
 1439SOL     OW 5757   0.787   1.047  12.485
 1439SOL    HW1 5758   0.838   0.987  12.430
 1439SOL    HW2 5759   0.848   1.074  12.554
 1440SOL     OW 5760   0.965   0.941  11.530
 1440SOL    HW1 5761   0.996   0.971  11.445
 1440SOL    HW2 5762   0.980   0.847  11.529
 1441SOL     OW 5763   1.489   1.631  11.220
 1441SOL    HW1 5764   1.395   1.620  11.203
 1441SOL    HW2 5765   1.529   1.637  11.133
 1442SOL     OW 5766   1.040   0.257  12.093
 1442SOL    HW1 5767   1.026   0.201  12.017
 1442SOL    HW2 5768   1.044   0.196  12.167
 1443SOL     OW 5769   0.608   1.497  11.655
 1443SOL    HW1 5770   0.656   1.448  11.588
 1443SOL    HW2 5771   0.518   1.503  11.621
 1444SOL     OW 5772   1.749   0.457   0.046
 1444SOL    HW1 5773   1.786   0.426   0.129
 1444SOL    HW2 5774   1.764   0.385  -0.016
 1445SOL     OW 5775   0.251   1.333  11.445
 1445SOL    HW1 5776   0.155   1.337  11.438
 1445SOL    HW2 5777   0.270   1.375  11.529
 1446SOL     OW 5778   0.057   0.340  11.160
 1446SOL    HW1 5779   0.009   0.389  11.226
 1446SOL    HW2 5780   0.100   0.408  11.107
 1447SOL     OW 5781   0.121   0.259  11.513
 1447SOL    HW1 5782   0.082   0.208  11.442
 1447SOL    HW2 5783   0.131   0.197  11.585
 1448SOL     OW 5784   1.176   1.330  11.287
 1448SOL    HW1 5785   1.082   1.313  11.284
 1448SOL    HW2 5786   1.197   1.333  11.380
 1449SOL     OW 5787   1.491   1.784  12.152
 1449SOL    HW1 5788   1.510   1.860  12.096
 1449SOL    HW2 5789   1.572   1.769  12.200
 1450SOL     OW 5790   1.681   0.877  12.403
 1450SOL    HW1 5791   1.657   0.792  12.365
 1450SOL    HW2 5792   1.654   0.941  12.338
 1451SOL     OW 5793   1.228   0.329  11.619
 1451SOL    HW1 5794   1.288   0.256  11.601
 1451SOL    HW2 5795   1.261   0.368  11.699
 1452SOL     OW 5796   0.605   0.736  11.851
 1452SOL    HW1 5797   0.634   0.826  11.835
 1452SOL    HW2 5798   0.535   0.721  11.788
 1453SOL     OW 5799   1.834   0.894   0.122
 1453SOL    HW1 5800   1.798   0.964   0.176
 1453SOL    HW2 5801   1.772   0.885   0.050
 1454SOL     OW 5802   0.879   1.367  11.224
 1454SOL    HW1 5803   0.828   1.402  11.298
 1454SOL    HW2 5804   0.890   1.442  11.166
 1455SOL     OW 5805   0.646   1.769  12.111
 1455SOL    HW1 5806   0.632   1.861  12.088
 1455SOL    HW2 5807   0.742   1.759  12.112
 1456SOL     OW 5808   0.916   0.963  12.010
 1456SOL    HW1 5809   0.956   0.896  12.065
 1456SOL    HW2 5810   0.868   1.019  12.071
 1457SOL     OW 5811   1.061   0.981  11.273
 1457SOL    HW1 5812   1.040   1.036  11.197
 1457SOL    HW2 5813   1.137   0.930  11.245
 1458SOL     OW 5814   1.839   1.554  12.018
 1458SOL    HW1 5815   1.761   1.543  11.964
 1458SOL    HW2 5816   1.821   1.503  12.097
 1459SOL     OW 5817   0.149   1.261  11.830
 1459SOL    HW1 5818   0.067   1.228  11.866
 1459SOL    HW2 5819   0.196   1.183  11.801
 1460SOL     OW 5820   1.830   0.254  12.381
 1460SOL    HW1 5821   1.772   0.184  12.410
 1460SOL    HW2 5822   1.848   0.235  12.289
 1461SOL     OW 5823   0.448   0.431  11.708
 1461SOL    HW1 5824   0.449   0.367  11.637
 1461SOL    HW2 5825   0.380   0.399  11.768
 1462SOL     OW 5826   1.709   1.483  12.267
 1462SOL    HW1 5827   1.626   1.456  12.227
 1462SOL    HW2 5828   1.711   1.437  12.350
 1463SOL     OW 5829   0.832   1.591  11.840
 1463SOL    HW1 5830   0.825   1.670  11.787
 1463SOL    HW2 5831   0.751   1.543  11.823
 1464SOL     OW 5832   1.442   0.227  12.289
 1464SOL    HW1 5833   1.509   0.181  12.340
 1464SOL    HW2 5834   1.383   0.264  12.355
 1465SOL     OW 5835   1.039   0.081  12.294
 1465SOL    HW1 5836   0.984   0.082  12.372
 1465SOL    HW2 5837   1.098   0.007  12.307
 1466SOL     OW 5838   0.767   1.339  11.497
 1466SOL    HW1 5839   0.744   1.246  11.500
 1466SOL    HW2 5840   0.851   1.344  11.542
 1467SOL     OW 5841   1.345   7.980  11.325
 1467SOL    HW1 5842   1.395   7.898  11.319
 1467SOL    HW2 5843   1.266   7.956  11.373
 1468SOL     OW 5844   1.304   0.461  11.850
 1468SOL    HW1 5845   1.225   0.516  11.851
 1468SOL    HW2 5846   1.307   0.422  11.937
 1469SOL     OW 5847   1.609   0.219  12.043
 1469SOL    HW1 5848   1.535   0.220  12.103
 1469SOL    HW2 5849   1.597   0.297  11.988
 1470SOL     OW 5850   0.039   1.036  11.443
 1470SOL    HW1 5851   0.132   1.014  11.437
 1470SOL    HW2 5852   0.022   1.044  11.537
 1471SOL     OW 5853   0.889   1.661  11.505
 1471SOL    HW1 5854   0.813   1.646  11.449
 1471SOL    HW2 5855   0.863   1.732  11.563
 1472SOL     OW 5856   0.272   2.483   0.062
 1472SOL    HW1 5857   0.224   2.523   0.134
 1472SOL    HW2 5858   0.225   2.402   0.043
 1473SOL     OW 5859   0.226   2.131   0.975
 1473SOL    HW1 5860   0.290   2.106   1.042
 1473SOL    HW2 5861   0.146   2.085   0.999
 1474SOL     OW 5862   7.995   2.254   0.616
 1474SOL    HW1 5863   7.906   2.235   0.644
 1474SOL    HW2 5864   8.009   2.197   0.540
 1475SOL     OW 5865   0.570   3.165   1.192
 1475SOL    HW1 5866   0.484   3.175   1.151
 1475SOL    HW2 5867   0.591   3.253   1.225
 1476SOL     OW 5868   1.571   3.384   0.718
 1476SOL    HW1 5869   1.532   3.359   0.802
 1476SOL    HW2 5870   1.497   3.381   0.656
 1477SOL     OW 5871   1.127   2.560   0.693
 1477SOL    HW1 5872   1.180   2.638   0.679
 1477SOL    HW2 5873   1.083   2.574   0.776
 1478SOL     OW 5874   1.713   2.490   0.216
 1478SOL    HW1 5875   1.730   2.426   0.147
 1478SOL    HW2 5876   1.662   2.442   0.281
 1479SOL     OW 5877   0.729   2.994   1.046
 1479SOL    HW1 5878   0.669   3.036   1.108
 1479SOL    HW2 5879   0.777   3.067   1.007
 1480SOL     OW 5880   0.877   2.617   1.825
 1480SOL    HW1 5881   0.872   2.686   1.891
 1480SOL    HW2 5882   0.898   2.663   1.743
 1481SOL     OW 5883   0.682   2.859   0.644
 1481SOL    HW1 5884   0.751   2.854   0.710
 1481SOL    HW2 5885   0.616   2.916   0.684
 1482SOL     OW 5886   0.712   3.011   1.823
 1482SOL    HW1 5887   0.761   3.087   1.855
 1482SOL    HW2 5888   0.635   3.049   1.779
 1483SOL     OW 5889   0.338   3.273   1.069
 1483SOL    HW1 5890   0.268   3.231   1.019
 1483SOL    HW2 5891   0.383   3.329   1.006
 1484SOL     OW 5892   1.456   3.369   1.367
 1484SOL    HW1 5893   1.511   3.446   1.376
 1484SOL    HW2 5894   1.386   3.382   1.431
 1485SOL     OW 5895   0.437   2.254   1.501
 1485SOL    HW1 5896   0.523   2.212   1.501
 1485SOL    HW2 5897   0.375   2.181   1.496
 1486SOL     OW 5898   1.603   2.298   0.745
 1486SOL    HW1 5899   1.531   2.330   0.690
 1486SOL    HW2 5900   1.589   2.342   0.829
 1487SOL     OW 5901   0.233   3.567   0.488
 1487SOL    HW1 5902   0.237   3.648   0.540
 1487SOL    HW2 5903   0.308   3.572   0.430
 1488SOL     OW 5904   1.138   3.202   1.697
 1488SOL    HW1 5905   1.181   3.195   1.782
 1488SOL    HW2 5906   1.086   3.122   1.689
 1489SOL     OW 5907   0.273   3.300   0.522
 1489SOL    HW1 5908   0.254   3.393   0.533
 1489SOL    HW2 5909   0.224   3.257   0.591
 1490SOL     OW 5910   0.260   2.935   0.876
 1490SOL    HW1 5911   0.277   2.857   0.928
 1490SOL    HW2 5912   0.202   2.988   0.932
 1491SOL     OW 5913   0.597   3.669   1.404
 1491SOL    HW1 5914   0.524   3.643   1.460
 1491SOL    HW2 5915   0.630   3.750   1.443
 1492SOL     OW 5916   0.581   2.829   0.158
 1492SOL    HW1 5917   0.644   2.847   0.089
 1492SOL    HW2 5918   0.616   2.874   0.235
 1493SOL     OW 5919   1.597   1.992   1.464
 1493SOL    HW1 5920   1.631   2.072   1.424
 1493SOL    HW2 5921   1.569   2.019   1.552
 1494SOL     OW 5922   0.131   2.511   0.545
 1494SOL    HW1 5923   0.101   2.426   0.577
 1494SOL    HW2 5924   0.119   2.570   0.620
 1495SOL     OW 5925   1.858   3.597   0.309
 1495SOL    HW1 5926   1.923   3.573   0.375
 1495SOL    HW2 5927   1.872   3.691   0.296
 1496SOL     OW 5928   0.034   3.419   0.099
 1496SOL    HW1 5929   0.026   3.345   0.159
 1496SOL    HW2 5930   0.057   3.493   0.156
 1497SOL     OW 5931   1.679   2.773   0.624
 1497SOL    HW1 5932   1.772   2.761   0.643
 1497SOL    HW2 5933   1.676   2.843   0.559
 1498SOL     OW 5934   1.659   2.983   0.425
 1498SOL    HW1 5935   1.733   3.006   0.370
 1498SOL    HW2 5936   1.664   3.043   0.499
 1499SOL     OW 5937   0.152   2.630   1.590
 1499SOL    HW1 5938   0.248   2.624   1.588
 1499SOL    HW2 5939   0.134   2.709   1.641
 1500SOL     OW 5940   0.619   3.255   0.734
 1500SOL    HW1 5941   0.574   3.171   0.743
 1500SOL    HW2 5942   0.605   3.280   0.642
 1501SOL     OW 5943   1.277   3.092   1.417
 1501SOL    HW1 5944   1.305   3.023   1.358
 1501SOL    HW2 5945   1.340   3.088   1.490
 1502SOL     OW 5946   0.824   1.868   0.524
 1502SOL    HW1 5947   0.863   1.952   0.499
 1502SOL    HW2 5948   0.730   1.886   0.528
 1503SOL     OW 5949   0.174   2.780   1.259
 1503SOL    HW1 5950   0.270   2.780   1.257
 1503SOL    HW2 5951   0.150   2.692   1.230
 1504SOL     OW 5952   1.553   2.830   0.229
 1504SOL    HW1 5953   1.471   2.787   0.254
 1504SOL    HW2 5954   1.575   2.887   0.303
 1505SOL     OW 5955   1.177   3.674   1.620
 1505SOL    HW1 5956   1.204   3.730   1.548
 1505SOL    HW2 5957   1.202   3.585   1.593
 1506SOL     OW 5958   0.351   2.112   1.842
 1506SOL    HW1 5959   0.404   2.190   1.860
 1506SOL    HW2 5960   0.261   2.141   1.853
 1507SOL     OW 5961   1.477   3.278   0.950
 1507SOL    HW1 5962   1.409   3.295   1.015
 1507SOL    HW2 5963   1.455   3.192   0.914
 1508SOL     OW 5964   1.647   3.627   0.583
 1508SOL    HW1 5965   1.627   3.583   0.500
 1508SOL    HW2 5966   1.631   3.560   0.650
 1509SOL     OW 5967   0.594   2.575   0.277
 1509SOL    HW1 5968   0.601   2.663   0.240
 1509SOL    HW2 5969   0.529   2.583   0.347
 1510SOL     OW 5970   1.275   2.216   0.923
 1510SOL    HW1 5971   1.186   2.185   0.939
 1510SOL    HW2 5972   1.329   2.169   0.986
 1511SOL     OW 5973   1.591   3.539   0.325
 1511SOL    HW1 5974   1.686   3.547   0.320
 1511SOL    HW2 5975   1.561   3.557   0.236
 1512SOL     OW 5976   0.790   2.476   1.446
 1512SOL    HW1 5977   0.764   2.449   1.534
 1512SOL    HW2 5978   0.756   2.408   1.388
 1513SOL     OW 5979   1.390   2.338   1.676
 1513SOL    HW1 5980   1.394   2.383   1.760
 1513SOL    HW2 5981   1.448   2.263   1.686
 1514SOL     OW 5982   0.946   2.745   1.590
 1514SOL    HW1 5983   1.003   2.679   1.549
 1514SOL    HW2 5984   0.899   2.784   1.517
 1515SOL     OW 5985   0.987   2.264   1.234
 1515SOL    HW1 5986   0.898   2.281   1.263
 1515SOL    HW2 5987   0.977   2.220   1.149
 1516SOL     OW 5988   1.051   2.567   0.427
 1516SOL    HW1 5989   1.071   2.564   0.521
 1516SOL    HW2 5990   0.966   2.523   0.419
 1517SOL     OW 5991   0.113   2.684   0.757
 1517SOL    HW1 5992   0.191   2.688   0.813
 1517SOL    HW2 5993   0.081   2.774   0.753
 1518SOL     OW 5994   0.125   3.675   1.565
 1518SOL    HW1 5995   0.132   3.668   1.660
 1518SOL    HW2 5996   0.033   3.659   1.545
 1519SOL     OW 5997   0.887   2.219   0.217
 1519SOL    HW1 5998   0.918   2.284   0.154
 1519SOL    HW2 5999   0.881   2.138   0.168
 1520SOL     OW 6000   1.698   2.431   1.833
 1520SOL    HW1 6001   1.667   2.506   1.782
 1520SOL    HW2 6002   1.727   2.367   1.768
 1521SOL     OW 6003   1.381   3.008   0.544
 1521SOL    HW1 6004   1.467   3.016   0.503
 1521SOL    HW2 6005   1.326   3.071   0.498
 1522SOL     OW 6006   0.507   2.061   0.853
 1522SOL    HW1 6007   0.541   2.053   0.942
 1522SOL    HW2 6008   0.534   2.149   0.825
 1523SOL     OW 6009   0.991   3.297   0.470
 1523SOL    HW1 6010   0.956   3.377   0.431
 1523SOL    HW2 6011   0.976   3.308   0.564
 1524SOL     OW 6012   0.358   3.687   0.875
 1524SOL    HW1 6013   0.403   3.603   0.883
 1524SOL    HW2 6014   0.425   3.753   0.894
 1525SOL     OW 6015   1.790   2.903   0.858
 1525SOL    HW1 6016   1.716   2.885   0.801
 1525SOL    HW2 6017   1.751   2.922   0.944
 1526SOL     OW 6018   1.225   3.400   1.519
 1526SOL    HW1 6019   1.212   3.325   1.577
 1526SOL    HW2 6020   1.156   3.392   1.453
 1527SOL     OW 6021   0.304   2.819   0.224
 1527SOL    HW1 6022   0.396   2.837   0.208
 1527SOL    HW2 6023   0.265   2.811   0.137
 1528SOL     OW 6024   1.493   2.595   0.714
 1528SOL    HW1 6025   1.470   2.611   0.806
 1528SOL    HW2 6026   1.559   2.660   0.693
 1529SOL     OW 6027   0.465   3.129   1.741
 1529SOL    HW1 6028   0.442   3.133   1.648
 1529SOL    HW2 6029   0.380   3.118   1.785
 1530SOL     OW 6030   1.086   3.648   0.235
 1530SOL    HW1 6031   1.043   3.602   0.308
 1530SOL    HW2 6032   1.146   3.584   0.198
 1531SOL     OW 6033   0.162   2.129   1.516
 1531SOL    HW1 6034   0.173   2.201   1.578
 1531SOL    HW2 6035   0.158   2.051   1.571
 1532SOL     OW 6036   1.654   3.268   0.057
 1532SOL    HW1 6037   1.586   3.334   0.041
 1532SOL    HW2 6038   1.605   3.189   0.078
 1533SOL     OW 6039   0.452   3.600   0.326
 1533SOL    HW1 6040   0.500   3.659   0.384
 1533SOL    HW2 6041   0.519   3.560   0.270
 1534SOL     OW 6042   1.404   1.962   0.448
 1534SOL    HW1 6043   1.404   1.928   0.359
 1534SOL    HW2 6044   1.497   1.976   0.468
 1535SOL     OW 6045   0.244   3.649   1.231
 1535SOL    HW1 6046   0.293   3.578   1.271
 1535SOL    HW2 6047   0.217   3.615   1.145
 1536SOL     OW 6048   0.946   3.566   0.901
 1536SOL    HW1 6049   1.025   3.523   0.934
 1536SOL    HW2 6050   0.913   3.507   0.834
 1537SOL     OW 6051   0.403   2.556   0.474
 1537SOL    HW1 6052   0.425   2.463   0.483
 1537SOL    HW2 6053   0.312   2.562   0.505
 1538SOL     OW 6054   1.519   2.086   1.721
 1538SOL    HW1 6055   1.532   2.103   1.815
 1538SOL    HW2 6056   1.443   2.027   1.718
 1539SOL     OW 6057   0.641   1.985   0.115
 1539SOL    HW1 6058   0.734   1.963   0.117
 1539SOL    HW2 6059   0.632   2.040   0.037
 1540SOL     OW 6060   0.769   2.147   1.766
 1540SOL    HW1 6061   0.850   2.096   1.760
 1540SOL    HW2 6062   0.722   2.108   1.839
 1541SOL     OW 6063   0.874   3.384   1.193
 1541SOL    HW1 6064   0.859   3.341   1.109
 1541SOL    HW2 6065   0.944   3.333   1.234
 1542SOL     OW 6066   1.334   2.450   1.430
 1542SOL    HW1 6067   1.367   2.422   1.515
 1542SOL    HW2 6068   1.373   2.537   1.416
 1543SOL     OW 6069   0.823   3.241   0.951
 1543SOL    HW1 6070   0.908   3.232   0.908
 1543SOL    HW2 6071   0.762   3.254   0.878
 1544SOL     OW 6072   0.924   2.362   0.904
 1544SOL    HW1 6073   0.901   2.354   0.811
 1544SOL    HW2 6074   0.956   2.275   0.928
 1545SOL     OW 6075   0.556   1.919   0.499
 1545SOL    HW1 6076   0.483   1.922   0.560
 1545SOL    HW2 6077   0.545   1.998   0.445
 1546SOL     OW 6078   1.462   3.076   0.078
 1546SOL    HW1 6079   1.461   2.985   0.108
 1546SOL    HW2 6080   1.371   3.105   0.089
 1547SOL     OW 6081   0.303   1.957   0.200
 1547SOL    HW1 6082   0.374   2.018   0.221
 1547SOL    HW2 6083   0.335   1.872   0.229
 1548SOL     OW 6084   0.945   2.108   0.462
 1548SOL    HW1 6085   0.918   2.149   0.379
 1548SOL    HW2 6086   1.039   2.124   0.467
 1549SOL     OW 6087   1.080   2.551   1.456
 1549SOL    HW1 6088   1.016   2.479   1.456
 1549SOL    HW2 6089   1.165   2.507   1.448
 1550SOL     OW 6090   1.226   3.425   0.786
 1550SOL    HW1 6091   1.241   3.497   0.725
 1550SOL    HW2 6092   1.255   3.460   0.871
 1551SOL     OW 6093   0.469   3.021   0.722
 1551SOL    HW1 6094   0.405   2.993   0.787
 1551SOL    HW2 6095   0.426   3.005   0.637
 1552SOL     OW 6096   1.258   3.651   0.608
 1552SOL    HW1 6097   1.308   3.720   0.565
 1552SOL    HW2 6098   1.187   3.697   0.654
 1553SOL     OW 6099   1.031   2.408   0.062
 1553SOL    HW1 6100   1.013   2.493   0.021
 1553SOL    HW2 6101   1.090   2.428   0.135
 1554SOL     OW 6102   0.100   2.480   1.368
 1554SOL    HW1 6103   0.188   2.446   1.350
 1554SOL    HW2 6104   0.109   2.529   1.450
 1555SOL     OW 6105   0.863   2.316   0.641
 1555SOL    HW1 6106   0.825   2.375   0.577
 1555SOL    HW2 6107   0.885   2.237   0.591
 1556SOL     OW 6108   1.028   1.905   0.739
 1556SOL    HW1 6109   0.958   1.908   0.673
 1556SOL    HW2 6110   1.000   1.840   0.802
 1557SOL     OW 6111   1.417   3.041   0.836
 1557SOL    HW1 6112   1.417   2.955   0.878
 1557SOL    HW2 6113   1.402   3.023   0.743
 1558SOL     OW 6114   1.503   2.406   0.971
 1558SOL    HW1 6115   1.410   2.386   0.977
 1558SOL    HW2 6116   1.512   2.491   1.015
 1559SOL     OW 6117   1.840   2.667   0.369
 1559SOL    HW1 6118   1.871   2.630   0.451
 1559SOL    HW2 6119   1.786   2.598   0.330
 1560SOL     OW 6120   0.490   3.259   0.164
 1560SOL    HW1 6121   0.426   3.207   0.213
 1560SOL    HW2 6122   0.438   3.307   0.100
 1561SOL     OW 6123   1.687   3.145   0.627
 1561SOL    HW1 6124   1.777   3.137   0.658
 1561SOL    HW2 6125   1.652   3.222   0.671
 1562SOL     OW 6126   1.397   2.411   0.084
 1562SOL    HW1 6127   1.342   2.412   0.163
 1562SOL    HW2 6128   1.453   2.334   0.095
 1563SOL     OW 6129   0.513   2.115   0.313
 1563SOL    HW1 6130   0.570   2.069   0.252
 1563SOL    HW2 6131   0.500   2.201   0.273
 1564SOL     OW 6132   1.743   3.106   1.549
 1564SOL    HW1 6133   1.830   3.070   1.535
 1564SOL    HW2 6134   1.759   3.194   1.584
 1565SOL     OW 6135   1.048   3.218   1.333
 1565SOL    HW1 6136   0.973   3.185   1.383
 1565SOL    HW2 6137   1.124   3.175   1.372
 1566SOL     OW 6138   1.609   3.487   1.661
 1566SOL    HW1 6139   1.601   3.523   1.573
 1566SOL    HW2 6140   1.691   3.437   1.659
 1567SOL     OW 6141   1.135   3.079   1.105
 1567SOL    HW1 6142   1.077   3.125   1.166
 1567SOL    HW2 6143   1.110   3.113   1.019
 1568SOL     OW 6144   1.658   2.975   1.082
 1568SOL    HW1 6145   1.632   3.035   1.151
 1568SOL    HW2 6146   1.577   2.932   1.055
 1569SOL     OW 6147   0.921   1.944   1.404
 1569SOL    HW1 6148   0.928   1.942   1.309
 1569SOL    HW2 6149   1.001   1.989   1.433
 1570SOL     OW 6150   0.983   2.976   1.726
 1570SOL    HW1 6151   0.892   2.995   1.749
 1570SOL    HW2 6152   0.979   2.897   1.672
 1571SOL     OW 6153   0.714   2.925   0.378
 1571SOL    HW1 6154   0.700   2.905   0.471
 1571SOL    HW2 6155   0.791   2.874   0.354
 1572SOL     OW 6156   0.432   2.678   1.255
 1572SOL    HW1 6157   0.499   2.691   1.323
 1572SOL    HW2 6158   0.406   2.587   1.264
 1573SOL     OW 6159   1.257   2.235   1.281
 1573SOL    HW1 6160   1.289   2.314   1.324
 1573SOL    HW2 6161   1.165   2.255   1.260
 1574SOL     OW 6162   0.049   3.457   1.329
 1574SOL    HW1 6163   0.093   3.541   1.317
 1574SOL    HW2 6164   0.092   3.417   1.404
 1575SOL     OW 6165   0.325   2.968   0.490
 1575SOL    HW1 6166   0.315   3.039   0.428
 1575SOL    HW2 6167   0.345   2.891   0.436
 1576SOL     OW 6168   0.542   2.394   0.852
 1576SOL    HW1 6169   0.562   2.455   0.782
 1576SOL    HW2 6170   0.608   2.412   0.919
 1577SOL     OW 6171   1.242   3.211   0.396
 1577SOL    HW1 6172   1.297   3.282   0.429
 1577SOL    HW2 6173   1.155   3.229   0.430
 1578SOL     OW 6174   1.296   3.317   1.151
 1578SOL    HW1 6175   1.349   3.329   1.230
 1578SOL    HW2 6176   1.251   3.234   1.164
 1579SOL     OW 6177   1.568   2.491   0.474
 1579SOL    HW1 6178   1.537   2.506   0.563
 1579SOL    HW2 6179   1.562   2.576   0.432
 1580SOL     OW 6180   0.349   3.394   1.313
 1580SOL    HW1 6181   0.333   3.346   1.232
 1580SOL    HW2 6182   0.444   3.404   1.317
 1581SOL     OW 6183   0.430   2.588   1.609
 1581SOL    HW1 6184   0.486   2.639   1.552
 1581SOL    HW2 6185   0.485   2.516   1.639
 1582SOL     OW 6186   1.613   2.645   1.691
 1582SOL    HW1 6187   1.527   2.685   1.682
 1582SOL    HW2 6188   1.666   2.685   1.622
 1583SOL     OW 6189   1.001   2.001   1.766
 1583SOL    HW1 6190   1.056   2.075   1.740
 1583SOL    HW2 6191   1.049   1.924   1.736
 1584SOL     OW 6192   0.491   1.888   1.764
 1584SOL    HW1 6193   0.452   1.844   1.688
 1584SOL    HW2 6194   0.439   1.968   1.774
 1585SOL     OW 6195   0.576   2.748   1.026
 1585SOL    HW1 6196   0.624   2.830   1.033
 1585SOL    HW2 6197   0.534   2.737   1.112
 1586SOL     OW 6198   1.208   2.398   0.283
 1586SOL    HW1 6199   1.221   2.323   0.342
 1586SOL    HW2 6200   1.161   2.462   0.336
 1587SOL     OW 6201   0.222   2.063   1.256
 1587SOL    HW1 6202   0.209   2.089   1.347
 1587SOL    HW2 6203   0.276   1.984   1.262
 1588SOL     OW 6204   0.050   3.170   1.272
 1588SOL    HW1 6205   0.073   3.117   1.348
 1588SOL    HW2 6206   0.051   3.260   1.304
 1589SOL     OW 6207   0.714   2.484   1.047
 1589SOL    HW1 6208   0.795   2.462   1.000
 1589SOL    HW2 6209   0.700   2.577   1.028
 1590SOL     OW 6210   1.747   2.814   1.870
 1590SOL    HW1 6211   1.701   2.752   1.813
 1590SOL    HW2 6212   1.681   2.841   1.934
 1591SOL     OW 6213   0.313   1.927   0.628
 1591SOL    HW1 6214   0.292   2.019   0.643
 1591SOL    HW2 6215   0.321   1.890   0.716
 1592SOL     OW 6216   1.608   2.239   0.367
 1592SOL    HW1 6217   1.641   2.175   0.430
 1592SOL    HW2 6218   1.587   2.316   0.420
 1593SOL     OW 6219   1.001   2.620   0.945
 1593SOL    HW1 6220   1.011   2.640   1.038
 1593SOL    HW2 6221   0.986   2.526   0.941
 1594SOL     OW 6222   0.976   3.422   1.726
 1594SOL    HW1 6223   0.962   3.467   1.643
 1594SOL    HW2 6224   1.024   3.343   1.703
 1595SOL     OW 6225   1.849   3.357   1.605
 1595SOL    HW1 6226   1.870   3.389   1.517
 1595SOL    HW2 6227   1.928   3.372   1.656
 1596SOL     OW 6228   0.361   2.805   1.793
 1596SOL    HW1 6229   0.437   2.825   1.847
 1596SOL    HW2 6230   0.384   2.723   1.749
 1597SOL     OW 6231   1.514   2.140   0.130
 1597SOL    HW1 6232   1.461   2.065   0.156
 1597SOL    HW2 6233   1.552   2.172   0.212
 1598SOL     OW 6234   1.283   2.665   0.044
 1598SOL    HW1 6235   1.335   2.585   0.041
 1598SOL    HW2 6236   1.324   2.722  -0.021
 1599SOL     OW 6237   1.070   3.201   0.852
 1599SOL    HW1 6238   1.081   3.127   0.792
 1599SOL    HW2 6239   1.134   3.266   0.821
 1600SOL     OW 6240   0.317   2.665   0.945
 1600SOL    HW1 6241   0.409   2.690   0.953
 1600SOL    HW2 6242   0.314   2.574   0.972
 1601SOL     OW 6243   0.319   2.385   0.998
 1601SOL    HW1 6244   0.289   2.295   0.986
 1601SOL    HW2 6245   0.400   2.391   0.947
 1602SOL     OW 6246   1.135   2.232   1.689
 1602SOL    HW1 6247   1.087   2.287   1.751
 1602SOL    HW2 6248   1.221   2.275   1.681
 1603SOL     OW 6249   1.166   2.056   1.476
 1603SOL    HW1 6250   1.151   2.121   1.545
 1603SOL    HW2 6251   1.203   2.107   1.404
 1604SOL     OW 6252   7.994   3.163   0.203
 1604SOL    HW1 6253   7.906   3.186   0.234
 1604SOL    HW2 6254   8.006   3.072   0.233
 1605SOL     OW 6255   0.096   3.606   0.928
 1605SOL    HW1 6256   0.110   3.530   0.872
 1605SOL    HW2 6257   0.175   3.659   0.916
 1606SOL     OW 6258   0.487   3.436   0.901
 1606SOL    HW1 6259   0.555   3.498   0.925
 1606SOL    HW2 6260   0.530   3.373   0.844
 1607SOL     OW 6261   0.966   2.650   1.220
 1607SOL    HW1 6262   1.034   2.639   1.287
 1607SOL    HW2 6263   0.891   2.602   1.254
 1608SOL     OW 6264   0.065   2.412   1.109
 1608SOL    HW1 6265   0.157   2.396   1.089
 1608SOL    HW2 6266   0.064   2.430   1.203
 1609SOL     OW 6267   0.204   2.361   1.660
 1609SOL    HW1 6268   0.294   2.362   1.627
 1609SOL    HW2 6269   0.180   2.454   1.666
 1610SOL     OW 6270   1.383   2.790   1.652
 1610SOL    HW1 6271   1.404   2.883   1.648
 1610SOL    HW2 6272   1.378   2.762   1.561
 1611SOL     OW 6273   0.815   2.438   0.379
 1611SOL    HW1 6274   0.821   2.360   0.323
 1611SOL    HW2 6275   0.740   2.487   0.345
 1612SOL     OW 6276   1.661   2.481   1.212
 1612SOL    HW1 6277   1.623   2.403   1.251
 1612SOL    HW2 6278   1.730   2.448   1.155
 1613SOL     OW 6279   0.287   3.395   1.720
 1613SOL    HW1 6280   0.250   3.468   1.769
 1613SOL    HW2 6281   0.281   3.320   1.779
 1614SOL     OW 6282   0.708   2.302   1.256
 1614SOL    HW1 6283   0.670   2.217   1.230
 1614SOL    HW2 6284   0.696   2.358   1.179
 1615SOL     OW 6285   0.918   3.542   1.481
 1615SOL    HW1 6286   0.895   3.512   1.393
 1615SOL    HW2 6287   0.939   3.634   1.471
 1616SOL     OW 6288   0.477   2.346   0.183
 1616SOL    HW1 6289   0.532   2.418   0.213
 1616SOL    HW2 6290   0.405   2.387   0.136
 1617SOL     OW 6291   0.152   2.982   1.453
 1617SOL    HW1 6292   0.135   2.935   1.535
 1617SOL    HW2 6293   0.156   2.913   1.386
 1618SOL     OW 6294   1.310   2.896   1.215
 1618SOL    HW1 6295   1.350   2.848   1.142
 1618SOL    HW2 6296   1.245   2.953   1.174
 1619SOL     OW 6297   1.323   2.719   0.318
 1619SOL    HW1 6298   1.259   2.702   0.387
 1619SOL    HW2 6299   1.283   2.682   0.239
 1620SOL     OW 6300   1.765   3.597   1.149
 1620SOL    HW1 6301   1.831   3.622   1.084
 1620SOL    HW2 6302   1.746   3.505   1.129
 1621SOL     OW 6303   1.226   3.560   1.039
 1621SOL    HW1 6304   1.310   3.606   1.034
 1621SOL    HW2 6305   1.243   3.484   1.095
 1622SOL     OW 6306   0.083   3.082   1.022
 1622SOL    HW1 6307   0.082   3.109   1.114
 1622SOL    HW2 6308  -0.003   3.109   0.988
 1623SOL     OW 6309   0.685   3.533   1.745
 1623SOL    HW1 6310   0.629   3.610   1.732
 1623SOL    HW2 6311   0.764   3.552   1.694
 1624SOL     OW 6312   0.911   1.960   0.097
 1624SOL    HW1 6313   0.958   1.980   0.016
 1624SOL    HW2 6314   0.978   1.925   0.156
 1625SOL     OW 6315   1.717   2.016   0.501
 1625SOL    HW1 6316   1.788   1.993   0.441
 1625SOL    HW2 6317   1.700   1.935   0.549
 1626SOL     OW 6318   1.387   3.429   0.487
 1626SOL    HW1 6319   1.452   3.467   0.428
 1626SOL    HW2 6320   1.340   3.504   0.524
 1627SOL     OW 6321   0.171   3.607   1.841
 1627SOL    HW1 6322   0.107   3.561   1.894
 1627SOL    HW2 6323   0.217   3.664   1.903
 1628SOL     OW 6324   1.270   2.785   0.649
 1628SOL    HW1 6325   1.339   2.751   0.706
 1628SOL    HW2 6326   1.310   2.859   0.605
 1629SOL     OW 6327   0.797   3.139   1.423
 1629SOL    HW1 6328   0.770   3.181   1.505
 1629SOL    HW2 6329   0.726   3.157   1.362
 1630SOL     OW 6330   0.660   3.470   0.192
 1630SOL    HW1 6331   0.718   3.473   0.117
 1630SOL    HW2 6332   0.611   3.388   0.182
 1631SOL     OW 6333   1.626   3.585   1.394
 1631SOL    HW1 6334   1.671   3.592   1.310
 1631SOL    HW2 6335   1.608   3.675   1.420
 1632SOL     OW 6336   1.844   2.031   0.960
 1632SOL    HW1 6337   1.868   1.941   0.938
 1632SOL    HW2 6338   1.755   2.041   0.927
 1633SOL     OW 6339   0.256   2.184   0.701
 1633SOL    HW1 6340   0.167   2.218   0.690
 1633SOL    HW2 6341   0.264   2.168   0.795
 1634SOL     OW 6342   1.199   3.458   0.074
 1634SOL    HW1 6343   1.198   3.364   0.094
 1634SOL    HW2 6344   1.127   3.470   0.012
 1635SOL     OW 6345   0.825   2.869   1.379
 1635SOL    HW1 6346   0.873   2.859   1.297
 1635SOL    HW2 6347   0.820   2.964   1.393
 1636SOL     OW 6348   0.926   2.783   0.292
 1636SOL    HW1 6349   0.988   2.807   0.223
 1636SOL    HW2 6350   0.972   2.715   0.343
 1637SOL     OW 6351   1.459   3.441   0.000
 1637SOL    HW1 6352   1.372   3.465   0.034
 1637SOL    HW2 6353   1.511   3.521   0.010
 1638SOL     OW 6354   0.367   3.159   1.491
 1638SOL    HW1 6355   0.350   3.241   1.442
 1638SOL    HW2 6356   0.291   3.104   1.472
 1639SOL     OW 6357   1.612   3.157   1.289
 1639SOL    HW1 6358   1.658   3.132   1.369
 1639SOL    HW2 6359   1.550   3.224   1.316
 1640SOL     OW 6360   1.063   2.971   0.702
 1640SOL    HW1 6361   0.993   2.925   0.747
 1640SOL    HW2 6362   1.129   2.904   0.685
 1641SOL     OW 6363   1.025   2.102   0.963
 1641SOL    HW1 6364   1.023   2.053   0.881
 1641SOL    HW2 6365   1.016   2.036   1.031
 1642SOL     OW 6366   0.603   3.340   0.476
 1642SOL    HW1 6367   0.643   3.297   0.401
 1642SOL    HW2 6368   0.520   3.374   0.443
 1643SOL     OW 6369   1.735   2.238   1.391
 1643SOL    HW1 6370   1.797   2.311   1.383
 1643SOL    HW2 6371   1.766   2.174   1.327
 1644SOL     OW 6372   0.269   3.160   0.296
 1644SOL    HW1 6373   0.182   3.173   0.257
 1644SOL    HW2 6374   0.270   3.219   0.371
 1645SOL     OW 6375   0.101   2.865   1.714
 1645SOL    HW1 6376   0.065   2.951   1.736
 1645SOL    HW2 6377   0.185   2.862   1.758
 1646SOL     OW 6378   0.660   2.088   1.516
 1646SOL    HW1 6379   0.731   2.058   1.458
 1646SOL    HW2 6380   0.703   2.106   1.599
 1647SOL     OW 6381   0.129   2.250   0.012
 1647SOL    HW1 6382   0.055   2.259   0.073
 1647SOL    HW2 6383   0.096   2.283  -0.071
 1648SOL     OW 6384   1.421   2.715   1.392
 1648SOL    HW1 6385   1.368   2.771   1.335
 1648SOL    HW2 6386   1.509   2.720   1.355
 1649SOL     OW 6387   0.067   2.100   0.365
 1649SOL    HW1 6388   0.029   2.156   0.297
 1649SOL    HW2 6389   0.145   2.062   0.325
 1650SOL     OW 6390   1.194   3.185   0.124
 1650SOL    HW1 6391   1.099   3.184   0.112
 1650SOL    HW2 6392   1.207   3.184   0.218
 1651SOL     OW 6393   0.625   2.693   1.443
 1651SOL    HW1 6394   0.681   2.769   1.428
 1651SOL    HW2 6395   0.685   2.619   1.446
 1652SOL     OW 6396   1.489   3.647   0.981
 1652SOL    HW1 6397   1.513   3.727   0.935
 1652SOL    HW2 6398   1.562   3.630   1.041
 1653SOL     OW 6399   0.708   2.422   1.701
 1653SOL    HW1 6400   0.757   2.480   1.757
 1653SOL    HW2 6401   0.729   2.334   1.732
 1654SOL     OW 6402   1.472   3.051   1.624
 1654SOL    HW1 6403   1.459   3.070   1.717
 1654SOL    HW2 6404   1.562   3.075   1.606
 1655SOL     OW 6405   0.387   3.600   1.563
 1655SOL    HW1 6406   0.298   3.630   1.544
 1655SOL    HW2 6407   0.375   3.514   1.602
 1656SOL     OW 6408   1.668   2.745   1.264
 1656SOL    HW1 6409   1.664   2.654   1.235
 1656SOL    HW2 6410   1.658   2.797   1.185
 1657SOL     OW 6411   1.221   2.176   0.447
 1657SOL    HW1 6412   1.281   2.102   0.450
 1657SOL    HW2 6413   1.240   2.225   0.527
 1658SOL     OW 6414   0.593   2.595   0.672
 1658SOL    HW1 6415   0.631   2.682   0.664
 1658SOL    HW2 6416   0.529   2.590   0.600
 1659SOL     OW 6417   1.754   2.218   1.664
 1659SOL    HW1 6418   1.747   2.234   1.570
 1659SOL    HW2 6419   1.676   2.165   1.684
 1660SOL     OW 6420   1.756   2.793   1.515
 1660SOL    HW1 6421   1.742   2.887   1.528
 1660SOL    HW2 6422   1.733   2.778   1.423
 1661SOL     OW 6423   0.926   3.228   0.060
 1661SOL    HW1 6424   0.869   3.208   0.134
 1661SOL    HW2 6425   0.906   3.319   0.039
 1662SOL     OW 6426   0.666   3.638   0.927
 1662SOL    HW1 6427   0.650   3.732   0.917
 1662SOL    HW2 6428   0.761   3.630   0.936
 1663SOL     OW 6429   0.867   2.840   0.848
 1663SOL    HW1 6430   0.914   2.764   0.880
 1663SOL    HW2 6431   0.828   2.879   0.926
 1664SOL     OW 6432   1.086   2.850   0.072
 1664SOL    HW1 6433   1.125   2.932   0.042
 1664SOL    HW2 6434   1.158   2.788   0.071
 1665SOL     OW 6435   1.836   3.409   0.840
 1665SOL    HW1 6436   1.753   3.405   0.792
 1665SOL    HW2 6437   1.817   3.365   0.923
 1666SOL     OW 6438   0.216   3.158   1.857
 1666SOL    HW1 6439   0.122   3.147   1.840
 1666SOL    HW2 6440   0.223   3.163   1.952
 1667SOL     OW 6441   0.121   3.114   0.657
 1667SOL    HW1 6442   0.055   3.060   0.702
 1667SOL    HW2 6443   0.192   3.052   0.638
 1668SOL     OW 6444   0.682   3.271   1.634
 1668SOL    HW1 6445   0.600   3.235   1.668
 1668SOL    HW2 6446   0.686   3.359   1.670
 1669SOL     OW 6447   1.815   2.037   1.232
 1669SOL    HW1 6448   1.815   1.942   1.238
 1669SOL    HW2 6449   1.827   2.056   1.139
 1670SOL     OW 6450   0.431   2.295   0.518
 1670SOL    HW1 6451   0.462   2.222   0.465
 1670SOL    HW2 6452   0.382   2.255   0.589
 1671SOL     OW 6453   1.707   3.337   1.083
 1671SOL    HW1 6454   1.625   3.320   1.037
 1671SOL    HW2 6455   1.709   3.275   1.155
 1672SOL     OW 6456   0.354   2.414   1.293
 1672SOL    HW1 6457   0.396   2.361   1.361
 1672SOL    HW2 6458   0.379   2.370   1.211
 1673SOL     OW 6459   0.836   3.434   0.682
 1673SOL    HW1 6460   0.806   3.500   0.619
 1673SOL    HW2 6461   0.761   3.375   0.692
 1674SOL     OW 6462   1.422   2.089   1.121
 1674SOL    HW1 6463   1.447   2.014   1.176
 1674SOL    HW2 6464   1.370   2.145   1.178
 1675SOL     OW 6465   1.014   1.885   1.135
 1675SOL    HW1 6466   0.948   1.823   1.104
 1675SOL    HW2 6467   1.097   1.837   1.127
 1676SOL     OW 6468   0.796   3.180   0.301
 1676SOL    HW1 6469   0.761   3.095   0.327
 1676SOL    HW2 6470   0.863   3.200   0.367
 1677SOL     OW 6471   0.622   3.422   1.285
 1677SOL    HW1 6472   0.619   3.508   1.327
 1677SOL    HW2 6473   0.711   3.414   1.251
 1678SOL     OW 6474   1.372   1.895   0.180
 1678SOL    HW1 6475   1.374   1.855   0.093
 1678SOL    HW2 6476   1.286   1.937   0.186
 1679SOL     OW 6477   1.281   2.320   0.668
 1679SOL    HW1 6478   1.236   2.404   0.678
 1679SOL    HW2 6479   1.284   2.283   0.757
 1680SOL     OW 6480   1.580   2.054   0.892
 1680SOL    HW1 6481   1.528   2.082   0.967
 1680SOL    HW2 6482   1.580   2.129   0.833
 1681SOL     OW 6483   0.045   2.918   0.298
 1681SOL    HW1 6484   0.134   2.894   0.273
 1681SOL    HW2 6485   0.043   2.905   0.393
 1682SOL     OW 6486   0.875   3.520   0.363
 1682SOL    HW1 6487   0.793   3.500   0.318
 1682SOL    HW2 6488   0.855   3.597   0.417
 1683SOL     OW 6489   0.216   2.545   1.921
 1683SOL    HW1 6490   0.152   2.544   1.993
 1683SOL    HW2 6491   0.262   2.462   1.928
 1684SOL     OW 6492   0.237   2.129   2.848
 1684SOL    HW1 6493   0.264   2.104   2.936
 1684SOL    HW2 6494   0.151   2.090   2.836
 1685SOL     OW 6495   8.009   2.253   2.468
 1685SOL    HW1 6496   7.921   2.243   2.505
 1685SOL    HW2 6497   8.009   2.196   2.391
 1686SOL     OW 6498   0.572   3.163   3.052
 1686SOL    HW1 6499   0.483   3.170   3.015
 1686SOL    HW2 6500   0.591   3.251   3.084
 1687SOL     OW 6501   1.575   3.368   2.573
 1687SOL    HW1 6502   1.531   3.354   2.657
 1687SOL    HW2 6503   1.503   3.377   2.510
 1688SOL     OW 6504   1.139   2.555   2.556
 1688SOL    HW1 6505   1.183   2.638   2.538
 1688SOL    HW2 6506   1.091   2.571   2.638
 1689SOL     OW 6507   1.787   2.445   2.084
 1689SOL    HW1 6508   1.756   2.447   1.994
 1689SOL    HW2 6509   1.743   2.369   2.123
 1690SOL     OW 6510   0.733   2.994   2.908
 1690SOL    HW1 6511   0.671   3.034   2.968
 1690SOL    HW2 6512   0.780   3.067   2.868
 1691SOL     OW 6513   0.879   2.619   3.682
 1691SOL    HW1 6514   0.897   2.681   3.752
 1691SOL    HW2 6515   0.898   2.666   3.601
 1692SOL     OW 6516   0.688   2.855   2.508
 1692SOL    HW1 6517   0.757   2.853   2.576
 1692SOL    HW2 6518   0.621   2.913   2.545
 1693SOL     OW 6519   0.703   3.013   3.680
 1693SOL    HW1 6520   0.740   3.095   3.713
 1693SOL    HW2 6521   0.622   3.039   3.637
 1694SOL     OW 6522   0.338   3.275   2.931
 1694SOL    HW1 6523   0.276   3.227   2.876
 1694SOL    HW2 6524   0.385   3.332   2.871
 1695SOL     OW 6525   1.472   3.376   3.211
 1695SOL    HW1 6526   1.521   3.458   3.198
 1695SOL    HW2 6527   1.468   3.365   3.306
 1696SOL     OW 6528   0.455   2.240   3.333
 1696SOL    HW1 6529   0.533   2.187   3.346
 1696SOL    HW2 6530   0.383   2.183   3.359
 1697SOL     OW 6531   1.602   2.320   2.618
 1697SOL    HW1 6532   1.537   2.334   2.549
 1697SOL    HW2 6533   1.575   2.379   2.689
 1698SOL     OW 6534   0.234   3.556   2.343
 1698SOL    HW1 6535   0.226   3.640   2.387
 1698SOL    HW2 6536   0.302   3.569   2.277
 1699SOL     OW 6537   1.135   3.207   3.566
 1699SOL    HW1 6538   1.189   3.198   3.645
 1699SOL    HW2 6539   1.082   3.127   3.564
 1700SOL     OW 6540   0.293   3.292   2.372
 1700SOL    HW1 6541   0.271   3.384   2.383
 1700SOL    HW2 6542   0.239   3.247   2.437
 1701SOL     OW 6543   0.277   2.943   2.753
 1701SOL    HW1 6544   0.278   2.852   2.781
 1701SOL    HW2 6545   0.203   2.983   2.800
 1702SOL     OW 6546   0.589   3.668   3.264
 1702SOL    HW1 6547   0.517   3.645   3.323
 1702SOL    HW2 6548   0.628   3.746   3.303
 1703SOL     OW 6549   0.573   2.855   2.008
 1703SOL    HW1 6550   0.624   2.897   1.939
 1703SOL    HW2 6551   0.614   2.883   2.089
 1704SOL     OW 6552   1.571   2.013   3.318
 1704SOL    HW1 6553   1.652   2.056   3.292
 1704SOL    HW2 6554   1.567   2.025   3.413
 1705SOL     OW 6555   0.135   2.495   2.408
 1705SOL    HW1 6556   0.097   2.413   2.439
 1705SOL    HW2 6557   0.123   2.556   2.481
 1706SOL     OW 6558   1.847   3.609   2.190
 1706SOL    HW1 6559   1.916   3.586   2.252
 1706SOL    HW2 6560   1.860   3.703   2.173
 1707SOL     OW 6561   0.016   3.447   2.002
 1707SOL    HW1 6562  -0.000   3.354   1.989
 1707SOL    HW2 6563   0.006   3.461   2.096
 1708SOL     OW 6564   1.703   2.740   2.479
 1708SOL    HW1 6565   1.731   2.792   2.554
 1708SOL    HW2 6566   1.683   2.804   2.411
 1709SOL     OW 6567   1.652   2.964   2.302
 1709SOL    HW1 6568   1.736   2.971   2.256
 1709SOL    HW2 6569   1.660   3.023   2.377
 1710SOL     OW 6570   0.148   2.629   3.452
 1710SOL    HW1 6571   0.244   2.624   3.452
 1710SOL    HW2 6572   0.128   2.708   3.502
 1711SOL     OW 6573   0.618   3.256   2.598
 1711SOL    HW1 6574   0.575   3.171   2.604
 1711SOL    HW2 6575   0.604   3.284   2.507
 1712SOL     OW 6576   1.286   3.097   3.278
 1712SOL    HW1 6577   1.325   3.032   3.220
 1712SOL    HW2 6578   1.341   3.096   3.356
 1713SOL     OW 6579   0.825   1.868   2.378
 1713SOL    HW1 6580   0.864   1.951   2.351
 1713SOL    HW2 6581   0.731   1.885   2.381
 1714SOL     OW 6582   0.175   2.780   3.126
 1714SOL    HW1 6583   0.268   2.758   3.130
 1714SOL    HW2 6584   0.150   2.764   3.036
 1715SOL     OW 6585   1.535   2.867   2.066
 1715SOL    HW1 6586   1.466   2.807   2.097
 1715SOL    HW2 6587   1.573   2.903   2.145
 1716SOL     OW 6588   1.143   3.668   3.471
 1716SOL    HW1 6589   1.193   3.728   3.415
 1716SOL    HW2 6590   1.171   3.581   3.444
 1717SOL     OW 6591   0.361   2.120   3.693
 1717SOL    HW1 6592   0.407   2.195   3.730
 1717SOL    HW2 6593   0.268   2.141   3.706
 1718SOL     OW 6594   1.462   3.281   2.815
 1718SOL    HW1 6595   1.398   3.299   2.883
 1718SOL    HW2 6596   1.448   3.190   2.792
 1719SOL     OW 6597   1.649   3.622   2.436
 1719SOL    HW1 6598   1.630   3.582   2.351
 1719SOL    HW2 6599   1.636   3.551   2.500
 1720SOL     OW 6600   0.590   2.573   2.128
 1720SOL    HW1 6601   0.598   2.660   2.089
 1720SOL    HW2 6602   0.531   2.586   2.203
 1721SOL     OW 6603   1.291   2.214   2.814
 1721SOL    HW1 6604   1.206   2.172   2.799
 1721SOL    HW2 6605   1.294   2.230   2.909
 1722SOL     OW 6606   1.580   3.531   2.175
 1722SOL    HW1 6607   1.672   3.556   2.167
 1722SOL    HW2 6608   1.551   3.518   2.084
 1723SOL     OW 6609   0.808   2.467   3.312
 1723SOL    HW1 6610   0.770   2.447   3.398
 1723SOL    HW2 6611   0.766   2.405   3.252
 1724SOL     OW 6612   1.391   2.326   3.541
 1724SOL    HW1 6613   1.393   2.382   3.618
 1724SOL    HW2 6614   1.454   2.257   3.559
 1725SOL     OW 6615   0.949   2.750   3.448
 1725SOL    HW1 6616   1.013   2.691   3.408
 1725SOL    HW2 6617   0.906   2.793   3.374
 1726SOL     OW 6618   1.016   2.244   3.113
 1726SOL    HW1 6619   0.943   2.291   3.152
 1726SOL    HW2 6620   0.984   2.217   3.026
 1727SOL     OW 6621   1.054   2.557   2.286
 1727SOL    HW1 6622   1.073   2.552   2.379
 1727SOL    HW2 6623   0.970   2.514   2.276
 1728SOL     OW 6624   0.100   2.651   2.634
 1728SOL    HW1 6625   0.179   2.659   2.686
 1728SOL    HW2 6626   0.049   2.729   2.655
 1729SOL     OW 6627   0.130   3.678   3.427
 1729SOL    HW1 6628   0.136   3.668   3.522
 1729SOL    HW2 6629   0.037   3.664   3.407
 1730SOL     OW 6630   0.902   2.212   2.058
 1730SOL    HW1 6631   0.941   2.277   2.000
 1730SOL    HW2 6632   0.906   2.130   2.008
 1731SOL     OW 6633   1.691   2.419   3.685
 1731SOL    HW1 6634   1.648   2.492   3.640
 1731SOL    HW2 6635   1.773   2.406   3.637
 1732SOL     OW 6636   1.381   3.003   2.398
 1732SOL    HW1 6637   1.463   3.001   2.349
 1732SOL    HW2 6638   1.329   3.069   2.353
 1733SOL     OW 6639   0.557   2.035   2.766
 1733SOL    HW1 6640   0.558   2.063   2.857
 1733SOL    HW2 6641   0.553   2.116   2.715
 1734SOL     OW 6642   0.994   3.305   2.326
 1734SOL    HW1 6643   0.968   3.383   2.277
 1734SOL    HW2 6644   0.974   3.327   2.417
 1735SOL     OW 6645   0.361   3.687   2.723
 1735SOL    HW1 6646   0.405   3.603   2.737
 1735SOL    HW2 6647   0.427   3.753   2.746
 1736SOL     OW 6648   1.762   2.880   2.701
 1736SOL    HW1 6649   1.755   2.966   2.658
 1736SOL    HW2 6650   1.734   2.895   2.791
 1737SOL     OW 6651   1.195   3.413   3.384
 1737SOL    HW1 6652   1.212   3.345   3.449
 1737SOL    HW2 6653   1.181   3.365   3.302
 1738SOL     OW 6654   0.306   2.813   2.099
 1738SOL    HW1 6655   0.393   2.840   2.070
 1738SOL    HW2 6656   0.285   2.738   2.044
 1739SOL     OW 6657   1.478   2.612   2.573
 1739SOL    HW1 6658   1.476   2.583   2.664
 1739SOL    HW2 6659   1.557   2.665   2.567
 1740SOL     OW 6660   0.464   3.125   3.598
 1740SOL    HW1 6661   0.438   3.131   3.506
 1740SOL    HW2 6662   0.381   3.120   3.646
 1741SOL     OW 6663   1.125   3.643   2.088
 1741SOL    HW1 6664   1.049   3.604   2.131
 1741SOL    HW2 6665   1.151   3.579   2.022
 1742SOL     OW 6666   0.191   2.127   3.361
 1742SOL    HW1 6667   0.177   2.208   3.410
 1742SOL    HW2 6668   0.161   2.057   3.420
 1743SOL     OW 6669   1.625   3.242   1.951
 1743SOL    HW1 6670   1.586   3.329   1.939
 1743SOL    HW2 6671   1.555   3.181   1.927
 1744SOL     OW 6672   0.457   3.606   2.175
 1744SOL    HW1 6673   0.505   3.657   2.240
 1744SOL    HW2 6674   0.525   3.565   2.121
 1745SOL     OW 6675   1.398   1.967   2.310
 1745SOL    HW1 6676   1.389   1.944   2.218
 1745SOL    HW2 6677   1.492   1.965   2.327
 1746SOL     OW 6678   0.244   3.650   3.089
 1746SOL    HW1 6679   0.292   3.576   3.127
 1746SOL    HW2 6680   0.210   3.617   3.006
 1747SOL     OW 6681   0.940   3.564   2.760
 1747SOL    HW1 6682   1.021   3.522   2.788
 1747SOL    HW2 6683   0.908   3.509   2.689
 1748SOL     OW 6684   0.409   2.558   2.339
 1748SOL    HW1 6685   0.424   2.465   2.352
 1748SOL    HW2 6686   0.316   2.571   2.357
 1749SOL     OW 6687   1.526   2.078   3.587
 1749SOL    HW1 6688   1.547   2.105   3.676
 1749SOL    HW2 6689   1.457   2.012   3.598
 1750SOL     OW 6690   0.654   1.975   1.963
 1750SOL    HW1 6691   0.714   1.903   1.979
 1750SOL    HW2 6692   0.595   1.944   1.894
 1751SOL     OW 6693   0.759   2.140   3.616
 1751SOL    HW1 6694   0.841   2.090   3.614
 1751SOL    HW2 6695   0.718   2.115   3.699
 1752SOL     OW 6696   0.880   3.385   3.051
 1752SOL    HW1 6697   0.859   3.343   2.968
 1752SOL    HW2 6698   0.947   3.330   3.091
 1753SOL     OW 6699   1.349   2.437   3.287
 1753SOL    HW1 6700   1.377   2.414   3.375
 1753SOL    HW2 6701   1.377   2.528   3.276
 1754SOL     OW 6702   0.822   3.241   2.811
 1754SOL    HW1 6703   0.908   3.234   2.771
 1754SOL    HW2 6704   0.762   3.256   2.738
 1755SOL     OW 6705   0.937   2.366   2.761
 1755SOL    HW1 6706   0.908   2.360   2.670
 1755SOL    HW2 6707   0.962   2.276   2.784
 1756SOL     OW 6708   0.557   1.924   2.355
 1756SOL    HW1 6709   0.477   1.925   2.407
 1756SOL    HW2 6710   0.549   2.000   2.297
 1757SOL     OW 6711   1.424   3.063   1.897
 1757SOL    HW1 6712   1.453   2.990   1.952
 1757SOL    HW2 6713   1.340   3.090   1.935
 1758SOL     OW 6714   0.277   1.912   2.037
 1758SOL    HW1 6715   0.330   1.977   1.990
 1758SOL    HW2 6716   0.341   1.858   2.083
 1759SOL     OW 6717   0.944   2.111   2.314
 1759SOL    HW1 6718   0.920   2.149   2.229
 1759SOL    HW2 6719   1.038   2.128   2.321
 1760SOL     OW 6720   1.085   2.553   3.312
 1760SOL    HW1 6721   1.014   2.493   3.336
 1760SOL    HW2 6722   1.165   2.500   3.323
 1761SOL     OW 6723   1.219   3.433   2.654
 1761SOL    HW1 6724   1.234   3.500   2.588
 1761SOL    HW2 6725   1.280   3.455   2.724
 1762SOL     OW 6726   0.477   3.017   2.583
 1762SOL    HW1 6727   0.414   2.995   2.652
 1762SOL    HW2 6728   0.430   2.999   2.502
 1763SOL     OW 6729   1.261   3.652   2.475
 1763SOL    HW1 6730   1.313   3.715   2.424
 1763SOL    HW2 6731   1.196   3.706   2.520
 1764SOL     OW 6732   1.025   2.393   1.889
 1764SOL    HW1 6733   0.980   2.474   1.868
 1764SOL    HW2 6734   1.091   2.418   1.955
 1765SOL     OW 6735   0.094   2.472   3.236
 1765SOL    HW1 6736   0.184   2.448   3.215
 1765SOL    HW2 6737   0.101   2.528   3.313
 1766SOL     OW 6738   0.559   2.088   3.039
 1766SOL    HW1 6739   0.600   2.021   3.093
 1766SOL    HW2 6740   0.467   2.087   3.065
 1767SOL     OW 6741   0.867   2.316   2.500
 1767SOL    HW1 6742   0.822   2.376   2.441
 1767SOL    HW2 6743   0.889   2.240   2.446
 1768SOL     OW 6744   1.023   1.912   2.600
 1768SOL    HW1 6745   0.961   1.910   2.527
 1768SOL    HW2 6746   0.997   1.839   2.656
 1769SOL     OW 6747   1.441   3.019   2.727
 1769SOL    HW1 6748   1.371   2.955   2.734
 1769SOL    HW2 6749   1.455   3.029   2.633
 1770SOL     OW 6750   1.469   2.470   2.818
 1770SOL    HW1 6751   1.411   2.396   2.836
 1770SOL    HW2 6752   1.529   2.471   2.893
 1771SOL     OW 6753   1.892   2.640   2.241
 1771SOL    HW1 6754   1.979   2.650   2.205
 1771SOL    HW2 6755   1.845   2.585   2.178
 1772SOL     OW 6756   0.490   3.281   2.005
 1772SOL    HW1 6757   0.410   3.252   2.049
 1772SOL    HW2 6758   0.493   3.229   1.924
 1773SOL     OW 6759   1.689   3.112   2.526
 1773SOL    HW1 6760   1.785   3.119   2.527
 1773SOL    HW2 6761   1.659   3.201   2.542
 1774SOL     OW 6762   1.391   2.436   1.930
 1774SOL    HW1 6763   1.331   2.414   2.002
 1774SOL    HW2 6764   1.477   2.410   1.962
 1775SOL     OW 6765   0.529   2.120   2.167
 1775SOL    HW1 6766   0.580   2.074   2.100
 1775SOL    HW2 6767   0.503   2.202   2.125
 1776SOL     OW 6768   1.736   3.103   3.412
 1776SOL    HW1 6769   1.824   3.069   3.397
 1776SOL    HW2 6770   1.750   3.191   3.446
 1777SOL     OW 6771   1.059   3.204   3.180
 1777SOL    HW1 6772   0.981   3.184   3.231
 1777SOL    HW2 6773   1.131   3.164   3.228
 1778SOL     OW 6774   1.547   3.404   3.471
 1778SOL    HW1 6775   1.627   3.453   3.451
 1778SOL    HW2 6776   1.522   3.433   3.559
 1779SOL     OW 6777   1.117   3.048   2.956
 1779SOL    HW1 6778   1.083   3.103   3.028
 1779SOL    HW2 6779   1.104   3.101   2.878
 1780SOL     OW 6780   1.633   2.964   2.934
 1780SOL    HW1 6781   1.628   3.025   3.008
 1780SOL    HW2 6782   1.558   2.987   2.879
 1781SOL     OW 6783   0.921   1.951   3.257
 1781SOL    HW1 6784   0.945   1.937   3.165
 1781SOL    HW2 6785   0.999   1.988   3.297
 1782SOL     OW 6786   0.969   2.990   3.580
 1782SOL    HW1 6787   0.878   2.994   3.611
 1782SOL    HW2 6788   0.976   2.906   3.536
 1783SOL     OW 6789   0.710   2.923   2.237
 1783SOL    HW1 6790   0.698   2.902   2.330
 1783SOL    HW2 6791   0.785   2.869   2.210
 1784SOL     OW 6792   0.432   2.681   3.119
 1784SOL    HW1 6793   0.499   2.693   3.186
 1784SOL    HW2 6794   0.400   2.591   3.133
 1785SOL     OW 6795   1.287   2.261   3.089
 1785SOL    HW1 6796   1.316   2.333   3.145
 1785SOL    HW2 6797   1.192   2.266   3.091
 1786SOL     OW 6798   0.048   3.456   3.191
 1786SOL    HW1 6799   0.093   3.540   3.183
 1786SOL    HW2 6800   0.087   3.415   3.268
 1787SOL     OW 6801   0.332   2.969   2.350
 1787SOL    HW1 6802   0.343   3.047   2.296
 1787SOL    HW2 6803   0.335   2.896   2.288
 1788SOL     OW 6804   0.550   2.383   2.717
 1788SOL    HW1 6805   0.564   2.443   2.644
 1788SOL    HW2 6806   0.613   2.411   2.783
 1789SOL     OW 6807   1.245   3.213   2.255
 1789SOL    HW1 6808   1.301   3.284   2.286
 1789SOL    HW2 6809   1.158   3.234   2.287
 1790SOL     OW 6810   1.286   3.328   3.023
 1790SOL    HW1 6811   1.352   3.344   3.091
 1790SOL    HW2 6812   1.220   3.274   3.066
 1791SOL     OW 6813   1.608   2.485   2.361
 1791SOL    HW1 6814   1.541   2.519   2.421
 1791SOL    HW2 6815   1.613   2.550   2.291
 1792SOL     OW 6816   0.350   3.399   3.175
 1792SOL    HW1 6817   0.333   3.349   3.095
 1792SOL    HW2 6818   0.446   3.406   3.179
 1793SOL     OW 6819   0.432   2.587   3.473
 1793SOL    HW1 6820   0.485   2.639   3.413
 1793SOL    HW2 6821   0.492   2.522   3.510
 1794SOL     OW 6822   1.588   2.606   3.518
 1794SOL    HW1 6823   1.511   2.660   3.533
 1794SOL    HW2 6824   1.649   2.663   3.473
 1795SOL     OW 6825   0.994   1.997   3.606
 1795SOL    HW1 6826   1.054   2.071   3.597
 1795SOL    HW2 6827   1.050   1.920   3.592
 1796SOL     OW 6828   0.500   1.895   3.613
 1796SOL    HW1 6829   0.452   1.845   3.547
 1796SOL    HW2 6830   0.448   1.973   3.628
 1797SOL     OW 6831   0.589   2.739   2.897
 1797SOL    HW1 6832   0.627   2.827   2.897
 1797SOL    HW2 6833   0.535   2.736   2.976
 1798SOL     OW 6834   1.338   2.722   2.860
 1798SOL    HW1 6835   1.246   2.702   2.841
 1798SOL    HW2 6836   1.382   2.638   2.858
 1799SOL     OW 6837   1.201   2.388   2.124
 1799SOL    HW1 6838   1.205   2.310   2.179
 1799SOL    HW2 6839   1.158   2.453   2.179
 1800SOL     OW 6840   0.294   2.056   3.110
 1800SOL    HW1 6841   0.258   2.086   3.194
 1800SOL    HW2 6842   0.283   1.961   3.112
 1801SOL     OW 6843   0.048   3.170   3.130
 1801SOL    HW1 6844   0.070   3.117   3.207
 1801SOL    HW2 6845   0.051   3.260   3.162
 1802SOL     OW 6846   0.713   2.490   2.909
 1802SOL    HW1 6847   0.795   2.487   2.859
 1802SOL    HW2 6848   0.682   2.580   2.899
 1803SOL     OW 6849   1.736   2.810   3.724
 1803SOL    HW1 6850   1.668   2.832   3.660
 1803SOL    HW2 6851   1.696   2.826   3.809
 1804SOL     OW 6852   0.309   1.929   2.478
 1804SOL    HW1 6853   0.285   2.018   2.500
 1804SOL    HW2 6854   0.318   1.885   2.562
 1805SOL     OW 6855   1.628   2.246   2.217
 1805SOL    HW1 6856   1.656   2.176   2.276
 1805SOL    HW2 6857   1.608   2.319   2.276
 1806SOL     OW 6858   1.037   2.614   2.816
 1806SOL    HW1 6859   1.022   2.632   2.909
 1806SOL    HW2 6860   1.006   2.524   2.804
 1807SOL     OW 6861   0.947   3.407   3.553
 1807SOL    HW1 6862   0.952   3.449   3.467
 1807SOL    HW2 6863   1.017   3.341   3.552
 1808SOL     OW 6864   1.872   3.339   3.451
 1808SOL    HW1 6865   1.891   3.389   3.371
 1808SOL    HW2 6866   1.944   3.360   3.510
 1809SOL     OW 6867   0.360   2.807   3.655
 1809SOL    HW1 6868   0.434   2.826   3.713
 1809SOL    HW2 6869   0.381   2.722   3.616
 1810SOL     OW 6870   1.525   2.130   1.986
 1810SOL    HW1 6871   1.463   2.066   2.018
 1810SOL    HW2 6872   1.562   2.170   2.065
 1811SOL     OW 6873   1.285   2.687   1.886
 1811SOL    HW1 6874   1.327   2.601   1.890
 1811SOL    HW2 6875   1.317   2.725   1.804
 1812SOL     OW 6876   1.074   3.204   2.721
 1812SOL    HW1 6877   1.083   3.134   2.656
 1812SOL    HW2 6878   1.130   3.274   2.688
 1813SOL     OW 6879   0.320   2.666   2.804
 1813SOL    HW1 6880   0.413   2.689   2.808
 1813SOL    HW2 6881   0.317   2.577   2.841
 1814SOL     OW 6882   0.334   2.381   2.878
 1814SOL    HW1 6883   0.298   2.294   2.861
 1814SOL    HW2 6884   0.409   2.387   2.819
 1815SOL     OW 6885   1.138   2.226   3.547
 1815SOL    HW1 6886   1.088   2.279   3.609
 1815SOL    HW2 6887   1.226   2.264   3.548
 1816SOL     OW 6888   1.181   2.087   3.307
 1816SOL    HW1 6889   1.172   2.120   3.396
 1816SOL    HW2 6890   1.125   2.145   3.255
 1817SOL     OW 6891   7.979   3.163   2.060
 1817SOL    HW1 6892   7.891   3.185   2.090
 1817SOL    HW2 6893   7.988   3.069   2.075
 1818SOL     OW 6894   0.109   3.611   2.806
 1818SOL    HW1 6895   0.112   3.529   2.759
 1818SOL    HW2 6896   0.188   3.658   2.779
 1819SOL     OW 6897   0.487   3.436   2.764
 1819SOL    HW1 6898   0.555   3.498   2.790
 1819SOL    HW2 6899   0.531   3.374   2.707
 1820SOL     OW 6900   0.971   2.636   3.077
 1820SOL    HW1 6901   1.032   2.622   3.150
 1820SOL    HW2 6902   0.884   2.631   3.117
 1821SOL     OW 6903   0.072   2.407   2.975
 1821SOL    HW1 6904   0.166   2.405   2.958
 1821SOL    HW2 6905   0.064   2.429   3.067
 1822SOL     OW 6906   0.194   2.360   3.515
 1822SOL    HW1 6907   0.288   2.373   3.505
 1822SOL    HW2 6908   0.158   2.448   3.519
 1823SOL     OW 6909   1.383   2.790   3.516
 1823SOL    HW1 6910   1.407   2.882   3.517
 1823SOL    HW2 6911   1.380   2.767   3.423
 1824SOL     OW 6912   0.816   2.430   2.231
 1824SOL    HW1 6913   0.824   2.357   2.169
 1824SOL    HW2 6914   0.742   2.481   2.198
 1825SOL     OW 6915   1.643   2.462   3.022
 1825SOL    HW1 6916   1.639   2.427   3.111
 1825SOL    HW2 6917   1.733   2.447   2.994
 1826SOL     OW 6918   0.289   3.396   3.586
 1826SOL    HW1 6919   0.249   3.468   3.636
 1826SOL    HW2 6920   0.280   3.320   3.644
 1827SOL     OW 6921   0.725   2.305   3.109
 1827SOL    HW1 6922   0.663   2.235   3.088
 1827SOL    HW2 6923   0.712   2.370   3.040
 1828SOL     OW 6924   0.903   3.537   3.314
 1828SOL    HW1 6925   0.901   3.514   3.221
 1828SOL    HW2 6926   0.927   3.629   3.315
 1829SOL     OW 6927   0.451   2.348   2.033
 1829SOL    HW1 6928   0.506   2.423   2.053
 1829SOL    HW2 6929   0.371   2.362   2.084
 1830SOL     OW 6930   0.150   2.983   3.315
 1830SOL    HW1 6931   0.131   2.938   3.397
 1830SOL    HW2 6932   0.157   2.913   3.250
 1831SOL     OW 6933   1.317   2.896   3.074
 1831SOL    HW1 6934   1.342   2.841   2.999
 1831SOL    HW2 6935   1.246   2.952   3.040
 1832SOL     OW 6936   1.328   2.710   2.161
 1832SOL    HW1 6937   1.251   2.695   2.215
 1832SOL    HW2 6938   1.297   2.702   2.071
 1833SOL     OW 6939   1.742   3.603   2.968
 1833SOL    HW1 6940   1.821   3.628   2.920
 1833SOL    HW2 6941   1.746   3.507   2.972
 1834SOL     OW 6942   1.236   3.590   2.939
 1834SOL    HW1 6943   1.322   3.621   2.914
 1834SOL    HW2 6944   1.251   3.504   2.978
 1835SOL     OW 6945   0.066   3.052   2.891
 1835SOL    HW1 6946   0.066   3.094   2.977
 1835SOL    HW2 6947  -0.008   3.092   2.845
 1836SOL     OW 6948   0.719   3.555   3.568
 1836SOL    HW1 6949   0.665   3.529   3.493
 1836SOL    HW2 6950   0.802   3.509   3.556
 1837SOL     OW 6951   1.729   2.030   2.364
 1837SOL    HW1 6952   1.798   2.013   2.300
 1837SOL    HW2 6953   1.710   1.945   2.403
 1838SOL     OW 6954   1.391   3.429   2.353
 1838SOL    HW1 6955   1.451   3.465   2.287
 1838SOL    HW2 6956   1.342   3.505   2.385
 1839SOL     OW 6957   0.170   3.612   3.703
 1839SOL    HW1 6958   0.107   3.563   3.756
 1839SOL    HW2 6959   0.216   3.668   3.765
 1840SOL     OW 6960   1.273   2.787   2.517
 1840SOL    HW1 6961   1.348   2.731   2.534
 1840SOL    HW2 6962   1.308   2.863   2.470
 1841SOL     OW 6963   0.800   3.141   3.276
 1841SOL    HW1 6964   0.775   3.184   3.357
 1841SOL    HW2 6965   0.729   3.159   3.215
 1842SOL     OW 6966   0.664   3.490   2.020
 1842SOL    HW1 6967   0.680   3.505   1.927
 1842SOL    HW2 6968   0.610   3.411   2.023
 1843SOL     OW 6969   1.615   3.606   3.215
 1843SOL    HW1 6970   1.671   3.624   3.139
 1843SOL    HW2 6971   1.605   3.692   3.257
 1844SOL     OW 6972   1.828   2.036   2.828
 1844SOL    HW1 6973   1.860   1.950   2.801
 1844SOL    HW2 6974   1.740   2.042   2.791
 1845SOL     OW 6975   0.260   2.179   2.571
 1845SOL    HW1 6976   0.174   2.214   2.550
 1845SOL    HW2 6977   0.260   2.169   2.666
 1846SOL     OW 6978   1.211   3.464   1.896
 1846SOL    HW1 6979   1.196   3.372   1.919
 1846SOL    HW2 6980   1.147   3.481   1.827
 1847SOL     OW 6981   0.830   2.873   3.232
 1847SOL    HW1 6982   0.871   2.878   3.145
 1847SOL    HW2 6983   0.819   2.964   3.258
 1848SOL     OW 6984   0.914   2.768   2.154
 1848SOL    HW1 6985   0.972   2.802   2.086
 1848SOL    HW2 6986   0.966   2.703   2.201
 1849SOL     OW 6987   1.490   3.489   1.910
 1849SOL    HW1 6988   1.396   3.482   1.895
 1849SOL    HW2 6989   1.528   3.496   1.822
 1850SOL     OW 6990   0.366   3.159   3.350
 1850SOL    HW1 6991   0.348   3.241   3.304
 1850SOL    HW2 6992   0.289   3.104   3.332
 1851SOL     OW 6993   1.604   3.143   3.142
 1851SOL    HW1 6994   1.664   3.129   3.216
 1851SOL    HW2 6995   1.551   3.218   3.168
 1852SOL     OW 6996   1.068   2.974   2.573
 1852SOL    HW1 6997   0.995   2.927   2.613
 1852SOL    HW2 6998   1.130   2.906   2.547
 1853SOL     OW 6999   1.035   2.097   2.818
 1853SOL    HW1 7000   1.026   2.051   2.734
 1853SOL    HW2 7001   1.021   2.029   2.884
 1854SOL     OW 7002   0.608   3.349   2.343
 1854SOL    HW1 7003   0.660   3.302   2.277
 1854SOL    HW2 7004   0.524   3.365   2.301
 1855SOL     OW 7005   1.718   2.262   3.227
 1855SOL    HW1 7006   1.790   2.324   3.235
 1855SOL    HW2 7007   1.753   2.192   3.172
 1856SOL     OW 7008   0.247   3.199   2.127
 1856SOL    HW1 7009   0.152   3.205   2.121
 1856SOL    HW2 7010   0.269   3.237   2.212
 1857SOL     OW 7011   0.099   2.865   3.575
 1857SOL    HW1 7012   0.063   2.951   3.597
 1857SOL    HW2 7013   0.185   2.863   3.619
 1858SOL     OW 7014   0.678   2.056   3.361
 1858SOL    HW1 7015   0.764   2.033   3.325
 1858SOL    HW2 7016   0.697   2.087   3.450
 1859SOL     OW 7017   0.105   2.225   1.875
 1859SOL    HW1 7018   0.037   2.268   1.928
 1859SOL    HW2 7019   0.121   2.287   1.803
 1860SOL     OW 7020   1.419   2.707   3.249
 1860SOL    HW1 7021   1.376   2.773   3.196
 1860SOL    HW2 7022   1.513   2.723   3.237
 1861SOL     OW 7023   0.093   2.100   2.224
 1861SOL    HW1 7024   0.045   2.084   2.143
 1861SOL    HW2 7025   0.176   2.052   2.212
 1862SOL     OW 7026   1.178   3.193   1.981
 1862SOL    HW1 7027   1.086   3.167   1.983
 1862SOL    HW2 7028   1.204   3.198   2.074
 1863SOL     OW 7029   0.632   2.688   3.301
 1863SOL    HW1 7030   0.686   2.767   3.288
 1863SOL    HW2 7031   0.696   2.618   3.313
 1864SOL     OW 7032   1.492   3.651   2.847
 1864SOL    HW1 7033   1.515   3.726   2.792
 1864SOL    HW2 7034   1.572   3.631   2.895
 1865SOL     OW 7035   0.706   2.429   3.560
 1865SOL    HW1 7036   0.754   2.489   3.617
 1865SOL    HW2 7037   0.724   2.342   3.597
 1866SOL     OW 7038   1.469   3.051   3.484
 1866SOL    HW1 7039   1.457   3.069   3.577
 1866SOL    HW2 7040   1.558   3.081   3.465
 1867SOL     OW 7041   0.392   3.604   3.438
 1867SOL    HW1 7042   0.304   3.634   3.413
 1867SOL    HW2 7043   0.378   3.518   3.478
 1868SOL     OW 7044   1.670   2.749   3.110
 1868SOL    HW1 7045   1.664   2.670   3.056
 1868SOL    HW2 7046   1.664   2.821   3.047
 1869SOL     OW 7047   1.216   2.181   2.321
 1869SOL    HW1 7048   1.276   2.107   2.316
 1869SOL    HW2 7049   1.244   2.231   2.398
 1870SOL     OW 7050   0.598   2.591   2.539
 1870SOL    HW1 7051   0.637   2.678   2.531
 1870SOL    HW2 7052   0.533   2.586   2.469
 1871SOL     OW 7053   1.780   2.173   3.483
 1871SOL    HW1 7054   1.746   2.228   3.411
 1871SOL    HW2 7055   1.704   2.160   3.540
 1872SOL     OW 7056   1.712   2.802   3.379
 1872SOL    HW1 7057   1.731   2.894   3.399
 1872SOL    HW2 7058   1.720   2.796   3.283
 1873SOL     OW 7059   0.865   3.223   1.910
 1873SOL    HW1 7060   0.828   3.252   1.993
 1873SOL    HW2 7061   0.881   3.304   1.861
 1874SOL     OW 7062   0.665   3.639   2.791
 1874SOL    HW1 7063   0.651   3.732   2.778
 1874SOL    HW2 7064   0.760   3.629   2.792
 1875SOL     OW 7065   0.874   2.835   2.716
 1875SOL    HW1 7066   0.926   2.766   2.756
 1875SOL    HW2 7067   0.833   2.880   2.790
 1876SOL     OW 7068   1.072   2.843   1.951
 1876SOL    HW1 7069   1.052   2.900   1.876
 1876SOL    HW2 7070   1.148   2.792   1.923
 1877SOL     OW 7071   1.842   3.401   2.696
 1877SOL    HW1 7072   1.759   3.404   2.648
 1877SOL    HW2 7073   1.818   3.370   2.783
 1878SOL     OW 7074   0.217   3.160   3.719
 1878SOL    HW1 7075   0.124   3.147   3.702
 1878SOL    HW2 7076   0.224   3.164   3.814
 1879SOL     OW 7077   0.133   3.123   2.515
 1879SOL    HW1 7078   0.057   3.079   2.554
 1879SOL    HW2 7079   0.196   3.053   2.500
 1880SOL     OW 7080   0.681   3.266   3.488
 1880SOL    HW1 7081   0.598   3.234   3.523
 1880SOL    HW2 7082   0.733   3.288   3.565
 1881SOL     OW 7083   1.789   2.032   3.099
 1881SOL    HW1 7084   1.830   1.946   3.110
 1881SOL    HW2 7085   1.802   2.052   3.006
 1882SOL     OW 7086   0.436   2.295   2.385
 1882SOL    HW1 7087   0.469   2.222   2.333
 1882SOL    HW2 7088   0.386   2.254   2.455
 1883SOL     OW 7089   1.719   3.325   2.932
 1883SOL    HW1 7090   1.627   3.312   2.911
 1883SOL    HW2 7091   1.732   3.279   3.015
 1884SOL     OW 7092   0.351   2.422   3.157
 1884SOL    HW1 7093   0.395   2.361   3.217
 1884SOL    HW2 7094   0.368   2.387   3.070
 1885SOL     OW 7095   0.839   3.442   2.535
 1885SOL    HW1 7096   0.815   3.513   2.476
 1885SOL    HW2 7097   0.761   3.386   2.538
 1886SOL     OW 7098   1.014   1.881   2.998
 1886SOL    HW1 7099   0.954   1.816   2.962
 1886SOL    HW2 7100   1.099   1.838   2.997
 1887SOL     OW 7101   0.775   3.195   2.185
 1887SOL    HW1 7102   0.753   3.102   2.198
 1887SOL    HW2 7103   0.856   3.207   2.236
 1888SOL     OW 7104   0.624   3.421   3.144
 1888SOL    HW1 7105   0.619   3.506   3.187
 1888SOL    HW2 7106   0.715   3.413   3.115
 1889SOL     OW 7107   1.359   1.913   2.042
 1889SOL    HW1 7108   1.394   1.846   1.984
 1889SOL    HW2 7109   1.270   1.884   2.061
 1890SOL     OW 7110   1.299   2.322   2.545
 1890SOL    HW1 7111   1.247   2.403   2.545
 1890SOL    HW2 7112   1.292   2.290   2.635
 1891SOL     OW 7113   1.559   2.079   2.746
 1891SOL    HW1 7114   1.466   2.095   2.761
 1891SOL    HW2 7115   1.589   2.154   2.695
 1892SOL     OW 7116   0.041   2.895   2.142
 1892SOL    HW1 7117   0.134   2.882   2.124
 1892SOL    HW2 7118   0.036   2.910   2.236
 1893SOL     OW 7119   0.890   3.526   2.195
 1893SOL    HW1 7120   0.812   3.512   2.142
 1893SOL    HW2 7121   0.866   3.596   2.255
 1894SOL     OW 7122   0.216   2.545   3.782
 1894SOL    HW1 7123   0.150   2.552   3.851
 1894SOL    HW2 7124   0.254   2.458   3.794
 1895SOL     OW 7125   0.235   2.124   4.704
 1895SOL    HW1 7126   0.256   2.099   4.794
 1895SOL    HW2 7127   0.160   2.070   4.681
 1896SOL     OW 7128   8.007   2.243   4.336
 1896SOL    HW1 7129   7.915   2.238   4.361
 1896SOL    HW2 7130   8.011   2.196   4.253
 1897SOL     OW 7131   0.566   3.159   4.909
 1897SOL    HW1 7132   0.480   3.173   4.870
 1897SOL    HW2 7133   0.591   3.243   4.946
 1898SOL     OW 7134   1.576   3.370   4.434
 1898SOL    HW1 7135   1.531   3.356   4.517
 1898SOL    HW2 7136   1.505   3.378   4.370
 1899SOL     OW 7137   1.128   2.565   4.415
 1899SOL    HW1 7138   1.181   2.644   4.402
 1899SOL    HW2 7139   1.085   2.578   4.499
 1900SOL     OW 7140   1.795   2.432   3.940
 1900SOL    HW1 7141   1.748   2.440   3.857
 1900SOL    HW2 7142   1.736   2.383   3.997
 1901SOL     OW 7143   0.729   2.990   4.767
 1901SOL    HW1 7144   0.667   3.032   4.827
 1901SOL    HW2 7145   0.779   3.063   4.731
 1902SOL     OW 7146   0.874   2.622   5.544
 1902SOL    HW1 7147   0.888   2.689   5.611
 1902SOL    HW2 7148   0.895   2.666   5.462
 1903SOL     OW 7149   0.686   2.856   4.371
 1903SOL    HW1 7150   0.756   2.851   4.436
 1903SOL    HW2 7151   0.621   2.915   4.410
 1904SOL     OW 7152   0.711   3.013   5.547
 1904SOL    HW1 7153   0.761   3.088   5.578
 1904SOL    HW2 7154   0.635   3.051   5.502
 1905SOL     OW 7155   0.341   3.277   4.790
 1905SOL    HW1 7156   0.278   3.235   4.731
 1905SOL    HW2 7157   0.391   3.337   4.734
 1906SOL     OW 7158   1.461   3.365   5.090
 1906SOL    HW1 7159   1.519   3.441   5.094
 1906SOL    HW2 7160   1.398   3.379   5.161
 1907SOL     OW 7161   0.456   2.241   5.200
 1907SOL    HW1 7162   0.541   2.198   5.207
 1907SOL    HW2 7163   0.393   2.174   5.228
 1908SOL     OW 7164   1.603   2.304   4.477
 1908SOL    HW1 7165   1.531   2.334   4.422
 1908SOL    HW2 7166   1.613   2.372   4.543
 1909SOL     OW 7167   0.229   3.564   4.205
 1909SOL    HW1 7168   0.235   3.642   4.260
 1909SOL    HW2 7169   0.297   3.575   4.139
 1910SOL     OW 7170   1.139   3.203   5.417
 1910SOL    HW1 7171   1.193   3.192   5.496
 1910SOL    HW2 7172   1.088   3.123   5.411
 1911SOL     OW 7173   0.293   3.297   4.234
 1911SOL    HW1 7174   0.271   3.389   4.248
 1911SOL    HW2 7175   0.241   3.249   4.298
 1912SOL     OW 7176   0.267   2.943   4.608
 1912SOL    HW1 7177   0.276   2.853   4.641
 1912SOL    HW2 7178   0.195   2.980   4.659
 1913SOL     OW 7179   0.619   3.640   5.150
 1913SOL    HW1 7180   0.537   3.634   5.198
 1913SOL    HW2 7181   0.633   3.734   5.140
 1914SOL     OW 7182   0.571   2.856   3.870
 1914SOL    HW1 7183   0.625   2.896   3.801
 1914SOL    HW2 7184   0.613   2.883   3.952
 1915SOL     OW 7185   1.589   1.993   5.185
 1915SOL    HW1 7186   1.634   2.066   5.143
 1915SOL    HW2 7187   1.570   2.024   5.273
 1916SOL     OW 7188   0.129   2.493   4.272
 1916SOL    HW1 7189   0.095   2.410   4.306
 1916SOL    HW2 7190   0.121   2.554   4.344
 1917SOL     OW 7191   1.849   3.612   4.056
 1917SOL    HW1 7192   1.921   3.586   4.113
 1917SOL    HW2 7193   1.865   3.704   4.037
 1918SOL     OW 7194   0.022   3.446   3.862
 1918SOL    HW1 7195   0.002   3.353   3.852
 1918SOL    HW2 7196   0.008   3.463   3.955
 1919SOL     OW 7197   1.677   2.738   4.334
 1919SOL    HW1 7198   1.749   2.759   4.393
 1919SOL    HW2 7199   1.675   2.812   4.273
 1920SOL     OW 7200   1.656   2.969   4.162
 1920SOL    HW1 7201   1.741   2.969   4.119
 1920SOL    HW2 7202   1.667   3.026   4.238
 1921SOL     OW 7203   0.149   2.625   5.317
 1921SOL    HW1 7204   0.245   2.623   5.318
 1921SOL    HW2 7205   0.126   2.703   5.368
 1922SOL     OW 7206   0.622   3.258   4.459
 1922SOL    HW1 7207   0.577   3.174   4.468
 1922SOL    HW2 7208   0.607   3.282   4.368
 1923SOL     OW 7209   1.285   3.091   5.145
 1923SOL    HW1 7210   1.319   3.028   5.082
 1923SOL    HW2 7211   1.348   3.090   5.217
 1924SOL     OW 7212   0.823   1.864   4.237
 1924SOL    HW1 7213   0.865   1.947   4.215
 1924SOL    HW2 7214   0.730   1.884   4.241
 1925SOL     OW 7215   0.167   2.773   4.990
 1925SOL    HW1 7216   0.261   2.751   4.995
 1925SOL    HW2 7217   0.148   2.775   4.896
 1926SOL     OW 7218   1.534   2.862   3.933
 1926SOL    HW1 7219   1.470   2.802   3.970
 1926SOL    HW2 7220   1.579   2.900   4.009
 1927SOL     OW 7221   1.167   3.675   5.353
 1927SOL    HW1 7222   1.185   3.741   5.286
 1927SOL    HW2 7223   1.202   3.594   5.317
 1928SOL     OW 7224   0.354   2.116   5.547
 1928SOL    HW1 7225   0.404   2.192   5.579
 1928SOL    HW2 7226   0.263   2.141   5.562
 1929SOL     OW 7227   1.447   3.289   4.667
 1929SOL    HW1 7228   1.391   3.301   4.743
 1929SOL    HW2 7229   1.442   3.195   4.648
 1930SOL     OW 7230   1.639   3.626   4.305
 1930SOL    HW1 7231   1.629   3.584   4.219
 1930SOL    HW2 7232   1.638   3.553   4.367
 1931SOL     OW 7233   0.589   2.568   3.988
 1931SOL    HW1 7234   0.606   2.655   3.953
 1931SOL    HW2 7235   0.531   2.583   4.062
 1932SOL     OW 7236   1.281   2.229   4.658
 1932SOL    HW1 7237   1.192   2.196   4.671
 1932SOL    HW2 7238   1.335   2.177   4.718
 1933SOL     OW 7239   1.582   3.530   4.047
 1933SOL    HW1 7240   1.675   3.553   4.036
 1933SOL    HW2 7241   1.549   3.520   3.958
 1934SOL     OW 7242   0.784   2.481   5.166
 1934SOL    HW1 7243   0.759   2.455   5.255
 1934SOL    HW2 7244   0.753   2.410   5.111
 1935SOL     OW 7245   1.388   2.333   5.402
 1935SOL    HW1 7246   1.395   2.382   5.484
 1935SOL    HW2 7247   1.452   2.263   5.410
 1936SOL     OW 7248   0.943   2.746   5.308
 1936SOL    HW1 7249   1.004   2.682   5.269
 1936SOL    HW2 7250   0.901   2.788   5.234
 1937SOL     OW 7251   0.994   2.269   4.957
 1937SOL    HW1 7252   0.904   2.289   4.985
 1937SOL    HW2 7253   0.985   2.239   4.867
 1938SOL     OW 7254   1.052   2.558   4.147
 1938SOL    HW1 7255   1.075   2.558   4.240
 1938SOL    HW2 7256   0.968   2.511   4.143
 1939SOL     OW 7257   0.103   2.653   4.495
 1939SOL    HW1 7258   0.183   2.664   4.546
 1939SOL    HW2 7259   0.056   2.735   4.507
 1940SOL     OW 7260   0.131   3.681   5.292
 1940SOL    HW1 7261   0.126   3.670   5.387
 1940SOL    HW2 7262   0.041   3.665   5.261
 1941SOL     OW 7263   0.898   2.212   3.918
 1941SOL    HW1 7264   0.937   2.277   3.858
 1941SOL    HW2 7265   0.931   2.128   3.886
 1942SOL     OW 7266   1.685   2.427   5.558
 1942SOL    HW1 7267   1.658   2.503   5.506
 1942SOL    HW2 7268   1.725   2.368   5.494
 1943SOL     OW 7269   1.382   2.992   4.248
 1943SOL    HW1 7270   1.470   2.994   4.210
 1943SOL    HW2 7271   1.336   3.064   4.205
 1944SOL     OW 7272   0.552   2.037   4.626
 1944SOL    HW1 7273   0.554   2.063   4.718
 1944SOL    HW2 7274   0.560   2.118   4.577
 1945SOL     OW 7275   0.995   3.294   4.191
 1945SOL    HW1 7276   0.969   3.376   4.149
 1945SOL    HW2 7277   0.987   3.311   4.285
 1946SOL     OW 7278   0.353   3.683   4.587
 1946SOL    HW1 7279   0.403   3.603   4.602
 1946SOL    HW2 7280   0.414   3.754   4.606
 1947SOL     OW 7281   1.769   2.873   4.579
 1947SOL    HW1 7282   1.767   2.954   4.528
 1947SOL    HW2 7283   1.728   2.897   4.663
 1948SOL     OW 7284   1.227   3.408   5.244
 1948SOL    HW1 7285   1.216   3.330   5.299
 1948SOL    HW2 7286   1.153   3.404   5.183
 1949SOL     OW 7287   0.307   2.813   3.962
 1949SOL    HW1 7288   0.394   2.839   3.934
 1949SOL    HW2 7289   0.287   2.736   3.909
 1950SOL     OW 7290   1.470   2.599   4.439
 1950SOL    HW1 7291   1.479   2.572   4.530
 1950SOL    HW2 7292   1.549   2.650   4.421
 1951SOL     OW 7293   0.462   3.125   5.467
 1951SOL    HW1 7294   0.441   3.129   5.374
 1951SOL    HW2 7295   0.376   3.119   5.510
 1952SOL     OW 7296   1.100   3.660   3.934
 1952SOL    HW1 7297   1.058   3.623   4.012
 1952SOL    HW2 7298   1.122   3.584   3.880
 1953SOL     OW 7299   0.180   2.124   5.221
 1953SOL    HW1 7300   0.180   2.206   5.271
 1953SOL    HW2 7301   0.168   2.056   5.286
 1954SOL     OW 7302   1.615   3.237   3.807
 1954SOL    HW1 7303   1.579   3.324   3.792
 1954SOL    HW2 7304   1.543   3.177   3.783
 1955SOL     OW 7305   0.452   3.616   4.037
 1955SOL    HW1 7306   0.494   3.663   4.110
 1955SOL    HW2 7307   0.522   3.566   3.997
 1956SOL     OW 7308   1.403   1.970   4.171
 1956SOL    HW1 7309   1.403   1.946   4.079
 1956SOL    HW2 7310   1.495   1.984   4.192
 1957SOL     OW 7311   0.254   3.626   4.954
 1957SOL    HW1 7312   0.308   3.569   5.009
 1957SOL    HW2 7313   0.310   3.648   4.880
 1958SOL     OW 7314   0.946   3.565   4.625
 1958SOL    HW1 7315   1.030   3.524   4.646
 1958SOL    HW2 7316   0.910   3.511   4.554
 1959SOL     OW 7317   0.406   2.561   4.196
 1959SOL    HW1 7318   0.420   2.468   4.211
 1959SOL    HW2 7319   0.314   2.575   4.218
 1960SOL     OW 7320   1.524   2.085   5.445
 1960SOL    HW1 7321   1.537   2.106   5.537
 1960SOL    HW2 7322   1.452   2.022   5.444
 1961SOL     OW 7323   0.646   1.977   3.829
 1961SOL    HW1 7324   0.704   1.904   3.852
 1961SOL    HW2 7325   0.595   1.944   3.755
 1962SOL     OW 7326   0.761   2.141   5.478
 1962SOL    HW1 7327   0.843   2.093   5.475
 1962SOL    HW2 7328   0.730   2.131   5.568
 1963SOL     OW 7329   0.874   3.374   4.917
 1963SOL    HW1 7330   0.860   3.336   4.830
 1963SOL    HW2 7331   0.950   3.327   4.951
 1964SOL     OW 7332   1.338   2.453   5.157
 1964SOL    HW1 7333   1.371   2.424   5.241
 1964SOL    HW2 7334   1.377   2.540   5.144
 1965SOL     OW 7335   0.823   3.236   4.674
 1965SOL    HW1 7336   0.910   3.230   4.635
 1965SOL    HW2 7337   0.765   3.252   4.600
 1966SOL     OW 7338   0.927   2.365   4.627
 1966SOL    HW1 7339   0.900   2.358   4.535
 1966SOL    HW2 7340   0.962   2.279   4.649
 1967SOL     OW 7341   0.555   1.924   4.217
 1967SOL    HW1 7342   0.476   1.925   4.271
 1967SOL    HW2 7343   0.547   2.002   4.161
 1968SOL     OW 7344   1.419   3.042   3.754
 1968SOL    HW1 7345   1.456   2.981   3.817
 1968SOL    HW2 7346   1.340   3.077   3.797
 1969SOL     OW 7347   0.285   1.911   3.898
 1969SOL    HW1 7348   0.343   1.981   3.867
 1969SOL    HW2 7349   0.343   1.853   3.948
 1970SOL     OW 7350   0.942   2.109   4.177
 1970SOL    HW1 7351   0.917   2.154   4.097
 1970SOL    HW2 7352   1.036   2.126   4.186
 1971SOL     OW 7353   1.084   2.551   5.180
 1971SOL    HW1 7354   1.029   2.473   5.185
 1971SOL    HW2 7355   1.173   2.517   5.175
 1972SOL     OW 7356   1.213   3.433   4.516
 1972SOL    HW1 7357   1.233   3.500   4.451
 1972SOL    HW2 7358   1.287   3.437   4.578
 1973SOL     OW 7359   0.474   3.020   4.446
 1973SOL    HW1 7360   0.411   2.998   4.515
 1973SOL    HW2 7361   0.429   2.998   4.364
 1974SOL     OW 7362   1.262   3.655   4.332
 1974SOL    HW1 7363   1.319   3.715   4.283
 1974SOL    HW2 7364   1.214   3.712   4.392
 1975SOL     OW 7365   1.027   2.388   3.746
 1975SOL    HW1 7366   0.985   2.472   3.729
 1975SOL    HW2 7367   1.089   2.406   3.816
 1976SOL     OW 7368   0.092   2.472   5.099
 1976SOL    HW1 7369   0.183   2.450   5.077
 1976SOL    HW2 7370   0.100   2.529   5.176
 1977SOL     OW 7371   0.550   2.085   4.899
 1977SOL    HW1 7372   0.596   2.021   4.954
 1977SOL    HW2 7373   0.459   2.081   4.928
 1978SOL     OW 7374   0.858   2.311   4.366
 1978SOL    HW1 7375   0.821   2.372   4.302
 1978SOL    HW2 7376   0.887   2.236   4.314
 1979SOL     OW 7377   1.024   1.915   4.470
 1979SOL    HW1 7378   0.962   1.911   4.397
 1979SOL    HW2 7379   0.997   1.843   4.527
 1980SOL     OW 7380   1.448   3.024   4.587
 1980SOL    HW1 7381   1.385   2.954   4.573
 1980SOL    HW2 7382   1.494   3.033   4.504
 1981SOL     OW 7383   1.465   2.473   4.690
 1981SOL    HW1 7384   1.407   2.397   4.699
 1981SOL    HW2 7385   1.526   2.466   4.764
 1982SOL     OW 7386   1.853   2.666   4.080
 1982SOL    HW1 7387   1.897   2.630   4.157
 1982SOL    HW2 7388   1.830   2.589   4.028
 1983SOL     OW 7389   0.485   3.302   3.884
 1983SOL    HW1 7390   0.403   3.269   3.920
 1983SOL    HW2 7391   0.507   3.240   3.814
 1984SOL     OW 7392   1.683   3.111   4.395
 1984SOL    HW1 7393   1.778   3.109   4.393
 1984SOL    HW2 7394   1.660   3.203   4.406
 1985SOL     OW 7395   1.388   2.438   3.791
 1985SOL    HW1 7396   1.328   2.417   3.863
 1985SOL    HW2 7397   1.475   2.431   3.830
 1986SOL     OW 7398   0.523   2.121   4.030
 1986SOL    HW1 7399   0.576   2.076   3.965
 1986SOL    HW2 7400   0.500   2.204   3.989
 1987SOL     OW 7401   1.746   3.109   5.297
 1987SOL    HW1 7402   1.830   3.073   5.270
 1987SOL    HW2 7403   1.764   3.201   5.318
 1988SOL     OW 7404   1.062   3.205   5.044
 1988SOL    HW1 7405   0.985   3.182   5.097
 1988SOL    HW2 7406   1.136   3.166   5.092
 1989SOL     OW 7407   1.605   3.488   5.377
 1989SOL    HW1 7408   1.602   3.530   5.291
 1989SOL    HW2 7409   1.690   3.444   5.379
 1990SOL     OW 7410   1.106   3.046   4.819
 1990SOL    HW1 7411   1.080   3.105   4.890
 1990SOL    HW2 7412   1.101   3.100   4.740
 1991SOL     OW 7413   1.621   2.957   4.799
 1991SOL    HW1 7414   1.613   3.019   4.871
 1991SOL    HW2 7415   1.550   2.980   4.738
 1992SOL     OW 7416   0.922   1.951   5.114
 1992SOL    HW1 7417   0.944   1.936   5.022
 1992SOL    HW2 7418   0.999   1.993   5.151
 1993SOL     OW 7419   0.982   2.978   5.446
 1993SOL    HW1 7420   0.890   2.996   5.469
 1993SOL    HW2 7421   0.978   2.899   5.392
 1994SOL     OW 7422   0.708   2.923   4.100
 1994SOL    HW1 7423   0.696   2.905   4.193
 1994SOL    HW2 7424   0.782   2.868   4.074
 1995SOL     OW 7425   0.426   2.680   4.982
 1995SOL    HW1 7426   0.494   2.696   5.047
 1995SOL    HW2 7427   0.399   2.589   4.997
 1996SOL     OW 7428   1.262   2.235   5.009
 1996SOL    HW1 7429   1.296   2.313   5.053
 1996SOL    HW2 7430   1.171   2.257   4.989
 1997SOL     OW 7431   0.050   3.454   5.044
 1997SOL    HW1 7432   0.110   3.522   5.013
 1997SOL    HW2 7433   0.089   3.423   5.126
 1998SOL     OW 7434   0.332   2.967   4.212
 1998SOL    HW1 7435   0.343   3.045   4.157
 1998SOL    HW2 7436   0.336   2.894   4.151
 1999SOL     OW 7437   0.544   2.387   4.580
 1999SOL    HW1 7438   0.559   2.446   4.507
 1999SOL    HW2 7439   0.609   2.412   4.646
 2000SOL     OW 7440   1.251   3.205   4.123
 2000SOL    HW1 7441   1.305   3.279   4.151
 2000SOL    HW2 7442   1.163   3.227   4.153
 2001SOL     OW 7443   1.287   3.325   4.888
 2001SOL    HW1 7444   1.355   3.338   4.954
 2001SOL    HW2 7445   1.220   3.274   4.933
 2002SOL     OW 7446   1.585   2.491   4.200
 2002SOL    HW1 7447   1.521   2.521   4.264
 2002SOL    HW2 7448   1.648   2.564   4.194
 2003SOL     OW 7449   0.356   3.375   5.047
 2003SOL    HW1 7450   0.335   3.340   4.961
 2003SOL    HW2 7451   0.451   3.389   5.045
 2004SOL     OW 7452   0.435   2.595   5.338
 2004SOL    HW1 7453   0.487   2.646   5.277
 2004SOL    HW2 7454   0.495   2.529   5.373
 2005SOL     OW 7455   1.601   2.639   5.414
 2005SOL    HW1 7456   1.517   2.684   5.410
 2005SOL    HW2 7457   1.655   2.682   5.348
 2006SOL     OW 7458   0.995   2.000   5.480
 2006SOL    HW1 7459   1.052   2.074   5.461
 2006SOL    HW2 7460   1.045   1.923   5.451
 2007SOL     OW 7461   0.502   1.894   5.476
 2007SOL    HW1 7462   0.457   1.843   5.409
 2007SOL    HW2 7463   0.449   1.972   5.487
 2008SOL     OW 7464   0.585   2.742   4.756
 2008SOL    HW1 7465   0.630   2.826   4.756
 2008SOL    HW2 7466   0.536   2.741   4.838
 2009SOL     OW 7467   1.340   2.722   4.731
 2009SOL    HW1 7468   1.253   2.698   4.700
 2009SOL    HW2 7469   1.390   2.640   4.725
 2010SOL     OW 7470   1.190   2.384   3.979
 2010SOL    HW1 7471   1.203   2.310   4.038
 2010SOL    HW2 7472   1.156   2.454   4.036
 2011SOL     OW 7473   0.281   2.052   4.969
 2011SOL    HW1 7474   0.248   2.085   5.053
 2011SOL    HW2 7475   0.271   1.957   4.976
 2012SOL     OW 7476   0.054   3.170   4.992
 2012SOL    HW1 7477   0.073   3.123   5.073
 2012SOL    HW2 7478   0.056   3.262   5.017
 2013SOL     OW 7479   0.710   2.487   4.771
 2013SOL    HW1 7480   0.794   2.477   4.725
 2013SOL    HW2 7481   0.687   2.580   4.760
 2014SOL     OW 7482   1.742   2.813   5.590
 2014SOL    HW1 7483   1.692   2.754   5.535
 2014SOL    HW2 7484   1.682   2.838   5.660
 2015SOL     OW 7485   0.310   1.927   4.341
 2015SOL    HW1 7486   0.287   2.018   4.362
 2015SOL    HW2 7487   0.320   1.885   4.426
 2016SOL     OW 7488   1.620   2.251   4.079
 2016SOL    HW1 7489   1.644   2.186   4.145
 2016SOL    HW2 7490   1.598   2.330   4.130
 2017SOL     OW 7491   1.028   2.616   4.678
 2017SOL    HW1 7492   1.018   2.635   4.771
 2017SOL    HW2 7493   1.002   2.524   4.669
 2018SOL     OW 7494   0.974   3.417   5.450
 2018SOL    HW1 7495   0.962   3.466   5.368
 2018SOL    HW2 7496   1.027   3.341   5.425
 2019SOL     OW 7497   1.849   3.365   5.322
 2019SOL    HW1 7498   1.872   3.402   5.237
 2019SOL    HW2 7499   1.926   3.380   5.377
 2020SOL     OW 7500   0.353   2.795   5.529
 2020SOL    HW1 7501   0.432   2.828   5.571
 2020SOL    HW2 7502   0.383   2.723   5.474
 2021SOL     OW 7503   1.540   2.126   3.848
 2021SOL    HW1 7504   1.475   2.063   3.880
 2021SOL    HW2 7505   1.568   2.173   3.927
 2022SOL     OW 7506   1.274   2.685   3.744
 2022SOL    HW1 7507   1.322   2.603   3.754
 2022SOL    HW2 7508   1.314   2.728   3.669
 2023SOL     OW 7509   1.073   3.201   4.582
 2023SOL    HW1 7510   1.084   3.132   4.517
 2023SOL    HW2 7511   1.129   3.272   4.550
 2024SOL     OW 7512   0.322   2.669   4.666
 2024SOL    HW1 7513   0.414   2.695   4.672
 2024SOL    HW2 7514   0.319   2.582   4.705
 2025SOL     OW 7515   0.327   2.378   4.738
 2025SOL    HW1 7516   0.296   2.289   4.721
 2025SOL    HW2 7517   0.403   2.389   4.681
 2026SOL     OW 7518   1.134   2.232   5.416
 2026SOL    HW1 7519   1.088   2.289   5.478
 2026SOL    HW2 7520   1.221   2.270   5.408
 2027SOL     OW 7521   1.161   2.058   5.200
 2027SOL    HW1 7522   1.150   2.121   5.271
 2027SOL    HW2 7523   1.206   2.107   5.131
 2028SOL     OW 7524   7.979   3.163   3.920
 2028SOL    HW1 7525   7.891   3.185   3.951
 2028SOL    HW2 7526   7.988   3.069   3.937
 2029SOL     OW 7527   0.074   3.595   4.613
 2029SOL    HW1 7528   0.124   3.516   4.634
 2029SOL    HW2 7529   0.138   3.665   4.615
 2030SOL     OW 7530   0.492   3.439   4.629
 2030SOL    HW1 7531   0.556   3.503   4.659
 2030SOL    HW2 7532   0.541   3.380   4.572
 2031SOL     OW 7533   0.966   2.639   4.943
 2031SOL    HW1 7534   1.035   2.629   5.009
 2031SOL    HW2 7535   0.886   2.615   4.989
 2032SOL     OW 7536   0.068   2.375   4.849
 2032SOL    HW1 7537   0.161   2.382   4.825
 2032SOL    HW2 7538   0.063   2.413   4.936
 2033SOL     OW 7539   0.201   2.354   5.371
 2033SOL    HW1 7540   0.295   2.364   5.356
 2033SOL    HW2 7541   0.170   2.443   5.389
 2034SOL     OW 7542   1.378   2.795   5.377
 2034SOL    HW1 7543   1.406   2.887   5.375
 2034SOL    HW2 7544   1.379   2.768   5.285
 2035SOL     OW 7545   0.813   2.424   4.096
 2035SOL    HW1 7546   0.823   2.354   4.031
 2035SOL    HW2 7547   0.741   2.478   4.063
 2036SOL     OW 7548   1.645   2.449   4.891
 2036SOL    HW1 7549   1.639   2.407   4.977
 2036SOL    HW2 7550   1.736   2.436   4.864
 2037SOL     OW 7551   0.288   3.394   5.442
 2037SOL    HW1 7552   0.251   3.469   5.489
 2037SOL    HW2 7553   0.281   3.321   5.503
 2038SOL     OW 7554   0.710   2.305   4.972
 2038SOL    HW1 7555   0.653   2.234   4.945
 2038SOL    HW2 7556   0.702   2.370   4.902
 2039SOL     OW 7557   0.922   3.534   5.200
 2039SOL    HW1 7558   0.885   3.502   5.118
 2039SOL    HW2 7559   0.920   3.629   5.191
 2040SOL     OW 7560   0.449   2.346   3.889
 2040SOL    HW1 7561   0.505   2.421   3.910
 2040SOL    HW2 7562   0.369   2.360   3.940
 2041SOL     OW 7563   0.149   2.978   5.180
 2041SOL    HW1 7564   0.131   2.933   5.262
 2041SOL    HW2 7565   0.154   2.909   5.114
 2042SOL     OW 7566   1.306   2.896   4.939
 2042SOL    HW1 7567   1.337   2.841   4.867
 2042SOL    HW2 7568   1.237   2.950   4.900
 2043SOL     OW 7569   1.324   2.705   4.021
 2043SOL    HW1 7570   1.251   2.699   4.082
 2043SOL    HW2 7571   1.284   2.705   3.934
 2044SOL     OW 7572   1.732   3.593   4.848
 2044SOL    HW1 7573   1.804   3.641   4.807
 2044SOL    HW2 7574   1.751   3.501   4.831
 2045SOL     OW 7575   1.236   3.590   4.807
 2045SOL    HW1 7576   1.322   3.621   4.778
 2045SOL    HW2 7577   1.253   3.501   4.841
 2046SOL     OW 7578   0.056   3.046   4.756
 2046SOL    HW1 7579   0.063   3.087   4.842
 2046SOL    HW2 7580  -0.011   3.098   4.711
 2047SOL     OW 7581   0.681   3.535   5.467
 2047SOL    HW1 7582   0.619   3.607   5.458
 2047SOL    HW2 7583   0.750   3.554   5.403
 2048SOL     OW 7584   1.707   2.017   4.220
 2048SOL    HW1 7585   1.782   2.000   4.163
 2048SOL    HW2 7586   1.693   1.934   4.267
 2049SOL     OW 7587   1.388   3.428   4.217
 2049SOL    HW1 7588   1.453   3.459   4.154
 2049SOL    HW2 7589   1.345   3.507   4.249
 2050SOL     OW 7590   0.173   3.603   5.566
 2050SOL    HW1 7591   0.107   3.559   5.621
 2050SOL    HW2 7592   0.219   3.661   5.627
 2051SOL     OW 7593   1.277   2.789   4.387
 2051SOL    HW1 7594   1.351   2.730   4.403
 2051SOL    HW2 7595   1.314   2.859   4.334
 2052SOL     OW 7596   0.807   3.143   5.150
 2052SOL    HW1 7597   0.779   3.182   5.232
 2052SOL    HW2 7598   0.744   3.175   5.085
 2053SOL     OW 7599   0.665   3.504   3.859
 2053SOL    HW1 7600   0.722   3.461   3.794
 2053SOL    HW2 7601   0.598   3.438   3.878
 2054SOL     OW 7602   1.610   3.588   5.106
 2054SOL    HW1 7603   1.665   3.594   5.028
 2054SOL    HW2 7604   1.593   3.679   5.131
 2055SOL     OW 7605   1.841   2.029   4.690
 2055SOL    HW1 7606   1.872   1.942   4.666
 2055SOL    HW2 7607   1.754   2.035   4.650
 2056SOL     OW 7608   0.261   2.178   4.430
 2056SOL    HW1 7609   0.174   2.211   4.410
 2056SOL    HW2 7610   0.264   2.173   4.525
 2057SOL     OW 7611   1.158   3.439   3.776
 2057SOL    HW1 7612   1.252   3.453   3.777
 2057SOL    HW2 7613   1.130   3.472   3.690
 2058SOL     OW 7614   0.827   2.875   5.096
 2058SOL    HW1 7615   0.875   2.874   5.013
 2058SOL    HW2 7616   0.820   2.968   5.118
 2059SOL     OW 7617   0.903   2.760   4.017
 2059SOL    HW1 7618   0.959   2.791   3.946
 2059SOL    HW2 7619   0.959   2.700   4.067
 2060SOL     OW 7620   0.366   3.152   5.218
 2060SOL    HW1 7621   0.357   3.233   5.167
 2060SOL    HW2 7622   0.288   3.101   5.196
 2061SOL     OW 7623   1.596   3.143   4.995
 2061SOL    HW1 7624   1.682   3.146   5.036
 2061SOL    HW2 7625   1.546   3.212   5.039
 2062SOL     OW 7626   1.065   2.973   4.430
 2062SOL    HW1 7627   0.997   2.922   4.473
 2062SOL    HW2 7628   1.134   2.909   4.410
 2063SOL     OW 7629   1.026   2.106   4.689
 2063SOL    HW1 7630   1.028   2.057   4.606
 2063SOL    HW2 7631   1.021   2.038   4.756
 2064SOL     OW 7632   0.606   3.339   4.197
 2064SOL    HW1 7633   0.658   3.293   4.131
 2064SOL    HW2 7634   0.516   3.335   4.164
 2065SOL     OW 7635   1.730   2.253   5.114
 2065SOL    HW1 7636   1.803   2.316   5.116
 2065SOL    HW2 7637   1.757   2.187   5.050
 2066SOL     OW 7638   0.245   3.202   3.990
 2066SOL    HW1 7639   0.150   3.207   3.983
 2066SOL    HW2 7640   0.264   3.240   4.076
 2067SOL     OW 7641   0.095   2.862   5.442
 2067SOL    HW1 7642   0.062   2.949   5.460
 2067SOL    HW2 7643   0.179   2.858   5.487
 2068SOL     OW 7644   0.681   2.055   5.222
 2068SOL    HW1 7645   0.767   2.034   5.184
 2068SOL    HW2 7646   0.702   2.085   5.311
 2069SOL     OW 7647   0.111   2.221   3.738
 2069SOL    HW1 7648   0.041   2.261   3.791
 2069SOL    HW2 7649   0.118   2.278   3.662
 2070SOL     OW 7650   1.419   2.716   5.117
 2070SOL    HW1 7651   1.371   2.779   5.063
 2070SOL    HW2 7652   1.510   2.724   5.087
 2071SOL     OW 7653   0.088   2.102   4.090
 2071SOL    HW1 7654   0.042   2.083   4.009
 2071SOL    HW2 7655   0.171   2.055   4.082
 2072SOL     OW 7656   1.191   3.168   3.854
 2072SOL    HW1 7657   1.170   3.260   3.838
 2072SOL    HW2 7658   1.213   3.164   3.947
 2073SOL     OW 7659   0.624   2.700   5.163
 2073SOL    HW1 7660   0.680   2.776   5.148
 2073SOL    HW2 7661   0.685   2.626   5.168
 2074SOL     OW 7662   1.488   3.652   4.713
 2074SOL    HW1 7663   1.507   3.721   4.650
 2074SOL    HW2 7664   1.570   3.637   4.759
 2075SOL     OW 7665   0.703   2.430   5.423
 2075SOL    HW1 7666   0.754   2.492   5.476
 2075SOL    HW2 7667   0.730   2.344   5.455
 2076SOL     OW 7668   1.476   3.053   5.347
 2076SOL    HW1 7669   1.467   3.070   5.441
 2076SOL    HW2 7670   1.568   3.074   5.328
 2077SOL     OW 7671   0.387   3.601   5.285
 2077SOL    HW1 7672   0.299   3.635   5.269
 2077SOL    HW2 7673   0.373   3.514   5.322
 2078SOL     OW 7674   1.656   2.742   4.973
 2078SOL    HW1 7675   1.667   2.662   4.922
 2078SOL    HW2 7676   1.652   2.812   4.909
 2079SOL     OW 7677   1.213   2.178   4.177
 2079SOL    HW1 7678   1.277   2.107   4.176
 2079SOL    HW2 7679   1.236   2.231   4.253
 2080SOL     OW 7680   0.593   2.591   4.400
 2080SOL    HW1 7681   0.635   2.677   4.395
 2080SOL    HW2 7682   0.530   2.590   4.327
 2081SOL     OW 7683   1.759   2.216   5.389
 2081SOL    HW1 7684   1.753   2.236   5.296
 2081SOL    HW2 7685   1.681   2.165   5.408
 2082SOL     OW 7686   1.725   2.793   5.237
 2082SOL    HW1 7687   1.750   2.884   5.254
 2082SOL    HW2 7688   1.722   2.787   5.142
 2083SOL     OW 7689   0.798   3.262   3.758
 2083SOL    HW1 7690   0.810   3.243   3.851
 2083SOL    HW2 7691   0.882   3.296   3.729
 2084SOL     OW 7692   0.658   3.643   4.689
 2084SOL    HW1 7693   0.639   3.721   4.741
 2084SOL    HW2 7694   0.753   3.642   4.681
 2085SOL     OW 7695   0.873   2.832   4.575
 2085SOL    HW1 7696   0.926   2.762   4.614
 2085SOL    HW2 7697   0.835   2.877   4.651
 2086SOL     OW 7698   1.050   2.824   3.802
 2086SOL    HW1 7699   1.055   2.909   3.758
 2086SOL    HW2 7700   1.132   2.780   3.779
 2087SOL     OW 7701   1.852   3.382   4.544
 2087SOL    HW1 7702   1.767   3.397   4.502
 2087SOL    HW2 7703   1.829   3.358   4.634
 2088SOL     OW 7704   0.214   3.155   5.580
 2088SOL    HW1 7705   0.120   3.147   5.564
 2088SOL    HW2 7706   0.222   3.161   5.675
 2089SOL     OW 7707   0.131   3.120   4.370
 2089SOL    HW1 7708   0.057   3.076   4.412
 2089SOL    HW2 7709   0.197   3.052   4.360
 2090SOL     OW 7710   0.682   3.269   5.359
 2090SOL    HW1 7711   0.597   3.237   5.389
 2090SOL    HW2 7712   0.688   3.358   5.394
 2091SOL     OW 7713   1.794   2.044   4.958
 2091SOL    HW1 7714   1.833   1.959   4.980
 2091SOL    HW2 7715   1.811   2.055   4.865
 2092SOL     OW 7716   0.431   2.298   4.243
 2092SOL    HW1 7717   0.471   2.225   4.196
 2092SOL    HW2 7718   0.384   2.257   4.316
 2093SOL     OW 7719   1.723   3.317   4.782
 2093SOL    HW1 7720   1.629   3.312   4.770
 2093SOL    HW2 7721   1.738   3.274   4.866
 2094SOL     OW 7722   0.348   2.418   5.021
 2094SOL    HW1 7723   0.395   2.360   5.081
 2094SOL    HW2 7724   0.370   2.386   4.934
 2095SOL     OW 7725   0.837   3.436   4.404
 2095SOL    HW1 7726   0.811   3.489   4.328
 2095SOL    HW2 7727   0.762   3.377   4.419
 2096SOL     OW 7728   1.433   2.096   4.846
 2096SOL    HW1 7729   1.486   2.039   4.900
 2096SOL    HW2 7730   1.378   2.144   4.908
 2097SOL     OW 7731   1.010   1.877   4.854
 2097SOL    HW1 7732   0.956   1.812   4.809
 2097SOL    HW2 7733   1.098   1.840   4.854
 2098SOL     OW 7734   0.786   3.189   4.034
 2098SOL    HW1 7735   0.763   3.099   4.057
 2098SOL    HW2 7736   0.863   3.209   4.087
 2099SOL     OW 7737   0.625   3.409   5.011
 2099SOL    HW1 7738   0.624   3.491   5.061
 2099SOL    HW2 7739   0.712   3.406   4.972
 2100SOL     OW 7740   1.366   1.911   3.899
 2100SOL    HW1 7741   1.404   1.832   3.861
 2100SOL    HW2 7742   1.275   1.888   3.917
 2101SOL     OW 7743   1.281   2.322   4.397
 2101SOL    HW1 7744   1.240   2.408   4.404
 2101SOL    HW2 7745   1.286   2.291   4.487
 2102SOL     OW 7746   1.578   2.052   4.609
 2102SOL    HW1 7747   1.527   2.079   4.685
 2102SOL    HW2 7748   1.582   2.130   4.553
 2103SOL     OW 7749   0.042   2.896   4.005
 2103SOL    HW1 7750   0.135   2.882   3.987
 2103SOL    HW2 7751   0.038   2.912   4.099
 2104SOL     OW 7752   0.882   3.514   4.075
 2104SOL    HW1 7753   0.808   3.504   4.015
 2104SOL    HW2 7754   0.862   3.593   4.125
 2105SOL     OW 7755   0.190   2.516   5.628
 2105SOL    HW1 7756   0.134   2.543   5.701
 2105SOL    HW2 7757   0.254   2.457   5.668
 2106SOL     OW 7758   0.237   2.133   6.573
 2106SOL    HW1 7759   0.263   2.107   6.661
 2106SOL    HW2 7760   0.152   2.091   6.559
 2107SOL     OW 7761   8.003   2.248   6.193
 2107SOL    HW1 7762   7.913   2.238   6.223
 2107SOL    HW2 7763   8.008   2.194   6.114
 2108SOL     OW 7764   0.555   3.157   6.771
 2108SOL    HW1 7765   0.477   3.180   6.719
 2108SOL    HW2 7766   0.585   3.240   6.807
 2109SOL     OW 7767   1.581   3.369   6.293
 2109SOL    HW1 7768   1.534   3.356   6.375
 2109SOL    HW2 7769   1.512   3.380   6.227
 2110SOL     OW 7770   1.127   2.570   6.278
 2110SOL    HW1 7771   1.181   2.648   6.265
 2110SOL    HW2 7772   1.084   2.584   6.362
 2111SOL     OW 7773   1.769   2.456   5.811
 2111SOL    HW1 7774   1.743   2.453   5.720
 2111SOL    HW2 7775   1.735   2.375   5.849
 2112SOL     OW 7776   0.728   2.996   6.628
 2112SOL    HW1 7777   0.666   3.037   6.688
 2112SOL    HW2 7778   0.775   3.069   6.588
 2113SOL     OW 7779   0.875   2.621   7.406
 2113SOL    HW1 7780   0.883   2.690   7.472
 2113SOL    HW2 7781   0.897   2.664   7.324
 2114SOL     OW 7782   0.686   2.856   6.233
 2114SOL    HW1 7783   0.756   2.852   6.297
 2114SOL    HW2 7784   0.622   2.916   6.271
 2115SOL     OW 7785   0.709   3.011   7.408
 2115SOL    HW1 7786   0.758   3.087   7.439
 2115SOL    HW2 7787   0.634   3.049   7.362
 2116SOL     OW 7788   0.340   3.278   6.644
 2116SOL    HW1 7789   0.266   3.253   6.589
 2116SOL    HW2 7790   0.391   3.338   6.590
 2117SOL     OW 7791   1.464   3.369   6.953
 2117SOL    HW1 7792   1.522   3.445   6.951
 2117SOL    HW2 7793   1.412   3.380   7.032
 2118SOL     OW 7794   0.450   2.250   7.069
 2118SOL    HW1 7795   0.533   2.201   7.074
 2118SOL    HW2 7796   0.383   2.183   7.081
 2119SOL     OW 7797   1.608   2.303   6.332
 2119SOL    HW1 7798   1.559   2.338   6.257
 2119SOL    HW2 7799   1.617   2.377   6.392
 2120SOL     OW 7800   0.249   3.555   6.074
 2120SOL    HW1 7801   0.242   3.641   6.115
 2120SOL    HW2 7802   0.311   3.568   6.002
 2121SOL     OW 7803   1.138   3.201   7.281
 2121SOL    HW1 7804   1.195   3.189   7.358
 2121SOL    HW2 7805   1.087   3.121   7.275
 2122SOL     OW 7806   0.249   3.287   6.099
 2122SOL    HW1 7807   0.256   3.382   6.108
 2122SOL    HW2 7808   0.225   3.257   6.187
 2123SOL     OW 7809   0.274   2.955   6.520
 2123SOL    HW1 7810   0.252   2.887   6.456
 2123SOL    HW2 7811   0.198   3.012   6.521
 2124SOL     OW 7812   0.592   3.666   6.987
 2124SOL    HW1 7813   0.519   3.644   7.046
 2124SOL    HW2 7814   0.628   3.747   7.024
 2125SOL     OW 7815   0.575   2.856   5.731
 2125SOL    HW1 7816   0.625   2.899   5.662
 2125SOL    HW2 7817   0.618   2.884   5.812
 2126SOL     OW 7818   1.587   1.992   7.046
 2126SOL    HW1 7819   1.638   2.056   6.996
 2126SOL    HW2 7820   1.572   2.033   7.131
 2127SOL     OW 7821   0.135   2.493   6.138
 2127SOL    HW1 7822   0.096   2.411   6.168
 2127SOL    HW2 7823   0.113   2.556   6.206
 2128SOL     OW 7824   1.845   3.614   5.928
 2128SOL    HW1 7825   1.921   3.589   5.981
 2128SOL    HW2 7826   1.863   3.704   5.901
 2129SOL     OW 7827   0.017   3.446   5.728
 2129SOL    HW1 7828  -0.002   3.353   5.717
 2129SOL    HW2 7829   0.003   3.463   5.821
 2130SOL     OW 7830   1.681   2.757   6.220
 2130SOL    HW1 7831   1.774   2.739   6.230
 2130SOL    HW2 7832   1.676   2.815   6.144
 2131SOL     OW 7833   1.652   2.967   6.023
 2131SOL    HW1 7834   1.738   2.965   5.980
 2131SOL    HW2 7835   1.664   3.024   6.099
 2132SOL     OW 7836   0.151   2.624   7.176
 2132SOL    HW1 7837   0.247   2.628   7.169
 2132SOL    HW2 7838   0.127   2.702   7.226
 2133SOL     OW 7839   0.612   3.257   6.322
 2133SOL    HW1 7840   0.572   3.170   6.327
 2133SOL    HW2 7841   0.600   3.284   6.231
 2134SOL     OW 7842   1.286   3.093   7.008
 2134SOL    HW1 7843   1.316   3.027   6.945
 2134SOL    HW2 7844   1.352   3.091   7.078
 2135SOL     OW 7845   0.823   1.864   6.103
 2135SOL    HW1 7846   0.865   1.946   6.078
 2135SOL    HW2 7847   0.730   1.885   6.105
 2136SOL     OW 7848   1.528   2.868   5.790
 2136SOL    HW1 7849   1.464   2.808   5.827
 2136SOL    HW2 7850   1.576   2.902   5.866
 2137SOL     OW 7851   1.155   3.669   7.211
 2137SOL    HW1 7852   1.183   3.737   7.150
 2137SOL    HW2 7853   1.192   3.588   7.175
 2138SOL     OW 7854   0.352   2.113   7.419
 2138SOL    HW1 7855   0.401   2.192   7.443
 2138SOL    HW2 7856   0.260   2.136   7.433
 2139SOL     OW 7857   1.456   3.286   6.528
 2139SOL    HW1 7858   1.397   3.299   6.602
 2139SOL    HW2 7859   1.447   3.193   6.506
 2140SOL     OW 7860   1.640   3.627   6.163
 2140SOL    HW1 7861   1.646   3.587   6.077
 2140SOL    HW2 7862   1.642   3.553   6.224
 2141SOL     OW 7863   0.589   2.571   5.850
 2141SOL    HW1 7864   0.605   2.657   5.810
 2141SOL    HW2 7865   0.532   2.590   5.925
 2142SOL     OW 7866   1.280   2.236   6.524
 2142SOL    HW1 7867   1.192   2.199   6.532
 2142SOL    HW2 7868   1.335   2.182   6.581
 2143SOL     OW 7869   1.581   3.529   5.894
 2143SOL    HW1 7870   1.673   3.554   5.890
 2143SOL    HW2 7871   1.556   3.513   5.803
 2144SOL     OW 7872   0.774   2.489   7.023
 2144SOL    HW1 7873   0.755   2.462   7.112
 2144SOL    HW2 7874   0.750   2.414   6.969
 2145SOL     OW 7875   1.386   2.334   7.261
 2145SOL    HW1 7876   1.394   2.382   7.344
 2145SOL    HW2 7877   1.451   2.264   7.268
 2146SOL     OW 7878   0.943   2.744   7.170
 2146SOL    HW1 7879   1.001   2.678   7.131
 2146SOL    HW2 7880   0.899   2.784   7.095
 2147SOL     OW 7881   0.993   2.268   6.817
 2147SOL    HW1 7882   0.900   2.283   6.838
 2147SOL    HW2 7883   0.992   2.235   6.727
 2148SOL     OW 7884   1.054   2.558   6.009
 2148SOL    HW1 7885   1.076   2.558   6.102
 2148SOL    HW2 7886   0.971   2.511   6.004
 2149SOL     OW 7887   0.079   2.661   6.359
 2149SOL    HW1 7888   0.149   2.678   6.423
 2149SOL    HW2 7889   0.038   2.747   6.345
 2150SOL     OW 7890   0.123   3.678   7.151
 2150SOL    HW1 7891   0.126   3.673   7.247
 2150SOL    HW2 7892   0.032   3.656   7.129
 2151SOL     OW 7893   0.902   2.206   5.774
 2151SOL    HW1 7894   0.937   2.276   5.720
 2151SOL    HW2 7895   0.947   2.127   5.744
 2152SOL     OW 7896   1.687   2.429   7.421
 2152SOL    HW1 7897   1.660   2.505   7.369
 2152SOL    HW2 7898   1.725   2.369   7.358
 2153SOL     OW 7899   1.378   2.996   6.109
 2153SOL    HW1 7900   1.465   2.992   6.069
 2153SOL    HW2 7901   1.333   3.066   6.061
 2154SOL     OW 7902   0.555   2.035   6.484
 2154SOL    HW1 7903   0.557   2.066   6.575
 2154SOL    HW2 7904   0.561   2.114   6.432
 2155SOL     OW 7905   0.995   3.304   6.051
 2155SOL    HW1 7906   0.968   3.382   6.002
 2155SOL    HW2 7907   0.982   3.328   6.143
 2156SOL     OW 7908   0.366   3.691   6.452
 2156SOL    HW1 7909   0.415   3.609   6.463
 2156SOL    HW2 7910   0.431   3.759   6.468
 2157SOL     OW 7911   1.794   2.897   6.477
 2157SOL    HW1 7912   1.757   2.934   6.397
 2157SOL    HW2 7913   1.725   2.907   6.543
 2158SOL     OW 7914   1.219   3.406   7.109
 2158SOL    HW1 7915   1.210   3.329   7.164
 2158SOL    HW2 7916   1.181   3.381   7.025
 2159SOL     OW 7917   0.313   2.822   5.831
 2159SOL    HW1 7918   0.401   2.850   5.804
 2159SOL    HW2 7919   0.289   2.754   5.768
 2160SOL     OW 7920   1.473   2.613   6.310
 2160SOL    HW1 7921   1.483   2.576   6.397
 2160SOL    HW2 7922   1.552   2.664   6.295
 2161SOL     OW 7923   0.460   3.126   7.321
 2161SOL    HW1 7924   0.437   3.116   7.229
 2161SOL    HW2 7925   0.377   3.120   7.368
 2162SOL     OW 7926   1.122   3.644   5.808
 2162SOL    HW1 7927   1.049   3.601   5.853
 2162SOL    HW2 7928   1.150   3.581   5.742
 2163SOL     OW 7929   0.179   2.138   7.079
 2163SOL    HW1 7930   0.158   2.228   7.105
 2163SOL    HW2 7931   0.162   2.087   7.158
 2164SOL     OW 7932   1.616   3.242   5.687
 2164SOL    HW1 7933   1.584   3.329   5.663
 2164SOL    HW2 7934   1.550   3.182   5.652
 2165SOL     OW 7935   0.463   3.604   5.899
 2165SOL    HW1 7936   0.510   3.660   5.961
 2165SOL    HW2 7937   0.531   3.571   5.841
 2166SOL     OW 7938   1.403   1.968   6.036
 2166SOL    HW1 7939   1.399   1.946   5.943
 2166SOL    HW2 7940   1.496   1.983   6.053
 2167SOL     OW 7941   0.231   3.652   6.805
 2167SOL    HW1 7942   0.287   3.580   6.836
 2167SOL    HW2 7943   0.202   3.624   6.718
 2168SOL     OW 7944   0.949   3.559   6.484
 2168SOL    HW1 7945   1.037   3.523   6.494
 2168SOL    HW2 7946   0.909   3.509   6.413
 2169SOL     OW 7947   0.406   2.558   6.064
 2169SOL    HW1 7948   0.424   2.465   6.077
 2169SOL    HW2 7949   0.312   2.567   6.083
 2170SOL     OW 7950   1.526   2.090   7.307
 2170SOL    HW1 7951   1.537   2.108   7.401
 2170SOL    HW2 7952   1.459   2.022   7.303
 2171SOL     OW 7953   0.635   1.970   5.702
 2171SOL    HW1 7954   0.714   1.915   5.707
 2171SOL    HW2 7955   0.591   1.941   5.622
 2172SOL     OW 7956   0.761   2.142   7.340
 2172SOL    HW1 7957   0.844   2.094   7.338
 2172SOL    HW2 7958   0.731   2.135   7.430
 2173SOL     OW 7959   0.865   3.364   6.785
 2173SOL    HW1 7960   0.857   3.336   6.694
 2173SOL    HW2 7961   0.949   3.326   6.814
 2174SOL     OW 7962   1.336   2.455   7.017
 2174SOL    HW1 7963   1.371   2.425   7.101
 2174SOL    HW2 7964   1.377   2.541   7.003
 2175SOL     OW 7965   0.818   3.240   6.531
 2175SOL    HW1 7966   0.906   3.234   6.494
 2175SOL    HW2 7967   0.762   3.259   6.456
 2176SOL     OW 7968   0.923   2.364   6.488
 2176SOL    HW1 7969   0.899   2.358   6.395
 2176SOL    HW2 7970   0.960   2.279   6.509
 2177SOL     OW 7971   0.555   1.924   6.080
 2177SOL    HW1 7972   0.475   1.925   6.132
 2177SOL    HW2 7973   0.548   2.002   6.024
 2178SOL     OW 7974   1.421   3.059   5.618
 2178SOL    HW1 7975   1.455   2.990   5.675
 2178SOL    HW2 7976   1.341   3.089   5.662
 2179SOL     OW 7977   0.285   1.910   5.760
 2179SOL    HW1 7978   0.343   1.976   5.723
 2179SOL    HW2 7979   0.343   1.852   5.809
 2180SOL     OW 7980   0.942   2.108   6.039
 2180SOL    HW1 7981   0.916   2.149   5.956
 2180SOL    HW2 7982   1.036   2.124   6.046
 2181SOL     OW 7983   1.081   2.545   7.046
 2181SOL    HW1 7984   1.031   2.464   7.040
 2181SOL    HW2 7985   1.173   2.517   7.038
 2182SOL     OW 7986   1.209   3.445   6.385
 2182SOL    HW1 7987   1.228   3.505   6.313
 2182SOL    HW2 7988   1.285   3.452   6.443
 2183SOL     OW 7989   0.474   3.016   6.317
 2183SOL    HW1 7990   0.415   3.006   6.392
 2183SOL    HW2 7991   0.418   3.000   6.241
 2184SOL     OW 7992   1.263   3.654   6.199
 2184SOL    HW1 7993   1.318   3.711   6.144
 2184SOL    HW2 7994   1.208   3.715   6.248
 2185SOL     OW 7995   1.022   2.393   5.615
 2185SOL    HW1 7996   0.984   2.478   5.594
 2185SOL    HW2 7997   1.091   2.413   5.678
 2186SOL     OW 7998   0.100   2.448   6.972
 2186SOL    HW1 7999   0.191   2.436   6.944
 2186SOL    HW2 8000   0.106   2.511   7.044
 2187SOL     OW 8001   0.558   2.087   6.758
 2187SOL    HW1 8002   0.603   2.017   6.805
 2187SOL    HW2 8003   0.467   2.082   6.787
 2188SOL     OW 8004   0.859   2.312   6.225
 2188SOL    HW1 8005   0.824   2.371   6.158
 2188SOL    HW2 8006   0.890   2.236   6.177
 2189SOL     OW 8007   1.012   1.923   6.340
 2189SOL    HW1 8008   0.959   1.916   6.261
 2189SOL    HW2 8009   0.992   1.845   6.390
 2190SOL     OW 8010   1.452   3.024   6.440
 2190SOL    HW1 8011   1.383   2.966   6.406
 2190SOL    HW2 8012   1.509   3.039   6.364
 2191SOL     OW 8013   1.468   2.474   6.553
 2191SOL    HW1 8014   1.412   2.397   6.555
 2191SOL    HW2 8015   1.527   2.464   6.627
 2192SOL     OW 8016   1.837   2.671   5.962
 2192SOL    HW1 8017   1.893   2.626   6.025
 2192SOL    HW2 8018   1.814   2.604   5.898
 2193SOL     OW 8019   0.490   3.282   5.728
 2193SOL    HW1 8020   0.410   3.252   5.771
 2193SOL    HW2 8021   0.494   3.230   5.648
 2194SOL     OW 8022   1.678   3.106   6.260
 2194SOL    HW1 8023   1.774   3.101   6.259
 2194SOL    HW2 8024   1.659   3.200   6.264
 2195SOL     OW 8025   1.392   2.441   5.652
 2195SOL    HW1 8026   1.341   2.414   5.728
 2195SOL    HW2 8027   1.483   2.428   5.679
 2196SOL     OW 8028   0.520   2.123   5.896
 2196SOL    HW1 8029   0.569   2.071   5.832
 2196SOL    HW2 8030   0.502   2.206   5.852
 2197SOL     OW 8031   1.747   3.110   7.164
 2197SOL    HW1 8032   1.829   3.073   7.132
 2197SOL    HW2 8033   1.767   3.202   7.182
 2198SOL     OW 8034   1.063   3.208   6.914
 2198SOL    HW1 8035   0.987   3.182   6.966
 2198SOL    HW2 8036   1.138   3.166   6.957
 2199SOL     OW 8037   1.602   3.482   7.236
 2199SOL    HW1 8038   1.600   3.533   7.155
 2199SOL    HW2 8039   1.688   3.440   7.235
 2200SOL     OW 8040   1.111   3.056   6.684
 2200SOL    HW1 8041   1.077   3.114   6.752
 2200SOL    HW2 8042   1.102   3.106   6.603
 2201SOL     OW 8043   1.604   2.949   6.665
 2201SOL    HW1 8044   1.597   3.014   6.735
 2201SOL    HW2 8045   1.537   2.974   6.602
 2202SOL     OW 8046   0.919   1.951   6.975
 2202SOL    HW1 8047   0.941   1.933   6.883
 2202SOL    HW2 8048   0.998   1.992   7.010
 2203SOL     OW 8049   0.981   2.976   7.310
 2203SOL    HW1 8050   0.890   2.993   7.332
 2203SOL    HW2 8051   0.978   2.898   7.254
 2204SOL     OW 8052   0.710   2.919   5.962
 2204SOL    HW1 8053   0.699   2.900   6.055
 2204SOL    HW2 8054   0.785   2.866   5.935
 2205SOL     OW 8055   0.388   2.696   6.860
 2205SOL    HW1 8056   0.463   2.712   6.918
 2205SOL    HW2 8057   0.372   2.602   6.867
 2206SOL     OW 8058   1.261   2.232   6.877
 2206SOL    HW1 8059   1.296   2.312   6.916
 2206SOL    HW2 8060   1.171   2.255   6.852
 2207SOL     OW 8061   0.063   3.443   6.914
 2207SOL    HW1 8062   0.075   3.536   6.894
 2207SOL    HW2 8063   0.149   3.413   6.945
 2208SOL     OW 8064   0.314   2.975   6.084
 2208SOL    HW1 8065   0.335   3.053   6.033
 2208SOL    HW2 8066   0.325   2.903   6.022
 2209SOL     OW 8067   0.549   2.387   6.443
 2209SOL    HW1 8068   0.560   2.448   6.370
 2209SOL    HW2 8069   0.617   2.413   6.506
 2210SOL     OW 8070   1.247   3.214   5.976
 2210SOL    HW1 8071   1.304   3.284   6.006
 2210SOL    HW2 8072   1.161   3.237   6.011
 2211SOL     OW 8073   1.295   3.324   6.747
 2211SOL    HW1 8074   1.361   3.340   6.815
 2211SOL    HW2 8075   1.240   3.255   6.782
 2212SOL     OW 8076   1.581   2.474   6.080
 2212SOL    HW1 8077   1.529   2.532   6.136
 2212SOL    HW2 8078   1.641   2.534   6.035
 2213SOL     OW 8079   0.343   3.391   6.892
 2213SOL    HW1 8080   0.333   3.346   6.808
 2213SOL    HW2 8081   0.437   3.405   6.901
 2214SOL     OW 8082   0.435   2.590   7.197
 2214SOL    HW1 8083   0.485   2.643   7.135
 2214SOL    HW2 8084   0.498   2.526   7.230
 2215SOL     OW 8085   1.602   2.642   7.278
 2215SOL    HW1 8086   1.518   2.687   7.271
 2215SOL    HW2 8087   1.657   2.682   7.210
 2216SOL     OW 8088   0.996   2.000   7.348
 2216SOL    HW1 8089   1.052   2.075   7.326
 2216SOL    HW2 8090   1.044   1.924   7.317
 2217SOL     OW 8091   0.500   1.892   7.339
 2217SOL    HW1 8092   0.453   1.844   7.271
 2217SOL    HW2 8093   0.449   1.972   7.353
 2218SOL     OW 8094   0.581   2.755   6.623
 2218SOL    HW1 8095   0.631   2.834   6.602
 2218SOL    HW2 8096   0.580   2.752   6.718
 2219SOL     OW 8097   1.339   2.715   6.611
 2219SOL    HW1 8098   1.270   2.709   6.545
 2219SOL    HW2 8099   1.392   2.636   6.598
 2220SOL     OW 8100   1.195   2.383   5.845
 2220SOL    HW1 8101   1.208   2.307   5.902
 2220SOL    HW2 8102   1.160   2.451   5.902
 2221SOL     OW 8103   0.297   2.056   6.837
 2221SOL    HW1 8104   0.253   2.087   6.916
 2221SOL    HW2 8105   0.277   1.962   6.835
 2222SOL     OW 8106   0.062   3.165   6.858
 2222SOL    HW1 8107   0.061   3.120   6.942
 2222SOL    HW2 8108   0.058   3.258   6.881
 2223SOL     OW 8109   0.719   2.488   6.632
 2223SOL    HW1 8110   0.799   2.466   6.585
 2223SOL    HW2 8111   0.705   2.581   6.612
 2224SOL     OW 8112   1.746   2.808   7.458
 2224SOL    HW1 8113   1.699   2.753   7.396
 2224SOL    HW2 8114   1.680   2.835   7.522
 2225SOL     OW 8115   0.309   1.928   6.204
 2225SOL    HW1 8116   0.284   2.018   6.225
 2225SOL    HW2 8117   0.321   1.886   6.290
 2226SOL     OW 8118   1.616   2.241   5.940
 2226SOL    HW1 8119   1.649   2.177   6.002
 2226SOL    HW2 8120   1.595   2.318   5.994
 2227SOL     OW 8121   1.019   2.618   6.539
 2227SOL    HW1 8122   1.016   2.635   6.633
 2227SOL    HW2 8123   0.999   2.525   6.530
 2228SOL     OW 8124   0.970   3.414   7.311
 2228SOL    HW1 8125   0.960   3.466   7.231
 2228SOL    HW2 8126   1.026   3.341   7.285
 2229SOL     OW 8127   1.847   3.365   7.183
 2229SOL    HW1 8128   1.872   3.399   7.097
 2229SOL    HW2 8129   1.924   3.381   7.238
 2230SOL     OW 8130   0.360   2.810   7.374
 2230SOL    HW1 8131   0.432   2.830   7.434
 2230SOL    HW2 8132   0.385   2.727   7.333
 2231SOL     OW 8133   1.523   2.128   5.708
 2231SOL    HW1 8134   1.462   2.063   5.743
 2231SOL    HW2 8135   1.559   2.171   5.785
 2232SOL     OW 8136   1.279   2.687   5.608
 2232SOL    HW1 8137   1.325   2.603   5.613
 2232SOL    HW2 8138   1.314   2.729   5.530
 2233SOL     OW 8139   1.073   3.206   6.448
 2233SOL    HW1 8140   1.082   3.136   6.384
 2233SOL    HW2 8141   1.128   3.276   6.415
 2234SOL     OW 8142   0.318   2.666   6.548
 2234SOL    HW1 8143   0.410   2.689   6.542
 2234SOL    HW2 8144   0.316   2.571   6.561
 2235SOL     OW 8145   0.334   2.384   6.600
 2235SOL    HW1 8146   0.297   2.298   6.584
 2235SOL    HW2 8147   0.411   2.389   6.543
 2236SOL     OW 8148   1.133   2.232   7.280
 2236SOL    HW1 8149   1.088   2.290   7.340
 2236SOL    HW2 8150   1.220   2.270   7.269
 2237SOL     OW 8151   1.158   2.056   7.065
 2237SOL    HW1 8152   1.148   2.120   7.135
 2237SOL    HW2 8153   1.204   2.102   6.996
 2238SOL     OW 8154   7.979   3.165   5.785
 2238SOL    HW1 8155   7.890   3.186   5.815
 2238SOL    HW2 8156   7.985   3.069   5.794
 2239SOL     OW 8157   0.125   3.604   6.538
 2239SOL    HW1 8158   0.099   3.557   6.458
 2239SOL    HW2 8159   0.204   3.651   6.513
 2240SOL     OW 8160   0.495   3.440   6.492
 2240SOL    HW1 8161   0.564   3.503   6.515
 2240SOL    HW2 8162   0.537   3.379   6.432
 2241SOL     OW 8163   0.963   2.642   6.809
 2241SOL    HW1 8164   1.037   2.637   6.869
 2241SOL    HW2 8165   0.890   2.603   6.857
 2242SOL     OW 8166   0.076   2.418   6.701
 2242SOL    HW1 8167   0.170   2.412   6.684
 2242SOL    HW2 8168   0.069   2.427   6.796
 2243SOL     OW 8169   0.205   2.371   7.269
 2243SOL    HW1 8170   0.294   2.372   7.236
 2243SOL    HW2 8171   0.170   2.458   7.248
 2244SOL     OW 8172   1.378   2.797   7.239
 2244SOL    HW1 8173   1.407   2.889   7.236
 2244SOL    HW2 8174   1.379   2.769   7.148
 2245SOL     OW 8175   0.814   2.424   5.958
 2245SOL    HW1 8176   0.824   2.355   5.892
 2245SOL    HW2 8177   0.743   2.479   5.924
 2246SOL     OW 8178   1.642   2.448   6.759
 2246SOL    HW1 8179   1.639   2.402   6.843
 2246SOL    HW2 8180   1.732   2.436   6.729
 2247SOL     OW 8181   0.279   3.394   7.303
 2247SOL    HW1 8182   0.246   3.470   7.351
 2247SOL    HW2 8183   0.278   3.323   7.367
 2248SOL     OW 8184   0.713   2.305   6.833
 2248SOL    HW1 8185   0.657   2.233   6.804
 2248SOL    HW2 8186   0.706   2.370   6.763
 2249SOL     OW 8187   0.893   3.545   7.074
 2249SOL    HW1 8188   0.888   3.505   6.987
 2249SOL    HW2 8189   0.910   3.638   7.056
 2250SOL     OW 8190   0.452   2.348   5.753
 2250SOL    HW1 8191   0.508   2.423   5.773
 2250SOL    HW2 8192   0.374   2.361   5.806
 2251SOL     OW 8193   0.169   2.918   7.020
 2251SOL    HW1 8194   0.130   2.905   7.107
 2251SOL    HW2 8195   0.241   2.980   7.036
 2252SOL     OW 8196   1.301   2.898   6.806
 2252SOL    HW1 8197   1.330   2.837   6.738
 2252SOL    HW2 8198   1.235   2.952   6.763
 2253SOL     OW 8199   1.319   2.710   5.884
 2253SOL    HW1 8200   1.240   2.688   5.933
 2253SOL    HW2 8201   1.292   2.703   5.792
 2254SOL     OW 8202   1.749   3.598   6.715
 2254SOL    HW1 8203   1.825   3.628   6.664
 2254SOL    HW2 8204   1.745   3.504   6.700
 2255SOL     OW 8205   1.240   3.591   6.677
 2255SOL    HW1 8206   1.324   3.623   6.645
 2255SOL    HW2 8207   1.257   3.501   6.705
 2256SOL     OW 8208   0.039   3.074   6.608
 2256SOL    HW1 8209   0.050   3.108   6.697
 2256SOL    HW2 8210  -0.043   3.113   6.577
 2257SOL     OW 8211   0.686   3.532   7.328
 2257SOL    HW1 8212   0.632   3.609   7.313
 2257SOL    HW2 8213   0.763   3.545   7.272
 2258SOL     OW 8214   1.718   2.022   6.082
 2258SOL    HW1 8215   1.790   2.007   6.021
 2258SOL    HW2 8216   1.705   1.937   6.125
 2259SOL     OW 8217   1.394   3.429   6.076
 2259SOL    HW1 8218   1.457   3.461   6.011
 2259SOL    HW2 8219   1.349   3.507   6.107
 2260SOL     OW 8220   0.172   3.606   7.429
 2260SOL    HW1 8221   0.107   3.559   7.482
 2260SOL    HW2 8222   0.217   3.663   7.491
 2261SOL     OW 8223   1.279   2.797   6.259
 2261SOL    HW1 8224   1.352   2.736   6.271
 2261SOL    HW2 8225   1.312   2.863   6.198
 2262SOL     OW 8226   0.810   3.143   7.014
 2262SOL    HW1 8227   0.776   3.179   7.095
 2262SOL    HW2 8228   0.764   3.190   6.945
 2263SOL     OW 8229   0.666   3.489   5.742
 2263SOL    HW1 8230   0.683   3.506   5.650
 2263SOL    HW2 8231   0.611   3.411   5.743
 2264SOL     OW 8232   1.613   3.594   6.964
 2264SOL    HW1 8233   1.669   3.600   6.887
 2264SOL    HW2 8234   1.601   3.685   6.993
 2265SOL     OW 8235   1.840   2.029   6.555
 2265SOL    HW1 8236   1.872   1.942   6.530
 2265SOL    HW2 8237   1.755   2.037   6.510
 2266SOL     OW 8238   0.258   2.178   6.294
 2266SOL    HW1 8239   0.171   2.212   6.274
 2266SOL    HW2 8240   0.259   2.171   6.389
 2267SOL     OW 8241   1.206   3.462   5.620
 2267SOL    HW1 8242   1.198   3.370   5.643
 2267SOL    HW2 8243   1.141   3.475   5.550
 2268SOL     OW 8244   0.823   2.874   6.958
 2268SOL    HW1 8245   0.876   2.868   6.879
 2268SOL    HW2 8246   0.820   2.968   6.978
 2269SOL     OW 8247   0.911   2.763   5.881
 2269SOL    HW1 8248   0.965   2.796   5.809
 2269SOL    HW2 8249   0.967   2.700   5.927
 2270SOL     OW 8250   1.488   3.493   5.628
 2270SOL    HW1 8251   1.395   3.484   5.609
 2270SOL    HW2 8252   1.530   3.498   5.541
 2271SOL     OW 8253   0.345   3.133   7.066
 2271SOL    HW1 8254   0.385   3.195   7.006
 2271SOL    HW2 8255   0.263   3.175   7.093
 2272SOL     OW 8256   1.592   3.141   6.857
 2272SOL    HW1 8257   1.682   3.144   6.890
 2272SOL    HW2 8258   1.547   3.213   6.902
 2273SOL     OW 8259   1.065   2.977   6.300
 2273SOL    HW1 8260   0.995   2.922   6.336
 2273SOL    HW2 8261   1.133   2.915   6.276
 2274SOL     OW 8262   1.025   2.108   6.556
 2274SOL    HW1 8263   1.024   2.062   6.472
 2274SOL    HW2 8264   1.022   2.038   6.622
 2275SOL     OW 8265   0.602   3.347   6.068
 2275SOL    HW1 8266   0.657   3.298   6.008
 2275SOL    HW2 8267   0.540   3.394   6.011
 2276SOL     OW 8268   1.740   2.251   6.978
 2276SOL    HW1 8269   1.812   2.314   6.975
 2276SOL    HW2 8270   1.764   2.184   6.914
 2277SOL     OW 8271   0.245   3.197   5.849
 2277SOL    HW1 8272   0.150   3.200   5.837
 2277SOL    HW2 8273   0.259   3.236   5.936
 2278SOL     OW 8274   0.094   2.858   7.304
 2278SOL    HW1 8275   0.059   2.944   7.325
 2278SOL    HW2 8276   0.180   2.856   7.346
 2279SOL     OW 8277   0.679   2.055   7.086
 2279SOL    HW1 8278   0.764   2.036   7.045
 2279SOL    HW2 8279   0.701   2.087   7.173
 2280SOL     OW 8280   0.105   2.221   5.595
 2280SOL    HW1 8281   0.042   2.265   5.653
 2280SOL    HW2 8282   0.125   2.286   5.528
 2281SOL     OW 8283   1.418   2.718   6.981
 2281SOL    HW1 8284   1.369   2.780   6.927
 2281SOL    HW2 8285   1.508   2.722   6.948
 2282SOL     OW 8286   0.089   2.098   5.954
 2282SOL    HW1 8287   0.043   2.082   5.871
 2282SOL    HW2 8288   0.174   2.056   5.943
 2283SOL     OW 8289   1.182   3.193   5.706
 2283SOL    HW1 8290   1.089   3.169   5.710
 2283SOL    HW2 8291   1.209   3.199   5.798
 2284SOL     OW 8292   0.612   2.705   7.011
 2284SOL    HW1 8293   0.672   2.779   7.001
 2284SOL    HW2 8294   0.669   2.628   7.014
 2285SOL     OW 8295   1.492   3.648   6.573
 2285SOL    HW1 8296   1.515   3.720   6.514
 2285SOL    HW2 8297   1.573   3.629   6.620
 2286SOL     OW 8298   0.704   2.430   7.283
 2286SOL    HW1 8299   0.756   2.490   7.336
 2286SOL    HW2 8300   0.730   2.343   7.313
 2287SOL     OW 8301   1.477   3.054   7.208
 2287SOL    HW1 8302   1.469   3.071   7.302
 2287SOL    HW2 8303   1.569   3.074   7.189
 2288SOL     OW 8304   0.384   3.601   7.150
 2288SOL    HW1 8305   0.296   3.633   7.131
 2288SOL    HW2 8306   0.371   3.515   7.189
 2289SOL     OW 8307   1.654   2.737   6.840
 2289SOL    HW1 8308   1.665   2.657   6.789
 2289SOL    HW2 8309   1.646   2.806   6.773
 2290SOL     OW 8310   1.210   2.174   6.041
 2290SOL    HW1 8311   1.277   2.106   6.038
 2290SOL    HW2 8312   1.233   2.227   6.117
 2291SOL     OW 8313   0.583   2.599   6.271
 2291SOL    HW1 8314   0.629   2.682   6.258
 2291SOL    HW2 8315   0.525   2.592   6.196
 2292SOL     OW 8316   1.762   2.220   7.253
 2292SOL    HW1 8317   1.757   2.240   7.159
 2292SOL    HW2 8318   1.684   2.168   7.270
 2293SOL     OW 8319   1.732   2.789   7.099
 2293SOL    HW1 8320   1.764   2.879   7.111
 2293SOL    HW2 8321   1.724   2.779   7.004
 2294SOL     OW 8322   0.860   3.226   5.631
 2294SOL    HW1 8323   0.827   3.266   5.712
 2294SOL    HW2 8324   0.884   3.301   5.577
 2295SOL     OW 8325   0.671   3.641   6.522
 2295SOL    HW1 8326   0.655   3.734   6.503
 2295SOL    HW2 8327   0.767   3.632   6.518
 2296SOL     OW 8328   0.870   2.831   6.438
 2296SOL    HW1 8329   0.923   2.760   6.473
 2296SOL    HW2 8330   0.841   2.880   6.515
 2297SOL     OW 8331   1.057   2.831   5.667
 2297SOL    HW1 8332   1.046   2.896   5.598
 2297SOL    HW2 8333   1.139   2.786   5.645
 2298SOL     OW 8334   1.853   3.404   6.416
 2298SOL    HW1 8335   1.768   3.398   6.372
 2298SOL    HW2 8336   1.839   3.359   6.500
 2299SOL     OW 8337   0.217   3.158   7.447
 2299SOL    HW1 8338   0.123   3.147   7.432
 2299SOL    HW2 8339   0.225   3.163   7.543
 2300SOL     OW 8340   0.149   3.096   6.280
 2300SOL    HW1 8341   0.069   3.045   6.296
 2300SOL    HW2 8342   0.192   3.050   6.208
 2301SOL     OW 8343   0.675   3.268   7.216
 2301SOL    HW1 8344   0.595   3.235   7.257
 2301SOL    HW2 8345   0.686   3.356   7.253
 2302SOL     OW 8346   1.790   2.035   6.823
 2302SOL    HW1 8347   1.808   1.941   6.830
 2302SOL    HW2 8348   1.809   2.056   6.732
 2303SOL     OW 8349   0.436   2.296   6.111
 2303SOL    HW1 8350   0.470   2.225   6.057
 2303SOL    HW2 8351   0.385   2.253   6.180
 2304SOL     OW 8352   1.708   3.335   6.655
 2304SOL    HW1 8353   1.620   3.317   6.622
 2304SOL    HW2 8354   1.720   3.273   6.727
 2305SOL     OW 8355   0.354   2.426   6.881
 2305SOL    HW1 8356   0.402   2.368   6.940
 2305SOL    HW2 8357   0.376   2.394   6.793
 2306SOL     OW 8358   0.835   3.453   6.258
 2306SOL    HW1 8359   0.825   3.527   6.198
 2306SOL    HW2 8360   0.757   3.399   6.243
 2307SOL     OW 8361   1.429   2.096   6.705
 2307SOL    HW1 8362   1.475   2.028   6.753
 2307SOL    HW2 8363   1.378   2.142   6.772
 2308SOL     OW 8364   1.007   1.873   6.716
 2308SOL    HW1 8365   0.960   1.811   6.660
 2308SOL    HW2 8366   1.096   1.838   6.721
 2309SOL     OW 8367   0.772   3.194   5.919
 2309SOL    HW1 8368   0.755   3.100   5.924
 2309SOL    HW2 8369   0.857   3.206   5.961
 2310SOL     OW 8370   0.617   3.414   6.877
 2310SOL    HW1 8371   0.616   3.501   6.915
 2310SOL    HW2 8372   0.705   3.405   6.840
 2311SOL     OW 8373   1.359   1.911   5.769
 2311SOL    HW1 8374   1.395   1.842   5.714
 2311SOL    HW2 8375   1.269   1.884   5.785
 2312SOL     OW 8376   1.269   2.322   6.259
 2312SOL    HW1 8377   1.233   2.410   6.266
 2312SOL    HW2 8378   1.284   2.295   6.350
 2313SOL     OW 8379   1.578   2.053   6.468
 2313SOL    HW1 8380   1.527   2.084   6.543
 2313SOL    HW2 8381   1.583   2.129   6.410
 2314SOL     OW 8382   0.042   2.894   5.856
 2314SOL    HW1 8383   0.137   2.886   5.849
 2314SOL    HW2 8384   0.026   2.910   5.949
 2315SOL     OW 8385   0.888   3.523   5.923
 2315SOL    HW1 8386   0.813   3.512   5.864
 2315SOL    HW2 8387   0.864   3.597   5.979
 2316SOL     OW 8388   0.236   2.563   7.525
 2316SOL    HW1 8389   0.176   2.538   7.596
 2316SOL    HW2 8390   0.240   2.485   7.469
 2317SOL     OW 8391   0.238   2.129   8.433
 2317SOL    HW1 8392   0.264   2.102   8.521
 2317SOL    HW2 8393   0.155   2.083   8.417
 2318SOL     OW 8394   8.004   2.240   8.065
 2318SOL    HW1 8395   7.910   2.235   8.086
 2318SOL    HW2 8396   8.012   2.195   7.981
 2319SOL     OW 8397   0.568   3.163   8.640
 2319SOL    HW1 8398   0.485   3.170   8.592
 2319SOL    HW2 8399   0.586   3.252   8.671
 2320SOL     OW 8400   1.583   3.372   8.149
 2320SOL    HW1 8401   1.534   3.353   8.230
 2320SOL    HW2 8402   1.516   3.380   8.082
 2321SOL     OW 8403   1.132   2.566   8.141
 2321SOL    HW1 8404   1.183   2.646   8.126
 2321SOL    HW2 8405   1.086   2.582   8.223
 2322SOL     OW 8406   1.767   2.457   7.676
 2322SOL    HW1 8407   1.743   2.458   7.584
 2322SOL    HW2 8408   1.738   2.372   7.708
 2323SOL     OW 8409   0.739   2.996   8.501
 2323SOL    HW1 8410   0.674   3.037   8.559
 2323SOL    HW2 8411   0.780   3.070   8.456
 2324SOL     OW 8412   0.870   2.621   9.264
 2324SOL    HW1 8413   0.857   2.694   9.324
 2324SOL    HW2 8414   0.893   2.661   9.181
 2325SOL     OW 8415   0.687   2.855   8.094
 2325SOL    HW1 8416   0.755   2.854   8.161
 2325SOL    HW2 8417   0.620   2.913   8.129
 2326SOL     OW 8418   0.718   3.015   9.278
 2326SOL    HW1 8419   0.765   3.094   9.304
 2326SOL    HW2 8420   0.640   3.047   9.232
 2327SOL     OW 8421   0.335   3.269   8.520
 2327SOL    HW1 8422   0.252   3.230   8.491
 2327SOL    HW2 8423   0.365   3.320   8.445
 2328SOL     OW 8424   1.460   3.361   8.816
 2328SOL    HW1 8425   1.517   3.437   8.817
 2328SOL    HW2 8426   1.393   3.379   8.882
 2329SOL     OW 8427   0.446   2.251   8.956
 2329SOL    HW1 8428   0.525   2.198   8.949
 2329SOL    HW2 8429   0.374   2.188   8.948
 2330SOL     OW 8430   1.603   2.302   8.192
 2330SOL    HW1 8431   1.546   2.329   8.120
 2330SOL    HW2 8432   1.614   2.380   8.245
 2331SOL     OW 8433   0.227   3.554   7.927
 2331SOL    HW1 8434   0.207   3.639   7.967
 2331SOL    HW2 8435   0.297   3.573   7.864
 2332SOL     OW 8436   1.139   3.201   9.142
 2332SOL    HW1 8437   1.185   3.189   9.225
 2332SOL    HW2 8438   1.088   3.121   9.131
 2333SOL     OW 8439   0.295   3.292   7.965
 2333SOL    HW1 8440   0.271   3.384   7.973
 2333SOL    HW2 8441   0.236   3.246   8.024
 2334SOL     OW 8442   0.268   2.951   8.336
 2334SOL    HW1 8443   0.254   2.866   8.376
 2334SOL    HW2 8444   0.202   3.008   8.376
 2335SOL     OW 8445   0.604   3.664   8.866
 2335SOL    HW1 8446   0.526   3.643   8.918
 2335SOL    HW2 8447   0.628   3.752   8.895
 2336SOL     OW 8448   0.572   2.854   7.592
 2336SOL    HW1 8449   0.623   2.896   7.523
 2336SOL    HW2 8450   0.613   2.882   7.674
 2337SOL     OW 8451   1.590   1.988   8.909
 2337SOL    HW1 8452   1.637   2.052   8.855
 2337SOL    HW2 8453   1.572   2.033   8.991
 2338SOL     OW 8454   0.135   2.491   8.003
 2338SOL    HW1 8455   0.097   2.412   8.041
 2338SOL    HW2 8456   0.116   2.559   8.068
 2339SOL     OW 8457   1.846   3.619   7.795
 2339SOL    HW1 8458   1.925   3.593   7.843
 2339SOL    HW2 8459   1.867   3.705   7.759
 2340SOL     OW 8460   0.018   3.444   7.589
 2340SOL    HW1 8461  -0.001   3.351   7.577
 2340SOL    HW2 8462   0.006   3.459   7.682
 2341SOL     OW 8463   1.687   2.772   8.090
 2341SOL    HW1 8464   1.774   2.737   8.071
 2341SOL    HW2 8465   1.667   2.828   8.015
 2342SOL     OW 8466   1.649   2.966   7.885
 2342SOL    HW1 8467   1.734   2.963   7.841
 2342SOL    HW2 8468   1.661   3.027   7.958
 2343SOL     OW 8469   0.148   2.613   9.034
 2343SOL    HW1 8470   0.242   2.626   9.020
 2343SOL    HW2 8471   0.117   2.697   9.069
 2344SOL     OW 8472   0.613   3.253   8.190
 2344SOL    HW1 8473   0.569   3.167   8.193
 2344SOL    HW2 8474   0.601   3.282   8.100
 2345SOL     OW 8475   1.278   3.090   8.874
 2345SOL    HW1 8476   1.306   3.026   8.809
 2345SOL    HW2 8477   1.347   3.089   8.940
 2346SOL     OW 8478   0.824   1.866   7.967
 2346SOL    HW1 8479   0.865   1.948   7.939
 2346SOL    HW2 8480   0.730   1.886   7.969
 2347SOL     OW 8481   0.162   2.768   8.731
 2347SOL    HW1 8482   0.253   2.748   8.712
 2347SOL    HW2 8483   0.124   2.791   8.646
 2348SOL     OW 8484   1.527   2.868   7.651
 2348SOL    HW1 8485   1.462   2.807   7.688
 2348SOL    HW2 8486   1.574   2.901   7.727
 2349SOL     OW 8487   1.173   3.674   9.078
 2349SOL    HW1 8488   1.183   3.739   9.009
 2349SOL    HW2 8489   1.196   3.591   9.036
 2350SOL     OW 8490   0.352   2.112   9.292
 2350SOL    HW1 8491   0.396   2.196   9.285
 2350SOL    HW2 8492   0.260   2.134   9.306
 2351SOL     OW 8493   1.462   3.288   8.385
 2351SOL    HW1 8494   1.399   3.301   8.456
 2351SOL    HW2 8495   1.452   3.195   8.362
 2352SOL     OW 8496   1.645   3.629   8.027
 2352SOL    HW1 8497   1.652   3.597   7.937
 2352SOL    HW2 8498   1.639   3.550   8.080
 2353SOL     OW 8499   0.593   2.573   7.715
 2353SOL    HW1 8500   0.600   2.659   7.673
 2353SOL    HW2 8501   0.532   2.588   7.788
 2354SOL     OW 8502   1.281   2.239   8.387
 2354SOL    HW1 8503   1.193   2.202   8.393
 2354SOL    HW2 8504   1.334   2.183   8.443
 2355SOL     OW 8505   1.581   3.531   7.756
 2355SOL    HW1 8506   1.673   3.555   7.749
 2355SOL    HW2 8507   1.553   3.516   7.666
 2356SOL     OW 8508   0.787   2.478   8.893
 2356SOL    HW1 8509   0.758   2.449   8.979
 2356SOL    HW2 8510   0.756   2.409   8.833
 2357SOL     OW 8511   1.386   2.335   9.118
 2357SOL    HW1 8512   1.397   2.383   9.200
 2357SOL    HW2 8513   1.446   2.261   9.125
 2358SOL     OW 8514   0.945   2.745   9.032
 2358SOL    HW1 8515   1.000   2.678   8.993
 2358SOL    HW2 8516   0.901   2.787   8.958
 2359SOL     OW 8517   0.992   2.267   8.679
 2359SOL    HW1 8518   0.900   2.282   8.700
 2359SOL    HW2 8519   0.991   2.239   8.588
 2360SOL     OW 8520   1.055   2.557   7.871
 2360SOL    HW1 8521   1.075   2.555   7.964
 2360SOL    HW2 8522   0.971   2.512   7.863
 2361SOL     OW 8523   0.080   2.666   8.216
 2361SOL    HW1 8524   0.158   2.685   8.268
 2361SOL    HW2 8525   0.040   2.752   8.201
 2362SOL     OW 8526   0.136   3.711   9.012
 2362SOL    HW1 8527   0.117   3.704   9.105
 2362SOL    HW2 8528   0.069   3.655   8.970
 2363SOL     OW 8529   0.905   2.203   7.635
 2363SOL    HW1 8530   0.938   2.276   7.583
 2363SOL    HW2 8531   0.948   2.125   7.599
 2364SOL     OW 8532   1.679   2.434   9.286
 2364SOL    HW1 8533   1.659   2.510   9.231
 2364SOL    HW2 8534   1.720   2.371   9.226
 2365SOL     OW 8535   1.378   2.999   7.976
 2365SOL    HW1 8536   1.462   2.991   7.930
 2365SOL    HW2 8537   1.331   3.066   7.927
 2366SOL     OW 8538   0.556   2.035   8.343
 2366SOL    HW1 8539   0.559   2.070   8.432
 2366SOL    HW2 8540   0.559   2.112   8.287
 2367SOL     OW 8541   0.997   3.307   7.915
 2367SOL    HW1 8542   0.968   3.382   7.863
 2367SOL    HW2 8543   0.974   3.330   8.005
 2368SOL     OW 8544   0.358   3.686   8.310
 2368SOL    HW1 8545   0.403   3.602   8.319
 2368SOL    HW2 8546   0.427   3.751   8.327
 2369SOL     OW 8547   1.799   2.903   8.344
 2369SOL    HW1 8548   1.758   2.912   8.257
 2369SOL    HW2 8549   1.725   2.907   8.405
 2370SOL     OW 8550   1.223   3.404   8.964
 2370SOL    HW1 8551   1.213   3.327   9.020
 2370SOL    HW2 8552   1.167   3.386   8.888
 2371SOL     OW 8553   0.307   2.808   7.684
 2371SOL    HW1 8554   0.394   2.835   7.654
 2371SOL    HW2 8555   0.286   2.731   7.631
 2372SOL     OW 8556   1.481   2.615   8.168
 2372SOL    HW1 8557   1.487   2.579   8.257
 2372SOL    HW2 8558   1.559   2.669   8.159
 2373SOL     OW 8559   0.470   3.101   9.180
 2373SOL    HW1 8560   0.440   3.122   9.092
 2373SOL    HW2 8561   0.391   3.094   9.232
 2374SOL     OW 8562   1.123   3.640   7.676
 2374SOL    HW1 8563   1.048   3.598   7.716
 2374SOL    HW2 8564   1.151   3.579   7.608
 2375SOL     OW 8565   0.197   2.125   8.939
 2375SOL    HW1 8566   0.153   2.203   8.972
 2375SOL    HW2 8567   0.159   2.053   8.990
 2376SOL     OW 8568   1.614   3.242   7.556
 2376SOL    HW1 8569   1.585   3.329   7.529
 2376SOL    HW2 8570   1.551   3.182   7.516
 2377SOL     OW 8571   0.456   3.609   7.760
 2377SOL    HW1 8572   0.506   3.658   7.826
 2377SOL    HW2 8573   0.523   3.567   7.706
 2378SOL     OW 8574   1.397   1.966   7.895
 2378SOL    HW1 8575   1.388   1.943   7.802
 2378SOL    HW2 8576   1.491   1.985   7.906
 2379SOL     OW 8577   0.234   3.652   8.671
 2379SOL    HW1 8578   0.290   3.577   8.691
 2379SOL    HW2 8579   0.201   3.634   8.583
 2380SOL     OW 8580   0.948   3.559   8.342
 2380SOL    HW1 8581   1.035   3.520   8.348
 2380SOL    HW2 8582   0.905   3.510   8.272
 2381SOL     OW 8583   0.410   2.557   7.927
 2381SOL    HW1 8584   0.426   2.464   7.940
 2381SOL    HW2 8585   0.316   2.568   7.944
 2382SOL     OW 8586   1.521   2.092   9.168
 2382SOL    HW1 8587   1.527   2.110   9.262
 2382SOL    HW2 8588   1.460   2.018   9.162
 2383SOL     OW 8589   0.636   1.966   7.566
 2383SOL    HW1 8590   0.719   1.918   7.564
 2383SOL    HW2 8591   0.591   1.939   7.486
 2384SOL     OW 8592   0.768   2.144   9.208
 2384SOL    HW1 8593   0.850   2.094   9.200
 2384SOL    HW2 8594   0.717   2.096   9.273
 2385SOL     OW 8595   0.870   3.381   8.648
 2385SOL    HW1 8596   0.856   3.348   8.559
 2385SOL    HW2 8597   0.945   3.331   8.680
 2386SOL     OW 8598   1.333   2.454   8.874
 2386SOL    HW1 8599   1.368   2.424   8.958
 2386SOL    HW2 8600   1.372   2.540   8.861
 2387SOL     OW 8601   0.819   3.245   8.398
 2387SOL    HW1 8602   0.905   3.238   8.356
 2387SOL    HW2 8603   0.758   3.258   8.325
 2388SOL     OW 8604   0.926   2.366   8.348
 2388SOL    HW1 8605   0.901   2.360   8.256
 2388SOL    HW2 8606   0.961   2.279   8.369
 2389SOL     OW 8607   0.556   1.924   7.943
 2389SOL    HW1 8608   0.475   1.924   7.994
 2389SOL    HW2 8609   0.549   2.001   7.888
 2390SOL     OW 8610   1.422   3.060   7.479
 2390SOL    HW1 8611   1.455   2.989   7.535
 2390SOL    HW2 8612   1.342   3.090   7.522
 2391SOL     OW 8613   0.288   1.913   7.624
 2391SOL    HW1 8614   0.342   1.982   7.585
 2391SOL    HW2 8615   0.350   1.858   7.672
 2392SOL     OW 8616   0.941   2.109   7.900
 2392SOL    HW1 8617   0.916   2.147   7.815
 2392SOL    HW2 8618   1.035   2.126   7.907
 2393SOL     OW 8619   1.079   2.545   8.910
 2393SOL    HW1 8620   1.019   2.472   8.895
 2393SOL    HW2 8621   1.166   2.508   8.895
 2394SOL     OW 8622   1.207   3.448   8.249
 2394SOL    HW1 8623   1.224   3.506   8.175
 2394SOL    HW2 8624   1.288   3.451   8.301
 2395SOL     OW 8625   0.474   3.013   8.171
 2395SOL    HW1 8626   0.408   2.995   8.238
 2395SOL    HW2 8627   0.429   2.997   8.088
 2396SOL     OW 8628   1.262   3.653   8.062
 2396SOL    HW1 8629   1.317   3.708   8.007
 2396SOL    HW2 8630   1.198   3.714   8.100
 2397SOL     OW 8631   1.021   2.395   7.478
 2397SOL    HW1 8632   0.981   2.478   7.455
 2397SOL    HW2 8633   1.092   2.418   7.538
 2398SOL     OW 8634   0.093   2.420   8.844
 2398SOL    HW1 8635   0.183   2.412   8.814
 2398SOL    HW2 8636   0.093   2.498   8.900
 2399SOL     OW 8637   0.562   2.087   8.618
 2399SOL    HW1 8638   0.605   2.010   8.656
 2399SOL    HW2 8639   0.471   2.079   8.645
 2400SOL     OW 8640   0.861   2.313   8.087
 2400SOL    HW1 8641   0.822   2.373   8.023
 2400SOL    HW2 8642   0.889   2.238   8.035
 2401SOL     OW 8643   1.016   1.923   8.199
 2401SOL    HW1 8644   0.960   1.920   8.122
 2401SOL    HW2 8645   0.992   1.845   8.249
 2402SOL     OW 8646   1.453   3.025   8.300
 2402SOL    HW1 8647   1.380   2.973   8.266
 2402SOL    HW2 8648   1.510   3.038   8.224
 2403SOL     OW 8649   1.468   2.477   8.414
 2403SOL    HW1 8650   1.411   2.399   8.414
 2403SOL    HW2 8651   1.525   2.464   8.489
 2404SOL     OW 8652   1.832   2.670   7.833
 2404SOL    HW1 8653   1.892   2.622   7.891
 2404SOL    HW2 8654   1.809   2.607   7.764
 2405SOL     OW 8655   0.487   3.285   7.593
 2405SOL    HW1 8656   0.408   3.255   7.638
 2405SOL    HW2 8657   0.493   3.230   7.515
 2406SOL     OW 8658   1.676   3.108   8.120
 2406SOL    HW1 8659   1.771   3.102   8.121
 2406SOL    HW2 8660   1.658   3.202   8.118
 2407SOL     OW 8661   1.393   2.440   7.512
 2407SOL    HW1 8662   1.342   2.414   7.589
 2407SOL    HW2 8663   1.484   2.426   7.538
 2408SOL     OW 8664   0.522   2.121   7.760
 2408SOL    HW1 8665   0.569   2.070   7.695
 2408SOL    HW2 8666   0.502   2.204   7.717
 2409SOL     OW 8667   1.749   3.105   9.026
 2409SOL    HW1 8668   1.834   3.072   8.996
 2409SOL    HW2 8669   1.766   3.198   9.044
 2410SOL     OW 8670   1.053   3.217   8.785
 2410SOL    HW1 8671   0.976   3.184   8.833
 2410SOL    HW2 8672   1.127   3.171   8.824
 2411SOL     OW 8673   1.609   3.491   9.109
 2411SOL    HW1 8674   1.597   3.527   9.021
 2411SOL    HW2 8675   1.691   3.442   9.103
 2412SOL     OW 8676   1.138   3.082   8.552
 2412SOL    HW1 8677   1.076   3.122   8.612
 2412SOL    HW2 8678   1.114   3.116   8.466
 2413SOL     OW 8679   1.601   2.944   8.528
 2413SOL    HW1 8680   1.591   3.009   8.597
 2413SOL    HW2 8681   1.536   2.968   8.462
 2414SOL     OW 8682   0.918   1.952   8.837
 2414SOL    HW1 8683   0.938   1.932   8.745
 2414SOL    HW2 8684   0.999   1.991   8.871
 2415SOL     OW 8685   0.983   2.972   9.177
 2415SOL    HW1 8686   0.892   2.992   9.196
 2415SOL    HW2 8687   0.980   2.897   9.118
 2416SOL     OW 8688   0.709   2.921   7.822
 2416SOL    HW1 8689   0.697   2.901   7.915
 2416SOL    HW2 8690   0.785   2.868   7.796
 2417SOL     OW 8691   0.423   2.682   8.703
 2417SOL    HW1 8692   0.493   2.696   8.766
 2417SOL    HW2 8693   0.395   2.591   8.717
 2418SOL     OW 8694   1.259   2.228   8.738
 2418SOL    HW1 8695   1.294   2.309   8.775
 2418SOL    HW2 8696   1.170   2.250   8.711
 2419SOL     OW 8697   0.074   3.477   8.829
 2419SOL    HW1 8698   0.095   3.553   8.774
 2419SOL    HW2 8699   0.142   3.413   8.808
 2420SOL     OW 8700   0.333   2.968   7.935
 2420SOL    HW1 8701   0.341   3.047   7.882
 2420SOL    HW2 8702   0.337   2.896   7.872
 2421SOL     OW 8703   0.547   2.391   8.313
 2421SOL    HW1 8704   0.559   2.449   8.238
 2421SOL    HW2 8705   0.616   2.417   8.374
 2422SOL     OW 8706   1.247   3.212   7.841
 2422SOL    HW1 8707   1.304   3.283   7.870
 2422SOL    HW2 8708   1.160   3.238   7.874
 2423SOL     OW 8709   1.296   3.325   8.598
 2423SOL    HW1 8710   1.354   3.329   8.675
 2423SOL    HW2 8711   1.247   3.243   8.610
 2424SOL     OW 8712   1.582   2.471   7.939
 2424SOL    HW1 8713   1.529   2.529   7.995
 2424SOL    HW2 8714   1.636   2.531   7.887
 2425SOL     OW 8715   0.343   3.391   8.758
 2425SOL    HW1 8716   0.333   3.344   8.674
 2425SOL    HW2 8717   0.437   3.406   8.765
 2426SOL     OW 8718   0.434   2.598   9.057
 2426SOL    HW1 8719   0.488   2.648   8.996
 2426SOL    HW2 8720   0.486   2.520   9.077
 2427SOL     OW 8721   1.609   2.649   9.138
 2427SOL    HW1 8722   1.524   2.692   9.127
 2427SOL    HW2 8723   1.664   2.686   9.069
 2428SOL     OW 8724   0.998   1.997   9.209
 2428SOL    HW1 8725   1.056   2.070   9.186
 2428SOL    HW2 8726   1.045   1.920   9.178
 2429SOL     OW 8727   0.497   1.896   9.206
 2429SOL    HW1 8728   0.452   1.846   9.138
 2429SOL    HW2 8729   0.440   1.971   9.221
 2430SOL     OW 8730   0.595   2.736   8.484
 2430SOL    HW1 8731   0.627   2.826   8.479
 2430SOL    HW2 8732   0.529   2.737   8.554
 2431SOL     OW 8733   1.338   2.715   8.476
 2431SOL    HW1 8734   1.266   2.711   8.413
 2431SOL    HW2 8735   1.389   2.636   8.458
 2432SOL     OW 8736   1.199   2.383   7.709
 2432SOL    HW1 8737   1.209   2.307   7.766
 2432SOL    HW2 8738   1.161   2.451   7.764
 2433SOL     OW 8739   0.303   2.047   8.694
 2433SOL    HW1 8740   0.262   2.079   8.774
 2433SOL    HW2 8741   0.282   1.953   8.693
 2434SOL     OW 8742   0.008   3.176   8.782
 2434SOL    HW1 8743   0.068   3.110   8.817
 2434SOL    HW2 8744   0.018   3.169   8.687
 2435SOL     OW 8745   0.720   2.490   8.503
 2435SOL    HW1 8746   0.797   2.480   8.447
 2435SOL    HW2 8747   0.691   2.579   8.488
 2436SOL     OW 8748   1.749   2.809   9.320
 2436SOL    HW1 8749   1.704   2.753   9.257
 2436SOL    HW2 8750   1.680   2.837   9.380
 2437SOL     OW 8751   0.310   1.926   8.065
 2437SOL    HW1 8752   0.285   2.016   8.085
 2437SOL    HW2 8753   0.320   1.884   8.151
 2438SOL     OW 8754   1.616   2.231   7.811
 2438SOL    HW1 8755   1.657   2.173   7.876
 2438SOL    HW2 8756   1.597   2.311   7.860
 2439SOL     OW 8757   1.022   2.619   8.399
 2439SOL    HW1 8758   1.017   2.635   8.493
 2439SOL    HW2 8759   0.999   2.527   8.389
 2440SOL     OW 8760   0.978   3.420   9.170
 2440SOL    HW1 8761   0.960   3.468   9.089
 2440SOL    HW2 8762   1.029   3.344   9.142
 2441SOL     OW 8763   1.847   3.366   9.046
 2441SOL    HW1 8764   1.871   3.389   8.956
 2441SOL    HW2 8765   1.928   3.378   9.096
 2442SOL     OW 8766   0.355   2.762   9.270
 2442SOL    HW1 8767   0.434   2.810   9.295
 2442SOL    HW2 8768   0.382   2.706   9.197
 2443SOL     OW 8769   1.524   2.126   7.573
 2443SOL    HW1 8770   1.460   2.062   7.605
 2443SOL    HW2 8771   1.559   2.167   7.653
 2444SOL     OW 8772   1.283   2.689   7.472
 2444SOL    HW1 8773   1.327   2.604   7.474
 2444SOL    HW2 8774   1.316   2.731   7.393
 2445SOL     OW 8775   1.073   3.206   8.311
 2445SOL    HW1 8776   1.079   3.135   8.247
 2445SOL    HW2 8777   1.125   3.277   8.273
 2446SOL     OW 8778   0.310   2.666   8.381
 2446SOL    HW1 8779   0.402   2.691   8.366
 2446SOL    HW2 8780   0.315   2.579   8.420
 2447SOL     OW 8781   0.333   2.380   8.471
 2447SOL    HW1 8782   0.298   2.293   8.450
 2447SOL    HW2 8783   0.408   2.390   8.413
 2448SOL     OW 8784   1.134   2.229   9.140
 2448SOL    HW1 8785   1.086   2.292   9.195
 2448SOL    HW2 8786   1.220   2.270   9.127
 2449SOL     OW 8787   1.159   2.053   8.926
 2449SOL    HW1 8788   1.149   2.118   8.995
 2449SOL    HW2 8789   1.203   2.100   8.855
 2450SOL     OW 8790   7.978   3.164   7.644
 2450SOL    HW1 8791   7.889   3.182   7.673
 2450SOL    HW2 8792   7.990   3.070   7.658
 2451SOL     OW 8793   0.122   3.612   8.424
 2451SOL    HW1 8794   0.103   3.530   8.380
 2451SOL    HW2 8795   0.194   3.650   8.374
 2452SOL     OW 8796   0.487   3.442   8.350
 2452SOL    HW1 8797   0.558   3.500   8.377
 2452SOL    HW2 8798   0.529   3.377   8.294
 2453SOL     OW 8799   0.970   2.642   8.667
 2453SOL    HW1 8800   1.034   2.634   8.738
 2453SOL    HW2 8801   0.890   2.605   8.703
 2454SOL     OW 8802   0.075   2.418   8.568
 2454SOL    HW1 8803   0.167   2.415   8.541
 2454SOL    HW2 8804   0.077   2.419   8.663
 2455SOL     OW 8805   0.210   2.374   9.144
 2455SOL    HW1 8806   0.290   2.356   9.094
 2455SOL    HW2 8807   0.177   2.456   9.106
 2456SOL     OW 8808   1.379   2.797   9.102
 2456SOL    HW1 8809   1.405   2.889   9.096
 2456SOL    HW2 8810   1.375   2.767   9.011
 2457SOL     OW 8811   0.815   2.426   7.819
 2457SOL    HW1 8812   0.822   2.357   7.754
 2457SOL    HW2 8813   0.743   2.482   7.787
 2458SOL     OW 8814   1.641   2.452   8.625
 2458SOL    HW1 8815   1.636   2.398   8.703
 2458SOL    HW2 8816   1.730   2.439   8.593
 2459SOL     OW 8817   0.328   3.394   9.204
 2459SOL    HW1 8818   0.279   3.469   9.239
 2459SOL    HW2 8819   0.262   3.340   9.161
 2460SOL     OW 8820   0.710   2.306   8.700
 2460SOL    HW1 8821   0.658   2.232   8.669
 2460SOL    HW2 8822   0.705   2.370   8.629
 2461SOL     OW 8823   0.905   3.542   8.929
 2461SOL    HW1 8824   0.891   3.497   8.846
 2461SOL    HW2 8825   0.905   3.635   8.907
 2462SOL     OW 8826   0.458   2.345   7.620
 2462SOL    HW1 8827   0.511   2.423   7.636
 2462SOL    HW2 8828   0.374   2.365   7.659
 2463SOL     OW 8829   0.163   2.982   8.904
 2463SOL    HW1 8830   0.145   2.941   8.988
 2463SOL    HW2 8831   0.164   2.910   8.841
 2464SOL     OW 8832   1.304   2.899   8.671
 2464SOL    HW1 8833   1.328   2.837   8.602
 2464SOL    HW2 8834   1.246   2.962   8.627
 2465SOL     OW 8835   1.318   2.710   7.747
 2465SOL    HW1 8836   1.238   2.685   7.793
 2465SOL    HW2 8837   1.295   2.703   7.655
 2466SOL     OW 8838   1.789   3.598   8.616
 2466SOL    HW1 8839   1.849   3.624   8.545
 2466SOL    HW2 8840   1.754   3.514   8.588
 2467SOL     OW 8841   1.242   3.597   8.557
 2467SOL    HW1 8842   1.324   3.625   8.514
 2467SOL    HW2 8843   1.254   3.503   8.572
 2468SOL     OW 8844   0.686   3.535   9.192
 2468SOL    HW1 8845   0.623   3.606   9.175
 2468SOL    HW2 8846   0.755   3.548   9.127
 2469SOL     OW 8847   1.725   2.007   7.959
 2469SOL    HW1 8848   1.775   1.960   7.893
 2469SOL    HW2 8849   1.692   1.938   8.017
 2470SOL     OW 8850   1.399   3.428   7.940
 2470SOL    HW1 8851   1.459   3.459   7.872
 2470SOL    HW2 8852   1.350   3.506   7.966
 2471SOL     OW 8853   0.177   3.603   9.289
 2471SOL    HW1 8854   0.108   3.558   9.337
 2471SOL    HW2 8855   0.215   3.664   9.353
 2472SOL     OW 8856   1.280   2.795   8.120
 2472SOL    HW1 8857   1.354   2.735   8.130
 2472SOL    HW2 8858   1.312   2.863   8.061
 2473SOL     OW 8859   0.799   3.141   8.876
 2473SOL    HW1 8860   0.770   3.182   8.957
 2473SOL    HW2 8861   0.734   3.167   8.811
 2474SOL     OW 8862   0.666   3.491   7.605
 2474SOL    HW1 8863   0.682   3.505   7.512
 2474SOL    HW2 8864   0.610   3.413   7.608
 2475SOL     OW 8865   1.616   3.586   8.841
 2475SOL    HW1 8866   1.675   3.589   8.765
 2475SOL    HW2 8867   1.599   3.678   8.861
 2476SOL     OW 8868   1.839   2.029   8.420
 2476SOL    HW1 8869   1.872   1.944   8.392
 2476SOL    HW2 8870   1.755   2.039   8.374
 2477SOL     OW 8871   0.260   2.176   8.155
 2477SOL    HW1 8872   0.173   2.208   8.134
 2477SOL    HW2 8873   0.262   2.171   8.251
 2478SOL     OW 8874   1.205   3.464   7.483
 2478SOL    HW1 8875   1.199   3.371   7.501
 2478SOL    HW2 8876   1.146   3.479   7.409
 2479SOL     OW 8877   0.825   2.873   8.822
 2479SOL    HW1 8878   0.859   2.869   8.733
 2479SOL    HW2 8879   0.817   2.967   8.841
 2480SOL     OW 8880   0.915   2.768   7.746
 2480SOL    HW1 8881   0.969   2.800   7.673
 2480SOL    HW2 8882   0.969   2.702   7.789
 2481SOL     OW 8883   1.491   3.489   7.490
 2481SOL    HW1 8884   1.397   3.485   7.472
 2481SOL    HW2 8885   1.532   3.497   7.404
 2482SOL     OW 8886   0.363   3.172   8.944
 2482SOL    HW1 8887   0.356   3.242   8.880
 2482SOL    HW2 8888   0.295   3.110   8.919
 2483SOL     OW 8889   1.593   3.134   8.723
 2483SOL    HW1 8890   1.683   3.142   8.754
 2483SOL    HW2 8891   1.546   3.207   8.764
 2484SOL     OW 8892   1.068   2.977   8.166
 2484SOL    HW1 8893   0.994   2.925   8.199
 2484SOL    HW2 8894   1.132   2.913   8.137
 2485SOL     OW 8895   1.028   2.107   8.417
 2485SOL    HW1 8896   1.026   2.061   8.332
 2485SOL    HW2 8897   1.022   2.037   8.482
 2486SOL     OW 8898   0.611   3.352   7.937
 2486SOL    HW1 8899   0.662   3.303   7.872
 2486SOL    HW2 8900   0.526   3.365   7.895
 2487SOL     OW 8901   1.737   2.250   8.840
 2487SOL    HW1 8902   1.809   2.313   8.836
 2487SOL    HW2 8903   1.761   2.182   8.777
 2488SOL     OW 8904   0.247   3.199   7.718
 2488SOL    HW1 8905   0.152   3.206   7.712
 2488SOL    HW2 8906   0.268   3.238   7.803
 2489SOL     OW 8907   0.114   2.859   9.152
 2489SOL    HW1 8908   0.063   2.932   9.189
 2489SOL    HW2 8909   0.192   2.853   9.207
 2490SOL     OW 8910   0.681   2.059   8.949
 2490SOL    HW1 8911   0.762   2.036   8.905
 2490SOL    HW2 8912   0.708   2.095   9.033
 2491SOL     OW 8913   0.098   2.211   7.465
 2491SOL    HW1 8914   0.034   2.256   7.520
 2491SOL    HW2 8915   0.117   2.273   7.395
 2492SOL     OW 8916   1.419   2.717   8.844
 2492SOL    HW1 8917   1.368   2.778   8.790
 2492SOL    HW2 8918   1.507   2.720   8.806
 2493SOL     OW 8919   0.084   2.102   7.818
 2493SOL    HW1 8920   0.033   2.091   7.737
 2493SOL    HW2 8921   0.167   2.060   7.799
 2494SOL     OW 8922   1.184   3.191   7.569
 2494SOL    HW1 8923   1.092   3.164   7.572
 2494SOL    HW2 8924   1.210   3.197   7.661
 2495SOL     OW 8925   0.625   2.696   8.885
 2495SOL    HW1 8926   0.680   2.772   8.868
 2495SOL    HW2 8927   0.685   2.622   8.888
 2496SOL     OW 8928   1.484   3.657   8.436
 2496SOL    HW1 8929   1.508   3.724   8.371
 2496SOL    HW2 8930   1.566   3.613   8.457
 2497SOL     OW 8931   0.704   2.420   9.147
 2497SOL    HW1 8932   0.754   2.481   9.200
 2497SOL    HW2 8933   0.729   2.333   9.179
 2498SOL     OW 8934   1.479   3.052   9.073
 2498SOL    HW1 8935   1.471   3.073   9.166
 2498SOL    HW2 8936   1.569   3.073   9.052
 2499SOL     OW 8937   0.389   3.602   9.020
 2499SOL    HW1 8938   0.301   3.632   9.000
 2499SOL    HW2 8939   0.377   3.517   9.062
 2500SOL     OW 8940   1.656   2.736   8.706
 2500SOL    HW1 8941   1.661   2.653   8.657
 2500SOL    HW2 8942   1.644   2.803   8.638
 2501SOL     OW 8943   1.210   2.176   7.906
 2501SOL    HW1 8944   1.275   2.106   7.901
 2501SOL    HW2 8945   1.237   2.229   7.981
 2502SOL     OW 8946   0.589   2.596   8.133
 2502SOL    HW1 8947   0.632   2.680   8.120
 2502SOL    HW2 8948   0.529   2.588   8.059
 2503SOL     OW 8949   1.755   2.225   9.116
 2503SOL    HW1 8950   1.754   2.242   9.022
 2503SOL    HW2 8951   1.679   2.170   9.132
 2504SOL     OW 8952   1.753   2.791   8.960
 2504SOL    HW1 8953   1.750   2.886   8.970
 2504SOL    HW2 8954   1.733   2.776   8.867
 2505SOL     OW 8955   0.854   3.227   7.490
 2505SOL    HW1 8956   0.826   3.268   7.572
 2505SOL    HW2 8957   0.884   3.300   7.435
 2506SOL     OW 8958   0.670   3.640   8.392
 2506SOL    HW1 8959   0.651   3.730   8.366
 2506SOL    HW2 8960   0.764   3.630   8.379
 2507SOL     OW 8961   0.870   2.836   8.302
 2507SOL    HW1 8962   0.920   2.762   8.336
 2507SOL    HW2 8963   0.832   2.878   8.379
 2508SOL     OW 8964   1.062   2.835   7.532
 2508SOL    HW1 8965   1.047   2.896   7.460
 2508SOL    HW2 8966   1.143   2.789   7.508
 2509SOL     OW 8967   1.853   3.411   8.288
 2509SOL    HW1 8968   1.777   3.398   8.232
 2509SOL    HW2 8969   1.866   3.327   8.332
 2510SOL     OW 8970   0.222   3.108   9.300
 2510SOL    HW1 8971   0.171   3.165   9.242
 2510SOL    HW2 8972   0.213   3.149   9.387
 2511SOL     OW 8973   0.123   3.120   8.090
 2511SOL    HW1 8974   0.066   3.089   8.160
 2511SOL    HW2 8975   0.182   3.046   8.074
 2512SOL     OW 8976   0.687   3.265   9.095
 2512SOL    HW1 8977   0.601   3.228   9.116
 2512SOL    HW2 8978   0.682   3.356   9.124
 2513SOL     OW 8979   1.795   2.034   8.689
 2513SOL    HW1 8980   1.815   1.940   8.696
 2513SOL    HW2 8981   1.810   2.054   8.597
 2514SOL     OW 8982   0.442   2.295   7.978
 2514SOL    HW1 8983   0.469   2.226   7.917
 2514SOL    HW2 8984   0.387   2.251   8.042
 2515SOL     OW 8985   1.679   3.361   8.548
 2515SOL    HW1 8986   1.610   3.337   8.486
 2515SOL    HW2 8987   1.699   3.280   8.595
 2516SOL     OW 8988   0.347   2.417   8.747
 2516SOL    HW1 8989   0.405   2.362   8.800
 2516SOL    HW2 8990   0.365   2.391   8.657
 2517SOL     OW 8991   0.833   3.450   8.120
 2517SOL    HW1 8992   0.821   3.521   8.057
 2517SOL    HW2 8993   0.757   3.393   8.107
 2518SOL     OW 8994   1.428   2.094   8.565
 2518SOL    HW1 8995   1.460   2.014   8.608
 2518SOL    HW2 8996   1.377   2.139   8.632
 2519SOL     OW 8997   1.007   1.873   8.579
 2519SOL    HW1 8998   0.957   1.811   8.526
 2519SOL    HW2 8999   1.095   1.837   8.583
 2520SOL     OW 9000   0.771   3.195   7.780
 2520SOL    HW1 9001   0.751   3.102   7.785
 2520SOL    HW2 9002   0.857   3.203   7.822
 2521SOL     OW 9003   0.619   3.419   8.743
 2521SOL    HW1 9004   0.620   3.505   8.785
 2521SOL    HW2 9005   0.706   3.411   8.704
 2522SOL     OW 9006   1.357   1.910   7.630
 2522SOL    HW1 9007   1.394   1.844   7.571
 2522SOL    HW2 9008   1.267   1.880   7.645
 2523SOL     OW 9009   1.281   2.324   8.122
 2523SOL    HW1 9010   1.238   2.409   8.126
 2523SOL    HW2 9011   1.288   2.296   8.214
 2524SOL     OW 9012   1.580   2.056   8.329
 2524SOL    HW1 9013   1.527   2.084   8.404
 2524SOL    HW2 9014   1.583   2.132   8.272
 2525SOL     OW 9015   0.043   2.897   7.721
 2525SOL    HW1 9016   0.136   2.881   7.706
 2525SOL    HW2 9017   0.035   2.910   7.816
 2526SOL     OW 9018   0.887   3.524   7.786
 2526SOL    HW1 9019   0.811   3.512   7.729
 2526SOL    HW2 9020   0.863   3.599   7.842
 2527SOL     OW 9021   0.241   2.470   9.421
 2527SOL    HW1 9022   0.168   2.525   9.448
 2527SOL    HW2 9023   0.229   2.460   9.326
 2528SOL     OW 9024   0.235   2.128  10.294
 2528SOL    HW1 9025   0.258   2.098  10.382
 2528SOL    HW2 9026   0.157   2.078  10.271
 2529SOL     OW 9027   8.009   2.238   9.926
 2529SOL    HW1 9028   7.915   2.229   9.942
 2529SOL    HW2 9029   8.024   2.189   9.846
 2530SOL     OW 9030   0.572   3.161  10.503
 2530SOL    HW1 9031   0.487   3.167  10.458
 2530SOL    HW2 9032   0.588   3.250  10.535
 2531SOL     OW 9033   1.579   3.374  10.013
 2531SOL    HW1 9034   1.529   3.355  10.093
 2531SOL    HW2 9035   1.512   3.382   9.945
 2532SOL     OW 9036   1.122   2.572  10.007
 2532SOL    HW1 9037   1.176   2.649   9.990
 2532SOL    HW2 9038   1.082   2.588  10.092
 2533SOL     OW 9039   1.747   2.465   9.545
 2533SOL    HW1 9040   1.728   2.469   9.452
 2533SOL    HW2 9041   1.750   2.372   9.566
 2534SOL     OW 9042   0.740   2.996  10.362
 2534SOL    HW1 9043   0.676   3.036  10.421
 2534SOL    HW2 9044   0.780   3.070  10.316
 2535SOL     OW 9045   0.874   2.618  11.131
 2535SOL    HW1 9046   0.871   2.686  11.198
 2535SOL    HW2 9047   0.896   2.664  11.050
 2536SOL     OW 9048   0.686   2.850   9.958
 2536SOL    HW1 9049   0.753   2.853  10.026
 2536SOL    HW2 9050   0.618   2.910   9.990
 2537SOL     OW 9051   0.715   3.014  11.134
 2537SOL    HW1 9052   0.764   3.090  11.165
 2537SOL    HW2 9053   0.638   3.051  11.090
 2538SOL     OW 9054   0.342   3.274  10.374
 2538SOL    HW1 9055   0.283   3.227  10.315
 2538SOL    HW2 9056   0.390   3.334  10.318
 2539SOL     OW 9057   1.461   3.357  10.677
 2539SOL    HW1 9058   1.514   3.436  10.682
 2539SOL    HW2 9059   1.390   3.372  10.739
 2540SOL     OW 9060   0.448   2.258  10.815
 2540SOL    HW1 9061   0.528   2.205  10.814
 2540SOL    HW2 9062   0.377   2.194  10.823
 2541SOL     OW 9063   1.609   2.305  10.052
 2541SOL    HW1 9064   1.561   2.335   9.975
 2541SOL    HW2 9065   1.624   2.385  10.103
 2542SOL     OW 9066   0.225   3.563   9.787
 2542SOL    HW1 9067   0.225   3.646   9.833
 2542SOL    HW2 9068   0.291   3.573   9.718
 2543SOL     OW 9069   1.140   3.204  11.004
 2543SOL    HW1 9070   1.178   3.198  11.092
 2543SOL    HW2 9071   1.088   3.124  10.995
 2544SOL     OW 9072   0.285   3.301   9.832
 2544SOL    HW1 9073   0.263   3.394   9.839
 2544SOL    HW2 9074   0.231   3.259   9.900
 2545SOL     OW 9075   0.281   2.945  10.214
 2545SOL    HW1 9076   0.277   2.853  10.238
 2545SOL    HW2 9077   0.202   2.984  10.253
 2546SOL     OW 9078   0.610   3.657  10.732
 2546SOL    HW1 9079   0.529   3.637  10.780
 2546SOL    HW2 9080   0.633   3.745  10.760
 2547SOL     OW 9081   0.585   2.851   9.457
 2547SOL    HW1 9082   0.629   2.899   9.386
 2547SOL    HW2 9083   0.625   2.884   9.537
 2548SOL     OW 9084   1.593   1.988  10.772
 2548SOL    HW1 9085   1.629   2.060  10.721
 2548SOL    HW2 9086   1.570   2.028  10.857
 2549SOL     OW 9087   0.139   2.494   9.871
 2549SOL    HW1 9088   0.097   2.414   9.903
 2549SOL    HW2 9089   0.113   2.561   9.934
 2550SOL     OW 9090   1.847   3.616   9.649
 2550SOL    HW1 9091   1.925   3.593   9.700
 2550SOL    HW2 9092   1.865   3.705   9.618
 2551SOL     OW 9093   0.016   3.453   9.454
 2551SOL    HW1 9094   0.004   3.359   9.442
 2551SOL    HW2 9095  -0.005   3.469   9.546
 2552SOL     OW 9096   1.690   2.775   9.951
 2552SOL    HW1 9097   1.768   2.730   9.919
 2552SOL    HW2 9098   1.665   2.834   9.880
 2553SOL     OW 9099   1.649   2.966   9.747
 2553SOL    HW1 9100   1.733   2.963   9.702
 2553SOL    HW2 9101   1.661   3.029   9.818
 2554SOL     OW 9102   0.160   2.594  10.918
 2554SOL    HW1 9103   0.253   2.617  10.909
 2554SOL    HW2 9104   0.119   2.674  10.952
 2555SOL     OW 9105   0.610   3.251  10.054
 2555SOL    HW1 9106   0.567   3.165  10.053
 2555SOL    HW2 9107   0.600   3.283   9.964
 2556SOL     OW 9108   1.279   3.093  10.734
 2556SOL    HW1 9109   1.307   3.024  10.675
 2556SOL    HW2 9110   1.342   3.088  10.807
 2557SOL     OW 9111   0.813   1.864   9.830
 2557SOL    HW1 9112   0.844   1.935   9.775
 2557SOL    HW2 9113   0.718   1.877   9.836
 2558SOL     OW 9114   0.164   2.760  10.594
 2558SOL    HW1 9115   0.257   2.745  10.578
 2558SOL    HW2 9116   0.127   2.773  10.507
 2559SOL     OW 9117   1.525   2.865   9.514
 2559SOL    HW1 9118   1.469   2.795   9.548
 2559SOL    HW2 9119   1.571   2.899   9.591
 2560SOL     OW 9120   1.181   3.680  10.940
 2560SOL    HW1 9121   1.185   3.746  10.871
 2560SOL    HW2 9122   1.204   3.598  10.897
 2561SOL     OW 9123   0.356   2.164  11.134
 2561SOL    HW1 9124   0.401   2.218  11.198
 2561SOL    HW2 9125   0.264   2.171  11.158
 2562SOL     OW 9126   1.468   3.280  10.254
 2562SOL    HW1 9127   1.398   3.298  10.318
 2562SOL    HW2 9128   1.453   3.190  10.226
 2563SOL     OW 9129   1.649   3.627   9.887
 2563SOL    HW1 9130   1.643   3.596   9.797
 2563SOL    HW2 9131   1.635   3.549   9.941
 2564SOL     OW 9132   0.603   2.590   9.591
 2564SOL    HW1 9133   0.601   2.671   9.541
 2564SOL    HW2 9134   0.535   2.600   9.657
 2565SOL     OW 9135   1.277   2.237  10.250
 2565SOL    HW1 9136   1.190   2.197  10.254
 2565SOL    HW2 9137   1.332   2.182  10.305
 2566SOL     OW 9138   1.581   3.533   9.622
 2566SOL    HW1 9139   1.674   3.557   9.612
 2566SOL    HW2 9140   1.551   3.520   9.532
 2567SOL     OW 9141   0.793   2.476  10.759
 2567SOL    HW1 9142   0.761   2.449  10.845
 2567SOL    HW2 9143   0.760   2.409  10.699
 2568SOL     OW 9144   1.394   2.340  10.987
 2568SOL    HW1 9145   1.398   2.381  11.073
 2568SOL    HW2 9146   1.446   2.260  10.996
 2569SOL     OW 9147   0.945   2.747  10.896
 2569SOL    HW1 9148   1.000   2.680  10.856
 2569SOL    HW2 9149   0.900   2.788  10.822
 2570SOL     OW 9150   0.993   2.268  10.539
 2570SOL    HW1 9151   0.903   2.284  10.566
 2570SOL    HW2 9152   0.986   2.231  10.451
 2571SOL     OW 9153   1.048   2.548   9.743
 2571SOL    HW1 9154   1.063   2.559   9.836
 2571SOL    HW2 9155   0.954   2.534   9.735
 2572SOL     OW 9156   0.083   2.668  10.085
 2572SOL    HW1 9157   0.162   2.681  10.137
 2572SOL    HW2 9158   0.050   2.757  10.070
 2573SOL     OW 9159   0.125   3.667  10.873
 2573SOL    HW1 9160   0.129   3.665  10.968
 2573SOL    HW2 9161   0.032   3.653  10.852
 2574SOL     OW 9162   0.920   2.211   9.494
 2574SOL    HW1 9163   0.954   2.271   9.428
 2574SOL    HW2 9164   0.890   2.135   9.443
 2575SOL     OW 9165   1.698   2.437  11.144
 2575SOL    HW1 9166   1.667   2.511  11.091
 2575SOL    HW2 9167   1.725   2.371  11.080
 2576SOL     OW 9168   1.377   2.996   9.836
 2576SOL    HW1 9169   1.461   2.994   9.791
 2576SOL    HW2 9170   1.328   3.066   9.792
 2577SOL     OW 9171   0.556   2.035  10.204
 2577SOL    HW1 9172   0.561   2.071  10.293
 2577SOL    HW2 9173   0.541   2.112  10.149
 2578SOL     OW 9174   1.000   3.311   9.778
 2578SOL    HW1 9175   0.970   3.383   9.722
 2578SOL    HW2 9176   0.968   3.334   9.865
 2579SOL     OW 9177   0.363   3.688  10.179
 2579SOL    HW1 9178   0.409   3.605  10.189
 2579SOL    HW2 9179   0.430   3.755  10.194
 2580SOL     OW 9180   1.797   2.906  10.204
 2580SOL    HW1 9181   1.763   2.906  10.115
 2580SOL    HW2 9182   1.720   2.913  10.260
 2581SOL     OW 9183   1.228   3.403  10.822
 2581SOL    HW1 9184   1.214   3.330  10.881
 2581SOL    HW2 9185   1.153   3.401  10.763
 2582SOL     OW 9186   0.321   2.818   9.558
 2582SOL    HW1 9187   0.404   2.854   9.526
 2582SOL    HW2 9188   0.298   2.749   9.496
 2583SOL     OW 9189   1.480   2.622  10.038
 2583SOL    HW1 9190   1.490   2.580  10.124
 2583SOL    HW2 9191   1.561   2.672  10.027
 2584SOL     OW 9192   0.463   3.121  11.049
 2584SOL    HW1 9193   0.441   3.128  10.957
 2584SOL    HW2 9194   0.378   3.117  11.094
 2585SOL     OW 9195   1.127   3.633   9.542
 2585SOL    HW1 9196   1.046   3.596   9.578
 2585SOL    HW2 9197   1.151   3.574   9.471
 2586SOL     OW 9198   0.186   2.155  10.829
 2586SOL    HW1 9199   0.108   2.194  10.790
 2586SOL    HW2 9200   0.159   2.067  10.853
 2587SOL     OW 9201   1.624   3.247   9.419
 2587SOL    HW1 9202   1.591   3.333   9.392
 2587SOL    HW2 9203   1.559   3.185   9.385
 2588SOL     OW 9204   0.456   3.606   9.622
 2588SOL    HW1 9205   0.507   3.656   9.685
 2588SOL    HW2 9206   0.522   3.565   9.565
 2589SOL     OW 9207   1.401   1.964   9.757
 2589SOL    HW1 9208   1.392   1.940   9.664
 2589SOL    HW2 9209   1.495   1.974   9.771
 2590SOL     OW 9210   0.235   3.649  10.534
 2590SOL    HW1 9211   0.286   3.574  10.566
 2590SOL    HW2 9212   0.210   3.624  10.445
 2591SOL     OW 9213   0.945   3.559  10.202
 2591SOL    HW1 9214   1.031   3.518  10.211
 2591SOL    HW2 9215   0.902   3.510  10.132
 2592SOL     OW 9216   0.412   2.548   9.799
 2592SOL    HW1 9217   0.431   2.455   9.808
 2592SOL    HW2 9218   0.318   2.555   9.812
 2593SOL     OW 9219   1.519   2.089  11.030
 2593SOL    HW1 9220   1.530   2.108  11.124
 2593SOL    HW2 9221   1.457   2.017  11.027
 2594SOL     OW 9222   0.663   1.968   9.405
 2594SOL    HW1 9223   0.720   1.891   9.416
 2594SOL    HW2 9224   0.600   1.941   9.338
 2595SOL     OW 9225   0.762   2.144  11.066
 2595SOL    HW1 9226   0.845   2.097  11.062
 2595SOL    HW2 9227   0.719   2.111  11.144
 2596SOL     OW 9228   0.872   3.382  10.505
 2596SOL    HW1 9229   0.856   3.347  10.417
 2596SOL    HW2 9230   0.944   3.329  10.539
 2597SOL     OW 9231   1.333   2.449  10.742
 2597SOL    HW1 9232   1.365   2.419  10.827
 2597SOL    HW2 9233   1.372   2.536  10.731
 2598SOL     OW 9234   0.820   3.243  10.257
 2598SOL    HW1 9235   0.906   3.238  10.215
 2598SOL    HW2 9236   0.759   3.258  10.185
 2599SOL     OW 9237   0.934   2.365  10.201
 2599SOL    HW1 9238   0.919   2.360  10.106
 2599SOL    HW2 9239   0.962   2.277  10.226
 2600SOL     OW 9240   0.553   1.930   9.801
 2600SOL    HW1 9241   0.470   1.928   9.849
 2600SOL    HW2 9242   0.544   2.004   9.741
 2601SOL     OW 9243   1.428   3.068   9.347
 2601SOL    HW1 9244   1.454   2.992   9.400
 2601SOL    HW2 9245   1.342   3.092   9.381
 2602SOL     OW 9246   0.277   1.914   9.481
 2602SOL    HW1 9247   0.327   1.983   9.436
 2602SOL    HW2 9248   0.344   1.863   9.526
 2603SOL     OW 9249   1.078   2.549  10.766
 2603SOL    HW1 9250   1.011   2.481  10.767
 2603SOL    HW2 9251   1.161   2.501  10.758
 2604SOL     OW 9252   1.211   3.449  10.112
 2604SOL    HW1 9253   1.223   3.504  10.035
 2604SOL    HW2 9254   1.284   3.473  10.170
 2605SOL     OW 9255   0.473   3.011  10.031
 2605SOL    HW1 9256   0.409   2.992  10.099
 2605SOL    HW2 9257   0.425   3.001   9.949
 2606SOL     OW 9258   1.259   3.654   9.925
 2606SOL    HW1 9259   1.312   3.712   9.869
 2606SOL    HW2 9260   1.191   3.712   9.960
 2607SOL     OW 9261   1.023   2.406   9.334
 2607SOL    HW1 9262   0.971   2.481   9.306
 2607SOL    HW2 9263   1.103   2.444   9.371
 2608SOL     OW 9264   0.113   2.430  10.706
 2608SOL    HW1 9265   0.202   2.427  10.671
 2608SOL    HW2 9266   0.113   2.504  10.766
 2609SOL     OW 9267   0.566   2.089  10.479
 2609SOL    HW1 9268   0.610   2.012  10.516
 2609SOL    HW2 9269   0.474   2.079  10.506
 2610SOL     OW 9270   0.856   2.312   9.919
 2610SOL    HW1 9271   0.817   2.386   9.873
 2610SOL    HW2 9272   0.783   2.256   9.941
 2611SOL     OW 9273   0.992   1.921  10.054
 2611SOL    HW1 9274   0.937   1.903   9.978
 2611SOL    HW2 9275   0.984   1.844  10.109
 2612SOL     OW 9276   1.455   3.020  10.162
 2612SOL    HW1 9277   1.378   2.976  10.127
 2612SOL    HW2 9278   1.510   3.035  10.085
 2613SOL     OW 9279   1.474   2.479  10.284
 2613SOL    HW1 9280   1.421   2.399  10.282
 2613SOL    HW2 9281   1.529   2.469  10.361
 2614SOL     OW 9282   1.832   2.672   9.702
 2614SOL    HW1 9283   1.895   2.621   9.754
 2614SOL    HW2 9284   1.805   2.612   9.633
 2615SOL     OW 9285   0.481   3.293   9.449
 2615SOL    HW1 9286   0.412   3.247   9.496
 2615SOL    HW2 9287   0.449   3.299   9.359
 2616SOL     OW 9288   1.675   3.111   9.981
 2616SOL    HW1 9289   1.770   3.106   9.983
 2616SOL    HW2 9290   1.656   3.204   9.980
 2617SOL     OW 9291   1.400   2.441   9.369
 2617SOL    HW1 9292   1.359   2.398   9.444
 2617SOL    HW2 9293   1.494   2.424   9.379
 2618SOL     OW 9294   0.538   2.119   9.605
 2618SOL    HW1 9295   0.582   2.071   9.534
 2618SOL    HW2 9296   0.514   2.203   9.565
 2619SOL     OW 9297   1.756   3.096  10.891
 2619SOL    HW1 9298   1.821   3.056  10.949
 2619SOL    HW2 9299   1.774   3.190  10.896
 2620SOL     OW 9300   1.050   3.212  10.639
 2620SOL    HW1 9301   0.973   3.184  10.689
 2620SOL    HW2 9302   1.124   3.172  10.684
 2621SOL     OW 9303   1.610   3.485  10.969
 2621SOL    HW1 9304   1.599   3.524  10.882
 2621SOL    HW2 9305   1.693   3.438  10.963
 2622SOL     OW 9306   1.139   3.073  10.413
 2622SOL    HW1 9307   1.078   3.113  10.475
 2622SOL    HW2 9308   1.115   3.111  10.328
 2623SOL     OW 9309   1.599   2.957  10.392
 2623SOL    HW1 9310   1.573   3.020  10.459
 2623SOL    HW2 9311   1.537   2.971  10.320
 2624SOL     OW 9312   0.916   1.953  10.697
 2624SOL    HW1 9313   0.938   1.933  10.606
 2624SOL    HW2 9314   0.996   1.991  10.734
 2625SOL     OW 9315   0.985   2.977  11.034
 2625SOL    HW1 9316   0.895   2.997  11.059
 2625SOL    HW2 9317   0.978   2.899  10.979
 2626SOL     OW 9318   0.714   2.921   9.688
 2626SOL    HW1 9319   0.699   2.898   9.780
 2626SOL    HW2 9320   0.791   2.869   9.663
 2627SOL     OW 9321   0.428   2.684  10.564
 2627SOL    HW1 9322   0.495   2.698  10.631
 2627SOL    HW2 9323   0.403   2.593  10.574
 2628SOL     OW 9324   1.260   2.229  10.597
 2628SOL    HW1 9325   1.292   2.309  10.639
 2628SOL    HW2 9326   1.170   2.250  10.572
 2629SOL     OW 9327   0.050   3.452  10.634
 2629SOL    HW1 9328   0.092   3.536  10.614
 2629SOL    HW2 9329   0.102   3.417  10.707
 2630SOL     OW 9330   0.322   2.978   9.797
 2630SOL    HW1 9331   0.328   3.054   9.738
 2630SOL    HW2 9332   0.329   2.902   9.739
 2631SOL     OW 9333   0.550   2.390  10.174
 2631SOL    HW1 9334   0.565   2.446  10.097
 2631SOL    HW2 9335   0.616   2.419  10.237
 2632SOL     OW 9336   1.246   3.210   9.708
 2632SOL    HW1 9337   1.303   3.283   9.732
 2632SOL    HW2 9338   1.159   3.237   9.737
 2633SOL     OW 9339   1.295   3.325  10.461
 2633SOL    HW1 9340   1.349   3.330  10.539
 2633SOL    HW2 9341   1.233   3.254  10.479
 2634SOL     OW 9342   1.579   2.465   9.803
 2634SOL    HW1 9343   1.533   2.536   9.847
 2634SOL    HW2 9344   1.632   2.509   9.736
 2635SOL     OW 9345   0.347   3.393  10.620
 2635SOL    HW1 9346   0.331   3.346  10.538
 2635SOL    HW2 9347   0.442   3.404  10.624
 2636SOL     OW 9348   0.443   2.572  10.932
 2636SOL    HW1 9349   0.487   2.627  10.867
 2636SOL    HW2 9350   0.510   2.510  10.960
 2637SOL     OW 9351   1.606   2.642  10.986
 2637SOL    HW1 9352   1.524   2.692  10.992
 2637SOL    HW2 9353   1.613   2.619  10.893
 2638SOL     OW 9354   0.997   2.002  11.068
 2638SOL    HW1 9355   1.055   2.074  11.046
 2638SOL    HW2 9356   1.044   1.923  11.040
 2639SOL     OW 9357   0.489   1.912  11.068
 2639SOL    HW1 9358   0.447   1.858  11.002
 2639SOL    HW2 9359   0.441   1.995  11.066
 2640SOL     OW 9360   0.593   2.737  10.344
 2640SOL    HW1 9361   0.626   2.826  10.340
 2640SOL    HW2 9362   0.532   2.737  10.418
 2641SOL     OW 9363   1.344   2.716  10.344
 2641SOL    HW1 9364   1.269   2.713  10.284
 2641SOL    HW2 9365   1.392   2.635  10.324
 2642SOL     OW 9366   1.219   2.386   9.589
 2642SOL    HW1 9367   1.286   2.347   9.645
 2642SOL    HW2 9368   1.209   2.475   9.622
 2643SOL     OW 9369   0.307   2.046  10.557
 2643SOL    HW1 9370   0.262   2.082  10.634
 2643SOL    HW2 9371   0.284   1.953  10.558
 2644SOL     OW 9372   0.052   3.166  10.583
 2644SOL    HW1 9373   0.076   3.120  10.663
 2644SOL    HW2 9374   0.052   3.259  10.608
 2645SOL     OW 9375   0.722   2.492  10.362
 2645SOL    HW1 9376   0.800   2.486  10.307
 2645SOL    HW2 9377   0.691   2.582  10.349
 2646SOL     OW 9378   1.734   2.823  11.163
 2646SOL    HW1 9379   1.691   2.754  11.112
 2646SOL    HW2 9380   1.674   2.839  11.236
 2647SOL     OW 9381   0.311   1.927   9.927
 2647SOL    HW1 9382   0.285   2.017   9.946
 2647SOL    HW2 9383   0.318   1.885  10.013
 2648SOL     OW 9384   1.599   2.223   9.676
 2648SOL    HW1 9385   1.647   2.164   9.733
 2648SOL    HW2 9386   1.592   2.304   9.726
 2649SOL     OW 9387   1.024   2.618  10.265
 2649SOL    HW1 9388   1.018   2.634  10.359
 2649SOL    HW2 9389   1.004   2.525  10.255
 2650SOL     OW 9390   0.981   3.426  11.033
 2650SOL    HW1 9391   0.964   3.471  10.951
 2650SOL    HW2 9392   1.026   3.346  11.008
 2651SOL     OW 9393   1.851   3.356  10.901
 2651SOL    HW1 9394   1.873   3.388  10.814
 2651SOL    HW2 9395   1.929   3.373  10.954
 2652SOL     OW 9396   0.354   2.777  11.120
 2652SOL    HW1 9397   0.430   2.816  11.163
 2652SOL    HW2 9398   0.391   2.706  11.067
 2653SOL     OW 9399   1.506   2.134   9.435
 2653SOL    HW1 9400   1.452   2.060   9.462
 2653SOL    HW2 9401   1.545   2.166   9.516
 2654SOL     OW 9402   1.288   2.688   9.334
 2654SOL    HW1 9403   1.333   2.604   9.334
 2654SOL    HW2 9404   1.317   2.731   9.254
 2655SOL     OW 9405   1.078   3.207  10.175
 2655SOL    HW1 9406   1.082   3.137  10.110
 2655SOL    HW2 9407   1.129   3.278  10.137
 2656SOL     OW 9408   0.317   2.667  10.246
 2656SOL    HW1 9409   0.410   2.686  10.240
 2656SOL    HW2 9410   0.313   2.578  10.282
 2657SOL     OW 9411   0.332   2.379  10.329
 2657SOL    HW1 9412   0.295   2.293  10.309
 2657SOL    HW2 9413   0.408   2.387  10.270
 2658SOL     OW 9414   1.137   2.234  10.999
 2658SOL    HW1 9415   1.089   2.288  11.062
 2658SOL    HW2 9416   1.222   2.276  10.992
 2659SOL     OW 9417   1.157   2.055  10.787
 2659SOL    HW1 9418   1.147   2.119  10.857
 2659SOL    HW2 9419   1.201   2.102  10.717
 2660SOL     OW 9420   7.991   3.173   9.524
 2660SOL    HW1 9421   7.899   3.186   9.550
 2660SOL    HW2 9422   7.996   3.080   9.503
 2661SOL     OW 9423   0.112   3.620  10.256
 2661SOL    HW1 9424   0.101   3.551  10.191
 2661SOL    HW2 9425   0.192   3.665  10.231
 2662SOL     OW 9426   0.492   3.440  10.217
 2662SOL    HW1 9427   0.562   3.501  10.240
 2662SOL    HW2 9428   0.533   3.377  10.158
 2663SOL     OW 9429   0.969   2.644  10.530
 2663SOL    HW1 9430   1.029   2.628  10.603
 2663SOL    HW2 9431   0.885   2.611  10.561
 2664SOL     OW 9432   0.074   2.416  10.434
 2664SOL    HW1 9433   0.167   2.411  10.409
 2664SOL    HW2 9434   0.075   2.414  10.529
 2665SOL     OW 9435   1.380   2.792  10.969
 2665SOL    HW1 9436   1.401   2.886  10.966
 2665SOL    HW2 9437   1.369   2.767  10.877
 2666SOL     OW 9438   0.816   2.425   9.656
 2666SOL    HW1 9439   0.803   2.363   9.584
 2666SOL    HW2 9440   0.748   2.491   9.642
 2667SOL     OW 9441   1.647   2.477  10.507
 2667SOL    HW1 9442   1.637   2.407  10.572
 2667SOL    HW2 9443   1.732   2.460  10.466
 2668SOL     OW 9444   0.294   3.392  11.035
 2668SOL    HW1 9445   0.256   3.467  11.081
 2668SOL    HW2 9446   0.280   3.318  11.094
 2669SOL     OW 9447   0.712   2.309  10.562
 2669SOL    HW1 9448   0.660   2.234  10.533
 2669SOL    HW2 9449   0.706   2.372  10.490
 2670SOL     OW 9450   0.925   3.536  10.781
 2670SOL    HW1 9451   0.894   3.497  10.699
 2670SOL    HW2 9452   0.919   3.630  10.766
 2671SOL     OW 9453   0.490   2.360   9.483
 2671SOL    HW1 9454   0.538   2.437   9.513
 2671SOL    HW2 9455   0.403   2.394   9.461
 2672SOL     OW 9456   0.158   2.976  10.770
 2672SOL    HW1 9457   0.130   2.932  10.850
 2672SOL    HW2 9458   0.160   2.906  10.704
 2673SOL     OW 9459   1.316   2.903  10.534
 2673SOL    HW1 9460   1.334   2.838  10.467
 2673SOL    HW2 9461   1.253   2.962  10.494
 2674SOL     OW 9462   1.316   2.687   9.608
 2674SOL    HW1 9463   1.240   2.730   9.647
 2674SOL    HW2 9464   1.301   2.693   9.513
 2675SOL     OW 9465   1.785   3.596  10.472
 2675SOL    HW1 9466   1.846   3.624  10.404
 2675SOL    HW2 9467   1.754   3.510  10.443
 2676SOL     OW 9468   1.242   3.595  10.414
 2676SOL    HW1 9469   1.324   3.622  10.372
 2676SOL    HW2 9470   1.254   3.502  10.432
 2677SOL     OW 9471   0.057   3.057  10.338
 2677SOL    HW1 9472   0.060   3.096  10.425
 2677SOL    HW2 9473  -0.008   3.109  10.291
 2678SOL     OW 9474   0.680   3.535  11.053
 2678SOL    HW1 9475   0.616   3.607  11.045
 2678SOL    HW2 9476   0.748   3.557  10.990
 2679SOL     OW 9477   1.736   2.025   9.813
 2679SOL    HW1 9478   1.800   2.009   9.744
 2679SOL    HW2 9479   1.717   1.939   9.849
 2680SOL     OW 9480   1.399   3.429   9.804
 2680SOL    HW1 9481   1.456   3.461   9.734
 2680SOL    HW2 9482   1.345   3.505   9.827
 2681SOL     OW 9483   0.175   3.604  11.151
 2681SOL    HW1 9484   0.109   3.558  11.203
 2681SOL    HW2 9485   0.217   3.664  11.213
 2682SOL     OW 9486   1.277   2.792   9.979
 2682SOL    HW1 9487   1.352   2.735   9.994
 2682SOL    HW2 9488   1.311   2.861   9.922
 2683SOL     OW 9489   0.798   3.142  10.736
 2683SOL    HW1 9490   0.770   3.184  10.817
 2683SOL    HW2 9491   0.730   3.165  10.672
 2684SOL     OW 9492   0.669   3.487   9.466
 2684SOL    HW1 9493   0.683   3.505   9.373
 2684SOL    HW2 9494   0.611   3.411   9.468
 2685SOL     OW 9495   1.617   3.585  10.701
 2685SOL    HW1 9496   1.673   3.591  10.623
 2685SOL    HW2 9497   1.602   3.676  10.726
 2686SOL     OW 9498   1.841   2.029  10.280
 2686SOL    HW1 9499   1.872   1.942  10.254
 2686SOL    HW2 9500   1.757   2.038  10.235
 2687SOL     OW 9501   0.265   2.181  10.018
 2687SOL    HW1 9502   0.178   2.210   9.991
 2687SOL    HW2 9503   0.259   2.173  10.113
 2688SOL     OW 9504   1.208   3.463   9.344
 2688SOL    HW1 9505   1.197   3.369   9.362
 2688SOL    HW2 9506   1.147   3.480   9.272
 2689SOL     OW 9507   0.821   2.873  10.685
 2689SOL    HW1 9508   0.855   2.871  10.596
 2689SOL    HW2 9509   0.813   2.966  10.706
 2690SOL     OW 9510   0.925   2.772   9.614
 2690SOL    HW1 9511   0.972   2.806   9.538
 2690SOL    HW2 9512   0.982   2.702   9.648
 2691SOL     OW 9513   1.489   3.497   9.357
 2691SOL    HW1 9514   1.396   3.485   9.338
 2691SOL    HW2 9515   1.530   3.501   9.270
 2692SOL     OW 9516   0.370   3.159  10.800
 2692SOL    HW1 9517   0.352   3.239  10.750
 2692SOL    HW2 9518   0.295   3.102  10.781
 2693SOL     OW 9519   1.607   3.131  10.616
 2693SOL    HW1 9520   1.689   3.180  10.626
 2693SOL    HW2 9521   1.539   3.193  10.641
 2694SOL     OW 9522   1.069   2.978  10.031
 2694SOL    HW1 9523   0.994   2.927  10.063
 2694SOL    HW2 9524   1.130   2.912   9.999
 2695SOL     OW 9525   1.023   2.103  10.272
 2695SOL    HW1 9526   1.015   2.056  10.188
 2695SOL    HW2 9527   1.019   2.034  10.338
 2696SOL     OW 9528   0.610   3.356   9.803
 2696SOL    HW1 9529   0.661   3.304   9.740
 2696SOL    HW2 9530   0.529   3.376   9.757
 2697SOL     OW 9531   1.736   2.255  10.694
 2697SOL    HW1 9532   1.810   2.315  10.692
 2697SOL    HW2 9533   1.762   2.184  10.634
 2698SOL     OW 9534   0.258   3.189   9.590
 2698SOL    HW1 9535   0.163   3.195   9.575
 2698SOL    HW2 9536   0.272   3.238   9.671
 2699SOL     OW 9537   0.098   2.850  11.023
 2699SOL    HW1 9538   0.064   2.937  11.044
 2699SOL    HW2 9539   0.182   2.846  11.069
 2700SOL     OW 9540   0.678   2.059  10.812
 2700SOL    HW1 9541   0.760   2.037  10.769
 2700SOL    HW2 9542   0.704   2.091  10.899
 2701SOL     OW 9543   0.098   2.207   9.336
 2701SOL    HW1 9544   0.030   2.248   9.390
 2701SOL    HW2 9545   0.115   2.271   9.267
 2702SOL     OW 9546   1.428   2.714  10.707
 2702SOL    HW1 9547   1.370   2.770  10.656
 2702SOL    HW2 9548   1.513   2.721  10.663
 2703SOL     OW 9549   0.065   2.080   9.701
 2703SOL    HW1 9550   0.019   2.091   9.618
 2703SOL    HW2 9551   0.158   2.085   9.679
 2704SOL     OW 9552   1.177   3.191   9.427
 2704SOL    HW1 9553   1.081   3.182   9.422
 2704SOL    HW2 9554   1.195   3.192   9.521
 2705SOL     OW 9555   0.623   2.692  10.753
 2705SOL    HW1 9556   0.677   2.770  10.737
 2705SOL    HW2 9557   0.686   2.620  10.756
 2706SOL     OW 9558   1.483   3.651  10.289
 2706SOL    HW1 9559   1.498   3.722  10.227
 2706SOL    HW2 9560   1.571   3.626  10.319
 2707SOL     OW 9561   0.698   2.426  11.012
 2707SOL    HW1 9562   0.752   2.484  11.065
 2707SOL    HW2 9563   0.722   2.338  11.041
 2708SOL     OW 9564   1.475   3.051  10.939
 2708SOL    HW1 9565   1.455   3.069  11.031
 2708SOL    HW2 9566   1.566   3.079  10.927
 2709SOL     OW 9567   0.387   3.599  10.875
 2709SOL    HW1 9568   0.298   3.628  10.852
 2709SOL    HW2 9569   0.374   3.513  10.914
 2710SOL     OW 9570   1.671   2.765  10.577
 2710SOL    HW1 9571   1.683   2.673  10.550
 2710SOL    HW2 9572   1.644   2.810  10.497
 2711SOL     OW 9573   1.210   2.170   9.786
 2711SOL    HW1 9574   1.273   2.099   9.773
 2711SOL    HW2 9575   1.243   2.218   9.862
 2712SOL     OW 9576   0.610   2.584   9.984
 2712SOL    HW1 9577   0.642   2.674   9.976
 2712SOL    HW2 9578   0.541   2.576   9.919
 2713SOL     OW 9579   1.748   2.231  10.969
 2713SOL    HW1 9580   1.743   2.244  10.874
 2713SOL    HW2 9581   1.674   2.173  10.989
 2714SOL     OW 9582   0.885   3.234   9.366
 2714SOL    HW1 9583   0.825   3.275   9.429
 2714SOL    HW2 9584   0.898   3.301   9.299
 2715SOL     OW 9585   0.670   3.641  10.250
 2715SOL    HW1 9586   0.651   3.732  10.228
 2715SOL    HW2 9587   0.765   3.633  10.239
 2716SOL     OW 9588   0.871   2.836  10.166
 2716SOL    HW1 9589   0.920   2.763  10.203
 2716SOL    HW2 9590   0.832   2.880  10.241
 2717SOL     OW 9591   1.073   2.841   9.402
 2717SOL    HW1 9592   1.049   2.899   9.330
 2717SOL    HW2 9593   1.148   2.792   9.370
 2718SOL     OW 9594   1.847   3.418  10.141
 2718SOL    HW1 9595   1.770   3.411  10.084
 2718SOL    HW2 9596   1.836   3.347  10.205
 2719SOL     OW 9597   0.217   3.157  11.169
 2719SOL    HW1 9598   0.123   3.144  11.151
 2719SOL    HW2 9599   0.222   3.164  11.264
 2720SOL     OW 9600   0.133   3.119   9.974
 2720SOL    HW1 9601   0.062   3.063  10.006
 2720SOL    HW2 9602   0.194   3.058   9.931
 2721SOL     OW 9603   0.684   3.269  10.951
 2721SOL    HW1 9604   0.598   3.235  10.974
 2721SOL    HW2 9605   0.684   3.359  10.983
 2722SOL     OW 9606   1.803   2.037  10.549
 2722SOL    HW1 9607   1.813   1.942  10.560
 2722SOL    HW2 9608   1.816   2.052  10.456
 2723SOL     OW 9609   0.469   2.283   9.855
 2723SOL    HW1 9610   0.452   2.241   9.771
 2723SOL    HW2 9611   0.399   2.251   9.912
 2724SOL     OW 9612   1.691   3.351  10.396
 2724SOL    HW1 9613   1.614   3.339  10.341
 2724SOL    HW2 9614   1.698   3.270  10.446
 2725SOL     OW 9615   0.362   2.422  10.604
 2725SOL    HW1 9616   0.414   2.364  10.659
 2725SOL    HW2 9617   0.375   2.389  10.515
 2726SOL     OW 9618   0.834   3.453   9.975
 2726SOL    HW1 9619   0.828   3.530   9.920
 2726SOL    HW2 9620   0.756   3.401   9.953
 2727SOL     OW 9621   1.428   2.094  10.425
 2727SOL    HW1 9622   1.444   2.006  10.458
 2727SOL    HW2 9623   1.377   2.137  10.494
 2728SOL     OW 9624   1.008   1.875  10.440
 2728SOL    HW1 9625   0.957   1.810  10.393
 2728SOL    HW2 9626   1.096   1.838  10.445
 2729SOL     OW 9627   0.765   3.195   9.650
 2729SOL    HW1 9628   0.744   3.102   9.649
 2729SOL    HW2 9629   0.856   3.199   9.678
 2730SOL     OW 9630   0.621   3.417  10.601
 2730SOL    HW1 9631   0.620   3.501  10.646
 2730SOL    HW2 9632   0.708   3.411  10.561
 2731SOL     OW 9633   1.359   1.905   9.491
 2731SOL    HW1 9634   1.396   1.837   9.435
 2731SOL    HW2 9635   1.268   1.877   9.506
 2732SOL     OW 9636   1.277   2.331   9.991
 2732SOL    HW1 9637   1.236   2.417   9.999
 2732SOL    HW2 9638   1.286   2.300  10.081
 2733SOL     OW 9639   1.583   2.059  10.192
 2733SOL    HW1 9640   1.529   2.087  10.266
 2733SOL    HW2 9641   1.585   2.134  10.133
 2734SOL     OW 9642   0.047   2.890   9.577
 2734SOL    HW1 9643   0.141   2.885   9.563
 2734SOL    HW2 9644   0.038   2.909   9.671
 2735SOL     OW 9645   0.886   3.524   9.645
 2735SOL    HW1 9646   0.812   3.509   9.587
 2735SOL    HW2 9647   0.859   3.598   9.700
 2736SOL     OW 9648   0.211   2.482  11.206
 2736SOL    HW1 9649   0.150   2.553  11.227
 2736SOL    HW2 9650   0.230   2.440  11.290
 2737SOL     OW 9651   0.235   2.139  12.153
 2737SOL    HW1 9652   0.278   2.114  12.234
 2737SOL    HW2 9653   0.146   2.107  12.162
 2738SOL     OW 9654   8.005   2.258  11.787
 2738SOL    HW1 9655   7.919   2.263  11.830
 2738SOL    HW2 9656   7.991   2.201  11.712
 2739SOL     OW 9657   0.546   3.110  12.342
 2739SOL    HW1 9658   0.473   3.153  12.298
 2739SOL    HW2 9659   0.552   3.155  12.426
 2740SOL     OW 9660   1.579   3.377  11.882
 2740SOL    HW1 9661   1.535   3.355  11.965
 2740SOL    HW2 9662   1.507   3.382  11.819
 2741SOL     OW 9663   1.134   2.560  11.864
 2741SOL    HW1 9664   1.180   2.644  11.857
 2741SOL    HW2 9665   1.083   2.568  11.945
 2742SOL     OW 9666   1.789   2.453  11.395
 2742SOL    HW1 9667   1.757   2.452  11.305
 2742SOL    HW2 9668   1.745   2.380  11.437
 2743SOL     OW 9669   0.761   2.996  12.232
 2743SOL    HW1 9670   0.680   3.027  12.273
 2743SOL    HW2 9671   0.794   3.072  12.183
 2744SOL     OW 9672   0.689   2.856  11.820
 2744SOL    HW1 9673   0.756   2.852  11.888
 2744SOL    HW2 9674   0.621   2.913  11.856
 2745SOL     OW 9675   0.347   3.269  12.228
 2745SOL    HW1 9676   0.273   3.231  12.181
 2745SOL    HW2 9677   0.387   3.330  12.166
 2746SOL     OW 9678   1.599   2.299  11.920
 2746SOL    HW1 9679   1.529   2.316  11.857
 2746SOL    HW2 9680   1.593   2.372  11.981
 2747SOL     OW 9681   0.234   3.552  11.653
 2747SOL    HW1 9682   0.215   3.637  11.693
 2747SOL    HW2 9683   0.301   3.572  11.587
 2748SOL     OW 9684   0.297   3.291  11.687
 2748SOL    HW1 9685   0.273   3.383  11.693
 2748SOL    HW2 9686   0.240   3.247  11.750
 2749SOL     OW 9687   0.271   2.949  12.065
 2749SOL    HW1 9688   0.272   2.857  12.092
 2749SOL    HW2 9689   0.195   2.986  12.109
 2750SOL     OW 9690   0.577   2.855  11.317
 2750SOL    HW1 9691   0.627   2.899  11.248
 2750SOL    HW2 9692   0.619   2.883  11.398
 2751SOL     OW 9693   0.137   2.496  11.718
 2751SOL    HW1 9694   0.100   2.414  11.749
 2751SOL    HW2 9695   0.124   2.557  11.791
 2752SOL     OW 9696   1.846   3.613  11.500
 2752SOL    HW1 9697   1.918   3.591  11.559
 2752SOL    HW2 9698   1.860   3.705  11.479
 2753SOL     OW 9699   0.020   3.442  11.310
 2753SOL    HW1 9700  -0.000   3.349  11.300
 2753SOL    HW2 9701   0.007   3.460  11.403
 2754SOL     OW 9702   1.689   2.781  11.819
 2754SOL    HW1 9703   1.773   2.740  11.798
 2754SOL    HW2 9704   1.669   2.833  11.741
 2755SOL     OW 9705   1.652   2.966  11.603
 2755SOL    HW1 9706   1.739   2.963  11.564
 2755SOL    HW2 9707   1.660   3.028  11.675
 2756SOL     OW 9708   0.156   2.592   0.287
 2756SOL    HW1 9709   0.152   2.560   0.377
 2756SOL    HW2 9710   0.217   2.666   0.291
 2757SOL     OW 9711   0.615   3.259  11.902
 2757SOL    HW1 9712   0.570   3.174  11.910
 2757SOL    HW2 9713   0.598   3.286  11.811
 2758SOL     OW 9714   0.825   1.863  11.692
 2758SOL    HW1 9715   0.866   1.945  11.664
 2758SOL    HW2 9716   0.731   1.881  11.694
 2759SOL     OW 9717   0.194   2.788  12.453
 2759SOL    HW1 9718   0.282   2.763  12.426
 2759SOL    HW2 9719   0.143   2.787  12.372
 2760SOL     OW 9720   1.530   2.866  11.373
 2760SOL    HW1 9721   1.462   2.808  11.407
 2760SOL    HW2 9722   1.575   2.899  11.451
 2761SOL     OW 9723   1.479   3.273  12.123
 2761SOL    HW1 9724   1.407   3.293  12.182
 2761SOL    HW2 9725   1.462   3.184  12.092
 2762SOL     OW 9726   1.651   3.626  11.746
 2762SOL    HW1 9727   1.633   3.589  11.660
 2762SOL    HW2 9728   1.637   3.553  11.807
 2763SOL     OW 9729   0.588   2.569  11.432
 2763SOL    HW1 9730   0.600   2.657  11.396
 2763SOL    HW2 9731   0.532   2.582  11.509
 2764SOL     OW 9732   1.292   2.238  12.108
 2764SOL    HW1 9733   1.202   2.204  12.106
 2764SOL    HW2 9734   1.338   2.180  12.168
 2765SOL     OW 9735   1.580   3.533  11.484
 2765SOL    HW1 9736   1.672   3.558  11.475
 2765SOL    HW2 9737   1.550   3.518  11.395
 2766SOL     OW 9738   0.983   2.213  12.386
 2766SOL    HW1 9739   0.998   2.283  12.449
 2766SOL    HW2 9740   0.890   2.217  12.367
 2767SOL     OW 9741   1.055   2.558  11.596
 2767SOL    HW1 9742   1.076   2.554  11.689
 2767SOL    HW2 9743   0.971   2.513  11.588
 2768SOL     OW 9744   0.096   2.650  11.944
 2768SOL    HW1 9745   0.173   2.664  11.998
 2768SOL    HW2 9746   0.045   2.731  11.953
 2769SOL     OW 9747   0.069   3.631   0.261
 2769SOL    HW1 9748   0.116   3.621   0.343
 2769SOL    HW2 9749  -0.017   3.664   0.287
 2770SOL     OW 9750   0.901   2.211  11.366
 2770SOL    HW1 9751   0.940   2.276  11.308
 2770SOL    HW2 9752   0.917   2.127  11.322
 2771SOL     OW 9753   1.381   3.002  11.707
 2771SOL    HW1 9754   1.462   2.995  11.656
 2771SOL    HW2 9755   1.329   3.067  11.659
 2772SOL     OW 9756   0.554   2.035  12.067
 2772SOL    HW1 9757   0.564   2.070  12.155
 2772SOL    HW2 9758   0.553   2.113  12.010
 2773SOL     OW 9759   0.994   3.308  11.638
 2773SOL    HW1 9760   0.967   3.384  11.586
 2773SOL    HW2 9761   0.970   3.330  11.728
 2774SOL     OW 9762   0.359   3.687  12.032
 2774SOL    HW1 9763   0.403   3.603  12.046
 2774SOL    HW2 9764   0.425   3.753  12.057
 2775SOL     OW 9765   1.799   2.904  12.055
 2775SOL    HW1 9766   1.748   2.892  11.975
 2775SOL    HW2 9767   1.733   2.914  12.124
 2776SOL     OW 9768   0.318   2.830  11.425
 2776SOL    HW1 9769   0.404   2.853  11.390
 2776SOL    HW2 9770   0.293   2.752  11.375
 2777SOL     OW 9771   1.482   2.614  11.887
 2777SOL    HW1 9772   1.482   2.575  11.975
 2777SOL    HW2 9773   1.560   2.669  11.886
 2778SOL     OW 9774   1.128   3.638  11.402
 2778SOL    HW1 9775   1.048   3.601  11.442
 2778SOL    HW2 9776   1.151   3.575  11.334
 2779SOL     OW 9777   1.624   3.239  11.260
 2779SOL    HW1 9778   1.587   3.326  11.248
 2779SOL    HW2 9779   1.553   3.179  11.239
 2780SOL     OW 9780   0.458   3.609  11.483
 2780SOL    HW1 9781   0.505   3.659  11.550
 2780SOL    HW2 9782   0.527   3.569  11.431
 2781SOL     OW 9783   1.399   1.968  11.620
 2781SOL    HW1 9784   1.393   1.943  11.527
 2781SOL    HW2 9785   1.492   1.976  11.637
 2782SOL     OW 9786   0.257   3.644  12.376
 2782SOL    HW1 9787   0.241   3.573  12.438
 2782SOL    HW2 9788   0.195   3.628  12.305
 2783SOL     OW 9789   0.943   3.559  12.069
 2783SOL    HW1 9790   1.022   3.508  12.086
 2783SOL    HW2 9791   0.898   3.512  11.999
 2784SOL     OW 9792   0.410   2.557  11.646
 2784SOL    HW1 9793   0.423   2.463  11.660
 2784SOL    HW2 9794   0.318   2.572  11.669
 2785SOL     OW 9795   0.651   1.975  11.273
 2785SOL    HW1 9796   0.710   1.901  11.287
 2785SOL    HW2 9797   0.595   1.948  11.201
 2786SOL     OW 9798   0.814   3.224  12.100
 2786SOL    HW1 9799   0.902   3.232  12.064
 2786SOL    HW2 9800   0.756   3.245  12.027
 2787SOL     OW 9801   0.935   2.376  12.066
 2787SOL    HW1 9802   0.906   2.362  11.976
 2787SOL    HW2 9803   0.969   2.291  12.094
 2788SOL     OW 9804   0.558   1.922  11.667
 2788SOL    HW1 9805   0.477   1.924  11.717
 2788SOL    HW2 9806   0.551   1.996  11.607
 2789SOL     OW 9807   1.419   3.063  11.208
 2789SOL    HW1 9808   1.449   2.991  11.263
 2789SOL    HW2 9809   1.336   3.090  11.246
 2790SOL     OW 9810   0.292   1.909  11.346
 2790SOL    HW1 9811   0.359   1.972  11.320
 2790SOL    HW2 9812   0.339   1.844  11.398
 2791SOL     OW 9813   0.943   2.107  11.624
 2791SOL    HW1 9814   0.919   2.147  11.540
 2791SOL    HW2 9815   1.037   2.125  11.632
 2792SOL     OW 9816   1.220   3.440  11.968
 2792SOL    HW1 9817   1.231   3.502  11.895
 2792SOL    HW2 9818   1.285   3.467  12.032
 2793SOL     OW 9819   0.477   3.016  11.898
 2793SOL    HW1 9820   0.413   2.997  11.966
 2793SOL    HW2 9821   0.431   3.000  11.816
 2794SOL     OW 9822   1.259   3.652  11.785
 2794SOL    HW1 9823   1.310   3.714  11.732
 2794SOL    HW2 9824   1.189   3.705  11.823
 2795SOL     OW 9825   1.024   2.393  11.199
 2795SOL    HW1 9826   0.981   2.476  11.179
 2795SOL    HW2 9827   1.089   2.416  11.266
 2796SOL     OW 9828   0.572   2.067  12.344
 2796SOL    HW1 9829   0.584   1.972  12.346
 2796SOL    HW2 9830   0.481   2.080  12.369
 2797SOL     OW 9831   0.864   2.317  11.807
 2797SOL    HW1 9832   0.823   2.374  11.743
 2797SOL    HW2 9833   0.889   2.239  11.757
 2798SOL     OW 9834   1.024   1.904  11.912
 2798SOL    HW1 9835   0.962   1.906  11.839
 2798SOL    HW2 9836   0.993   1.833  11.968
 2799SOL     OW 9837   1.445   3.015  12.027
 2799SOL    HW1 9838   1.371   2.956  12.016
 2799SOL    HW2 9839   1.479   3.029  11.939
 2800SOL     OW 9840   1.467   2.474  12.130
 2800SOL    HW1 9841   1.410   2.397  12.138
 2800SOL    HW2 9842   1.525   2.468  12.206
 2801SOL     OW 9843   1.836   2.667  11.558
 2801SOL    HW1 9844   1.896   2.622  11.617
 2801SOL    HW2 9845   1.817   2.603  11.489
 2802SOL     OW 9846   0.490   3.283  11.317
 2802SOL    HW1 9847   0.409   3.256  11.362
 2802SOL    HW2 9848   0.487   3.237  11.234
 2803SOL     OW 9849   1.681   3.121  11.821
 2803SOL    HW1 9850   1.776   3.118  11.834
 2803SOL    HW2 9851   1.657   3.212  11.839
 2804SOL     OW 9852   1.393   2.435  11.242
 2804SOL    HW1 9853   1.332   2.412  11.313
 2804SOL    HW2 9854   1.478   2.409  11.276
 2805SOL     OW 9855   0.529   2.113  11.477
 2805SOL    HW1 9856   0.583   2.069  11.411
 2805SOL    HW2 9857   0.509   2.198  11.438
 2806SOL     OW 9858   1.109   3.099  12.291
 2806SOL    HW1 9859   1.027   3.119  12.336
 2806SOL    HW2 9860   1.094   3.128  12.201
 2807SOL     OW 9861   1.608   2.953  12.250
 2807SOL    HW1 9862   1.578   3.003  12.326
 2807SOL    HW2 9863   1.543   2.970  12.182
 2808SOL     OW 9864   0.711   2.923  11.548
 2808SOL    HW1 9865   0.698   2.903  11.640
 2808SOL    HW2 9866   0.786   2.869  11.522
 2809SOL     OW 9867   0.446   2.676  12.445
 2809SOL    HW1 9868   0.494   2.707  12.522
 2809SOL    HW2 9869   0.396   2.600  12.478
 2810SOL     OW 9870   1.255   2.224  12.430
 2810SOL    HW1 9871   1.278   2.310  12.465
 2810SOL    HW2 9872   1.164   2.233  12.400
 2811SOL     OW 9873   0.336   2.976  11.665
 2811SOL    HW1 9874   0.339   3.059  11.617
 2811SOL    HW2 9875   0.337   2.908  11.597
 2812SOL     OW 9876   0.552   2.380  12.025
 2812SOL    HW1 9877   0.568   2.442  11.955
 2812SOL    HW2 9878   0.612   2.407  12.095
 2813SOL     OW 9879   1.244   3.214  11.564
 2813SOL    HW1 9880   1.301   3.284  11.596
 2813SOL    HW2 9881   1.157   3.236  11.597
 2814SOL     OW 9882   1.288   3.312  12.311
 2814SOL    HW1 9883   1.338   3.317  12.392
 2814SOL    HW2 9884   1.230   3.236  12.323
 2815SOL     OW 9885   1.576   2.480  11.656
 2815SOL    HW1 9886   1.526   2.523  11.726
 2815SOL    HW2 9887   1.623   2.551  11.614
 2816SOL     OW 9888   0.372   3.397  12.467
 2816SOL    HW1 9889   0.347   3.343  12.391
 2816SOL    HW2 9890   0.416   3.473  12.428
 2817SOL     OW 9891   0.579   2.734  12.212
 2817SOL    HW1 9892   0.607   2.826  12.217
 2817SOL    HW2 9893   0.534   2.718  12.295
 2818SOL     OW 9894   1.323   2.713  12.177
 2818SOL    HW1 9895   1.236   2.687  12.147
 2818SOL    HW2 9896   1.378   2.636  12.165
 2819SOL     OW 9897   1.196   2.387  11.431
 2819SOL    HW1 9898   1.206   2.309  11.487
 2819SOL    HW2 9899   1.157   2.452  11.488
 2820SOL     OW 9900   0.313   2.069  12.403
 2820SOL    HW1 9901   0.259   2.128  12.456
 2820SOL    HW2 9902   0.286   1.981  12.429
 2821SOL     OW 9903   0.083   3.199  12.434
 2821SOL    HW1 9904   0.054   3.153  12.513
 2821SOL    HW2 9905   0.089   3.291  12.460
 2822SOL     OW 9906   0.712   2.489  12.217
 2822SOL    HW1 9907   0.793   2.484  12.166
 2822SOL    HW2 9908   0.682   2.579  12.206
 2823SOL     OW 9909   0.308   1.933  11.782
 2823SOL    HW1 9910   0.283   2.022  11.807
 2823SOL    HW2 9911   0.319   1.887  11.866
 2824SOL     OW 9912   1.625   2.245  11.525
 2824SOL    HW1 9913   1.654   2.180  11.589
 2824SOL    HW2 9914   1.599   2.321  11.579
 2825SOL     OW 9915   1.033   2.618  12.144
 2825SOL    HW1 9916   1.020   2.627  12.239
 2825SOL    HW2 9917   1.004   2.529  12.124
 2826SOL     OW 9918   1.522   2.133  11.295
 2826SOL    HW1 9919   1.462   2.066  11.327
 2826SOL    HW2 9920   1.560   2.172  11.374
 2827SOL     OW 9921   1.280   2.683  11.199
 2827SOL    HW1 9922   1.324   2.598  11.205
 2827SOL    HW2 9923   1.314   2.722  11.119
 2828SOL     OW 9924   1.078   3.206  12.032
 2828SOL    HW1 9925   1.084   3.134  11.969
 2828SOL    HW2 9926   1.134   3.275  11.996
 2829SOL     OW 9927   0.318   2.673  12.112
 2829SOL    HW1 9928   0.410   2.696  12.123
 2829SOL    HW2 9929   0.314   2.580  12.137
 2830SOL     OW 9930   0.320   2.400  12.162
 2830SOL    HW1 9931   0.288   2.310  12.159
 2830SOL    HW2 9932   0.403   2.397  12.115
 2831SOL     OW 9933   1.177   2.080   0.153
 2831SOL    HW1 9934   1.159   2.143   0.223
 2831SOL    HW2 9935   1.202   2.134   0.078
 2832SOL     OW 9936   7.978   3.163  11.366
 2832SOL    HW1 9937   7.890   3.184  11.399
 2832SOL    HW2 9938   7.989   3.069  11.383
 2833SOL     OW 9939   0.115   3.608  12.131
 2833SOL    HW1 9940   0.092   3.550  12.058
 2833SOL    HW2 9941   0.194   3.654  12.102
 2834SOL     OW 9942   0.495   3.444  12.073
 2834SOL    HW1 9943   0.564   3.504  12.101
 2834SOL    HW2 9944   0.539   3.382  12.016
 2835SOL     OW 9945   0.969   2.647  12.417
 2835SOL    HW1 9946   1.015   2.717  12.463
 2835SOL    HW2 9947   0.876   2.667  12.430
 2836SOL     OW 9948   0.086   2.428  12.301
 2836SOL    HW1 9949   0.176   2.432  12.271
 2836SOL    HW2 9950   0.071   2.511  12.345
 2837SOL     OW 9951   0.816   2.429  11.540
 2837SOL    HW1 9952   0.826   2.356  11.478
 2837SOL    HW2 9953   0.743   2.480  11.505
 2838SOL     OW 9954   1.652   2.475  12.335
 2838SOL    HW1 9955   1.649   2.420  12.414
 2838SOL    HW2 9956   1.742   2.466  12.303
 2839SOL     OW 9957   0.726   2.292  12.408
 2839SOL    HW1 9958   0.653   2.233  12.387
 2839SOL    HW2 9959   0.710   2.369  12.354
 2840SOL     OW 9960   0.902   3.512   0.037
 2840SOL    HW1 9961   0.897   3.586  -0.024
 2840SOL    HW2 9962   0.929   3.551   0.120
 2841SOL     OW 9963   0.456   2.338  11.342
 2841SOL    HW1 9964   0.512   2.415  11.354
 2841SOL    HW2 9965   0.379   2.355  11.396
 2842SOL     OW 9966   1.298   2.903  12.370
 2842SOL    HW1 9967   1.313   2.845  12.295
 2842SOL    HW2 9968   1.239   2.970  12.336
 2843SOL     OW 9969   1.320   2.718  11.473
 2843SOL    HW1 9970   1.247   2.689  11.528
 2843SOL    HW2 9971   1.290   2.704  11.383
 2844SOL     OW 9972   1.751   3.607  12.299
 2844SOL    HW1 9973   1.823   3.628  12.240
 2844SOL    HW2 9974   1.742   3.512  12.292
 2845SOL     OW 9975   1.246   3.584  12.267
 2845SOL    HW1 9976   1.329   3.616  12.232
 2845SOL    HW2 9977   1.260   3.491  12.284
 2846SOL     OW 9978   0.054   3.061  12.203
 2846SOL    HW1 9979   0.072   3.107  12.285
 2846SOL    HW2 9980  -0.022   3.105  12.167
 2847SOL     OW 9981   1.725   2.026  11.673
 2847SOL    HW1 9982   1.794   2.009  11.608
 2847SOL    HW2 9983   1.709   1.940  11.712
 2848SOL     OW 9984   1.395   3.429  11.666
 2848SOL    HW1 9985   1.453   3.463  11.598
 2848SOL    HW2 9986   1.343   3.505  11.694
 2849SOL     OW 9987   1.278   2.792  11.842
 2849SOL    HW1 9988   1.352   2.732  11.852
 2849SOL    HW2 9989   1.312   2.862  11.787
 2850SOL     OW 9990   0.667   3.490  11.329
 2850SOL    HW1 9991   0.681   3.505  11.235
 2850SOL    HW2 9992   0.612   3.412  11.333
 2851SOL     OW 9993   1.626   3.649   0.041
 2851SOL    HW1 9994   1.675   3.636  -0.041
 2851SOL    HW2 9995   1.662   3.729   0.078
 2852SOL     OW 9996   1.843   2.031  12.143
 2852SOL    HW1 9997   1.874   1.944  12.117
 2852SOL    HW2 9998   1.757   2.039  12.102
 2853SOL     OW 9999   0.258   2.181  11.879
 2853SOL    HW110000   0.172   2.217  11.858
 2853SOL    HW210001   0.258   2.172  11.974
 2854SOL     OW10002   1.210   3.462  11.206
 2854SOL    HW110003   1.196   3.370  11.231
 2854SOL    HW210004   1.144   3.478  11.138
 2855SOL     OW10005   0.790   2.874  12.484
 2855SOL    HW110006   0.792   2.923  12.401
 2855SOL    HW210007   0.866   2.907  12.532
 2856SOL     OW10008   0.912   2.765  11.466
 2856SOL    HW110009   0.970   2.800  11.397
 2856SOL    HW210010   0.966   2.701  11.512
 2857SOL     OW10011   1.490   3.488  11.219
 2857SOL    HW110012   1.396   3.481  11.203
 2857SOL    HW210013   1.528   3.495  11.131
 2858SOL     OW10014   1.068   2.975  11.889
 2858SOL    HW110015   0.995   2.926  11.925
 2858SOL    HW210016   1.131   2.909  11.862
 2859SOL     OW10017   1.045   2.114  12.105
 2859SOL    HW110018   1.038   2.044  12.040
 2859SOL    HW210019   1.021   2.073  12.188
 2860SOL     OW10020   0.609   3.355  11.648
 2860SOL    HW110021   0.658   3.306  11.582
 2860SOL    HW210022   0.523   3.369  11.610
 2861SOL     OW10023   1.772   2.295   0.034
 2861SOL    HW110024   1.863   2.283   0.059
 2861SOL    HW210025   1.742   2.208   0.008
 2862SOL     OW10026   0.246   3.202  11.439
 2862SOL    HW110027   0.151   3.209  11.433
 2862SOL    HW210028   0.267   3.240  11.525
 2863SOL     OW10029   0.083   2.235  11.132
 2863SOL    HW110030   0.056   2.150  11.167
 2863SOL    HW210031   0.035   2.299  11.186
 2864SOL     OW10032   0.103   2.104  11.532
 2864SOL    HW110033   0.060   2.090  11.448
 2864SOL    HW210034   0.180   2.047  11.529
 2865SOL     OW10035   1.174   3.194  11.289
 2865SOL    HW110036   1.080   3.175  11.288
 2865SOL    HW210037   1.197   3.196  11.382
 2866SOL     OW10038   1.492   3.647  12.155
 2866SOL    HW110039   1.511   3.720  12.097
 2866SOL    HW210040   1.574   3.631  12.201
 2867SOL     OW10041   1.686   2.741  12.424
 2867SOL    HW110042   1.666   2.656  12.387
 2867SOL    HW210043   1.659   2.804  12.357
 2868SOL     OW10044   1.214   2.180  11.628
 2868SOL    HW110045   1.276   2.107  11.624
 2868SOL    HW210046   1.242   2.232  11.704
 2869SOL     OW10047   0.597   2.590  11.848
 2869SOL    HW110048   0.636   2.677  11.841
 2869SOL    HW210049   0.533   2.586  11.778
 2870SOL     OW10050   0.877   3.224  11.224
 2870SOL    HW110051   0.832   3.250  11.304
 2870SOL    HW210052   0.884   3.305  11.173
 2871SOL     OW10053   0.667   3.653  12.122
 2871SOL    HW110054   0.649   3.742  12.092
 2871SOL    HW210055   0.761   3.642  12.109
 2872SOL     OW10056   0.875   2.833  12.029
 2872SOL    HW110057   0.923   2.760  12.069
 2872SOL    HW210058   0.836   2.880  12.104
 2873SOL     OW10059   1.067   2.842  11.260
 2873SOL    HW110060   1.051   2.900  11.186
 2873SOL    HW210061   1.144   2.791  11.234
 2874SOL     OW10062   1.839   3.415  12.018
 2874SOL    HW110063   1.760   3.406  11.964
 2874SOL    HW210064   1.819   3.365  12.097
 2875SOL     OW10065   0.131   3.123  11.825
 2875SOL    HW110066   0.055   3.079  11.865
 2875SOL    HW210067   0.195   3.053  11.813
 2876SOL     OW10068   1.800   2.036  12.416
 2876SOL    HW110069   1.827   1.944  12.422
 2876SOL    HW210070   1.810   2.058  12.323
 2877SOL     OW10071   0.430   2.292  11.689
 2877SOL    HW110072   0.470   2.216  11.647
 2877SOL    HW210073   0.381   2.256  11.763
 2878SOL     OW10074   1.711   3.341  12.268
 2878SOL    HW110075   1.627   3.316  12.228
 2878SOL    HW210076   1.711   3.296  12.353
 2879SOL     OW10077   0.831   3.449  11.845
 2879SOL    HW110078   0.812   3.518  11.782
 2879SOL    HW210079   0.755   3.391  11.842
 2880SOL     OW10080   1.448   2.097  12.295
 2880SOL    HW110081   1.512   2.064  12.359
 2880SOL    HW210082   1.379   2.137  12.349
 2881SOL     OW10083   0.999   1.837  12.315
 2881SOL    HW110084   0.961   1.799  12.235
 2881SOL    HW210085   1.092   1.816  12.309
 2882SOL     OW10086   0.775   3.194  11.494
 2882SOL    HW110087   0.751   3.102  11.506
 2882SOL    HW210088   0.855   3.205  11.545
 2883SOL     OW10089   1.362   1.910  11.352
 2883SOL    HW110090   1.398   1.840  11.297
 2883SOL    HW210091   1.272   1.883  11.369
 2884SOL     OW10092   1.295   2.326  11.846
 2884SOL    HW110093   1.244   2.407  11.849
 2884SOL    HW210094   1.294   2.293  11.936
 2885SOL     OW10095   1.583   2.050  12.058
 2885SOL    HW110096   1.530   2.076  12.133
 2885SOL    HW210097   1.582   2.127  12.001
 2886SOL     OW10098   0.045   2.900  11.451
 2886SOL    HW110099   0.140   2.894  11.449
 2886SOL    HW210100   0.023   2.914  11.543
 2887SOL     OW10101   0.889   3.527  11.506
 2887SOL    HW110102   0.812   3.512  11.451
 2887SOL    HW210103   0.863   3.598  11.565
 2888SOL     OW10104   0.266   4.349   0.073
 2888SOL    HW110105   0.216   4.393   0.141
 2888SOL    HW210106   0.217   4.268   0.055
 2889SOL     OW10107   0.237   3.994   0.987
 2889SOL    HW110108   0.266   3.967   1.074
 2889SOL    HW210109   0.152   3.951   0.975
 2890SOL     OW10110   8.011   4.131   0.592
 2890SOL    HW110111   7.929   4.113   0.638
 2890SOL    HW210112   8.016   4.063   0.525
 2891SOL     OW10113   0.574   5.026   1.193
 2891SOL    HW110114   0.486   5.029   1.155
 2891SOL    HW210115   0.591   5.114   1.225
 2892SOL     OW10116   1.576   5.241   0.714
 2892SOL    HW110117   1.533   5.214   0.795
 2892SOL    HW210118   1.506   5.242   0.649
 2893SOL     OW10119   1.132   4.420   0.689
 2893SOL    HW110120   1.180   4.503   0.685
 2893SOL    HW210121   1.085   4.424   0.772
 2894SOL     OW10122   1.815   4.303   0.238
 2894SOL    HW110123   1.761   4.371   0.198
 2894SOL    HW210124   1.755   4.254   0.294
 2895SOL     OW10125   0.734   4.858   1.043
 2895SOL    HW110126   0.673   4.896   1.107
 2895SOL    HW210127   0.778   4.933   1.004
 2896SOL     OW10128   0.874   4.486   1.828
 2896SOL    HW110129   0.873   4.557   1.893
 2896SOL    HW210130   0.899   4.530   1.746
 2897SOL     OW10131   0.687   4.718   0.641
 2897SOL    HW110132   0.755   4.712   0.709
 2897SOL    HW210133   0.620   4.775   0.679
 2898SOL     OW10134   0.712   4.871   1.817
 2898SOL    HW110135   0.759   4.948   1.850
 2898SOL    HW210136   0.633   4.907   1.777
 2899SOL     OW10137   0.338   5.133   1.070
 2899SOL    HW110138   0.272   5.087   1.018
 2899SOL    HW210139   0.382   5.190   1.007
 2900SOL     OW10140   1.458   5.229   1.364
 2900SOL    HW110141   1.512   5.307   1.376
 2900SOL    HW210142   1.389   5.237   1.430
 2901SOL     OW10143   0.446   4.115   1.493
 2901SOL    HW110144   0.532   4.073   1.495
 2901SOL    HW210145   0.384   4.042   1.506
 2902SOL     OW10146   1.588   4.168   0.750
 2902SOL    HW110147   1.503   4.175   0.707
 2902SOL    HW210148   1.579   4.221   0.829
 2903SOL     OW10149   0.238   5.422   0.501
 2903SOL    HW110150   0.240   5.506   0.546
 2903SOL    HW210151   0.301   5.431   0.430
 2904SOL     OW10152   1.136   5.068   1.696
 2904SOL    HW110153   1.179   5.059   1.781
 2904SOL    HW210154   1.084   4.988   1.686
 2905SOL     OW10155   0.288   5.159   0.519
 2905SOL    HW110156   0.264   5.251   0.530
 2905SOL    HW210157   0.237   5.112   0.585
 2906SOL     OW10158   0.275   4.805   0.881
 2906SOL    HW110159   0.279   4.715   0.913
 2906SOL    HW210160   0.206   4.846   0.933
 2907SOL     OW10161   0.603   5.527   1.413
 2907SOL    HW110162   0.527   5.501   1.464
 2907SOL    HW210163   0.629   5.612   1.448
 2908SOL     OW10164   1.589   3.843   1.466
 2908SOL    HW110165   1.508   3.868   1.423
 2908SOL    HW210166   1.580   3.876   1.556
 2909SOL     OW10167   0.137   4.383   0.534
 2909SOL    HW110168   0.106   4.294   0.553
 2909SOL    HW210169   0.122   4.431   0.616
 2910SOL     OW10170   1.858   5.461   0.311
 2910SOL    HW110171   1.925   5.437   0.375
 2910SOL    HW210172   1.871   5.555   0.297
 2911SOL     OW10173   0.032   5.276   0.108
 2911SOL    HW110174   0.022   5.205   0.172
 2911SOL    HW210175   0.056   5.352   0.161
 2912SOL     OW10176   1.687   4.649   0.653
 2912SOL    HW110177   1.777   4.620   0.640
 2912SOL    HW210178   1.667   4.701   0.576
 2913SOL     OW10179   1.647   4.828   0.433
 2913SOL    HW110180   1.725   4.839   0.380
 2913SOL    HW210181   1.657   4.892   0.504
 2914SOL     OW10182   0.152   4.487   1.592
 2914SOL    HW110183   0.248   4.486   1.590
 2914SOL    HW210184   0.130   4.568   1.639
 2915SOL     OW10185   0.620   5.118   0.735
 2915SOL    HW110186   0.576   5.034   0.744
 2915SOL    HW210187   0.604   5.145   0.644
 2916SOL     OW10188   1.284   4.959   1.416
 2916SOL    HW110189   1.314   4.889   1.358
 2916SOL    HW210190   1.341   4.953   1.493
 2917SOL     OW10191   0.824   3.736   0.523
 2917SOL    HW110192   0.863   3.820   0.499
 2917SOL    HW210193   0.730   3.752   0.524
 2918SOL     OW10194   0.179   4.646   1.262
 2918SOL    HW110195   0.272   4.622   1.266
 2918SOL    HW210196   0.151   4.619   1.175
 2919SOL     OW10197   1.483   4.745   0.229
 2919SOL    HW110198   1.428   4.677   0.267
 2919SOL    HW210199   1.544   4.768   0.299
 2920SOL     OW10200   1.180   5.542   1.628
 2920SOL    HW110201   1.186   5.602   1.553
 2920SOL    HW210202   1.199   5.456   1.591
 2921SOL     OW10203   0.359   3.980   1.830
 2921SOL    HW110204   0.410   4.054   1.862
 2921SOL    HW210205   0.268   4.004   1.847
 2922SOL     OW10206   1.469   5.140   0.945
 2922SOL    HW110207   1.403   5.158   1.013
 2922SOL    HW210208   1.453   5.049   0.919
 2923SOL     OW10209   1.650   5.488   0.583
 2923SOL    HW110210   1.628   5.450   0.498
 2923SOL    HW210211   1.637   5.416   0.645
 2924SOL     OW10212   0.598   4.496   0.273
 2924SOL    HW110213   0.681   4.465   0.309
 2924SOL    HW210214   0.533   4.474   0.339
 2925SOL     OW10215   1.277   4.069   0.914
 2925SOL    HW110216   1.186   4.044   0.931
 2925SOL    HW210217   1.327   4.026   0.984
 2926SOL     OW10218   1.591   5.399   0.328
 2926SOL    HW110219   1.686   5.409   0.320
 2926SOL    HW210220   1.558   5.416   0.239
 2927SOL     OW10221   0.783   4.345   1.443
 2927SOL    HW110222   0.764   4.316   1.532
 2927SOL    HW210223   0.747   4.276   1.387
 2928SOL     OW10224   1.382   4.201   1.677
 2928SOL    HW110225   1.388   4.240   1.765
 2928SOL    HW210226   1.438   4.123   1.682
 2929SOL     OW10227   0.951   4.604   1.589
 2929SOL    HW110228   1.005   4.536   1.550
 2929SOL    HW210229   0.900   4.639   1.517
 2930SOL     OW10230   0.993   4.148   1.226
 2930SOL    HW110231   0.910   4.145   1.275
 2930SOL    HW210232   0.996   4.064   1.180
 2931SOL     OW10233   1.045   4.422   0.426
 2931SOL    HW110234   1.066   4.417   0.519
 2931SOL    HW210235   0.960   4.379   0.419
 2932SOL     OW10236   0.099   4.511   0.775
 2932SOL    HW110237   0.180   4.519   0.826
 2932SOL    HW210238   0.046   4.586   0.803
 2933SOL     OW10239   0.127   5.545   1.564
 2933SOL    HW110240   0.132   5.534   1.659
 2933SOL    HW210241   0.038   5.519   1.541
 2934SOL     OW10242   0.895   4.086   0.217
 2934SOL    HW110243   0.928   4.152   0.156
 2934SOL    HW210244   0.889   4.006   0.164
 2935SOL     OW10245   1.703   4.287   1.828
 2935SOL    HW110246   1.669   4.363   1.780
 2935SOL    HW210247   1.728   4.225   1.759
 2936SOL     OW10248   1.381   4.866   0.542
 2936SOL    HW110249   1.463   4.861   0.492
 2936SOL    HW210250   1.327   4.928   0.494
 2937SOL     OW10251   0.553   3.897   0.903
 2937SOL    HW110252   0.559   3.922   0.995
 2937SOL    HW210253   0.554   3.980   0.856
 2938SOL     OW10254   0.991   5.159   0.473
 2938SOL    HW110255   0.956   5.238   0.430
 2938SOL    HW210256   0.972   5.173   0.566
 2939SOL     OW10257   0.361   5.550   0.873
 2939SOL    HW110258   0.405   5.466   0.881
 2939SOL    HW210259   0.430   5.615   0.892
 2940SOL     OW10260   1.800   4.773   0.879
 2940SOL    HW110261   1.743   4.755   0.804
 2940SOL    HW210262   1.741   4.781   0.953
 2941SOL     OW10263   1.224   5.266   1.515
 2941SOL    HW110264   1.214   5.195   1.578
 2941SOL    HW210265   1.155   5.251   1.451
 2942SOL     OW10266   0.355   4.693   0.205
 2942SOL    HW110267   0.300   4.724   0.133
 2942SOL    HW210268   0.313   4.613   0.235
 2943SOL     OW10269   1.484   4.470   0.717
 2943SOL    HW110270   1.480   4.429   0.804
 2943SOL    HW210271   1.559   4.529   0.722
 2944SOL     OW10272   0.468   4.993   1.739
 2944SOL    HW110273   0.443   4.998   1.646
 2944SOL    HW210274   0.385   4.979   1.785
 2945SOL     OW10275   1.075   5.509   0.230
 2945SOL    HW110276   1.034   5.460   0.301
 2945SOL    HW210277   1.138   5.448   0.192
 2946SOL     OW10278   0.184   3.984   1.499
 2946SOL    HW110279   0.172   4.059   1.557
 2946SOL    HW210280   0.159   3.908   1.552
 2947SOL     OW10281   1.658   5.132   0.060
 2947SOL    HW110282   1.591   5.198   0.044
 2947SOL    HW210283   1.609   5.050   0.070
 2948SOL     OW10284   0.448   5.464   0.323
 2948SOL    HW110285   0.497   5.521   0.382
 2948SOL    HW210286   0.515   5.422   0.269
 2949SOL     OW10287   1.408   3.830   0.446
 2949SOL    HW110288   1.405   3.790   0.360
 2949SOL    HW210289   1.500   3.825   0.472
 2950SOL     OW10290   0.234   5.509   1.225
 2950SOL    HW110291   0.286   5.435   1.257
 2950SOL    HW210292   0.205   5.481   1.138
 2951SOL     OW10293   0.939   5.427   0.895
 2951SOL    HW110294   1.014   5.377   0.927
 2951SOL    HW210295   0.902   5.375   0.824
 2952SOL     OW10296   0.415   4.418   0.465
 2952SOL    HW110297   0.430   4.324   0.480
 2952SOL    HW210298   0.323   4.430   0.487
 2953SOL     OW10299   1.519   3.953   1.719
 2953SOL    HW110300   1.530   3.968   1.813
 2953SOL    HW210301   1.440   3.900   1.711
 2954SOL     OW10302   0.635   3.850   0.121
 2954SOL    HW110303   0.727   3.825   0.122
 2954SOL    HW210304   0.620   3.885   0.032
 2955SOL     OW10305   0.759   4.006   1.755
 2955SOL    HW110306   0.841   3.958   1.747
 2955SOL    HW210307   0.721   3.974   1.837
 2956SOL     OW10308   0.878   5.250   1.194
 2956SOL    HW110309   0.858   5.207   1.111
 2956SOL    HW210310   0.944   5.194   1.234
 2957SOL     OW10311   1.342   4.322   1.436
 2957SOL    HW110312   1.365   4.280   1.519
 2957SOL    HW210313   1.386   4.407   1.439
 2958SOL     OW10314   0.821   5.109   0.952
 2958SOL    HW110315   0.906   5.099   0.908
 2958SOL    HW210316   0.759   5.120   0.880
 2959SOL     OW10317   0.934   4.240   0.901
 2959SOL    HW110318   0.911   4.221   0.810
 2959SOL    HW210319   0.962   4.155   0.937
 2960SOL     OW10320   0.556   3.788   0.496
 2960SOL    HW110321   0.478   3.788   0.552
 2960SOL    HW210322   0.547   3.867   0.442
 2961SOL     OW10323   1.457   4.947   0.049
 2961SOL    HW110324   1.468   4.868   0.103
 2961SOL    HW210325   1.367   4.975   0.066
 2962SOL     OW10326   0.300   3.821   0.205
 2962SOL    HW110327   0.384   3.866   0.203
 2962SOL    HW210328   0.322   3.731   0.231
 2963SOL     OW10329   0.945   3.977   0.462
 2963SOL    HW110330   0.923   4.012   0.376
 2963SOL    HW210331   1.040   3.986   0.468
 2964SOL     OW10332   1.084   4.408   1.452
 2964SOL    HW110333   1.028   4.331   1.458
 2964SOL    HW210334   1.173   4.372   1.447
 2965SOL     OW10335   1.220   5.292   0.792
 2965SOL    HW110336   1.232   5.361   0.726
 2965SOL    HW210337   1.285   5.313   0.859
 2966SOL     OW10338   0.479   4.881   0.719
 2966SOL    HW110339   0.415   4.856   0.785
 2966SOL    HW210340   0.435   4.864   0.635
 2967SOL     OW10341   1.257   5.512   0.613
 2967SOL    HW110342   1.307   5.577   0.563
 2967SOL    HW210343   1.187   5.562   0.654
 2968SOL     OW10344   1.016   4.303   0.099
 2968SOL    HW110345   1.039   4.355   0.022
 2968SOL    HW210346   1.097   4.297   0.149
 2969SOL     OW10347   0.095   4.340   1.371
 2969SOL    HW110348   0.184   4.312   1.350
 2969SOL    HW210349   0.105   4.393   1.450
 2970SOL     OW10350   0.560   3.943   1.175
 2970SOL    HW110351   0.606   3.876   1.227
 2970SOL    HW210352   0.469   3.937   1.205
 2971SOL     OW10353   0.872   4.181   0.643
 2971SOL    HW110354   0.815   4.233   0.586
 2971SOL    HW210355   0.891   4.103   0.591
 2972SOL     OW10356   1.024   3.769   0.735
 2972SOL    HW110357   0.956   3.760   0.668
 2972SOL    HW210358   1.002   3.702   0.800
 2973SOL     OW10359   1.434   4.880   0.859
 2973SOL    HW110360   1.371   4.809   0.873
 2973SOL    HW210361   1.444   4.885   0.764
 2974SOL     OW10362   1.464   4.326   0.969
 2974SOL    HW110363   1.397   4.264   0.995
 2974SOL    HW210364   1.525   4.328   1.042
 2975SOL     OW10365   1.849   4.559   0.408
 2975SOL    HW110366   1.798   4.493   0.454
 2975SOL    HW210367   1.803   4.570   0.324
 2976SOL     OW10368   0.488   5.110   0.169
 2976SOL    HW110369   0.420   5.063   0.216
 2976SOL    HW210370   0.441   5.159   0.101
 2977SOL     OW10371   1.685   4.993   0.637
 2977SOL    HW110372   1.778   4.988   0.658
 2977SOL    HW210373   1.658   5.080   0.667
 2978SOL     OW10374   1.395   4.273   0.082
 2978SOL    HW110375   1.342   4.271   0.162
 2978SOL    HW210376   1.448   4.194   0.086
 2979SOL     OW10377   0.526   3.994   0.319
 2979SOL    HW110378   0.575   3.944   0.254
 2979SOL    HW210379   0.510   4.079   0.277
 2980SOL     OW10380   1.742   4.968   1.554
 2980SOL    HW110381   1.826   4.923   1.565
 2980SOL    HW210382   1.759   5.057   1.583
 2981SOL     OW10383   1.052   5.077   1.329
 2981SOL    HW110384   0.975   5.045   1.378
 2981SOL    HW210385   1.126   5.035   1.372
 2982SOL     OW10386   1.607   5.356   1.662
 2982SOL    HW110387   1.601   5.389   1.572
 2982SOL    HW210388   1.687   5.303   1.662
 2983SOL     OW10389   1.139   4.940   1.099
 2983SOL    HW110390   1.080   4.977   1.164
 2983SOL    HW210391   1.108   4.976   1.016
 2984SOL     OW10392   1.624   4.823   1.079
 2984SOL    HW110393   1.619   4.884   1.153
 2984SOL    HW210394   1.546   4.842   1.027
 2985SOL     OW10395   0.927   3.840   1.387
 2985SOL    HW110396   0.938   3.811   1.296
 2985SOL    HW210397   1.016   3.861   1.416
 2986SOL     OW10398   0.982   4.841   1.717
 2986SOL    HW110399   0.891   4.855   1.744
 2986SOL    HW210400   0.980   4.760   1.666
 2987SOL     OW10401   0.703   4.779   0.367
 2987SOL    HW110402   0.688   4.765   0.461
 2987SOL    HW210403   0.783   4.731   0.348
 2988SOL     OW10404   0.432   4.541   1.253
 2988SOL    HW110405   0.496   4.555   1.322
 2988SOL    HW210406   0.402   4.451   1.266
 2989SOL     OW10407   1.295   4.180   1.207
 2989SOL    HW110408   1.320   4.226   1.288
 2989SOL    HW210409   1.207   4.149   1.224
 2990SOL     OW10410   0.044   5.319   1.329
 2990SOL    HW110411   0.102   5.393   1.309
 2990SOL    HW210412   0.081   5.281   1.408
 2991SOL     OW10413   0.354   4.825   0.479
 2991SOL    HW110414   0.334   4.902   0.425
 2991SOL    HW210415   0.371   4.755   0.416
 2992SOL     OW10416   0.548   4.251   0.852
 2992SOL    HW110417   0.567   4.310   0.779
 2992SOL    HW210418   0.613   4.274   0.918
 2993SOL     OW10419   1.242   5.072   0.398
 2993SOL    HW110420   1.297   5.143   0.431
 2993SOL    HW210421   1.154   5.093   0.430
 2994SOL     OW10422   1.295   5.187   1.149
 2994SOL    HW110423   1.350   5.195   1.227
 2994SOL    HW210424   1.240   5.111   1.165
 2995SOL     OW10425   1.583   4.379   0.463
 2995SOL    HW110426   1.554   4.392   0.554
 2995SOL    HW210427   1.519   4.427   0.411
 2996SOL     OW10428   0.348   5.263   1.308
 2996SOL    HW110429   0.332   5.211   1.230
 2996SOL    HW210430   0.444   5.270   1.314
 2997SOL     OW10431   0.431   4.451   1.614
 2997SOL    HW110432   0.486   4.501   1.554
 2997SOL    HW210433   0.487   4.380   1.644
 2998SOL     OW10434   1.615   4.506   1.692
 2998SOL    HW110435   1.529   4.546   1.687
 2998SOL    HW210436   1.665   4.549   1.622
 2999SOL     OW10437   0.990   3.857   1.743
 2999SOL    HW110438   1.043   3.936   1.726
 2999SOL    HW210439   1.046   3.785   1.714
 3000SOL     OW10440   0.503   3.757   1.752
 3000SOL    HW110441   0.456   3.705   1.686
 3000SOL    HW210442   0.449   3.835   1.764
 3001SOL     OW10443   0.586   4.602   1.029
 3001SOL    HW110444   0.626   4.689   1.036
 3001SOL    HW210445   0.536   4.592   1.111
 3002SOL     OW10446   1.335   4.580   1.010
 3002SOL    HW110447   1.245   4.554   0.990
 3002SOL    HW210448   1.384   4.498   1.008
 3003SOL     OW10449   1.215   4.254   0.287
 3003SOL    HW110450   1.226   4.179   0.345
 3003SOL    HW210451   1.163   4.316   0.338
 3004SOL     OW10452   0.295   3.917   1.250
 3004SOL    HW110453   0.257   3.948   1.332
 3004SOL    HW210454   0.283   3.822   1.252
 3005SOL     OW10455   0.047   5.032   1.269
 3005SOL    HW110456   0.071   4.977   1.343
 3005SOL    HW210457   0.050   5.121   1.302
 3006SOL     OW10458   0.716   4.344   1.046
 3006SOL    HW110459   0.799   4.328   1.001
 3006SOL    HW210460   0.698   4.437   1.030
 3007SOL     OW10461   1.741   4.691   1.859
 3007SOL    HW110462   1.701   4.617   1.813
 3007SOL    HW210463   1.682   4.707   1.933
 3008SOL     OW10464   0.316   3.793   0.628
 3008SOL    HW110465   0.288   3.883   0.645
 3008SOL    HW210466   0.324   3.754   0.714
 3009SOL     OW10467   1.639   4.112   0.365
 3009SOL    HW110468   1.657   4.041   0.426
 3009SOL    HW210469   1.607   4.183   0.420
 3010SOL     OW10470   1.034   4.486   0.963
 3010SOL    HW110471   1.020   4.502   1.057
 3010SOL    HW210472   1.008   4.395   0.951
 3011SOL     OW10473   0.981   5.292   1.725
 3011SOL    HW110474   0.965   5.334   1.640
 3011SOL    HW210475   1.022   5.208   1.703
 3012SOL     OW10476   1.846   5.223   1.606
 3012SOL    HW110477   1.873   5.252   1.518
 3012SOL    HW210478   1.925   5.233   1.659
 3013SOL     OW10479   0.366   4.669   1.788
 3013SOL    HW110480   0.436   4.684   1.852
 3013SOL    HW210481   0.391   4.589   1.743
 3014SOL     OW10482   1.489   4.015   0.148
 3014SOL    HW110483   1.449   3.931   0.169
 3014SOL    HW210484   1.540   4.037   0.226
 3015SOL     OW10485   1.282   4.530   0.059
 3015SOL    HW110486   1.336   4.452   0.045
 3015SOL    HW210487   1.315   4.594  -0.003
 3016SOL     OW10488   1.069   5.065   0.854
 3016SOL    HW110489   1.078   4.992   0.792
 3016SOL    HW210490   1.128   5.133   0.820
 3017SOL     OW10491   0.321   4.528   0.942
 3017SOL    HW110492   0.413   4.552   0.950
 3017SOL    HW210493   0.316   4.438   0.976
 3018SOL     OW10494   0.333   4.246   1.012
 3018SOL    HW110495   0.298   4.158   0.998
 3018SOL    HW210496   0.409   4.251   0.953
 3019SOL     OW10497   1.117   4.095   1.709
 3019SOL    HW110498   1.086   4.159   1.773
 3019SOL    HW210499   1.202   4.129   1.681
 3020SOL     OW10500   7.993   5.000   0.198
 3020SOL    HW110501   7.909   5.030   0.234
 3020SOL    HW210502   7.998   4.908   0.223
 3021SOL     OW10503   0.112   5.472   0.953
 3021SOL    HW110504   0.106   5.399   0.892
 3021SOL    HW210505   0.190   5.520   0.925
 3022SOL     OW10506   0.487   5.298   0.903
 3022SOL    HW110507   0.556   5.360   0.929
 3022SOL    HW210508   0.531   5.237   0.845
 3023SOL     OW10509   0.964   4.512   1.227
 3023SOL    HW110510   1.029   4.492   1.294
 3023SOL    HW210511   0.887   4.460   1.252
 3024SOL     OW10512   0.072   4.273   1.111
 3024SOL    HW110513   0.166   4.268   1.095
 3024SOL    HW210514   0.064   4.293   1.204
 3025SOL     OW10515   0.197   4.222   1.658
 3025SOL    HW110516   0.289   4.222   1.630
 3025SOL    HW210517   0.167   4.311   1.642
 3026SOL     OW10518   1.383   4.654   1.660
 3026SOL    HW110519   1.404   4.748   1.657
 3026SOL    HW210520   1.381   4.627   1.568
 3027SOL     OW10521   0.790   4.292   0.371
 3027SOL    HW110522   0.832   4.230   0.311
 3027SOL    HW210523   0.701   4.258   0.382
 3028SOL     OW10524   1.645   4.334   1.172
 3028SOL    HW110525   1.635   4.275   1.246
 3028SOL    HW210526   1.734   4.317   1.140
 3029SOL     OW10527   0.290   5.259   1.721
 3029SOL    HW110528   0.250   5.330   1.772
 3029SOL    HW210529   0.283   5.183   1.778
 3030SOL     OW10530   0.687   4.175   1.258
 3030SOL    HW110531   0.644   4.095   1.227
 3030SOL    HW210532   0.691   4.232   1.181
 3031SOL     OW10533   0.919   5.403   1.474
 3031SOL    HW110534   0.893   5.360   1.392
 3031SOL    HW210535   0.912   5.496   1.456
 3032SOL     OW10536   0.489   4.233   0.195
 3032SOL    HW110537   0.544   4.310   0.186
 3032SOL    HW210538   0.406   4.258   0.155
 3033SOL     OW10539   0.154   4.847   1.452
 3033SOL    HW110540   0.135   4.801   1.534
 3033SOL    HW210541   0.162   4.778   1.386
 3034SOL     OW10542   1.321   4.767   1.210
 3034SOL    HW110543   1.336   4.701   1.142
 3034SOL    HW210544   1.256   4.826   1.172
 3035SOL     OW10545   1.319   4.549   0.332
 3035SOL    HW110546   1.238   4.532   0.380
 3035SOL    HW210547   1.296   4.535   0.240
 3036SOL     OW10548   1.784   5.456   1.162
 3036SOL    HW110549   1.844   5.481   1.091
 3036SOL    HW210550   1.754   5.369   1.139
 3037SOL     OW10551   1.236   5.455   1.095
 3037SOL    HW110552   1.321   5.482   1.058
 3037SOL    HW210553   1.249   5.364   1.121
 3038SOL     OW10554   0.075   4.922   1.026
 3038SOL    HW110555   0.069   4.962   1.112
 3038SOL    HW210556  -0.004   4.952   0.980
 3039SOL     OW10557   0.686   5.396   1.747
 3039SOL    HW110558   0.627   5.470   1.732
 3039SOL    HW210559   0.761   5.413   1.690
 3040SOL     OW10560   0.907   3.816   0.099
 3040SOL    HW110561   0.957   3.842   0.022
 3040SOL    HW210562   0.973   3.782   0.160
 3041SOL     OW10563   1.722   3.879   0.503
 3041SOL    HW110564   1.792   3.855   0.443
 3041SOL    HW210565   1.701   3.799   0.550
 3042SOL     OW10566   1.393   5.289   0.496
 3042SOL    HW110567   1.454   5.324   0.432
 3042SOL    HW210568   1.343   5.365   0.526
 3043SOL     OW10569   0.166   5.470   1.841
 3043SOL    HW110570   0.104   5.421   1.894
 3043SOL    HW210571   0.214   5.524   1.904
 3044SOL     OW10572   1.278   4.650   0.668
 3044SOL    HW110573   1.352   4.590   0.681
 3044SOL    HW210574   1.314   4.722   0.617
 3045SOL     OW10575   0.798   5.003   1.416
 3045SOL    HW110576   0.771   5.046   1.498
 3045SOL    HW210577   0.722   5.013   1.358
 3046SOL     OW10578   0.659   5.327   0.196
 3046SOL    HW110579   0.716   5.336   0.120
 3046SOL    HW210580   0.613   5.244   0.181
 3047SOL     OW10581   1.616   5.454   1.393
 3047SOL    HW110582   1.673   5.457   1.316
 3047SOL    HW210583   1.602   5.546   1.416
 3048SOL     OW10584   1.845   3.890   0.960
 3048SOL    HW110585   1.871   3.800   0.943
 3048SOL    HW210586   1.753   3.894   0.932
 3049SOL     OW10587   0.258   4.048   0.709
 3049SOL    HW110588   0.173   4.085   0.688
 3049SOL    HW210589   0.256   4.037   0.804
 3050SOL     OW10590   1.203   5.327   0.072
 3050SOL    HW110591   1.198   5.234   0.090
 3050SOL    HW210592   1.150   5.340  -0.007
 3051SOL     OW10593   0.823   4.730   1.382
 3051SOL    HW110594   0.873   4.715   1.301
 3051SOL    HW210595   0.822   4.826   1.392
 3052SOL     OW10596   0.916   4.635   0.291
 3052SOL    HW110597   0.974   4.661   0.219
 3052SOL    HW210598   0.964   4.567   0.338
 3053SOL     OW10599   1.463   5.305   0.005
 3053SOL    HW110600   1.375   5.328   0.035
 3053SOL    HW210601   1.513   5.386   0.013
 3054SOL     OW10602   0.367   5.025   1.490
 3054SOL    HW110603   0.347   5.105   1.441
 3054SOL    HW210604   0.294   4.967   1.471
 3055SOL     OW10605   1.612   5.012   1.286
 3055SOL    HW110606   1.662   4.988   1.364
 3055SOL    HW210607   1.549   5.077   1.317
 3056SOL     OW10608   1.067   4.834   0.711
 3056SOL    HW110609   0.995   4.785   0.750
 3056SOL    HW210610   1.133   4.767   0.691
 3057SOL     OW10611   1.021   3.964   0.952
 3057SOL    HW110612   1.022   3.914   0.871
 3057SOL    HW210613   1.013   3.898   1.021
 3058SOL     OW10614   0.602   5.207   0.480
 3058SOL    HW110615   0.638   5.170   0.399
 3058SOL    HW210616   0.515   5.237   0.456
 3059SOL     OW10617   1.725   4.142   1.370
 3059SOL    HW110618   1.807   4.191   1.373
 3059SOL    HW210619   1.747   4.060   1.325
 3060SOL     OW10620   0.260   5.013   0.298
 3060SOL    HW110621   0.176   5.030   0.256
 3060SOL    HW210622   0.264   5.077   0.370
 3061SOL     OW10623   0.105   4.727   1.712
 3061SOL    HW110624   0.070   4.812   1.738
 3061SOL    HW210625   0.190   4.722   1.755
 3062SOL     OW10626   0.683   3.921   1.498
 3062SOL    HW110627   0.769   3.902   1.460
 3062SOL    HW210628   0.702   3.950   1.587
 3063SOL     OW10629   0.125   4.121   0.016
 3063SOL    HW110630   0.050   4.120   0.075
 3063SOL    HW210631   0.089   4.099  -0.070
 3064SOL     OW10632   1.427   4.591   1.399
 3064SOL    HW110633   1.377   4.648   1.341
 3064SOL    HW210634   1.515   4.589   1.361
 3065SOL     OW10635   0.074   3.954   0.358
 3065SOL    HW110636   0.031   4.004   0.288
 3065SOL    HW210637   0.151   3.916   0.317
 3066SOL     OW10638   1.194   5.056   0.120
 3066SOL    HW110639   1.099   5.051   0.108
 3066SOL    HW210640   1.207   5.049   0.215
 3067SOL     OW10641   0.620   4.559   1.444
 3067SOL    HW110642   0.678   4.634   1.431
 3067SOL    HW210643   0.678   4.484   1.446
 3068SOL     OW10644   1.483   5.515   0.985
 3068SOL    HW110645   1.510   5.586   0.927
 3068SOL    HW210646   1.566   5.480   1.018
 3069SOL     OW10647   0.711   4.285   1.699
 3069SOL    HW110648   0.761   4.341   1.758
 3069SOL    HW210649   0.731   4.196   1.728
 3070SOL     OW10650   1.470   4.918   1.627
 3070SOL    HW110651   1.459   4.931   1.721
 3070SOL    HW210652   1.563   4.936   1.611
 3071SOL     OW10653   0.387   5.463   1.564
 3071SOL    HW110654   0.299   5.493   1.542
 3071SOL    HW210655   0.374   5.377   1.603
 3072SOL     OW10656   1.663   4.602   1.255
 3072SOL    HW110657   1.660   4.516   1.215
 3072SOL    HW210658   1.655   4.663   1.182
 3073SOL     OW10659   1.226   4.038   0.454
 3073SOL    HW110660   1.285   3.963   0.452
 3073SOL    HW210661   1.250   4.085   0.534
 3074SOL     OW10662   0.604   4.450   0.664
 3074SOL    HW110663   0.636   4.539   0.660
 3074SOL    HW210664   0.534   4.447   0.599
 3075SOL     OW10665   1.749   4.088   1.640
 3075SOL    HW110666   1.730   4.107   1.548
 3075SOL    HW210667   1.675   4.034   1.668
 3076SOL     OW10668   1.749   4.659   1.509
 3076SOL    HW110669   1.731   4.752   1.518
 3076SOL    HW210670   1.729   4.640   1.417
 3077SOL     OW10671   0.923   5.093   0.061
 3077SOL    HW110672   0.867   5.074   0.137
 3077SOL    HW210673   0.904   5.185   0.040
 3078SOL     OW10674   0.665   5.501   0.934
 3078SOL    HW110675   0.649   5.594   0.917
 3078SOL    HW210676   0.760   5.493   0.929
 3079SOL     OW10677   0.872   4.696   0.851
 3079SOL    HW110678   0.922   4.624   0.890
 3079SOL    HW210679   0.828   4.738   0.926
 3080SOL     OW10680   1.071   4.706   0.072
 3080SOL    HW110681   1.111   4.782   0.030
 3080SOL    HW210682   1.143   4.642   0.079
 3081SOL     OW10683   1.843   5.274   0.840
 3081SOL    HW110684   1.760   5.264   0.793
 3081SOL    HW210685   1.838   5.212   0.912
 3082SOL     OW10686   0.216   5.024   1.854
 3082SOL    HW110687   0.124   5.010   1.835
 3082SOL    HW210688   0.221   5.024   1.950
 3083SOL     OW10689   0.137   4.984   0.663
 3083SOL    HW110690   0.054   4.945   0.693
 3083SOL    HW210691   0.202   4.916   0.679
 3084SOL     OW10692   0.682   5.136   1.627
 3084SOL    HW110693   0.605   5.093   1.663
 3084SOL    HW210694   0.685   5.221   1.670
 3085SOL     OW10695   1.822   3.924   1.236
 3085SOL    HW110696   1.795   3.836   1.262
 3085SOL    HW210697   1.830   3.920   1.140
 3086SOL     OW10698   0.440   4.160   0.528
 3086SOL    HW110699   0.461   4.087   0.469
 3086SOL    HW210700   0.387   4.121   0.596
 3087SOL     OW10701   1.695   5.209   1.092
 3087SOL    HW110702   1.617   5.187   1.041
 3087SOL    HW210703   1.700   5.141   1.159
 3088SOL     OW10704   0.351   4.282   1.296
 3088SOL    HW110705   0.395   4.226   1.360
 3088SOL    HW210706   0.373   4.245   1.211
 3089SOL     OW10707   0.834   5.299   0.679
 3089SOL    HW110708   0.809   5.361   0.610
 3089SOL    HW210709   0.758   5.240   0.687
 3090SOL     OW10710   1.420   3.952   1.120
 3090SOL    HW110711   1.387   3.883   1.177
 3090SOL    HW210712   1.394   4.033   1.163
 3091SOL     OW10713   1.004   3.756   1.132
 3091SOL    HW110714   0.989   3.674   1.085
 3091SOL    HW210715   1.091   3.745   1.172
 3092SOL     OW10716   0.798   5.040   0.302
 3092SOL    HW110717   0.760   4.957   0.331
 3092SOL    HW210718   0.863   5.061   0.369
 3093SOL     OW10719   0.623   5.284   1.284
 3093SOL    HW110720   0.621   5.368   1.329
 3093SOL    HW210721   0.712   5.277   1.250
 3094SOL     OW10722   1.371   3.756   0.183
 3094SOL    HW110723   1.378   3.716   0.097
 3094SOL    HW210724   1.280   3.788   0.187
 3095SOL     OW10725   1.304   4.186   0.673
 3095SOL    HW110726   1.250   4.266   0.679
 3095SOL    HW210727   1.292   4.143   0.757
 3096SOL     OW10728   1.580   3.909   0.900
 3096SOL    HW110729   1.527   3.928   0.977
 3096SOL    HW210730   1.568   3.985   0.843
 3097SOL     OW10731   0.068   4.759   0.343
 3097SOL    HW110732   0.138   4.819   0.369
 3097SOL    HW210733  -0.004   4.779   0.403
 3098SOL     OW10734   0.872   5.380   0.368
 3098SOL    HW110735   0.792   5.363   0.319
 3098SOL    HW210736   0.853   5.460   0.417
 3099SOL     OW10737   0.232   4.416   1.943
 3099SOL    HW110738   0.204   4.365   2.019
 3099SOL    HW210739   0.247   4.352   1.875
 3100SOL     OW10740   0.234   3.988   2.847
 3100SOL    HW110741   0.269   3.967   2.934
 3100SOL    HW210742   0.154   3.935   2.840
 3101SOL     OW10743   8.003   4.109   2.479
 3101SOL    HW110744   7.912   4.092   2.503
 3101SOL    HW210745   8.016   4.058   2.399
 3102SOL     OW10746   0.511   5.033   3.022
 3102SOL    HW110747   0.529   4.953   3.073
 3102SOL    HW210748   0.567   5.099   3.063
 3103SOL     OW10749   1.580   5.243   2.574
 3103SOL    HW110750   1.535   5.214   2.653
 3103SOL    HW210751   1.513   5.239   2.506
 3104SOL     OW10752   1.132   4.424   2.555
 3104SOL    HW110753   1.179   4.506   2.542
 3104SOL    HW210754   1.100   4.428   2.645
 3105SOL     OW10755   1.791   4.315   2.081
 3105SOL    HW110756   1.759   4.309   1.991
 3105SOL    HW210757   1.746   4.245   2.127
 3106SOL     OW10758   0.787   4.899   2.987
 3106SOL    HW110759   0.725   4.951   2.936
 3106SOL    HW210760   0.810   4.826   2.930
 3107SOL     OW10761   0.876   4.500   3.685
 3107SOL    HW110762   0.902   4.567   3.747
 3107SOL    HW210763   0.900   4.536   3.599
 3108SOL     OW10764   0.670   4.734   2.498
 3108SOL    HW110765   0.731   4.716   2.569
 3108SOL    HW210766   0.601   4.787   2.538
 3109SOL     OW10767   0.711   4.883   3.695
 3109SOL    HW110768   0.756   4.962   3.723
 3109SOL    HW210769   0.636   4.914   3.644
 3110SOL     OW10770   1.456   5.227   3.221
 3110SOL    HW110771   1.513   5.303   3.229
 3110SOL    HW210772   1.395   5.234   3.295
 3111SOL     OW10773   0.453   4.108   3.350
 3111SOL    HW110774   0.533   4.056   3.358
 3111SOL    HW210775   0.382   4.045   3.366
 3112SOL     OW10776   1.599   4.162   2.614
 3112SOL    HW110777   1.527   4.181   2.554
 3112SOL    HW210778   1.590   4.227   2.684
 3113SOL     OW10779   0.227   5.419   2.342
 3113SOL    HW110780   0.212   5.504   2.384
 3113SOL    HW210781   0.298   5.436   2.280
 3114SOL     OW10782   1.146   5.063   3.558
 3114SOL    HW110783   1.200   5.047   3.635
 3114SOL    HW210784   1.094   4.984   3.547
 3115SOL     OW10785   0.290   5.156   2.374
 3115SOL    HW110786   0.267   5.249   2.384
 3115SOL    HW210787   0.236   5.111   2.439
 3116SOL     OW10788   0.251   4.793   2.746
 3116SOL    HW110789   0.282   4.715   2.793
 3116SOL    HW210790   0.222   4.852   2.815
 3117SOL     OW10791   0.590   5.533   3.260
 3117SOL    HW110792   0.519   5.504   3.317
 3117SOL    HW210793   0.622   5.613   3.302
 3118SOL     OW10794   0.569   4.717   2.004
 3118SOL    HW110795   0.623   4.756   1.935
 3118SOL    HW210796   0.611   4.745   2.085
 3119SOL     OW10797   1.583   3.862   3.316
 3119SOL    HW110798   1.628   3.940   3.281
 3119SOL    HW210799   1.560   3.887   3.406
 3120SOL     OW10800   0.131   4.356   2.403
 3120SOL    HW110801   0.094   4.277   2.443
 3120SOL    HW210802   0.120   4.424   2.469
 3121SOL     OW10803   1.841   5.474   2.187
 3121SOL    HW110804   1.911   5.450   2.248
 3121SOL    HW210805   1.857   5.567   2.168
 3122SOL     OW10806   0.014   5.313   2.004
 3122SOL    HW110807  -0.000   5.219   1.989
 3122SOL    HW210808   0.001   5.325   2.098
 3123SOL     OW10809   1.694   4.642   2.516
 3123SOL    HW110810   1.781   4.601   2.511
 3123SOL    HW210811   1.683   4.685   2.431
 3124SOL     OW10812   1.656   4.826   2.290
 3124SOL    HW110813   1.743   4.821   2.249
 3124SOL    HW210814   1.666   4.891   2.359
 3125SOL     OW10815   0.152   4.488   3.453
 3125SOL    HW110816   0.248   4.484   3.452
 3125SOL    HW210817   0.133   4.572   3.495
 3126SOL     OW10818   0.608   5.124   2.595
 3126SOL    HW110819   0.566   5.038   2.599
 3126SOL    HW210820   0.600   5.150   2.504
 3127SOL     OW10821   1.288   4.958   3.279
 3127SOL    HW110822   1.316   4.889   3.218
 3127SOL    HW210823   1.349   4.950   3.353
 3128SOL     OW10824   0.825   3.728   2.376
 3128SOL    HW110825   0.866   3.811   2.352
 3128SOL    HW210826   0.732   3.748   2.380
 3129SOL     OW10827   0.169   4.642   3.109
 3129SOL    HW110828   0.264   4.629   3.103
 3129SOL    HW210829   0.133   4.554   3.121
 3130SOL     OW10830   1.533   4.730   2.062
 3130SOL    HW110831   1.463   4.674   2.094
 3130SOL    HW210832   1.578   4.760   2.141
 3131SOL     OW10833   1.158   5.528   3.484
 3131SOL    HW110834   1.185   5.587   3.414
 3131SOL    HW210835   1.185   5.441   3.454
 3132SOL     OW10836   0.358   4.001   3.688
 3132SOL    HW110837   0.405   4.071   3.734
 3132SOL    HW210838   0.266   4.019   3.706
 3133SOL     OW10839   1.448   5.146   2.793
 3133SOL    HW110840   1.392   5.160   2.870
 3133SOL    HW210841   1.439   5.053   2.773
 3134SOL     OW10842   1.640   5.494   2.436
 3134SOL    HW110843   1.626   5.452   2.352
 3134SOL    HW210844   1.638   5.422   2.499
 3135SOL     OW10845   0.591   4.432   2.125
 3135SOL    HW110846   0.603   4.518   2.086
 3135SOL    HW210847   0.531   4.446   2.198
 3136SOL     OW10848   1.281   4.092   2.796
 3136SOL    HW110849   1.193   4.056   2.808
 3136SOL    HW210850   1.336   4.040   2.855
 3137SOL     OW10851   1.575   5.401   2.174
 3137SOL    HW110852   1.669   5.420   2.167
 3137SOL    HW210853   1.548   5.383   2.084
 3138SOL     OW10854   0.775   4.341   3.310
 3138SOL    HW110855   0.758   4.307   3.398
 3138SOL    HW210856   0.750   4.270   3.251
 3139SOL     OW10857   1.393   4.186   3.542
 3139SOL    HW110858   1.404   4.234   3.624
 3139SOL    HW210859   1.447   4.108   3.552
 3140SOL     OW10860   0.952   4.608   3.446
 3140SOL    HW110861   1.007   4.540   3.407
 3140SOL    HW210862   0.903   4.645   3.373
 3141SOL     OW10863   0.995   4.141   3.090
 3141SOL    HW110864   0.903   4.152   3.114
 3141SOL    HW210865   0.993   4.094   3.007
 3142SOL     OW10866   1.051   4.426   2.287
 3142SOL    HW110867   1.072   4.423   2.381
 3142SOL    HW210868   0.969   4.378   2.279
 3143SOL     OW10869   0.115   4.542   2.611
 3143SOL    HW110870   0.188   4.539   2.673
 3143SOL    HW210871   0.090   4.634   2.608
 3144SOL     OW10872   0.120   5.522   3.426
 3144SOL    HW110873   0.134   5.519   3.521
 3144SOL    HW210874   0.024   5.522   3.416
 3145SOL     OW10875   0.904   4.071   2.055
 3145SOL    HW110876   0.942   4.140   2.000
 3145SOL    HW210877   0.929   3.989   2.011
 3146SOL     OW10878   1.678   4.285   3.697
 3146SOL    HW110879   1.656   4.362   3.645
 3146SOL    HW210880   1.720   4.225   3.636
 3147SOL     OW10881   1.390   4.869   2.406
 3147SOL    HW110882   1.471   4.855   2.356
 3147SOL    HW210883   1.338   4.927   2.350
 3148SOL     OW10884   0.554   3.898   2.763
 3148SOL    HW110885   0.558   3.925   2.854
 3148SOL    HW210886   0.566   3.979   2.713
 3149SOL     OW10887   0.998   5.168   2.329
 3149SOL    HW110888   0.970   5.247   2.282
 3149SOL    HW210889   0.980   5.186   2.421
 3150SOL     OW10890   0.371   5.548   2.722
 3150SOL    HW110891   0.421   5.468   2.737
 3150SOL    HW210892   0.431   5.619   2.745
 3151SOL     OW10893   1.800   4.785   2.737
 3151SOL    HW110894   1.748   4.757   2.662
 3151SOL    HW210895   1.737   4.789   2.810
 3152SOL     OW10896   1.220   5.268   3.381
 3152SOL    HW110897   1.220   5.197   3.446
 3152SOL    HW210898   1.168   5.234   3.309
 3153SOL     OW10899   0.300   4.663   2.091
 3153SOL    HW110900   0.389   4.689   2.065
 3153SOL    HW210901   0.282   4.585   2.040
 3154SOL     OW10902   1.481   4.478   2.578
 3154SOL    HW110903   1.480   4.435   2.664
 3154SOL    HW210904   1.560   4.532   2.579
 3155SOL     OW10905   0.465   4.990   3.590
 3155SOL    HW110906   0.441   4.988   3.498
 3155SOL    HW210907   0.382   4.980   3.637
 3156SOL     OW10908   1.126   5.506   2.085
 3156SOL    HW110909   1.052   5.468   2.131
 3156SOL    HW210910   1.151   5.440   2.020
 3157SOL     OW10911   0.198   3.980   3.360
 3157SOL    HW110912   0.170   4.054   3.414
 3157SOL    HW210913   0.167   3.903   3.407
 3158SOL     OW10914   1.626   5.110   1.948
 3158SOL    HW110915   1.582   5.194   1.937
 3158SOL    HW210916   1.559   5.044   1.929
 3159SOL     OW10917   0.453   5.473   2.174
 3159SOL    HW110918   0.504   5.519   2.242
 3159SOL    HW210919   0.519   5.427   2.123
 3160SOL     OW10920   1.402   3.832   2.310
 3160SOL    HW110921   1.398   3.807   2.218
 3160SOL    HW210922   1.495   3.841   2.329
 3161SOL     OW10923   0.243   5.521   3.071
 3161SOL    HW110924   0.282   5.441   3.104
 3161SOL    HW210925   0.188   5.493   2.998
 3162SOL     OW10926   0.939   5.429   2.758
 3162SOL    HW110927   1.017   5.378   2.782
 3162SOL    HW210928   0.899   5.378   2.687
 3163SOL     OW10929   0.405   4.426   2.332
 3163SOL    HW110930   0.423   4.333   2.347
 3163SOL    HW210931   0.311   4.435   2.349
 3164SOL     OW10932   1.530   3.933   3.590
 3164SOL    HW110933   1.530   3.967   3.679
 3164SOL    HW210934   1.504   3.841   3.598
 3165SOL     OW10935   0.647   3.838   1.968
 3165SOL    HW110936   0.711   3.769   1.986
 3165SOL    HW210937   0.597   3.805   1.893
 3166SOL     OW10938   0.758   3.927   3.667
 3166SOL    HW110939   0.846   3.905   3.637
 3166SOL    HW210940   0.772   3.994   3.734
 3167SOL     OW10941   0.875   5.243   3.066
 3167SOL    HW110942   0.862   5.211   2.977
 3167SOL    HW210943   0.951   5.195   3.098
 3168SOL     OW10944   1.337   4.317   3.302
 3168SOL    HW110945   1.372   4.281   3.383
 3168SOL    HW210946   1.381   4.402   3.292
 3169SOL     OW10947   0.808   5.148   2.809
 3169SOL    HW110948   0.892   5.114   2.778
 3169SOL    HW210949   0.746   5.125   2.739
 3170SOL     OW10950   0.933   4.222   2.765
 3170SOL    HW110951   0.907   4.217   2.673
 3170SOL    HW210952   0.965   4.134   2.786
 3171SOL     OW10953   0.557   3.787   2.355
 3171SOL    HW110954   0.477   3.787   2.407
 3171SOL    HW210955   0.549   3.863   2.298
 3172SOL     OW10956   1.428   4.925   1.898
 3172SOL    HW110957   1.461   4.852   1.950
 3172SOL    HW210958   1.343   4.946   1.938
 3173SOL     OW10959   0.285   3.772   2.035
 3173SOL    HW110960   0.344   3.838   1.997
 3173SOL    HW210961   0.343   3.714   2.084
 3174SOL     OW10962   0.944   3.973   2.314
 3174SOL    HW110963   0.922   4.010   2.228
 3174SOL    HW210964   1.038   3.988   2.323
 3175SOL     OW10965   1.080   4.407   3.314
 3175SOL    HW110966   1.027   4.327   3.315
 3175SOL    HW210967   1.171   4.376   3.311
 3176SOL     OW10968   1.211   5.291   2.657
 3176SOL    HW110969   1.238   5.359   2.595
 3176SOL    HW210970   1.290   5.273   2.707
 3177SOL     OW10971   0.455   4.892   2.585
 3177SOL    HW110972   0.398   4.853   2.652
 3177SOL    HW210973   0.413   4.871   2.502
 3178SOL     OW10974   1.266   5.514   2.476
 3178SOL    HW110975   1.314   5.578   2.423
 3178SOL    HW210976   1.194   5.563   2.514
 3179SOL     OW10977   1.024   4.266   1.904
 3179SOL    HW110978   0.982   4.349   1.884
 3179SOL    HW210979   1.089   4.287   1.971
 3180SOL     OW10980   0.104   4.359   3.218
 3180SOL    HW110981   0.190   4.318   3.205
 3180SOL    HW210982   0.107   4.395   3.306
 3181SOL     OW10983   0.562   3.952   3.034
 3181SOL    HW110984   0.610   3.884   3.082
 3181SOL    HW210985   0.472   3.944   3.065
 3182SOL     OW10986   0.862   4.172   2.502
 3182SOL    HW110987   0.825   4.233   2.439
 3182SOL    HW210988   0.889   4.097   2.450
 3183SOL     OW10989   1.019   3.780   2.609
 3183SOL    HW110990   0.961   3.772   2.534
 3183SOL    HW210991   0.995   3.706   2.666
 3184SOL     OW10992   1.424   4.881   2.717
 3184SOL    HW110993   1.368   4.806   2.733
 3184SOL    HW210994   1.437   4.883   2.622
 3185SOL     OW10995   1.474   4.333   2.820
 3185SOL    HW110996   1.408   4.265   2.833
 3185SOL    HW210997   1.530   4.327   2.897
 3186SOL     OW10998   1.833   4.532   2.243
 3186SOL    HW110999   1.890   4.487   2.306
 3186SOL    HW211000   1.815   4.466   2.176
 3187SOL     OW11001   0.490   5.147   2.009
 3187SOL    HW111002   0.409   5.115   2.049
 3187SOL    HW211003   0.499   5.094   1.929
 3188SOL     OW11004   1.695   4.997   2.489
 3188SOL    HW111005   1.788   4.989   2.513
 3188SOL    HW211006   1.669   5.082   2.523
 3189SOL     OW11007   1.391   4.295   1.935
 3189SOL    HW111008   1.331   4.274   2.006
 3189SOL    HW211009   1.476   4.262   1.964
 3190SOL     OW11010   0.527   3.984   2.170
 3190SOL    HW111011   0.578   3.936   2.105
 3190SOL    HW211012   0.503   4.066   2.126
 3191SOL     OW11013   1.742   4.982   3.418
 3191SOL    HW111014   1.826   4.937   3.420
 3191SOL    HW211015   1.762   5.071   3.450
 3192SOL     OW11016   1.065   5.101   3.220
 3192SOL    HW111017   0.990   5.055   3.259
 3192SOL    HW211018   1.140   5.045   3.238
 3193SOL     OW11019   1.600   5.363   3.516
 3193SOL    HW111020   1.597   5.393   3.425
 3193SOL    HW211021   1.681   5.312   3.522
 3194SOL     OW11022   1.131   4.948   2.964
 3194SOL    HW111023   1.048   4.933   3.010
 3194SOL    HW211024   1.105   4.971   2.875
 3195SOL     OW11025   1.618   4.819   2.936
 3195SOL    HW111026   1.613   4.876   3.013
 3195SOL    HW211027   1.538   4.837   2.887
 3196SOL     OW11028   0.912   3.834   3.247
 3196SOL    HW111029   0.938   3.808   3.159
 3196SOL    HW211030   0.993   3.868   3.287
 3197SOL     OW11031   0.979   4.844   3.581
 3197SOL    HW111032   0.887   4.855   3.605
 3197SOL    HW211033   0.981   4.767   3.525
 3198SOL     OW11034   0.710   4.789   2.230
 3198SOL    HW111035   0.696   4.770   2.323
 3198SOL    HW211036   0.784   4.734   2.206
 3199SOL     OW11037   0.422   4.541   3.128
 3199SOL    HW111038   0.493   4.555   3.190
 3199SOL    HW211039   0.400   4.448   3.137
 3200SOL     OW11040   1.265   4.106   3.142
 3200SOL    HW111041   1.298   4.181   3.191
 3200SOL    HW211042   1.174   4.128   3.122
 3201SOL     OW11043   0.045   5.330   3.191
 3201SOL    HW111044   0.058   5.420   3.222
 3201SOL    HW211045   0.113   5.279   3.235
 3202SOL     OW11046   0.319   4.830   2.352
 3202SOL    HW111047   0.337   4.897   2.286
 3202SOL    HW211048   0.335   4.747   2.306
 3203SOL     OW11049   0.556   4.264   2.736
 3203SOL    HW111050   0.563   4.316   2.656
 3203SOL    HW211051   0.624   4.299   2.793
 3204SOL     OW11052   1.248   5.076   2.249
 3204SOL    HW111053   1.305   5.144   2.286
 3204SOL    HW211054   1.162   5.095   2.285
 3205SOL     OW11055   1.287   5.187   3.007
 3205SOL    HW111056   1.341   5.187   3.086
 3205SOL    HW211057   1.231   5.109   3.016
 3206SOL     OW11058   1.573   4.346   2.345
 3206SOL    HW111059   1.524   4.385   2.418
 3206SOL    HW211060   1.626   4.418   2.311
 3207SOL     OW11061   0.348   5.250   3.131
 3207SOL    HW111062   0.339   5.181   3.197
 3207SOL    HW211063   0.440   5.275   3.134
 3208SOL     OW11064   0.427   4.453   3.473
 3208SOL    HW111065   0.485   4.503   3.416
 3208SOL    HW211066   0.480   4.379   3.502
 3209SOL     OW11067   1.602   4.503   3.556
 3209SOL    HW111068   1.517   4.546   3.553
 3209SOL    HW211069   1.653   4.546   3.487
 3210SOL     OW11070   1.003   3.858   3.606
 3210SOL    HW111071   1.063   3.931   3.592
 3210SOL    HW211072   1.048   3.782   3.570
 3211SOL     OW11073   0.481   3.762   3.647
 3211SOL    HW111074   0.444   3.713   3.574
 3211SOL    HW211075   0.432   3.845   3.648
 3212SOL     OW11076   0.519   4.652   2.872
 3212SOL    HW111077   0.607   4.662   2.834
 3212SOL    HW211078   0.536   4.621   2.961
 3213SOL     OW11079   1.336   4.580   2.873
 3213SOL    HW111080   1.248   4.544   2.856
 3213SOL    HW211081   1.394   4.505   2.865
 3214SOL     OW11082   1.198   4.254   2.129
 3214SOL    HW111083   1.209   4.176   2.182
 3214SOL    HW211084   1.157   4.318   2.187
 3215SOL     OW11085   0.298   3.917   3.108
 3215SOL    HW111086   0.264   3.946   3.193
 3215SOL    HW211087   0.287   3.822   3.109
 3216SOL     OW11088   0.070   5.034   3.142
 3216SOL    HW111089   0.093   4.966   3.206
 3216SOL    HW211090   0.034   5.105   3.196
 3217SOL     OW11091   0.751   4.377   2.896
 3217SOL    HW111092   0.820   4.327   2.852
 3217SOL    HW211093   0.765   4.467   2.866
 3218SOL     OW11094   1.734   4.693   3.718
 3218SOL    HW111095   1.695   4.618   3.672
 3218SOL    HW211096   1.681   4.704   3.796
 3219SOL     OW11097   0.310   3.792   2.477
 3219SOL    HW111098   0.289   3.882   2.502
 3219SOL    HW211099   0.321   3.746   2.560
 3220SOL     OW11100   1.627   4.111   2.213
 3220SOL    HW111101   1.652   4.043   2.276
 3220SOL    HW211102   1.599   4.185   2.268
 3221SOL     OW11103   1.092   4.450   2.835
 3221SOL    HW111104   1.044   4.502   2.900
 3221SOL    HW211105   1.043   4.369   2.828
 3222SOL     OW11106   0.975   5.272   3.583
 3222SOL    HW111107   0.956   5.319   3.502
 3222SOL    HW211108   1.031   5.199   3.556
 3223SOL     OW11109   1.843   5.239   3.467
 3223SOL    HW111110   1.876   5.258   3.380
 3223SOL    HW211111   1.920   5.244   3.524
 3224SOL     OW11112   0.370   4.672   3.655
 3224SOL    HW111113   0.442   4.679   3.718
 3224SOL    HW211114   0.388   4.589   3.609
 3225SOL     OW11115   1.522   3.997   1.985
 3225SOL    HW111116   1.462   3.930   2.017
 3225SOL    HW211117   1.560   4.035   2.064
 3226SOL     OW11118   1.278   4.542   1.888
 3226SOL    HW111119   1.321   4.457   1.895
 3226SOL    HW211120   1.315   4.581   1.808
 3227SOL     OW11121   1.049   5.062   2.718
 3227SOL    HW111122   1.056   4.984   2.664
 3227SOL    HW211123   1.112   5.123   2.679
 3228SOL     OW11124   0.294   4.519   2.815
 3228SOL    HW111125   0.380   4.559   2.830
 3228SOL    HW211126   0.306   4.427   2.842
 3229SOL     OW11127   0.328   4.242   2.873
 3229SOL    HW111128   0.299   4.152   2.855
 3229SOL    HW211129   0.409   4.251   2.823
 3230SOL     OW11130   1.134   4.101   3.551
 3230SOL    HW111131   1.093   4.156   3.618
 3230SOL    HW211132   1.224   4.131   3.546
 3231SOL     OW11133   1.154   3.932   3.331
 3231SOL    HW111134   1.149   3.992   3.405
 3231SOL    HW211135   1.207   3.978   3.266
 3232SOL     OW11136   7.980   5.031   2.064
 3232SOL    HW111137   7.889   5.046   2.090
 3232SOL    HW211138   7.994   4.937   2.079
 3233SOL     OW11139   0.126   5.467   2.808
 3233SOL    HW111140   0.087   5.448   2.723
 3233SOL    HW211141   0.210   5.507   2.787
 3234SOL     OW11142   0.482   5.276   2.789
 3234SOL    HW111143   0.548   5.341   2.815
 3234SOL    HW211144   0.525   5.226   2.719
 3235SOL     OW11145   0.970   4.526   3.088
 3235SOL    HW111146   1.026   4.497   3.161
 3235SOL    HW211147   0.894   4.468   3.092
 3236SOL     OW11148   0.067   4.276   2.963
 3236SOL    HW111149   0.160   4.261   2.948
 3236SOL    HW211150   0.060   4.298   3.056
 3237SOL     OW11151   0.188   4.222   3.511
 3237SOL    HW111152   0.282   4.217   3.496
 3237SOL    HW211153   0.167   4.315   3.506
 3238SOL     OW11154   1.375   4.658   3.518
 3238SOL    HW111155   1.405   4.748   3.515
 3238SOL    HW211156   1.377   4.628   3.427
 3239SOL     OW11157   0.817   4.289   2.230
 3239SOL    HW111158   0.828   4.215   2.170
 3239SOL    HW211159   0.743   4.338   2.195
 3240SOL     OW11160   1.645   4.322   3.033
 3240SOL    HW111161   1.638   4.267   3.111
 3240SOL    HW211162   1.735   4.310   3.002
 3241SOL     OW11163   0.294   5.261   3.593
 3241SOL    HW111164   0.257   5.333   3.643
 3241SOL    HW211165   0.284   5.185   3.649
 3242SOL     OW11166   0.715   4.178   3.100
 3242SOL    HW111167   0.659   4.106   3.071
 3242SOL    HW211168   0.708   4.243   3.029
 3243SOL     OW11169   0.887   5.402   3.351
 3243SOL    HW111170   0.890   5.352   3.269
 3243SOL    HW211171   0.895   5.493   3.324
 3244SOL     OW11172   0.454   4.206   2.029
 3244SOL    HW111173   0.510   4.282   2.048
 3244SOL    HW211174   0.371   4.227   2.073
 3245SOL     OW11175   0.169   4.837   3.308
 3245SOL    HW111176   0.146   4.797   3.392
 3245SOL    HW211177   0.165   4.764   3.245
 3246SOL     OW11178   1.317   4.768   3.072
 3246SOL    HW111179   1.330   4.701   3.004
 3246SOL    HW211180   1.253   4.828   3.034
 3247SOL     OW11181   1.318   4.591   2.161
 3247SOL    HW111182   1.254   4.553   2.220
 3247SOL    HW211183   1.288   4.566   2.074
 3248SOL     OW11184   1.748   5.461   2.995
 3248SOL    HW111185   1.823   5.483   2.941
 3248SOL    HW211186   1.737   5.367   2.984
 3249SOL     OW11187   1.242   5.461   2.969
 3249SOL    HW111188   1.330   5.485   2.938
 3249SOL    HW211189   1.248   5.367   2.987
 3250SOL     OW11190   0.142   5.014   2.888
 3250SOL    HW111191   0.109   5.015   2.978
 3250SOL    HW211192   0.066   4.993   2.834
 3251SOL     OW11193   0.685   5.396   3.601
 3251SOL    HW111194   0.630   5.473   3.587
 3251SOL    HW211195   0.758   5.407   3.541
 3252SOL     OW11196   1.713   3.883   2.357
 3252SOL    HW111197   1.787   3.868   2.298
 3252SOL    HW211198   1.700   3.800   2.402
 3253SOL     OW11199   1.395   5.290   2.356
 3253SOL    HW111200   1.452   5.325   2.288
 3253SOL    HW211201   1.345   5.365   2.388
 3254SOL     OW11202   0.170   5.473   3.703
 3254SOL    HW111203   0.108   5.424   3.756
 3254SOL    HW211204   0.216   5.529   3.766
 3255SOL     OW11205   1.275   4.653   2.525
 3255SOL    HW111206   1.349   4.594   2.541
 3255SOL    HW211207   1.312   4.726   2.476
 3256SOL     OW11208   0.820   5.003   3.294
 3256SOL    HW111209   0.776   5.045   3.368
 3256SOL    HW211210   0.776   5.038   3.217
 3257SOL     OW11211   0.663   5.358   2.021
 3257SOL    HW111212   0.680   5.370   1.928
 3257SOL    HW211213   0.611   5.277   2.026
 3258SOL     OW11214   1.609   5.459   3.246
 3258SOL    HW111215   1.665   5.459   3.168
 3258SOL    HW211216   1.587   5.551   3.261
 3259SOL     OW11217   1.842   3.890   2.824
 3259SOL    HW111218   1.875   3.803   2.800
 3259SOL    HW211219   1.754   3.893   2.787
 3260SOL     OW11220   0.262   4.041   2.573
 3260SOL    HW111221   0.174   4.073   2.554
 3260SOL    HW211222   0.263   4.027   2.668
 3261SOL     OW11223   1.206   5.320   1.897
 3261SOL    HW111224   1.196   5.229   1.926
 3261SOL    HW211225   1.138   5.332   1.831
 3262SOL     OW11226   0.821   4.730   3.241
 3262SOL    HW111227   0.864   4.708   3.159
 3262SOL    HW211228   0.826   4.825   3.247
 3263SOL     OW11229   0.913   4.633   2.147
 3263SOL    HW111230   0.976   4.667   2.084
 3263SOL    HW211231   0.963   4.569   2.198
 3264SOL     OW11232   1.483   5.364   1.910
 3264SOL    HW111233   1.390   5.347   1.894
 3264SOL    HW211234   1.522   5.366   1.823
 3265SOL     OW11235   0.344   5.045   3.329
 3265SOL    HW111236   0.277   5.097   3.373
 3265SOL    HW211237   0.302   4.961   3.310
 3266SOL     OW11238   1.601   4.999   3.147
 3266SOL    HW111239   1.660   4.982   3.220
 3266SOL    HW211240   1.544   5.070   3.177
 3267SOL     OW11241   1.052   4.819   2.597
 3267SOL    HW111242   0.984   4.770   2.643
 3267SOL    HW211243   1.117   4.754   2.571
 3268SOL     OW11244   1.027   3.965   2.829
 3268SOL    HW111245   1.027   3.917   2.746
 3268SOL    HW211246   1.022   3.896   2.896
 3269SOL     OW11247   0.609   5.213   2.336
 3269SOL    HW111248   0.664   5.163   2.275
 3269SOL    HW211249   0.523   5.215   2.294
 3270SOL     OW11250   1.727   4.122   3.244
 3270SOL    HW111251   1.801   4.182   3.248
 3270SOL    HW211252   1.756   4.053   3.184
 3271SOL     OW11253   0.250   5.061   2.128
 3271SOL    HW111254   0.154   5.063   2.122
 3271SOL    HW211255   0.269   5.098   2.214
 3272SOL     OW11256   0.116   4.732   3.560
 3272SOL    HW111257   0.061   4.797   3.603
 3272SOL    HW211258   0.194   4.727   3.614
 3273SOL     OW11259   0.676   3.919   3.373
 3273SOL    HW111260   0.760   3.901   3.331
 3273SOL    HW211261   0.697   3.924   3.467
 3274SOL     OW11262   0.113   4.090   1.885
 3274SOL    HW111263   0.039   4.127   1.933
 3274SOL    HW211264   0.119   4.143   1.805
 3275SOL     OW11265   1.422   4.583   3.258
 3275SOL    HW111266   1.377   4.644   3.199
 3275SOL    HW211267   1.513   4.587   3.231
 3276SOL     OW11268   0.091   3.968   2.230
 3276SOL    HW111269   0.047   3.946   2.148
 3276SOL    HW211270   0.174   3.921   2.226
 3277SOL     OW11271   1.179   5.053   1.982
 3277SOL    HW111272   1.094   5.009   1.986
 3277SOL    HW211273   1.208   5.058   2.073
 3278SOL     OW11274   0.620   4.560   3.308
 3278SOL    HW111275   0.680   4.633   3.291
 3278SOL    HW211276   0.677   4.483   3.309
 3279SOL     OW11277   1.498   5.538   2.880
 3279SOL    HW111278   1.527   5.563   2.792
 3279SOL    HW211279   1.576   5.502   2.921
 3280SOL     OW11280   0.727   4.293   3.576
 3280SOL    HW111281   0.764   4.371   3.618
 3280SOL    HW211282   0.774   4.220   3.615
 3281SOL     OW11283   1.474   4.919   3.485
 3281SOL    HW111284   1.467   4.928   3.581
 3281SOL    HW211285   1.566   4.934   3.466
 3282SOL     OW11286   0.385   5.458   3.423
 3282SOL    HW111287   0.295   5.485   3.404
 3282SOL    HW211288   0.376   5.377   3.472
 3283SOL     OW11289   1.664   4.599   3.110
 3283SOL    HW111290   1.662   4.512   3.069
 3283SOL    HW211291   1.655   4.660   3.037
 3284SOL     OW11292   1.216   4.043   2.319
 3284SOL    HW111293   1.278   3.970   2.315
 3284SOL    HW211294   1.243   4.094   2.395
 3285SOL     OW11295   0.586   4.451   2.541
 3285SOL    HW111296   0.636   4.534   2.541
 3285SOL    HW211297   0.529   4.458   2.464
 3286SOL     OW11298   1.752   4.085   3.519
 3286SOL    HW111299   1.739   4.102   3.426
 3286SOL    HW211300   1.682   4.024   3.542
 3287SOL     OW11301   1.716   4.657   3.370
 3287SOL    HW111302   1.764   4.739   3.382
 3287SOL    HW211303   1.716   4.643   3.275
 3288SOL     OW11304   0.850   5.089   1.906
 3288SOL    HW111305   0.826   5.108   1.997
 3288SOL    HW211306   0.874   5.174   1.869
 3289SOL     OW11307   0.655   5.491   2.800
 3289SOL    HW111308   0.647   5.584   2.782
 3289SOL    HW211309   0.749   5.474   2.796
 3290SOL     OW11310   1.074   4.715   1.946
 3290SOL    HW111311   1.056   4.764   1.865
 3290SOL    HW211312   1.147   4.657   1.923
 3291SOL     OW11313   1.854   5.269   2.701
 3291SOL    HW111314   1.766   5.255   2.666
 3291SOL    HW211315   1.868   5.196   2.762
 3292SOL     OW11316   0.217   5.026   3.716
 3292SOL    HW111317   0.126   5.009   3.691
 3292SOL    HW211318   0.216   5.024   3.812
 3293SOL     OW11319   0.127   4.985   2.514
 3293SOL    HW111320   0.057   4.936   2.557
 3293SOL    HW211321   0.190   4.918   2.487
 3294SOL     OW11322   0.677   5.134   3.487
 3294SOL    HW111323   0.600   5.095   3.526
 3294SOL    HW211324   0.683   5.221   3.527
 3295SOL     OW11325   1.803   3.913   3.095
 3295SOL    HW111326   1.863   3.846   3.127
 3295SOL    HW211327   1.814   3.912   3.000
 3296SOL     OW11328   0.427   4.162   2.379
 3296SOL    HW111329   0.471   4.091   2.331
 3296SOL    HW211330   0.384   4.118   2.452
 3297SOL     OW11331   1.694   5.202   2.956
 3297SOL    HW111332   1.614   5.170   2.914
 3297SOL    HW211333   1.717   5.133   3.019
 3298SOL     OW11334   0.354   4.276   3.158
 3298SOL    HW111335   0.398   4.218   3.220
 3298SOL    HW211336   0.373   4.239   3.072
 3299SOL     OW11337   0.827   5.311   2.535
 3299SOL    HW111338   0.792   5.358   2.459
 3299SOL    HW211339   0.760   5.245   2.555
 3300SOL     OW11340   1.434   3.960   2.982
 3300SOL    HW111341   1.479   3.893   3.034
 3300SOL    HW211342   1.381   4.008   3.046
 3301SOL     OW11343   1.008   3.739   2.996
 3301SOL    HW111344   0.954   3.673   2.953
 3301SOL    HW211345   1.096   3.703   2.995
 3302SOL     OW11346   0.781   5.058   2.184
 3302SOL    HW111347   0.757   4.966   2.194
 3302SOL    HW211348   0.861   5.067   2.235
 3303SOL     OW11349   0.616   5.286   3.133
 3303SOL    HW111350   0.616   5.370   3.179
 3303SOL    HW211351   0.707   5.274   3.106
 3304SOL     OW11352   1.360   3.777   2.041
 3304SOL    HW111353   1.393   3.709   1.982
 3304SOL    HW211354   1.271   3.750   2.061
 3305SOL     OW11355   1.293   4.189   2.538
 3305SOL    HW111356   1.242   4.270   2.543
 3305SOL    HW211357   1.290   4.154   2.627
 3306SOL     OW11358   1.579   3.910   2.747
 3306SOL    HW111359   1.529   3.938   2.824
 3306SOL    HW211360   1.582   3.988   2.691
 3307SOL     OW11361   0.050   4.771   2.136
 3307SOL    HW111362   0.139   4.744   2.114
 3307SOL    HW211363   0.047   4.767   2.231
 3308SOL     OW11364   0.892   5.391   2.200
 3308SOL    HW111365   0.814   5.375   2.147
 3308SOL    HW211366   0.868   5.462   2.258
 3309SOL     OW11367   0.230   4.414   3.798
 3309SOL    HW111368   0.180   4.387   3.874
 3309SOL    HW211369   0.250   4.332   3.752
 3310SOL     OW11370   0.242   3.997   4.702
 3310SOL    HW111371   0.317   3.964   4.752
 3310SOL    HW211372   0.165   3.969   4.751
 3311SOL     OW11373   7.996   4.137   4.326
 3311SOL    HW111374   7.918   4.128   4.381
 3311SOL    HW211375   7.993   4.060   4.268
 3312SOL     OW11376   0.574   5.024   4.919
 3312SOL    HW111377   0.481   5.019   4.898
 3312SOL    HW211378   0.588   5.115   4.946
 3313SOL     OW11379   1.581   5.240   4.429
 3313SOL    HW111380   1.538   5.217   4.511
 3313SOL    HW211381   1.511   5.239   4.364
 3314SOL     OW11382   1.123   4.441   4.412
 3314SOL    HW111383   1.178   4.519   4.412
 3314SOL    HW211384   1.082   4.441   4.499
 3315SOL     OW11385   1.765   4.320   3.951
 3315SOL    HW111386   1.739   4.311   3.860
 3315SOL    HW211387   1.735   4.240   3.994
 3316SOL     OW11388   0.739   4.862   4.770
 3316SOL    HW111389   0.676   4.897   4.833
 3316SOL    HW211390   0.783   4.939   4.734
 3317SOL     OW11391   0.880   4.479   5.555
 3317SOL    HW111392   0.868   4.548   5.621
 3317SOL    HW211393   0.902   4.526   5.475
 3318SOL     OW11394   0.700   4.734   4.374
 3318SOL    HW111395   0.757   4.715   4.448
 3318SOL    HW211396   0.625   4.779   4.412
 3319SOL     OW11397   0.716   4.870   5.542
 3319SOL    HW111398   0.757   4.951   5.574
 3319SOL    HW211399   0.633   4.899   5.504
 3320SOL     OW11400   0.326   5.140   4.797
 3320SOL    HW111401   0.256   5.091   4.754
 3320SOL    HW211402   0.370   5.187   4.726
 3321SOL     OW11403   1.453   5.225   5.085
 3321SOL    HW111404   1.513   5.299   5.089
 3321SOL    HW211405   1.388   5.244   5.153
 3322SOL     OW11406   0.445   4.114   5.225
 3322SOL    HW111407   0.527   4.066   5.220
 3322SOL    HW211408   0.377   4.047   5.226
 3323SOL     OW11409   1.610   4.158   4.465
 3323SOL    HW111410   1.551   4.204   4.406
 3323SOL    HW211411   1.634   4.223   4.531
 3324SOL     OW11412   0.230   5.419   4.206
 3324SOL    HW111413   0.221   5.503   4.251
 3324SOL    HW211414   0.297   5.434   4.139
 3325SOL     OW11415   1.132   5.063   5.401
 3325SOL    HW111416   1.186   5.058   5.480
 3325SOL    HW211417   1.077   4.986   5.405
 3326SOL     OW11418   0.303   5.160   4.242
 3326SOL    HW111419   0.268   5.248   4.251
 3326SOL    HW211420   0.249   5.105   4.299
 3327SOL     OW11421   0.272   4.812   4.599
 3327SOL    HW111422   0.275   4.724   4.638
 3327SOL    HW211423   0.213   4.862   4.655
 3328SOL     OW11424   0.604   5.525   5.138
 3328SOL    HW111425   0.528   5.498   5.190
 3328SOL    HW211426   0.629   5.610   5.174
 3329SOL     OW11427   0.574   4.716   3.877
 3329SOL    HW111428   0.626   4.756   3.807
 3329SOL    HW211429   0.614   4.749   3.958
 3330SOL     OW11430   1.573   3.850   5.170
 3330SOL    HW111431   1.649   3.874   5.118
 3330SOL    HW211432   1.579   3.904   5.248
 3331SOL     OW11433   0.137   4.367   4.266
 3331SOL    HW111434   0.095   4.284   4.292
 3331SOL    HW211435   0.123   4.425   4.341
 3332SOL     OW11436   1.839   5.477   4.064
 3332SOL    HW111437   1.913   5.451   4.118
 3332SOL    HW211438   1.860   5.566   4.036
 3333SOL     OW11439   0.024   5.306   3.862
 3333SOL    HW111440   0.003   5.214   3.848
 3333SOL    HW211441   0.011   5.319   3.956
 3334SOL     OW11442   1.701   4.626   4.387
 3334SOL    HW111443   1.786   4.589   4.412
 3334SOL    HW211444   1.711   4.649   4.295
 3335SOL     OW11445   1.652   4.833   4.149
 3335SOL    HW111446   1.740   4.823   4.111
 3335SOL    HW211447   1.666   4.886   4.228
 3336SOL     OW11448   0.163   4.477   5.314
 3336SOL    HW111449   0.257   4.488   5.326
 3336SOL    HW211450   0.125   4.560   5.342
 3337SOL     OW11451   0.627   5.116   4.448
 3337SOL    HW111452   0.580   5.034   4.465
 3337SOL    HW211453   0.609   5.136   4.356
 3338SOL     OW11454   0.817   3.735   4.214
 3338SOL    HW111455   0.860   3.821   4.207
 3338SOL    HW211456   0.726   3.755   4.236
 3339SOL     OW11457   0.187   4.652   4.960
 3339SOL    HW111458   0.279   4.627   4.956
 3339SOL    HW211459   0.143   4.576   4.997
 3340SOL     OW11460   1.525   4.732   3.926
 3340SOL    HW111461   1.455   4.679   3.963
 3340SOL    HW211462   1.576   4.761   4.002
 3341SOL     OW11463   1.170   5.546   5.349
 3341SOL    HW111464   1.189   5.608   5.279
 3341SOL    HW211465   1.208   5.463   5.319
 3342SOL     OW11466   0.357   3.979   5.566
 3342SOL    HW111467   0.409   4.055   5.589
 3342SOL    HW211468   0.266   4.005   5.583
 3343SOL     OW11469   1.455   5.150   4.655
 3343SOL    HW111470   1.401   5.165   4.733
 3343SOL    HW211471   1.445   5.056   4.638
 3344SOL     OW11472   1.636   5.496   4.302
 3344SOL    HW111473   1.649   5.452   4.219
 3344SOL    HW211474   1.634   5.426   4.367
 3345SOL     OW11475   0.588   4.430   3.990
 3345SOL    HW111476   0.590   4.516   3.949
 3345SOL    HW211477   0.528   4.440   4.064
 3346SOL     OW11478   1.278   4.108   4.662
 3346SOL    HW111479   1.193   4.068   4.676
 3346SOL    HW211480   1.340   4.052   4.709
 3347SOL     OW11481   1.575   5.400   4.029
 3347SOL    HW111482   1.669   5.419   4.029
 3347SOL    HW211483   1.554   5.378   3.939
 3348SOL     OW11484   0.786   4.342   5.167
 3348SOL    HW111485   0.765   4.315   5.257
 3348SOL    HW211486   0.756   4.270   5.113
 3349SOL     OW11487   1.388   4.189   5.407
 3349SOL    HW111488   1.399   4.234   5.490
 3349SOL    HW211489   1.446   4.113   5.413
 3350SOL     OW11490   0.951   4.604   5.316
 3350SOL    HW111491   1.005   4.536   5.275
 3350SOL    HW211492   0.897   4.638   5.244
 3351SOL     OW11493   0.990   4.141   4.950
 3351SOL    HW111494   0.899   4.145   4.979
 3351SOL    HW211495   0.988   4.081   4.875
 3352SOL     OW11496   1.047   4.419   4.148
 3352SOL    HW111497   1.071   4.419   4.240
 3352SOL    HW211498   0.967   4.366   4.144
 3353SOL     OW11499   0.099   4.514   4.498
 3353SOL    HW111500   0.182   4.520   4.545
 3353SOL    HW211501   0.043   4.579   4.541
 3354SOL     OW11502   0.129   5.546   5.289
 3354SOL    HW111503   0.136   5.531   5.384
 3354SOL    HW211504   0.039   5.520   5.268
 3355SOL     OW11505   0.881   4.064   3.886
 3355SOL    HW111506   0.932   4.131   3.840
 3355SOL    HW211507   0.942   3.992   3.900
 3356SOL     OW11508   1.686   4.294   5.560
 3356SOL    HW111509   1.662   4.366   5.501
 3356SOL    HW211510   1.723   4.228   5.502
 3357SOL     OW11511   1.384   4.863   4.247
 3357SOL    HW111512   1.472   4.848   4.212
 3357SOL    HW211513   1.347   4.929   4.189
 3358SOL     OW11514   0.518   3.933   4.539
 3358SOL    HW111515   0.533   3.920   4.633
 3358SOL    HW211516   0.532   4.027   4.525
 3359SOL     OW11517   0.977   5.147   4.208
 3359SOL    HW111518   0.957   5.215   4.145
 3359SOL    HW211519   0.970   5.190   4.293
 3360SOL     OW11520   0.357   5.545   4.583
 3360SOL    HW111521   0.400   5.460   4.596
 3360SOL    HW211522   0.423   5.609   4.610
 3361SOL     OW11523   1.794   4.798   4.599
 3361SOL    HW111524   1.748   4.755   4.527
 3361SOL    HW211525   1.733   4.794   4.672
 3362SOL     OW11526   1.221   5.275   5.237
 3362SOL    HW111527   1.205   5.204   5.299
 3362SOL    HW211528   1.135   5.295   5.201
 3363SOL     OW11529   0.300   4.669   3.962
 3363SOL    HW111530   0.387   4.694   3.932
 3363SOL    HW211531   0.280   4.590   3.911
 3364SOL     OW11532   1.472   4.494   4.462
 3364SOL    HW111533   1.477   4.440   4.541
 3364SOL    HW211534   1.559   4.534   4.454
 3365SOL     OW11535   0.477   4.990   5.457
 3365SOL    HW111536   0.449   4.997   5.366
 3365SOL    HW211537   0.398   4.963   5.504
 3366SOL     OW11538   1.123   5.511   3.936
 3366SOL    HW111539   1.056   5.468   3.989
 3366SOL    HW211540   1.150   5.445   3.872
 3367SOL     OW11541   0.181   3.993   5.249
 3367SOL    HW111542   0.171   4.065   5.311
 3367SOL    HW211543   0.162   3.914   5.301
 3368SOL     OW11544   1.617   5.110   3.815
 3368SOL    HW111545   1.575   5.194   3.795
 3368SOL    HW211546   1.553   5.044   3.788
 3369SOL     OW11547   0.458   5.471   4.035
 3369SOL    HW111548   0.503   5.523   4.102
 3369SOL    HW211549   0.528   5.426   3.989
 3370SOL     OW11550   1.404   3.834   4.165
 3370SOL    HW111551   1.407   3.802   4.074
 3370SOL    HW211552   1.496   3.841   4.190
 3371SOL     OW11553   0.242   5.515   4.953
 3371SOL    HW111554   0.290   5.440   4.990
 3371SOL    HW211555   0.207   5.482   4.870
 3372SOL     OW11556   0.945   5.429   4.623
 3372SOL    HW111557   1.026   5.386   4.651
 3372SOL    HW211558   0.911   5.371   4.554
 3373SOL     OW11559   0.408   4.425   4.200
 3373SOL    HW111560   0.425   4.332   4.215
 3373SOL    HW211561   0.316   4.437   4.221
 3374SOL     OW11562   1.530   3.953   5.444
 3374SOL    HW111563   1.532   3.972   5.538
 3374SOL    HW211564   1.493   3.865   5.438
 3375SOL     OW11565   0.764   4.009   5.488
 3375SOL    HW111566   0.845   3.960   5.482
 3375SOL    HW211567   0.721   3.976   5.567
 3376SOL     OW11568   0.881   5.253   4.919
 3376SOL    HW111569   0.861   5.211   4.836
 3376SOL    HW211570   0.945   5.195   4.961
 3377SOL     OW11571   1.337   4.308   5.171
 3377SOL    HW111572   1.358   4.261   5.251
 3377SOL    HW211573   1.402   4.378   5.167
 3378SOL     OW11574   0.825   5.111   4.675
 3378SOL    HW111575   0.909   5.099   4.630
 3378SOL    HW211576   0.761   5.120   4.605
 3379SOL     OW11577   0.929   4.239   4.625
 3379SOL    HW111578   0.906   4.224   4.533
 3379SOL    HW211579   0.960   4.154   4.656
 3380SOL     OW11580   0.548   3.786   4.225
 3380SOL    HW111581   0.489   3.794   4.301
 3380SOL    HW211582   0.527   3.862   4.171
 3381SOL     OW11583   1.426   4.921   3.756
 3381SOL    HW111584   1.464   4.850   3.807
 3381SOL    HW211585   1.346   4.945   3.802
 3382SOL     OW11586   0.276   3.777   3.904
 3382SOL    HW111587   0.334   3.850   3.881
 3382SOL    HW211588   0.332   3.716   3.951
 3383SOL     OW11589   0.944   3.980   4.182
 3383SOL    HW111590   0.932   4.048   4.116
 3383SOL    HW211591   1.039   3.977   4.197
 3384SOL     OW11592   1.084   4.411   5.172
 3384SOL    HW111593   1.022   4.339   5.181
 3384SOL    HW211594   1.170   4.370   5.176
 3385SOL     OW11595   1.216   5.288   4.514
 3385SOL    HW111596   1.236   5.359   4.453
 3385SOL    HW211597   1.292   5.285   4.572
 3386SOL     OW11598   0.481   4.883   4.444
 3386SOL    HW111599   0.416   4.858   4.510
 3386SOL    HW211600   0.439   4.863   4.360
 3387SOL     OW11601   1.262   5.515   4.336
 3387SOL    HW111602   1.314   5.576   4.285
 3387SOL    HW211603   1.201   5.570   4.386
 3388SOL     OW11604   1.022   4.257   3.756
 3388SOL    HW111605   0.994   4.347   3.738
 3388SOL    HW211606   1.089   4.265   3.823
 3389SOL     OW11607   0.106   4.341   5.090
 3389SOL    HW111608   0.193   4.305   5.074
 3389SOL    HW211609   0.115   4.387   5.174
 3390SOL     OW11610   0.866   4.187   4.364
 3390SOL    HW111611   0.817   4.230   4.294
 3390SOL    HW211612   0.891   4.102   4.328
 3391SOL     OW11613   1.011   3.788   4.479
 3391SOL    HW111614   0.958   3.768   4.402
 3391SOL    HW211615   0.995   3.715   4.539
 3392SOL     OW11616   1.443   4.885   4.580
 3392SOL    HW111617   1.386   4.809   4.564
 3392SOL    HW211618   1.496   4.891   4.501
 3393SOL     OW11619   1.461   4.341   4.699
 3393SOL    HW111620   1.408   4.262   4.694
 3393SOL    HW211621   1.523   4.324   4.770
 3394SOL     OW11622   1.815   4.537   4.109
 3394SOL    HW111623   1.877   4.494   4.169
 3394SOL    HW211624   1.801   4.472   4.040
 3395SOL     OW11625   0.497   5.132   3.893
 3395SOL    HW111626   0.410   5.112   3.928
 3395SOL    HW211627   0.505   5.078   3.814
 3396SOL     OW11628   1.684   4.981   4.373
 3396SOL    HW111629   1.777   4.970   4.390
 3396SOL    HW211630   1.668   5.075   4.387
 3397SOL     OW11631   1.396   4.302   3.794
 3397SOL    HW111632   1.348   4.262   3.866
 3397SOL    HW211633   1.487   4.277   3.808
 3398SOL     OW11634   0.529   3.984   4.033
 3398SOL    HW111635   0.624   3.992   4.023
 3398SOL    HW211636   0.494   4.057   3.982
 3399SOL     OW11637   1.746   4.992   5.306
 3399SOL    HW111638   1.828   4.943   5.296
 3399SOL    HW211639   1.773   5.081   5.326
 3400SOL     OW11640   1.034   5.066   5.063
 3400SOL    HW111641   0.948   5.042   5.097
 3400SOL    HW211642   1.094   5.052   5.136
 3401SOL     OW11643   1.598   5.356   5.377
 3401SOL    HW111644   1.593   5.389   5.287
 3401SOL    HW211645   1.682   5.311   5.382
 3402SOL     OW11646   1.141   4.953   4.833
 3402SOL    HW111647   1.080   4.981   4.901
 3402SOL    HW211648   1.098   4.979   4.751
 3403SOL     OW11649   1.612   4.819   4.799
 3403SOL    HW111650   1.607   4.884   4.870
 3403SOL    HW211651   1.540   4.841   4.741
 3404SOL     OW11652   0.915   3.814   5.121
 3404SOL    HW111653   0.934   3.800   5.029
 3404SOL    HW211654   0.995   3.851   5.157
 3405SOL     OW11655   0.977   4.843   5.437
 3405SOL    HW111656   0.888   4.855   5.469
 3405SOL    HW211657   0.975   4.760   5.390
 3406SOL     OW11658   0.728   4.793   4.110
 3406SOL    HW111659   0.695   4.757   4.192
 3406SOL    HW211660   0.790   4.728   4.078
 3407SOL     OW11661   0.433   4.533   4.969
 3407SOL    HW111662   0.494   4.549   5.042
 3407SOL    HW211663   0.406   4.442   4.980
 3408SOL     OW11664   1.258   4.096   5.009
 3408SOL    HW111665   1.293   4.172   5.056
 3408SOL    HW211666   1.169   4.121   4.987
 3409SOL     OW11667   0.040   5.329   5.058
 3409SOL    HW111668   0.101   5.402   5.048
 3409SOL    HW211669   0.069   5.282   5.136
 3410SOL     OW11670   0.365   4.826   4.202
 3410SOL    HW111671   0.331   4.899   4.151
 3410SOL    HW211672   0.346   4.749   4.149
 3411SOL     OW11673   0.548   4.250   4.569
 3411SOL    HW111674   0.574   4.315   4.504
 3411SOL    HW211675   0.610   4.262   4.641
 3412SOL     OW11676   1.240   5.083   4.113
 3412SOL    HW111677   1.305   5.147   4.140
 3412SOL    HW211678   1.160   5.108   4.159
 3413SOL     OW11679   1.292   5.191   4.869
 3413SOL    HW111680   1.347   5.198   4.947
 3413SOL    HW211681   1.244   5.109   4.882
 3414SOL     OW11682   1.570   4.347   4.213
 3414SOL    HW111683   1.533   4.410   4.275
 3414SOL    HW211684   1.641   4.395   4.170
 3415SOL     OW11685   0.349   5.273   5.032
 3415SOL    HW111686   0.329   5.218   4.956
 3415SOL    HW211687   0.444   5.273   5.038
 3416SOL     OW11688   0.438   4.445   5.340
 3416SOL    HW111689   0.491   4.499   5.282
 3416SOL    HW211690   0.496   4.372   5.363
 3417SOL     OW11691   1.607   4.503   5.406
 3417SOL    HW111692   1.519   4.537   5.417
 3417SOL    HW211693   1.646   4.558   5.338
 3418SOL     OW11694   0.995   3.863   5.483
 3418SOL    HW111695   1.053   3.936   5.459
 3418SOL    HW211696   1.042   3.785   5.454
 3419SOL     OW11697   0.495   3.754   5.483
 3419SOL    HW111698   0.453   3.707   5.411
 3419SOL    HW211699   0.444   3.834   5.493
 3420SOL     OW11700   0.583   4.606   4.749
 3420SOL    HW111701   0.625   4.691   4.767
 3420SOL    HW211702   0.536   4.585   4.830
 3421SOL     OW11703   1.337   4.582   4.778
 3421SOL    HW111704   1.254   4.561   4.735
 3421SOL    HW211705   1.394   4.507   4.759
 3422SOL     OW11706   1.184   4.240   3.983
 3422SOL    HW111707   1.208   4.166   4.038
 3422SOL    HW211708   1.150   4.306   4.044
 3423SOL     OW11709   0.213   3.925   4.988
 3423SOL    HW111710   0.210   3.952   5.080
 3423SOL    HW211711   0.277   3.854   4.986
 3424SOL     OW11712   0.039   5.038   4.986
 3424SOL    HW111713   0.074   4.975   5.049
 3424SOL    HW211714   0.047   5.123   5.030
 3425SOL     OW11715   0.716   4.344   4.770
 3425SOL    HW111716   0.796   4.322   4.722
 3425SOL    HW211717   0.699   4.435   4.747
 3426SOL     OW11718   1.730   4.691   5.579
 3426SOL    HW111719   1.697   4.608   5.544
 3426SOL    HW211720   1.677   4.708   5.657
 3427SOL     OW11721   0.287   3.792   4.347
 3427SOL    HW111722   0.276   3.884   4.368
 3427SOL    HW211723   0.304   3.750   4.431
 3428SOL     OW11724   1.618   4.108   4.076
 3428SOL    HW111725   1.648   4.035   4.131
 3428SOL    HW211726   1.595   4.177   4.138
 3429SOL     OW11727   1.023   4.488   4.683
 3429SOL    HW111728   1.013   4.502   4.777
 3429SOL    HW211729   1.000   4.396   4.670
 3430SOL     OW11730   0.979   5.290   5.448
 3430SOL    HW111731   0.967   5.332   5.363
 3430SOL    HW211732   1.011   5.202   5.428
 3431SOL     OW11733   1.849   5.248   5.327
 3431SOL    HW111734   1.882   5.262   5.238
 3431SOL    HW211735   1.927   5.253   5.382
 3432SOL     OW11736   0.408   4.660   5.531
 3432SOL    HW111737   0.481   4.647   5.591
 3432SOL    HW211738   0.399   4.577   5.486
 3433SOL     OW11739   1.505   4.007   3.846
 3433SOL    HW111740   1.457   3.929   3.875
 3433SOL    HW211741   1.549   4.039   3.925
 3434SOL     OW11742   1.275   4.543   3.749
 3434SOL    HW111743   1.321   4.460   3.757
 3434SOL    HW211744   1.312   4.583   3.670
 3435SOL     OW11745   1.064   5.061   4.563
 3435SOL    HW111746   1.091   4.991   4.503
 3435SOL    HW211747   1.124   5.133   4.544
 3436SOL     OW11748   0.321   4.532   4.659
 3436SOL    HW111749   0.413   4.554   4.673
 3436SOL    HW211750   0.313   4.442   4.692
 3437SOL     OW11751   0.322   4.255   4.716
 3437SOL    HW111752   0.292   4.164   4.712
 3437SOL    HW211753   0.403   4.255   4.666
 3438SOL     OW11754   1.131   4.097   5.410
 3438SOL    HW111755   1.087   4.150   5.477
 3438SOL    HW211756   1.221   4.129   5.410
 3439SOL     OW11757   1.156   3.918   5.200
 3439SOL    HW111758   1.148   3.983   5.269
 3439SOL    HW211759   1.207   3.962   5.131
 3440SOL     OW11760   7.980   5.025   3.919
 3440SOL    HW111761   7.891   5.046   3.949
 3440SOL    HW211762   7.989   4.931   3.937
 3441SOL     OW11763   0.102   5.475   4.669
 3441SOL    HW111764   0.113   5.382   4.648
 3441SOL    HW211765   0.180   5.517   4.635
 3442SOL     OW11766   0.485   5.296   4.619
 3442SOL    HW111767   0.553   5.357   4.647
 3442SOL    HW211768   0.531   5.231   4.566
 3443SOL     OW11769   0.960   4.513   4.948
 3443SOL    HW111770   1.021   4.491   5.018
 3443SOL    HW211771   0.882   4.462   4.968
 3444SOL     OW11772   0.068   4.272   4.835
 3444SOL    HW111773   0.162   4.266   4.815
 3444SOL    HW211774   0.065   4.292   4.928
 3445SOL     OW11775   0.202   4.226   5.406
 3445SOL    HW111776   0.293   4.219   5.376
 3445SOL    HW211777   0.173   4.312   5.378
 3446SOL     OW11778   1.373   4.648   5.391
 3446SOL    HW111779   1.408   4.737   5.391
 3446SOL    HW211780   1.373   4.623   5.299
 3447SOL     OW11781   0.812   4.276   4.080
 3447SOL    HW111782   0.819   4.215   4.007
 3447SOL    HW211783   0.738   4.333   4.057
 3448SOL     OW11784   1.639   4.318   4.908
 3448SOL    HW111785   1.637   4.256   4.981
 3448SOL    HW211786   1.726   4.307   4.869
 3449SOL     OW11787   0.295   5.255   5.450
 3449SOL    HW111788   0.251   5.322   5.502
 3449SOL    HW211789   0.281   5.174   5.498
 3450SOL     OW11790   0.710   4.159   4.978
 3450SOL    HW111791   0.662   4.079   4.956
 3450SOL    HW211792   0.695   4.217   4.903
 3451SOL     OW11793   0.941   5.391   5.188
 3451SOL    HW111794   0.902   5.356   5.108
 3451SOL    HW211795   0.931   5.486   5.180
 3452SOL     OW11796   0.446   4.203   3.891
 3452SOL    HW111797   0.501   4.279   3.911
 3452SOL    HW211798   0.364   4.220   3.936
 3453SOL     OW11799   0.169   4.862   5.151
 3453SOL    HW111800   0.121   4.830   5.227
 3453SOL    HW211801   0.176   4.786   5.093
 3454SOL     OW11802   1.344   4.802   4.947
 3454SOL    HW111803   1.352   4.728   4.887
 3454SOL    HW211804   1.273   4.854   4.911
 3455SOL     OW11805   1.297   4.601   4.021
 3455SOL    HW111806   1.253   4.537   4.077
 3455SOL    HW211807   1.284   4.569   3.932
 3456SOL     OW11808   1.765   5.475   4.871
 3456SOL    HW111809   1.834   5.490   4.807
 3456SOL    HW211810   1.742   5.383   4.860
 3457SOL     OW11811   1.236   5.457   4.812
 3457SOL    HW111812   1.322   5.486   4.780
 3457SOL    HW211813   1.250   5.367   4.840
 3458SOL     OW11814   0.093   4.975   4.731
 3458SOL    HW111815   0.075   4.995   4.823
 3458SOL    HW211816   0.016   4.926   4.701
 3459SOL     OW11817   0.685   5.399   5.476
 3459SOL    HW111818   0.625   5.472   5.459
 3459SOL    HW211819   0.760   5.415   5.419
 3460SOL     OW11820   1.698   3.876   4.206
 3460SOL    HW111821   1.780   3.864   4.157
 3460SOL    HW211822   1.689   3.797   4.258
 3461SOL     OW11823   1.390   5.293   4.209
 3461SOL    HW111824   1.455   5.328   4.147
 3461SOL    HW211825   1.348   5.371   4.245
 3462SOL     OW11826   0.168   5.473   5.564
 3462SOL    HW111827   0.102   5.425   5.614
 3462SOL    HW211828   0.216   5.523   5.629
 3463SOL     OW11829   1.276   4.673   4.405
 3463SOL    HW111830   1.344   4.609   4.424
 3463SOL    HW211831   1.316   4.733   4.343
 3464SOL     OW11832   0.781   5.003   5.134
 3464SOL    HW111833   0.756   5.047   5.215
 3464SOL    HW211834   0.702   5.005   5.080
 3465SOL     OW11835   0.670   5.343   3.875
 3465SOL    HW111836   0.677   5.361   3.782
 3465SOL    HW211837   0.610   5.269   3.881
 3466SOL     OW11838   1.608   5.454   5.109
 3466SOL    HW111839   1.666   5.458   5.033
 3466SOL    HW211840   1.594   5.546   5.133
 3467SOL     OW11841   1.756   3.877   4.726
 3467SOL    HW111842   1.844   3.916   4.725
 3467SOL    HW211843   1.744   3.845   4.637
 3468SOL     OW11844   0.254   4.052   4.426
 3468SOL    HW111845   0.168   4.093   4.418
 3468SOL    HW211846   0.264   4.033   4.519
 3469SOL     OW11847   1.201   5.320   3.755
 3469SOL    HW111848   1.198   5.229   3.782
 3469SOL    HW211849   1.133   5.328   3.687
 3470SOL     OW11850   0.824   4.730   5.107
 3470SOL    HW111851   0.873   4.714   5.027
 3470SOL    HW211852   0.817   4.825   5.113
 3471SOL     OW11853   0.936   4.648   4.037
 3471SOL    HW111854   0.983   4.666   3.956
 3471SOL    HW211855   0.977   4.569   4.072
 3472SOL     OW11856   1.480   5.367   3.765
 3472SOL    HW111857   1.387   5.350   3.747
 3472SOL    HW211858   1.521   5.369   3.679
 3473SOL     OW11859   0.379   5.031   5.206
 3473SOL    HW111860   0.345   5.113   5.171
 3473SOL    HW211861   0.308   4.968   5.190
 3474SOL     OW11862   1.597   4.995   5.018
 3474SOL    HW111863   1.691   5.012   5.026
 3474SOL    HW211864   1.556   5.078   5.039
 3475SOL     OW11865   1.033   4.826   4.385
 3475SOL    HW111866   0.983   4.784   4.455
 3475SOL    HW211867   1.116   4.778   4.384
 3476SOL     OW11868   1.026   3.975   4.695
 3476SOL    HW111869   1.023   3.929   4.611
 3476SOL    HW211870   1.023   3.906   4.761
 3477SOL     OW11871   0.589   5.196   4.184
 3477SOL    HW111872   0.580   5.153   4.099
 3477SOL    HW211873   0.501   5.229   4.204
 3478SOL     OW11874   1.729   4.136   5.106
 3478SOL    HW111875   1.809   4.188   5.106
 3478SOL    HW211876   1.753   4.055   5.060
 3479SOL     OW11877   0.247   5.064   3.996
 3479SOL    HW111878   0.152   5.068   3.989
 3479SOL    HW211879   0.267   5.102   4.082
 3480SOL     OW11880   0.671   3.937   5.233
 3480SOL    HW111881   0.749   3.907   5.187
 3480SOL    HW211882   0.702   3.961   5.320
 3481SOL     OW11883   0.111   4.095   3.742
 3481SOL    HW111884   0.035   4.126   3.791
 3481SOL    HW211885   0.108   4.142   3.659
 3482SOL     OW11886   1.426   4.583   5.125
 3482SOL    HW111887   1.357   4.571   5.059
 3482SOL    HW211888   1.507   4.565   5.079
 3483SOL     OW11889   0.105   3.968   4.075
 3483SOL    HW111890   0.051   3.946   3.999
 3483SOL    HW211891   0.178   3.906   4.073
 3484SOL     OW11892   1.186   5.054   3.845
 3484SOL    HW111893   1.101   5.010   3.848
 3484SOL    HW211894   1.213   5.062   3.937
 3485SOL     OW11895   0.620   4.557   5.162
 3485SOL    HW111896   0.679   4.631   5.152
 3485SOL    HW211897   0.677   4.481   5.166
 3486SOL     OW11898   1.489   5.518   4.716
 3486SOL    HW111899   1.521   5.584   4.655
 3486SOL    HW211900   1.568   5.482   4.757
 3487SOL     OW11901   0.715   4.283   5.424
 3487SOL    HW111902   0.764   4.337   5.485
 3487SOL    HW211903   0.731   4.193   5.452
 3488SOL     OW11904   1.492   4.901   5.349
 3488SOL    HW111905   1.464   4.918   5.439
 3488SOL    HW211906   1.581   4.935   5.344
 3489SOL     OW11907   0.389   5.461   5.292
 3489SOL    HW111908   0.301   5.489   5.268
 3489SOL    HW211909   0.377   5.375   5.333
 3490SOL     OW11910   1.646   4.589   4.969
 3490SOL    HW111911   1.662   4.499   4.939
 3490SOL    HW211912   1.660   4.643   4.890
 3491SOL     OW11913   1.217   4.039   4.175
 3491SOL    HW111914   1.282   3.968   4.170
 3491SOL    HW211915   1.242   4.089   4.253
 3492SOL     OW11916   0.606   4.460   4.393
 3492SOL    HW111917   0.639   4.549   4.385
 3492SOL    HW211918   0.534   4.454   4.330
 3493SOL     OW11919   1.753   4.099   5.383
 3493SOL    HW111920   1.749   4.113   5.289
 3493SOL    HW211921   1.682   4.037   5.401
 3494SOL     OW11922   1.700   4.694   5.222
 3494SOL    HW111923   1.777   4.720   5.272
 3494SOL    HW211924   1.735   4.648   5.146
 3495SOL     OW11925   0.840   5.117   3.772
 3495SOL    HW111926   0.810   5.187   3.830
 3495SOL    HW211927   0.886   5.162   3.701
 3496SOL     OW11928   0.665   5.500   4.646
 3496SOL    HW111929   0.648   5.594   4.638
 3496SOL    HW211930   0.760   5.493   4.655
 3497SOL     OW11931   0.880   4.706   4.579
 3497SOL    HW111932   0.926   4.629   4.612
 3497SOL    HW211933   0.835   4.742   4.655
 3498SOL     OW11934   1.058   4.699   3.802
 3498SOL    HW111935   1.049   4.757   3.726
 3498SOL    HW211936   1.138   4.650   3.785
 3499SOL     OW11937   1.861   5.266   4.574
 3499SOL    HW111938   1.783   5.245   4.522
 3499SOL    HW211939   1.880   5.186   4.622
 3500SOL     OW11940   0.221   5.014   5.569
 3500SOL    HW111941   0.151   4.967   5.525
 3500SOL    HW211942   0.208   4.995   5.662
 3501SOL     OW11943   0.141   4.981   4.371
 3501SOL    HW111944   0.055   4.957   4.405
 3501SOL    HW211945   0.200   4.916   4.407
 3502SOL     OW11946   0.683   5.141   5.348
 3502SOL    HW111947   0.611   5.090   5.384
 3502SOL    HW211948   0.684   5.222   5.399
 3503SOL     OW11949   1.784   3.891   4.997
 3503SOL    HW111950   1.865   3.843   5.012
 3503SOL    HW211951   1.770   3.887   4.903
 3504SOL     OW11952   0.432   4.163   4.243
 3504SOL    HW111953   0.462   4.084   4.197
 3504SOL    HW211954   0.381   4.129   4.317
 3505SOL     OW11955   1.685   5.222   4.836
 3505SOL    HW111956   1.626   5.183   4.771
 3505SOL    HW211957   1.750   5.154   4.854
 3506SOL     OW11958   0.361   4.271   5.016
 3506SOL    HW111959   0.400   4.222   5.089
 3506SOL    HW211960   0.381   4.219   4.939
 3507SOL     OW11961   0.835   5.301   4.403
 3507SOL    HW111962   0.804   5.370   4.345
 3507SOL    HW211963   0.758   5.246   4.417
 3508SOL     OW11964   1.437   3.966   4.835
 3508SOL    HW111965   1.496   3.903   4.877
 3508SOL    HW211966   1.384   4.001   4.907
 3509SOL     OW11967   1.015   3.748   4.858
 3509SOL    HW111968   0.958   3.682   4.817
 3509SOL    HW211969   1.102   3.709   4.856
 3510SOL     OW11970   0.623   5.286   5.003
 3510SOL    HW111971   0.621   5.369   5.051
 3510SOL    HW211972   0.714   5.277   4.974
 3511SOL     OW11973   1.361   3.772   3.895
 3511SOL    HW111974   1.401   3.696   3.851
 3511SOL    HW211975   1.270   3.748   3.907
 3512SOL     OW11976   1.270   4.188   4.396
 3512SOL    HW111977   1.227   4.272   4.410
 3512SOL    HW211978   1.283   4.152   4.484
 3513SOL     OW11979   1.516   3.907   4.564
 3513SOL    HW111980   1.515   3.931   4.657
 3513SOL    HW211981   1.554   3.984   4.521
 3514SOL     OW11982   0.039   4.762   4.008
 3514SOL    HW111983   0.131   4.742   3.993
 3514SOL    HW211984   0.033   4.776   4.103
 3515SOL     OW11985   0.892   5.375   4.061
 3515SOL    HW111986   0.815   5.368   4.004
 3515SOL    HW211987   0.872   5.448   4.119
 3516SOL     OW11988   0.239   4.413   5.658
 3516SOL    HW111989   0.182   4.387   5.729
 3516SOL    HW211990   0.235   4.341   5.595
 3517SOL     OW11991   0.236   3.993   6.571
 3517SOL    HW111992   0.263   3.966   6.659
 3517SOL    HW211993   0.154   3.946   6.556
 3518SOL     OW11994   8.006   4.099   6.198
 3518SOL    HW111995   7.913   4.094   6.221
 3518SOL    HW211996   8.013   4.050   6.116
 3519SOL     OW11997   0.577   5.024   6.787
 3519SOL    HW111998   0.487   5.017   6.753
 3519SOL    HW211999   0.588   5.117   6.806
 3520SOL     OW12000   1.582   5.241   6.291
 3520SOL    HW112001   1.536   5.215   6.370
 3520SOL    HW212002   1.516   5.237   6.222
 3521SOL     OW12003   1.127   4.434   6.278
 3521SOL    HW112004   1.180   4.512   6.268
 3521SOL    HW212005   1.083   4.445   6.363
 3522SOL     OW12006   1.757   4.323   5.817
 3522SOL    HW112007   1.738   4.316   5.724
 3522SOL    HW212008   1.732   4.238   5.854
 3523SOL     OW12009   0.733   4.856   6.633
 3523SOL    HW112010   0.676   4.898   6.698
 3523SOL    HW212011   0.778   4.928   6.589
 3524SOL     OW12012   0.879   4.519   7.429
 3524SOL    HW112013   0.810   4.583   7.446
 3524SOL    HW212014   0.908   4.538   7.340
 3525SOL     OW12015   0.689   4.723   6.230
 3525SOL    HW112016   0.757   4.714   6.297
 3525SOL    HW212017   0.623   4.779   6.271
 3526SOL     OW12018   0.707   4.872   7.416
 3526SOL    HW112019   0.761   4.947   7.443
 3526SOL    HW212020   0.634   4.910   7.368
 3527SOL     OW12021   0.318   5.160   6.649
 3527SOL    HW112022   0.277   5.089   6.599
 3527SOL    HW212023   0.375   5.204   6.586
 3528SOL     OW12024   1.461   5.223   6.951
 3528SOL    HW112025   1.517   5.300   6.952
 3528SOL    HW212026   1.415   5.225   7.035
 3529SOL     OW12027   0.445   4.116   7.086
 3529SOL    HW112028   0.527   4.066   7.084
 3529SOL    HW212029   0.376   4.050   7.086
 3530SOL     OW12030   1.606   4.156   6.332
 3530SOL    HW112031   1.555   4.194   6.260
 3530SOL    HW212032   1.617   4.229   6.394
 3531SOL     OW12033   0.219   5.434   6.060
 3531SOL    HW112034   0.239   5.514   6.110
 3531SOL    HW212035   0.287   5.431   5.993
 3532SOL     OW12036   1.136   5.064   7.279
 3532SOL    HW112037   1.205   5.044   7.343
 3532SOL    HW212038   1.086   4.983   7.272
 3533SOL     OW12039   0.293   5.169   6.105
 3533SOL    HW112040   0.261   5.258   6.122
 3533SOL    HW212041   0.242   5.114   6.165
 3534SOL     OW12042   0.288   4.809   6.489
 3534SOL    HW112043   0.287   4.716   6.510
 3534SOL    HW212044   0.209   4.844   6.530
 3535SOL     OW12045   0.574   5.548   6.976
 3535SOL    HW112046   0.514   5.512   7.041
 3535SOL    HW212047   0.619   5.619   7.021
 3536SOL     OW12048   0.600   4.702   5.736
 3536SOL    HW112049   0.643   4.751   5.666
 3536SOL    HW212050   0.637   4.737   5.816
 3537SOL     OW12051   1.584   3.850   7.050
 3537SOL    HW112052   1.629   3.928   7.016
 3537SOL    HW212053   1.577   3.865   7.144
 3538SOL     OW12054   0.110   4.354   6.132
 3538SOL    HW112055   0.084   4.270   6.169
 3538SOL    HW212056   0.112   4.414   6.206
 3539SOL     OW12057   1.840   5.477   5.924
 3539SOL    HW112058   1.914   5.452   5.979
 3539SOL    HW212059   1.860   5.567   5.896
 3540SOL     OW12060   0.008   5.324   5.726
 3540SOL    HW112061   0.003   5.232   5.700
 3540SOL    HW212062  -0.010   5.324   5.819
 3541SOL     OW12063   1.697   4.635   6.246
 3541SOL    HW112064   1.783   4.596   6.260
 3541SOL    HW212065   1.699   4.665   6.155
 3542SOL     OW12066   1.653   4.830   6.010
 3542SOL    HW112067   1.740   4.821   5.972
 3542SOL    HW212068   1.666   4.887   6.087
 3543SOL     OW12069   0.152   4.487   7.170
 3543SOL    HW112070   0.248   4.490   7.167
 3543SOL    HW212071   0.126   4.566   7.217
 3544SOL     OW12072   0.613   5.123   6.320
 3544SOL    HW112073   0.573   5.036   6.327
 3544SOL    HW212074   0.602   5.148   6.228
 3545SOL     OW12075   1.281   4.963   7.006
 3545SOL    HW112076   1.306   4.894   6.944
 3545SOL    HW212077   1.346   4.957   7.076
 3546SOL     OW12078   0.823   3.727   6.103
 3546SOL    HW112079   0.867   3.809   6.078
 3546SOL    HW212080   0.730   3.749   6.105
 3547SOL     OW12081   0.175   4.644   6.847
 3547SOL    HW112082   0.267   4.618   6.850
 3547SOL    HW212083   0.149   4.629   6.756
 3548SOL     OW12084   1.524   4.734   5.786
 3548SOL    HW112085   1.457   4.677   5.822
 3548SOL    HW212086   1.574   4.764   5.862
 3549SOL     OW12087   1.162   5.534   7.211
 3549SOL    HW112088   1.183   5.595   7.140
 3549SOL    HW212089   1.186   5.448   7.177
 3550SOL     OW12090   0.353   3.974   7.425
 3550SOL    HW112091   0.403   4.054   7.442
 3550SOL    HW212092   0.262   3.999   7.439
 3551SOL     OW12093   1.445   5.154   6.512
 3551SOL    HW112094   1.395   5.164   6.593
 3551SOL    HW212095   1.442   5.060   6.494
 3552SOL     OW12096   1.637   5.496   6.164
 3552SOL    HW112097   1.642   5.455   6.078
 3552SOL    HW212098   1.635   5.423   6.225
 3553SOL     OW12099   0.595   4.436   5.854
 3553SOL    HW112100   0.601   4.522   5.812
 3553SOL    HW212101   0.532   4.449   5.925
 3554SOL     OW12102   1.279   4.097   6.522
 3554SOL    HW112103   1.193   4.058   6.536
 3554SOL    HW212104   1.338   4.043   6.576
 3555SOL     OW12105   1.576   5.400   5.894
 3555SOL    HW112106   1.669   5.419   5.891
 3555SOL    HW212107   1.552   5.379   5.804
 3556SOL     OW12108   0.760   4.347   7.032
 3556SOL    HW112109   0.753   4.312   7.121
 3556SOL    HW212110   0.742   4.273   6.976
 3557SOL     OW12111   1.371   4.150   7.300
 3557SOL    HW112112   1.419   4.206   7.362
 3557SOL    HW212113   1.379   4.195   7.216
 3558SOL     OW12114   0.945   4.599   7.177
 3558SOL    HW112115   1.000   4.531   7.138
 3558SOL    HW212116   0.898   4.637   7.102
 3559SOL     OW12117   0.984   4.142   6.814
 3559SOL    HW112118   0.891   4.145   6.834
 3559SOL    HW212119   0.989   4.095   6.730
 3560SOL     OW12120   1.055   4.425   6.008
 3560SOL    HW112121   1.075   4.421   6.102
 3560SOL    HW212122   0.972   4.377   6.000
 3561SOL     OW12123   0.103   4.516   6.358
 3561SOL    HW112124   0.184   4.522   6.409
 3561SOL    HW212125   0.055   4.595   6.380
 3562SOL     OW12126   0.114   5.528   7.145
 3562SOL    HW112127   0.133   5.522   7.238
 3562SOL    HW212128   0.019   5.518   7.138
 3563SOL     OW12129   0.902   4.071   5.783
 3563SOL    HW112130   0.940   4.136   5.725
 3563SOL    HW212131   0.925   3.987   5.743
 3564SOL     OW12132   1.674   4.304   7.424
 3564SOL    HW112133   1.658   4.375   7.362
 3564SOL    HW212134   1.712   4.234   7.370
 3565SOL     OW12135   1.387   4.864   6.117
 3565SOL    HW112136   1.472   4.850   6.074
 3565SOL    HW212137   1.340   4.923   6.059
 3566SOL     OW12138   0.554   3.897   6.481
 3566SOL    HW112139   0.558   3.928   6.572
 3566SOL    HW212140   0.561   3.976   6.428
 3567SOL     OW12141   1.000   5.167   6.052
 3567SOL    HW112142   0.972   5.246   6.007
 3567SOL    HW212143   0.987   5.186   6.145
 3568SOL     OW12144   0.358   5.558   6.466
 3568SOL    HW112145   0.401   5.473   6.471
 3568SOL    HW212146   0.429   5.622   6.471
 3569SOL     OW12147   1.794   4.795   6.467
 3569SOL    HW112148   1.746   4.762   6.391
 3569SOL    HW212149   1.731   4.788   6.539
 3570SOL     OW12150   1.210   5.271   7.107
 3570SOL    HW112151   1.202   5.194   7.163
 3570SOL    HW212152   1.186   5.241   7.020
 3571SOL     OW12153   0.309   4.667   5.817
 3571SOL    HW112154   0.390   4.702   5.781
 3571SOL    HW212155   0.288   4.593   5.760
 3572SOL     OW12156   1.478   4.485   6.312
 3572SOL    HW112157   1.482   4.438   6.396
 3572SOL    HW212158   1.561   4.534   6.309
 3573SOL     OW12159   0.463   4.993   7.331
 3573SOL    HW112160   0.441   4.997   7.238
 3573SOL    HW212161   0.380   4.978   7.375
 3574SOL     OW12162   1.124   5.507   5.804
 3574SOL    HW112163   1.053   5.466   5.853
 3574SOL    HW212164   1.150   5.441   5.740
 3575SOL     OW12165   0.190   3.989   7.081
 3575SOL    HW112166   0.155   4.065   7.127
 3575SOL    HW212167   0.163   3.914   7.135
 3576SOL     OW12168   1.614   5.105   5.676
 3576SOL    HW112169   1.574   5.190   5.658
 3576SOL    HW212170   1.548   5.041   5.649
 3577SOL     OW12171   0.452   5.473   5.897
 3577SOL    HW112172   0.505   5.516   5.965
 3577SOL    HW212173   0.514   5.423   5.846
 3578SOL     OW12174   1.403   3.831   6.034
 3578SOL    HW112175   1.402   3.806   5.941
 3578SOL    HW212176   1.496   3.838   6.055
 3579SOL     OW12177   0.265   5.509   6.785
 3579SOL    HW112178   0.328   5.466   6.842
 3579SOL    HW212179   0.200   5.442   6.766
 3580SOL     OW12180   0.945   5.419   6.483
 3580SOL    HW112181   1.030   5.378   6.496
 3580SOL    HW212182   0.905   5.370   6.411
 3581SOL     OW12183   0.408   4.422   6.065
 3581SOL    HW112184   0.427   4.330   6.080
 3581SOL    HW212185   0.313   4.428   6.067
 3582SOL     OW12186   1.541   3.927   7.317
 3582SOL    HW112187   1.549   3.943   7.411
 3582SOL    HW212188   1.464   3.978   7.290
 3583SOL     OW12189   0.648   3.835   5.693
 3583SOL    HW112190   0.718   3.770   5.701
 3583SOL    HW212191   0.595   3.804   5.620
 3584SOL     OW12192   0.761   4.004   7.346
 3584SOL    HW112193   0.841   3.952   7.338
 3584SOL    HW212194   0.716   3.966   7.422
 3585SOL     OW12195   0.871   5.247   6.786
 3585SOL    HW112196   0.857   5.208   6.699
 3585SOL    HW212197   0.942   5.196   6.824
 3586SOL     OW12198   0.812   5.112   6.537
 3586SOL    HW112199   0.898   5.101   6.497
 3586SOL    HW212200   0.752   5.118   6.463
 3587SOL     OW12201   0.924   4.233   6.485
 3587SOL    HW112202   0.901   4.222   6.393
 3587SOL    HW212203   0.960   4.148   6.511
 3588SOL     OW12204   0.556   3.788   6.078
 3588SOL    HW112205   0.476   3.789   6.130
 3588SOL    HW212206   0.548   3.865   6.022
 3589SOL     OW12207   1.417   4.919   5.612
 3589SOL    HW112208   1.455   4.850   5.667
 3589SOL    HW212209   1.336   4.944   5.657
 3590SOL     OW12210   0.286   3.772   5.759
 3590SOL    HW112211   0.340   3.838   5.716
 3590SOL    HW212212   0.349   3.717   5.806
 3591SOL     OW12213   0.945   3.971   6.041
 3591SOL    HW112214   0.921   4.009   5.957
 3591SOL    HW212215   1.040   3.985   6.048
 3592SOL     OW12216   1.078   4.400   7.050
 3592SOL    HW112217   1.043   4.315   7.024
 3592SOL    HW212218   1.173   4.388   7.052
 3593SOL     OW12219   1.209   5.302   6.388
 3593SOL    HW112220   1.236   5.363   6.319
 3593SOL    HW212221   1.290   5.279   6.433
 3594SOL     OW12222   0.476   4.885   6.308
 3594SOL    HW112223   0.415   4.858   6.376
 3594SOL    HW212224   0.430   4.866   6.226
 3595SOL     OW12225   1.268   5.515   6.197
 3595SOL    HW112226   1.319   5.574   6.142
 3595SOL    HW212227   1.207   5.572   6.245
 3596SOL     OW12228   1.028   4.252   5.617
 3596SOL    HW112229   0.987   4.337   5.601
 3596SOL    HW212230   1.094   4.269   5.685
 3597SOL     OW12231   0.101   4.315   6.967
 3597SOL    HW112232   0.192   4.298   6.941
 3597SOL    HW212233   0.107   4.377   7.039
 3598SOL     OW12234   0.561   3.946   6.755
 3598SOL    HW112235   0.606   3.873   6.798
 3598SOL    HW212236   0.470   3.938   6.785
 3599SOL     OW12237   0.861   4.177   6.223
 3599SOL    HW112238   0.826   4.233   6.154
 3599SOL    HW212239   0.892   4.099   6.178
 3600SOL     OW12240   1.004   3.792   6.346
 3600SOL    HW112241   0.958   3.780   6.263
 3600SOL    HW212242   0.989   3.710   6.393
 3601SOL     OW12243   1.435   4.887   6.441
 3601SOL    HW112244   1.377   4.811   6.441
 3601SOL    HW212245   1.474   4.889   6.353
 3602SOL     OW12246   1.466   4.341   6.552
 3602SOL    HW112247   1.412   4.262   6.557
 3602SOL    HW212248   1.526   4.335   6.626
 3603SOL     OW12249   1.823   4.538   5.969
 3603SOL    HW112250   1.883   4.493   6.029
 3603SOL    HW212251   1.803   4.472   5.903
 3604SOL     OW12252   0.488   5.146   5.730
 3604SOL    HW112253   0.410   5.111   5.773
 3604SOL    HW212254   0.493   5.098   5.647
 3605SOL     OW12255   1.691   4.984   6.227
 3605SOL    HW112256   1.784   4.974   6.246
 3605SOL    HW212257   1.673   5.076   6.248
 3606SOL     OW12258   1.396   4.302   5.657
 3606SOL    HW112259   1.343   4.269   5.729
 3606SOL    HW212260   1.485   4.274   5.678
 3607SOL     OW12261   0.524   3.984   5.893
 3607SOL    HW112262   0.575   3.936   5.828
 3607SOL    HW212263   0.502   4.066   5.850
 3608SOL     OW12264   1.748   4.974   7.158
 3608SOL    HW112265   1.831   4.931   7.141
 3608SOL    HW212266   1.771   5.064   7.180
 3609SOL     OW12267   1.051   5.082   6.921
 3609SOL    HW112268   0.976   5.045   6.968
 3609SOL    HW212269   1.127   5.036   6.956
 3610SOL     OW12270   1.604   5.359   7.248
 3610SOL    HW112271   1.595   5.393   7.159
 3610SOL    HW212272   1.685   5.309   7.246
 3611SOL     OW12273   1.134   4.952   6.683
 3611SOL    HW112274   1.073   4.990   6.746
 3611SOL    HW212275   1.104   4.984   6.597
 3612SOL     OW12276   1.608   4.803   6.666
 3612SOL    HW112277   1.602   4.865   6.738
 3612SOL    HW212278   1.533   4.824   6.610
 3613SOL     OW12279   0.915   3.816   6.972
 3613SOL    HW112280   0.938   3.794   6.882
 3613SOL    HW212281   0.995   3.853   7.009
 3614SOL     OW12282   0.981   4.836   7.310
 3614SOL    HW112283   0.886   4.851   7.319
 3614SOL    HW212284   0.988   4.758   7.254
 3615SOL     OW12285   0.723   4.794   5.964
 3615SOL    HW112286   0.707   4.770   6.055
 3615SOL    HW212287   0.796   4.739   5.937
 3616SOL     OW12288   0.428   4.548   6.844
 3616SOL    HW112289   0.494   4.563   6.911
 3616SOL    HW212290   0.405   4.455   6.853
 3617SOL     OW12291   1.256   4.082   6.863
 3617SOL    HW112292   1.301   4.151   6.911
 3617SOL    HW212293   1.169   4.118   6.845
 3618SOL     OW12294   0.064   5.336   6.901
 3618SOL    HW112295   0.052   5.400   6.972
 3618SOL    HW212296   0.136   5.280   6.931
 3619SOL     OW12297   0.330   4.832   6.074
 3619SOL    HW112298   0.332   4.896   6.002
 3619SOL    HW212299   0.340   4.748   6.030
 3620SOL     OW12300   0.545   4.254   6.449
 3620SOL    HW112301   0.559   4.313   6.375
 3620SOL    HW212302   0.615   4.276   6.510
 3621SOL     OW12303   1.249   5.077   5.966
 3621SOL    HW112304   1.307   5.143   6.003
 3621SOL    HW212305   1.163   5.094   6.005
 3622SOL     OW12306   1.295   5.187   6.737
 3622SOL    HW112307   1.354   5.190   6.813
 3622SOL    HW212308   1.251   5.102   6.745
 3623SOL     OW12309   1.575   4.334   6.084
 3623SOL    HW112310   1.530   4.396   6.142
 3623SOL    HW212311   1.635   4.388   6.033
 3624SOL     OW12312   0.345   5.248   6.903
 3624SOL    HW112313   0.328   5.212   6.816
 3624SOL    HW212314   0.440   5.260   6.906
 3625SOL     OW12315   0.428   4.459   7.197
 3625SOL    HW112316   0.486   4.510   7.140
 3625SOL    HW212317   0.478   4.380   7.217
 3626SOL     OW12318   1.601   4.503   7.254
 3626SOL    HW112319   1.532   4.470   7.196
 3626SOL    HW212320   1.662   4.548   7.195
 3627SOL     OW12321   0.984   3.849   7.342
 3627SOL    HW112322   1.041   3.923   7.322
 3627SOL    HW212323   1.032   3.773   7.311
 3628SOL     OW12324   0.500   3.756   7.342
 3628SOL    HW112325   0.456   3.705   7.274
 3628SOL    HW212326   0.445   3.833   7.354
 3629SOL     OW12327   0.589   4.602   6.619
 3629SOL    HW112328   0.631   4.688   6.623
 3629SOL    HW212329   0.536   4.598   6.699
 3630SOL     OW12330   1.340   4.591   6.599
 3630SOL    HW112331   1.260   4.560   6.557
 3630SOL    HW212332   1.397   4.514   6.601
 3631SOL     OW12333   1.196   4.248   5.846
 3631SOL    HW112334   1.209   4.170   5.900
 3631SOL    HW212335   1.157   4.312   5.906
 3632SOL     OW12336   0.300   3.915   6.834
 3632SOL    HW112337   0.259   3.946   6.915
 3632SOL    HW212338   0.281   3.821   6.832
 3633SOL     OW12339   0.039   5.032   6.862
 3633SOL    HW112340   0.067   4.965   6.924
 3633SOL    HW212341   0.040   5.113   6.912
 3634SOL     OW12342   0.720   4.349   6.638
 3634SOL    HW112343   0.798   4.331   6.585
 3634SOL    HW212344   0.699   4.440   6.618
 3635SOL     OW12345   1.739   4.679   7.436
 3635SOL    HW112346   1.695   4.619   7.376
 3635SOL    HW212347   1.668   4.713   7.491
 3636SOL     OW12348   0.311   3.791   6.204
 3636SOL    HW112349   0.287   3.882   6.226
 3636SOL    HW212350   0.322   3.749   6.289
 3637SOL     OW12351   1.617   4.103   5.940
 3637SOL    HW112352   1.650   4.033   5.997
 3637SOL    HW212353   1.595   4.174   6.000
 3638SOL     OW12354   1.021   4.484   6.543
 3638SOL    HW112355   1.017   4.500   6.637
 3638SOL    HW212356   1.000   4.391   6.533
 3639SOL     OW12357   0.973   5.278   7.314
 3639SOL    HW112358   0.958   5.327   7.232
 3639SOL    HW212359   1.026   5.203   7.287
 3640SOL     OW12360   1.845   5.237   7.192
 3640SOL    HW112361   1.875   5.254   7.103
 3640SOL    HW212362   1.924   5.243   7.245
 3641SOL     OW12363   0.366   4.670   7.375
 3641SOL    HW112364   0.441   4.681   7.434
 3641SOL    HW212365   0.386   4.591   7.325
 3642SOL     OW12366   1.509   4.003   5.708
 3642SOL    HW112367   1.456   3.929   5.739
 3642SOL    HW212368   1.552   4.037   5.786
 3643SOL     OW12369   1.269   4.540   5.618
 3643SOL    HW112370   1.314   4.455   5.627
 3643SOL    HW212371   1.306   4.578   5.538
 3644SOL     OW12372   1.058   5.068   6.439
 3644SOL    HW112373   1.069   4.993   6.381
 3644SOL    HW212374   1.119   5.134   6.407
 3645SOL     OW12375   0.321   4.530   6.530
 3645SOL    HW112376   0.415   4.550   6.527
 3645SOL    HW212377   0.316   4.440   6.562
 3646SOL     OW12378   0.329   4.245   6.604
 3646SOL    HW112379   0.295   4.158   6.586
 3646SOL    HW212380   0.406   4.252   6.548
 3647SOL     OW12381   1.116   4.078   7.283
 3647SOL    HW112382   1.073   4.151   7.326
 3647SOL    HW212383   1.209   4.098   7.287
 3648SOL     OW12384   1.154   3.914   7.059
 3648SOL    HW112385   1.149   3.978   7.129
 3648SOL    HW212386   1.204   3.957   6.990
 3649SOL     OW12387   7.988   5.039   5.818
 3649SOL    HW112388   7.893   5.048   5.820
 3649SOL    HW212389   8.004   4.945   5.824
 3650SOL     OW12390   0.093   5.502   6.521
 3650SOL    HW112391   0.074   5.410   6.541
 3650SOL    HW212392   0.175   5.499   6.471
 3651SOL     OW12393   0.487   5.309   6.484
 3651SOL    HW112394   0.560   5.364   6.512
 3651SOL    HW212395   0.527   5.244   6.427
 3652SOL     OW12396   0.969   4.515   6.815
 3652SOL    HW112397   1.041   4.501   6.876
 3652SOL    HW212398   0.899   4.458   6.846
 3653SOL     OW12399   0.071   4.282   6.700
 3653SOL    HW112400   0.164   4.272   6.679
 3653SOL    HW212401   0.068   4.286   6.796
 3654SOL     OW12402   0.204   4.236   7.272
 3654SOL    HW112403   0.288   4.221   7.228
 3654SOL    HW212404   0.173   4.319   7.238
 3655SOL     OW12405   1.338   4.699   7.257
 3655SOL    HW112406   1.379   4.785   7.249
 3655SOL    HW212407   1.361   4.655   7.175
 3656SOL     OW12408   0.817   4.291   5.957
 3656SOL    HW112409   0.827   4.217   5.897
 3656SOL    HW212410   0.743   4.341   5.923
 3657SOL     OW12411   1.640   4.330   6.760
 3657SOL    HW112412   1.621   4.283   6.841
 3657SOL    HW212413   1.730   4.306   6.738
 3658SOL     OW12414   0.290   5.257   7.308
 3658SOL    HW112415   0.250   5.328   7.359
 3658SOL    HW212416   0.280   5.180   7.363
 3659SOL     OW12417   0.705   4.166   6.837
 3659SOL    HW112418   0.654   4.092   6.806
 3659SOL    HW212419   0.702   4.230   6.766
 3660SOL     OW12420   0.882   5.412   7.080
 3660SOL    HW112421   0.890   5.360   7.001
 3660SOL    HW212422   0.900   5.502   7.051
 3661SOL     OW12423   0.461   4.208   5.754
 3661SOL    HW112424   0.515   4.285   5.770
 3661SOL    HW212425   0.376   4.229   5.792
 3662SOL     OW12426   0.153   4.845   7.034
 3662SOL    HW112427   0.134   4.800   7.117
 3662SOL    HW212428   0.161   4.775   6.970
 3663SOL     OW12429   1.307   4.775   6.798
 3663SOL    HW112430   1.329   4.707   6.734
 3663SOL    HW212431   1.246   4.832   6.751
 3664SOL     OW12432   1.309   4.590   5.888
 3664SOL    HW112433   1.247   4.544   5.944
 3664SOL    HW212434   1.285   4.565   5.799
 3665SOL     OW12435   1.790   5.467   6.755
 3665SOL    HW112436   1.850   5.487   6.683
 3665SOL    HW212437   1.753   5.382   6.732
 3666SOL     OW12438   1.240   5.459   6.695
 3666SOL    HW112439   1.323   5.486   6.656
 3666SOL    HW212440   1.251   5.366   6.713
 3667SOL     OW12441   0.070   4.920   6.615
 3667SOL    HW112442   0.059   4.965   6.699
 3667SOL    HW212443  -0.005   4.947   6.563
 3668SOL     OW12444   0.690   5.397   7.329
 3668SOL    HW112445   0.636   5.473   7.311
 3668SOL    HW212446   0.764   5.405   7.269
 3669SOL     OW12447   1.712   3.882   6.077
 3669SOL    HW112448   1.788   3.867   6.021
 3669SOL    HW212449   1.700   3.800   6.124
 3670SOL     OW12450   1.394   5.290   6.076
 3670SOL    HW112451   1.455   5.324   6.010
 3670SOL    HW212452   1.348   5.367   6.109
 3671SOL     OW12453   0.169   5.472   7.423
 3671SOL    HW112454   0.105   5.423   7.476
 3671SOL    HW212455   0.216   5.526   7.486
 3672SOL     OW12456   1.279   4.661   6.260
 3672SOL    HW112457   1.351   4.600   6.276
 3672SOL    HW212458   1.316   4.727   6.202
 3673SOL     OW12459   0.798   5.001   7.005
 3673SOL    HW112460   0.768   5.044   7.085
 3673SOL    HW212461   0.725   5.011   6.943
 3674SOL     OW12462   0.661   5.355   5.748
 3674SOL    HW112463   0.678   5.369   5.654
 3674SOL    HW212464   0.611   5.274   5.751
 3675SOL     OW12465   1.613   5.452   6.980
 3675SOL    HW112466   1.674   5.452   6.907
 3675SOL    HW212467   1.595   5.545   6.997
 3676SOL     OW12468   1.837   3.889   6.550
 3676SOL    HW112469   1.875   3.804   6.527
 3676SOL    HW212470   1.753   3.891   6.506
 3677SOL     OW12471   0.262   4.041   6.294
 3677SOL    HW112472   0.173   4.070   6.272
 3677SOL    HW212473   0.262   4.034   6.390
 3678SOL     OW12474   1.202   5.319   5.618
 3678SOL    HW112475   1.195   5.228   5.648
 3678SOL    HW212476   1.131   5.329   5.555
 3679SOL     OW12477   0.826   4.728   6.965
 3679SOL    HW112478   0.878   4.705   6.888
 3679SOL    HW212479   0.830   4.824   6.969
 3680SOL     OW12480   0.921   4.638   5.876
 3680SOL    HW112481   0.981   4.672   5.810
 3680SOL    HW212482   0.972   4.570   5.921
 3681SOL     OW12483   1.480   5.364   5.629
 3681SOL    HW112484   1.388   5.347   5.612
 3681SOL    HW212485   1.521   5.366   5.542
 3682SOL     OW12486   0.364   5.024   7.082
 3682SOL    HW112487   0.350   5.101   7.028
 3682SOL    HW212488   0.293   4.965   7.058
 3683SOL     OW12489   1.593   4.994   6.860
 3683SOL    HW112490   1.677   4.992   6.906
 3683SOL    HW212491   1.546   5.067   6.900
 3684SOL     OW12492   1.064   4.838   6.300
 3684SOL    HW112493   0.995   4.783   6.335
 3684SOL    HW212494   1.135   4.777   6.277
 3685SOL     OW12495   1.020   3.973   6.562
 3685SOL    HW112496   1.017   3.928   6.477
 3685SOL    HW212497   1.021   3.902   6.626
 3686SOL     OW12498   0.608   5.210   6.062
 3686SOL    HW112499   0.663   5.163   6.000
 3686SOL    HW212500   0.519   5.203   6.025
 3687SOL     OW12501   1.743   4.105   6.986
 3687SOL    HW112502   1.816   4.167   6.979
 3687SOL    HW212503   1.762   4.038   6.920
 3688SOL     OW12504   0.262   5.056   5.864
 3688SOL    HW112505   0.167   5.055   5.853
 3688SOL    HW212506   0.276   5.099   5.949
 3689SOL     OW12507   0.106   4.727   7.296
 3689SOL    HW112508   0.075   4.813   7.325
 3689SOL    HW212509   0.192   4.718   7.338
 3690SOL     OW12510   0.679   3.920   7.086
 3690SOL    HW112511   0.761   3.898   7.043
 3690SOL    HW212512   0.704   3.950   7.174
 3691SOL     OW12513   0.108   4.082   5.618
 3691SOL    HW112514   0.031   4.118   5.663
 3691SOL    HW212515   0.120   4.138   5.541
 3692SOL     OW12516   1.443   4.659   7.009
 3692SOL    HW112517   1.392   4.693   6.935
 3692SOL    HW212518   1.516   4.612   6.968
 3693SOL     OW12519   0.081   3.955   5.956
 3693SOL    HW112520   0.037   3.928   5.875
 3693SOL    HW212521   0.170   3.922   5.947
 3694SOL     OW12522   1.177   5.055   5.701
 3694SOL    HW112523   1.098   5.001   5.706
 3694SOL    HW212524   1.208   5.060   5.791
 3695SOL     OW12525   0.616   4.571   7.034
 3695SOL    HW112526   0.678   4.641   7.015
 3695SOL    HW212527   0.670   4.491   7.033
 3696SOL     OW12528   1.486   5.525   6.586
 3696SOL    HW112529   1.520   5.583   6.518
 3696SOL    HW212530   1.557   5.464   6.604
 3697SOL     OW12531   0.720   4.276   7.295
 3697SOL    HW112532   0.769   4.324   7.362
 3697SOL    HW212533   0.733   4.184   7.317
 3698SOL     OW12534   1.471   4.947   7.215
 3698SOL    HW112535   1.475   4.948   7.310
 3698SOL    HW212536   1.563   4.947   7.187
 3699SOL     OW12537   0.382   5.464   7.150
 3699SOL    HW112538   0.292   5.487   7.130
 3699SOL    HW212539   0.377   5.377   7.191
 3700SOL     OW12540   1.668   4.595   6.848
 3700SOL    HW112541   1.661   4.507   6.809
 3700SOL    HW212542   1.656   4.655   6.774
 3701SOL     OW12543   1.215   4.039   6.039
 3701SOL    HW112544   1.280   3.969   6.035
 3701SOL    HW212545   1.239   4.091   6.116
 3702SOL     OW12546   0.585   4.463   6.273
 3702SOL    HW112547   0.632   4.545   6.256
 3702SOL    HW212548   0.527   4.453   6.198
 3703SOL     OW12549   1.749   4.094   7.262
 3703SOL    HW112550   1.752   4.106   7.167
 3703SOL    HW212551   1.683   4.026   7.276
 3704SOL     OW12552   1.769   4.648   7.096
 3704SOL    HW112553   1.753   4.742   7.103
 3704SOL    HW212554   1.746   4.626   7.006
 3705SOL     OW12555   0.844   5.093   5.632
 3705SOL    HW112556   0.823   5.105   5.724
 3705SOL    HW212557   0.872   5.179   5.602
 3706SOL     OW12558   0.675   5.507   6.524
 3706SOL    HW112559   0.684   5.598   6.496
 3706SOL    HW212560   0.764   5.473   6.523
 3707SOL     OW12561   0.870   4.695   6.438
 3707SOL    HW112562   0.921   4.621   6.471
 3707SOL    HW212563   0.831   4.734   6.516
 3708SOL     OW12564   1.075   4.725   5.671
 3708SOL    HW112565   1.056   4.766   5.586
 3708SOL    HW212566   1.144   4.662   5.651
 3709SOL     OW12567   1.859   5.268   6.438
 3709SOL    HW112568   1.783   5.245   6.385
 3709SOL    HW212569   1.881   5.188   6.485
 3710SOL     OW12570   0.209   5.024   7.441
 3710SOL    HW112571   0.118   5.010   7.417
 3710SOL    HW212572   0.210   5.019   7.536
 3711SOL     OW12573   0.141   4.987   6.238
 3711SOL    HW112574   0.064   4.943   6.274
 3711SOL    HW212575   0.196   4.917   6.204
 3712SOL     OW12576   0.681   5.130   7.218
 3712SOL    HW112577   0.599   5.094   7.252
 3712SOL    HW212578   0.687   5.218   7.257
 3713SOL     OW12579   1.793   3.903   6.818
 3713SOL    HW112580   1.848   3.829   6.846
 3713SOL    HW212581   1.808   3.910   6.724
 3714SOL     OW12582   0.445   4.162   6.118
 3714SOL    HW112583   0.474   4.093   6.058
 3714SOL    HW212584   0.392   4.116   6.183
 3715SOL     OW12585   1.677   5.230   6.696
 3715SOL    HW112586   1.615   5.190   6.634
 3715SOL    HW212587   1.719   5.155   6.739
 3716SOL     OW12588   0.357   4.285   6.882
 3716SOL    HW112589   0.405   4.226   6.940
 3716SOL    HW212590   0.372   4.251   6.794
 3717SOL     OW12591   0.826   5.309   6.265
 3717SOL    HW112592   0.803   5.361   6.187
 3717SOL    HW212593   0.757   5.243   6.270
 3718SOL     OW12594   1.437   3.956   6.699
 3718SOL    HW112595   1.497   3.903   6.751
 3718SOL    HW212596   1.379   3.996   6.764
 3719SOL     OW12597   1.008   3.735   6.717
 3719SOL    HW112598   0.963   3.673   6.659
 3719SOL    HW212599   1.098   3.702   6.721
 3720SOL     OW12600   0.783   5.060   5.908
 3720SOL    HW112601   0.759   4.968   5.920
 3720SOL    HW212602   0.864   5.070   5.957
 3721SOL     OW12603   0.615   5.291   6.867
 3721SOL    HW112604   0.615   5.380   6.902
 3721SOL    HW212605   0.706   5.277   6.839
 3722SOL     OW12606   1.364   3.772   5.766
 3722SOL    HW112607   1.404   3.698   5.719
 3722SOL    HW212608   1.273   3.745   5.780
 3723SOL     OW12609   1.273   4.186   6.259
 3723SOL    HW112610   1.231   4.272   6.269
 3723SOL    HW212611   1.285   4.155   6.349
 3724SOL     OW12612   1.575   3.906   6.462
 3724SOL    HW112613   1.527   3.936   6.539
 3724SOL    HW212614   1.581   3.984   6.406
 3725SOL     OW12615   0.065   4.782   5.871
 3725SOL    HW112616   0.151   4.749   5.845
 3725SOL    HW212617   0.048   4.742   5.956
 3726SOL     OW12618   0.891   5.389   5.926
 3726SOL    HW112619   0.813   5.372   5.873
 3726SOL    HW212620   0.866   5.462   5.982
 3727SOL     OW12621   0.244   4.420   7.532
 3727SOL    HW112622   0.210   4.367   7.605
 3727SOL    HW212623   0.238   4.363   7.456
 3728SOL     OW12624   0.238   3.992   8.428
 3728SOL    HW112625   0.258   3.962   8.517
 3728SOL    HW212626   0.159   3.944   8.403
 3729SOL     OW12627   8.004   4.110   8.055
 3729SOL    HW112628   7.914   4.097   8.083
 3729SOL    HW212629   8.013   4.056   7.977
 3730SOL     OW12630   0.575   5.023   8.649
 3730SOL    HW112631   0.492   5.021   8.601
 3730SOL    HW212632   0.587   5.115   8.671
 3731SOL     OW12633   1.581   5.244   8.151
 3731SOL    HW112634   1.536   5.214   8.230
 3731SOL    HW212635   1.514   5.241   8.083
 3732SOL     OW12636   1.125   4.435   8.138
 3732SOL    HW112637   1.179   4.514   8.127
 3732SOL    HW212638   1.084   4.447   8.223
 3733SOL     OW12639   1.731   4.325   7.687
 3733SOL    HW112640   1.720   4.330   7.592
 3733SOL    HW212641   1.744   4.232   7.704
 3734SOL     OW12642   0.741   4.860   8.501
 3734SOL    HW112643   0.678   4.901   8.560
 3734SOL    HW212644   0.780   4.934   8.453
 3735SOL     OW12645   0.887   4.487   9.279
 3735SOL    HW112646   0.926   4.557   9.331
 3735SOL    HW212647   0.899   4.515   9.189
 3736SOL     OW12648   0.686   4.724   8.094
 3736SOL    HW112649   0.752   4.716   8.162
 3736SOL    HW212650   0.617   4.778   8.133
 3737SOL     OW12651   0.339   5.136   8.514
 3737SOL    HW112652   0.284   5.081   8.459
 3737SOL    HW212653   0.385   5.193   8.452
 3738SOL     OW12654   1.460   5.223   8.815
 3738SOL    HW112655   1.518   5.299   8.815
 3738SOL    HW212656   1.399   5.239   8.887
 3739SOL     OW12657   0.449   4.115   8.944
 3739SOL    HW112658   0.527   4.060   8.943
 3739SOL    HW212659   0.375   4.053   8.947
 3740SOL     OW12660   1.603   4.162   8.187
 3740SOL    HW112661   1.540   4.186   8.119
 3740SOL    HW212662   1.645   4.244   8.212
 3741SOL     OW12663   0.225   5.421   7.927
 3741SOL    HW112664   0.213   5.506   7.970
 3741SOL    HW212665   0.295   5.436   7.863
 3742SOL     OW12666   1.151   5.068   9.149
 3742SOL    HW112667   1.206   5.053   9.226
 3742SOL    HW212668   1.111   4.983   9.131
 3743SOL     OW12669   0.296   5.161   7.965
 3743SOL    HW112670   0.267   5.252   7.973
 3743SOL    HW212671   0.242   5.114   8.028
 3744SOL     OW12672   0.286   4.809   8.358
 3744SOL    HW112673   0.283   4.715   8.377
 3744SOL    HW212674   0.203   4.843   8.393
 3745SOL     OW12675   0.596   5.528   8.865
 3745SOL    HW112676   0.518   5.508   8.918
 3745SOL    HW212677   0.623   5.615   8.895
 3746SOL     OW12678   0.574   4.714   7.598
 3746SOL    HW112679   0.619   4.763   7.529
 3746SOL    HW212680   0.616   4.742   7.679
 3747SOL     OW12681   1.586   3.848   8.905
 3747SOL    HW112682   1.639   3.903   8.846
 3747SOL    HW212683   1.573   3.902   8.982
 3748SOL     OW12684   0.139   4.352   7.997
 3748SOL    HW112685   0.097   4.271   8.026
 3748SOL    HW212686   0.119   4.415   8.066
 3749SOL     OW12687   1.839   5.486   7.790
 3749SOL    HW112688   1.917   5.460   7.839
 3749SOL    HW212689   1.865   5.568   7.747
 3750SOL     OW12690   0.018   5.314   7.589
 3750SOL    HW112691   0.003   5.221   7.575
 3750SOL    HW212692   0.001   5.328   7.682
 3751SOL     OW12693   1.698   4.634   8.103
 3751SOL    HW112694   1.783   4.589   8.100
 3751SOL    HW212695   1.690   4.675   8.017
 3752SOL     OW12696   1.652   4.824   7.878
 3752SOL    HW112697   1.739   4.819   7.837
 3752SOL    HW212698   1.665   4.883   7.952
 3753SOL     OW12699   0.149   4.481   9.028
 3753SOL    HW112700   0.244   4.486   9.021
 3753SOL    HW212701   0.123   4.564   9.068
 3754SOL     OW12702   0.612   5.118   8.189
 3754SOL    HW112703   0.569   5.033   8.192
 3754SOL    HW212704   0.599   5.148   8.099
 3755SOL     OW12705   1.277   4.952   8.877
 3755SOL    HW112706   1.302   4.887   8.812
 3755SOL    HW212707   1.347   4.950   8.942
 3756SOL     OW12708   0.828   3.731   7.969
 3756SOL    HW112709   0.868   3.813   7.940
 3756SOL    HW212710   0.734   3.749   7.968
 3757SOL     OW12711   0.180   4.661   8.722
 3757SOL    HW112712   0.268   4.625   8.709
 3757SOL    HW212713   0.139   4.654   8.636
 3758SOL     OW12714   1.531   4.725   7.645
 3758SOL    HW112715   1.550   4.631   7.648
 3758SOL    HW212716   1.572   4.761   7.723
 3759SOL     OW12717   1.166   5.533   9.074
 3759SOL    HW112718   1.181   5.598   9.006
 3759SOL    HW212719   1.192   5.450   9.035
 3760SOL     OW12720   0.357   3.976   9.299
 3760SOL    HW112721   0.404   4.058   9.315
 3760SOL    HW212722   0.265   4.000   9.308
 3761SOL     OW12723   1.455   5.153   8.379
 3761SOL    HW112724   1.398   5.164   8.455
 3761SOL    HW212725   1.450   5.060   8.358
 3762SOL     OW12726   1.633   5.495   8.021
 3762SOL    HW112727   1.634   5.457   7.933
 3762SOL    HW212728   1.629   5.419   8.080
 3763SOL     OW12729   0.586   4.446   7.714
 3763SOL    HW112730   0.577   4.530   7.669
 3763SOL    HW212731   0.524   4.451   7.787
 3764SOL     OW12732   1.276   4.101   8.385
 3764SOL    HW112733   1.189   4.060   8.392
 3764SOL    HW212734   1.332   4.047   8.440
 3765SOL     OW12735   1.575   5.406   7.759
 3765SOL    HW112736   1.669   5.422   7.750
 3765SOL    HW212737   1.545   5.388   7.670
 3766SOL     OW12738   0.776   4.343   8.896
 3766SOL    HW112739   0.757   4.311   8.984
 3766SOL    HW212740   0.752   4.270   8.838
 3767SOL     OW12741   1.388   4.200   9.124
 3767SOL    HW112742   1.399   4.245   9.208
 3767SOL    HW212743   1.445   4.123   9.130
 3768SOL     OW12744   0.953   4.593   9.035
 3768SOL    HW112745   1.006   4.524   8.996
 3768SOL    HW212746   0.902   4.629   8.963
 3769SOL     OW12747   0.995   4.137   8.674
 3769SOL    HW112748   0.902   4.143   8.697
 3769SOL    HW212749   0.996   4.093   8.590
 3770SOL     OW12750   1.022   4.418   7.873
 3770SOL    HW112751   1.051   4.421   7.964
 3770SOL    HW212752   0.941   4.367   7.875
 3771SOL     OW12753   0.094   4.520   8.216
 3771SOL    HW112754   0.172   4.529   8.272
 3771SOL    HW212755   0.057   4.608   8.213
 3772SOL     OW12756   0.121   5.538   9.012
 3772SOL    HW112757   0.127   5.537   9.107
 3772SOL    HW212758   0.029   5.520   8.993
 3773SOL     OW12759   0.901   4.079   7.644
 3773SOL    HW112760   0.945   4.147   7.593
 3773SOL    HW212761   0.913   3.999   7.594
 3774SOL     OW12762   1.685   4.297   9.286
 3774SOL    HW112763   1.661   4.372   9.231
 3774SOL    HW212764   1.722   4.233   9.225
 3775SOL     OW12765   1.384   4.859   7.975
 3775SOL    HW112766   1.467   4.849   7.929
 3775SOL    HW212767   1.335   4.922   7.923
 3776SOL     OW12768   0.554   3.892   8.342
 3776SOL    HW112769   0.557   3.930   8.430
 3776SOL    HW212770   0.554   3.968   8.284
 3777SOL     OW12771   0.997   5.172   7.917
 3777SOL    HW112772   0.969   5.247   7.864
 3777SOL    HW212773   0.971   5.194   8.006
 3778SOL     OW12774   0.365   5.549   8.311
 3778SOL    HW112775   0.411   5.465   8.322
 3778SOL    HW212776   0.433   5.615   8.327
 3779SOL     OW12777   1.798   4.789   8.333
 3779SOL    HW112778   1.755   4.758   8.253
 3779SOL    HW212779   1.731   4.783   8.401
 3780SOL     OW12780   1.219   5.269   8.965
 3780SOL    HW112781   1.217   5.193   9.024
 3780SOL    HW212782   1.174   5.240   8.886
 3781SOL     OW12783   0.304   4.661   7.686
 3781SOL    HW112784   0.388   4.689   7.648
 3781SOL    HW212785   0.281   4.583   7.636
 3782SOL     OW12786   1.474   4.500   8.193
 3782SOL    HW112787   1.484   4.443   8.269
 3782SOL    HW212788   1.561   4.539   8.181
 3783SOL     OW12789   0.453   4.940   9.196
 3783SOL    HW112790   0.428   4.963   9.106
 3783SOL    HW212791   0.369   4.925   9.241
 3784SOL     OW12792   1.127   5.499   7.677
 3784SOL    HW112793   1.049   5.461   7.716
 3784SOL    HW212794   1.152   5.437   7.608
 3785SOL     OW12795   0.203   3.983   8.945
 3785SOL    HW112796   0.134   4.042   8.975
 3785SOL    HW212797   0.176   3.896   8.977
 3786SOL     OW12798   1.616   5.120   7.562
 3786SOL    HW112799   1.590   5.199   7.516
 3786SOL    HW212800   1.557   5.052   7.529
 3787SOL     OW12801   0.453   5.472   7.760
 3787SOL    HW112802   0.505   5.518   7.826
 3787SOL    HW212803   0.518   5.425   7.707
 3788SOL     OW12804   1.400   3.826   7.895
 3788SOL    HW112805   1.392   3.805   7.802
 3788SOL    HW212806   1.494   3.834   7.910
 3789SOL     OW12807   0.230   5.514   8.672
 3789SOL    HW112808   0.287   5.439   8.692
 3789SOL    HW212809   0.195   5.496   8.585
 3790SOL     OW12810   0.949   5.421   8.341
 3790SOL    HW112811   1.036   5.380   8.347
 3790SOL    HW212812   0.904   5.373   8.272
 3791SOL     OW12813   0.410   4.418   7.928
 3791SOL    HW112814   0.431   4.325   7.940
 3791SOL    HW212815   0.316   4.423   7.941
 3792SOL     OW12816   1.523   3.956   9.168
 3792SOL    HW112817   1.527   3.974   9.262
 3792SOL    HW212818   1.472   3.875   9.161
 3793SOL     OW12819   0.653   3.835   7.552
 3793SOL    HW112820   0.717   3.765   7.566
 3793SOL    HW212821   0.598   3.803   7.480
 3794SOL     OW12822   0.764   4.005   9.209
 3794SOL    HW112823   0.846   3.956   9.202
 3794SOL    HW212824   0.717   3.963   9.281
 3795SOL     OW12825   0.867   5.241   8.649
 3795SOL    HW112826   0.855   5.209   8.559
 3795SOL    HW212827   0.947   5.198   8.679
 3796SOL     OW12828   1.336   4.317   8.880
 3796SOL    HW112829   1.370   4.284   8.963
 3796SOL    HW212830   1.380   4.401   8.868
 3797SOL     OW12831   0.816   5.111   8.398
 3797SOL    HW112832   0.902   5.100   8.356
 3797SOL    HW212833   0.755   5.121   8.324
 3798SOL     OW12834   0.925   4.233   8.345
 3798SOL    HW112835   0.903   4.224   8.252
 3798SOL    HW212836   0.958   4.147   8.370
 3799SOL     OW12837   0.562   3.788   7.941
 3799SOL    HW112838   0.480   3.787   7.991
 3799SOL    HW212839   0.554   3.862   7.882
 3800SOL     OW12840   1.431   4.933   7.488
 3800SOL    HW112841   1.457   4.854   7.537
 3800SOL    HW212842   1.345   4.955   7.524
 3801SOL     OW12843   0.284   3.775   7.622
 3801SOL    HW112844   0.338   3.839   7.575
 3801SOL    HW212845   0.346   3.720   7.669
 3802SOL     OW12846   0.944   3.976   7.902
 3802SOL    HW112847   0.922   4.011   7.816
 3802SOL    HW212848   1.039   3.987   7.908
 3803SOL     OW12849   1.079   4.398   8.897
 3803SOL    HW112850   1.027   4.317   8.892
 3803SOL    HW212851   1.170   4.368   8.891
 3804SOL     OW12852   1.205   5.307   8.252
 3804SOL    HW112853   1.227   5.368   8.181
 3804SOL    HW212854   1.289   5.289   8.295
 3805SOL     OW12855   0.472   4.881   8.173
 3805SOL    HW112856   0.410   4.857   8.241
 3805SOL    HW212857   0.426   4.864   8.091
 3806SOL     OW12858   1.259   5.517   8.066
 3806SOL    HW112859   1.305   5.576   8.006
 3806SOL    HW212860   1.187   5.571   8.101
 3807SOL     OW12861   1.032   4.278   7.494
 3807SOL    HW112862   1.037   4.346   7.427
 3807SOL    HW212863   1.122   4.265   7.523
 3808SOL     OW12864   0.100   4.298   8.834
 3808SOL    HW112865   0.191   4.288   8.807
 3808SOL    HW212866   0.101   4.366   8.901
 3809SOL     OW12867   0.565   3.951   8.616
 3809SOL    HW112868   0.605   3.871   8.648
 3809SOL    HW212869   0.473   3.944   8.643
 3810SOL     OW12870   0.861   4.181   8.083
 3810SOL    HW112871   0.808   4.227   8.019
 3810SOL    HW212872   0.894   4.103   8.037
 3811SOL     OW12873   1.002   3.792   8.204
 3811SOL    HW112874   0.952   3.781   8.123
 3811SOL    HW212875   0.988   3.710   8.252
 3812SOL     OW12876   1.449   4.889   8.299
 3812SOL    HW112877   1.382   4.824   8.278
 3812SOL    HW212878   1.503   4.895   8.220
 3813SOL     OW12879   1.463   4.342   8.424
 3813SOL    HW112880   1.416   4.260   8.414
 3813SOL    HW212881   1.525   4.326   8.495
 3814SOL     OW12882   1.819   4.538   7.832
 3814SOL    HW112883   1.879   4.491   7.890
 3814SOL    HW212884   1.799   4.476   7.763
 3815SOL     OW12885   0.489   5.144   7.590
 3815SOL    HW112886   0.410   5.111   7.634
 3815SOL    HW212887   0.493   5.095   7.508
 3816SOL     OW12888   1.684   4.980   8.101
 3816SOL    HW112889   1.779   4.971   8.111
 3816SOL    HW212890   1.668   5.074   8.106
 3817SOL     OW12891   1.416   4.320   7.542
 3817SOL    HW112892   1.382   4.255   7.603
 3817SOL    HW212893   1.507   4.293   7.525
 3818SOL     OW12894   0.532   3.982   7.754
 3818SOL    HW112895   0.581   3.933   7.688
 3818SOL    HW212896   0.509   4.064   7.711
 3819SOL     OW12897   1.747   4.971   9.024
 3819SOL    HW112898   1.833   4.932   9.006
 3819SOL    HW212899   1.767   5.063   9.044
 3820SOL     OW12900   1.057   5.090   8.792
 3820SOL    HW112901   0.981   5.051   8.834
 3820SOL    HW212902   1.131   5.038   8.823
 3821SOL     OW12903   1.604   5.355   9.107
 3821SOL    HW112904   1.596   5.390   9.018
 3821SOL    HW212905   1.686   5.305   9.105
 3822SOL     OW12906   1.145   4.954   8.548
 3822SOL    HW112907   1.071   4.980   8.603
 3822SOL    HW212908   1.119   4.979   8.459
 3823SOL     OW12909   1.605   4.803   8.526
 3823SOL    HW112910   1.594   4.866   8.597
 3823SOL    HW212911   1.537   4.827   8.463
 3824SOL     OW12912   0.916   3.815   8.836
 3824SOL    HW112913   0.937   3.793   8.745
 3824SOL    HW212914   0.997   3.852   8.871
 3825SOL     OW12915   0.985   4.843   9.133
 3825SOL    HW112916   0.932   4.887   9.066
 3825SOL    HW212917   0.987   4.752   9.104
 3826SOL     OW12918   0.720   4.784   7.825
 3826SOL    HW112919   0.691   4.768   7.915
 3826SOL    HW212920   0.806   4.743   7.821
 3827SOL     OW12921   0.428   4.545   8.700
 3827SOL    HW112922   0.494   4.558   8.768
 3827SOL    HW212923   0.400   4.455   8.711
 3828SOL     OW12924   1.260   4.092   8.740
 3828SOL    HW112925   1.296   4.172   8.778
 3828SOL    HW212926   1.172   4.116   8.711
 3829SOL     OW12927   0.074   5.294   8.806
 3829SOL    HW112928   0.069   5.388   8.789
 3829SOL    HW212929   0.168   5.274   8.800
 3830SOL     OW12930   0.331   4.833   7.934
 3830SOL    HW112931   0.333   4.903   7.869
 3830SOL    HW212932   0.333   4.752   7.883
 3831SOL     OW12933   0.547   4.260   8.316
 3831SOL    HW112934   0.561   4.317   8.241
 3831SOL    HW212935   0.621   4.277   8.374
 3832SOL     OW12936   1.245   5.071   7.843
 3832SOL    HW112937   1.303   5.141   7.873
 3832SOL    HW212938   1.158   5.097   7.876
 3833SOL     OW12939   1.296   5.188   8.597
 3833SOL    HW112940   1.353   5.188   8.674
 3833SOL    HW212941   1.249   5.104   8.601
 3834SOL     OW12942   1.588   4.337   7.936
 3834SOL    HW112943   1.582   4.422   7.979
 3834SOL    HW212944   1.642   4.353   7.858
 3835SOL     OW12945   0.344   5.250   8.757
 3835SOL    HW112946   0.332   5.205   8.673
 3835SOL    HW212947   0.437   5.269   8.761
 3836SOL     OW12948   0.426   4.457   9.049
 3836SOL    HW112949   0.488   4.503   8.993
 3836SOL    HW212950   0.465   4.371   9.064
 3837SOL     OW12951   1.609   4.513   9.140
 3837SOL    HW112952   1.524   4.554   9.128
 3837SOL    HW212953   1.664   4.550   9.070
 3838SOL     OW12954   0.995   3.861   9.206
 3838SOL    HW112955   1.054   3.933   9.183
 3838SOL    HW212956   1.042   3.783   9.176
 3839SOL     OW12957   0.500   3.760   9.208
 3839SOL    HW112958   0.455   3.710   9.140
 3839SOL    HW212959   0.445   3.837   9.220
 3840SOL     OW12960   0.594   4.596   8.481
 3840SOL    HW112961   0.625   4.687   8.482
 3840SOL    HW212962   0.532   4.590   8.554
 3841SOL     OW12963   1.336   4.581   8.478
 3841SOL    HW112964   1.268   4.572   8.411
 3841SOL    HW212965   1.390   4.502   8.468
 3842SOL     OW12966   1.194   4.251   7.728
 3842SOL    HW112967   1.211   4.166   7.768
 3842SOL    HW212968   1.152   4.302   7.798
 3843SOL     OW12969   0.306   3.914   8.692
 3843SOL    HW112970   0.265   3.946   8.773
 3843SOL    HW212971   0.285   3.821   8.690
 3844SOL     OW12972   0.055   5.029   8.719
 3844SOL    HW112973   0.083   4.972   8.790
 3844SOL    HW212974   0.054   5.117   8.756
 3845SOL     OW12975   0.730   4.353   8.506
 3845SOL    HW112976   0.801   4.336   8.445
 3845SOL    HW212977   0.699   4.440   8.483
 3846SOL     OW12978   1.744   4.684   9.315
 3846SOL    HW112979   1.705   4.618   9.257
 3846SOL    HW212980   1.678   4.698   9.383
 3847SOL     OW12981   0.319   3.795   8.061
 3847SOL    HW112982   0.288   3.882   8.084
 3847SOL    HW212983   0.320   3.747   8.144
 3848SOL     OW12984   1.601   4.084   7.821
 3848SOL    HW112985   1.649   4.022   7.875
 3848SOL    HW212986   1.591   4.162   7.875
 3849SOL     OW12987   1.020   4.485   8.402
 3849SOL    HW112988   1.018   4.500   8.496
 3849SOL    HW212989   0.999   4.392   8.392
 3850SOL     OW12990   0.979   5.278   9.174
 3850SOL    HW112991   0.962   5.328   9.094
 3850SOL    HW212992   1.037   5.207   9.146
 3851SOL     OW12993   1.846   5.233   9.050
 3851SOL    HW112994   1.874   5.253   8.961
 3851SOL    HW212995   1.925   5.241   9.102
 3852SOL     OW12996   0.373   4.649   9.238
 3852SOL    HW112997   0.428   4.621   9.311
 3852SOL    HW212998   0.386   4.582   9.171
 3853SOL     OW12999   1.503   4.011   7.579
 3853SOL    HW113000   1.449   3.935   7.600
 3853SOL    HW213001   1.544   4.036   7.662
 3854SOL     OW13002   1.284   4.548   7.474
 3854SOL    HW113003   1.340   4.471   7.479
 3854SOL    HW213004   1.311   4.593   7.394
 3855SOL     OW13005   1.066   5.064   8.305
 3855SOL    HW113006   1.071   4.993   8.242
 3855SOL    HW213007   1.120   5.134   8.267
 3856SOL     OW13008   0.319   4.527   8.383
 3856SOL    HW113009   0.413   4.539   8.372
 3856SOL    HW213010   0.310   4.440   8.420
 3857SOL     OW13011   0.330   4.242   8.469
 3857SOL    HW113012   0.296   4.155   8.449
 3857SOL    HW213013   0.407   4.251   8.413
 3858SOL     OW13014   1.134   4.094   9.138
 3858SOL    HW113015   1.089   4.149   9.202
 3858SOL    HW213016   1.221   4.133   9.128
 3859SOL     OW13017   1.157   3.915   8.925
 3859SOL    HW113018   1.148   3.980   8.995
 3859SOL    HW213019   1.203   3.961   8.855
 3860SOL     OW13020   7.984   5.033   7.654
 3860SOL    HW113021   7.893   5.046   7.679
 3860SOL    HW213022   7.998   4.939   7.665
 3861SOL     OW13023   0.130   5.475   8.422
 3861SOL    HW113024   0.099   5.411   8.358
 3861SOL    HW213025   0.206   5.516   8.379
 3862SOL     OW13026   0.493   5.302   8.357
 3862SOL    HW113027   0.564   5.362   8.381
 3862SOL    HW213028   0.533   5.240   8.296
 3863SOL     OW13029   0.958   4.516   8.675
 3863SOL    HW113030   1.020   4.489   8.743
 3863SOL    HW213031   0.886   4.454   8.683
 3864SOL     OW13032   0.073   4.283   8.564
 3864SOL    HW113033   0.165   4.270   8.542
 3864SOL    HW213034   0.070   4.279   8.660
 3865SOL     OW13035   0.201   4.244   9.155
 3865SOL    HW113036   0.267   4.207   9.097
 3865SOL    HW213037   0.168   4.321   9.109
 3866SOL     OW13038   1.376   4.663   9.104
 3866SOL    HW113039   1.405   4.753   9.097
 3866SOL    HW213040   1.375   4.630   9.014
 3867SOL     OW13041   0.794   4.284   7.814
 3867SOL    HW113042   0.810   4.211   7.754
 3867SOL    HW213043   0.721   4.331   7.775
 3868SOL     OW13044   1.645   4.319   8.631
 3868SOL    HW113045   1.640   4.258   8.704
 3868SOL    HW213046   1.733   4.307   8.595
 3869SOL     OW13047   0.335   5.255   9.212
 3869SOL    HW113048   0.284   5.330   9.245
 3869SOL    HW213049   0.271   5.199   9.169
 3870SOL     OW13050   0.717   4.165   8.701
 3870SOL    HW113051   0.662   4.091   8.672
 3870SOL    HW213052   0.710   4.228   8.630
 3871SOL     OW13053   0.892   5.405   8.938
 3871SOL    HW113054   0.891   5.359   8.854
 3871SOL    HW213055   0.900   5.497   8.914
 3872SOL     OW13056   0.463   4.209   7.624
 3872SOL    HW113057   0.511   4.290   7.637
 3872SOL    HW213058   0.376   4.225   7.661
 3873SOL     OW13059   0.176   4.860   8.909
 3873SOL    HW113060   0.150   4.813   8.988
 3873SOL    HW213061   0.179   4.792   8.841
 3874SOL     OW13062   1.304   4.766   8.671
 3874SOL    HW113063   1.326   4.700   8.605
 3874SOL    HW213064   1.250   4.830   8.624
 3875SOL     OW13065   1.263   4.559   7.749
 3875SOL    HW113066   1.326   4.505   7.797
 3875SOL    HW213067   1.306   4.579   7.666
 3876SOL     OW13068   1.791   5.470   8.612
 3876SOL    HW113069   1.853   5.485   8.541
 3876SOL    HW213070   1.752   5.385   8.593
 3877SOL     OW13071   1.240   5.459   8.564
 3877SOL    HW113072   1.323   5.486   8.523
 3877SOL    HW213073   1.249   5.365   8.578
 3878SOL     OW13074   0.057   4.922   8.471
 3878SOL    HW113075   0.056   4.961   8.558
 3878SOL    HW213076  -0.019   4.959   8.427
 3879SOL     OW13077   0.684   5.398   9.178
 3879SOL    HW113078   0.627   5.475   9.172
 3879SOL    HW213079   0.756   5.417   9.118
 3880SOL     OW13080   1.737   3.885   7.951
 3880SOL    HW113081   1.803   3.867   7.884
 3880SOL    HW213082   1.718   3.800   7.989
 3881SOL     OW13083   1.395   5.289   7.942
 3881SOL    HW113084   1.452   5.320   7.871
 3881SOL    HW213085   1.343   5.366   7.966
 3882SOL     OW13086   0.181   5.466   9.284
 3882SOL    HW113087   0.114   5.417   9.331
 3882SOL    HW213088   0.217   5.526   9.349
 3883SOL     OW13089   1.276   4.669   8.133
 3883SOL    HW113090   1.348   4.608   8.150
 3883SOL    HW213091   1.312   4.730   8.069
 3884SOL     OW13092   0.803   5.005   8.872
 3884SOL    HW113093   0.761   5.055   8.942
 3884SOL    HW213094   0.745   5.013   8.797
 3885SOL     OW13095   0.664   5.353   7.605
 3885SOL    HW113096   0.681   5.366   7.512
 3885SOL    HW213097   0.610   5.274   7.608
 3886SOL     OW13098   1.615   5.454   8.841
 3886SOL    HW113099   1.675   5.455   8.766
 3886SOL    HW213100   1.599   5.546   8.861
 3887SOL     OW13101   1.837   3.891   8.422
 3887SOL    HW113102   1.873   3.806   8.396
 3887SOL    HW213103   1.754   3.897   8.374
 3888SOL     OW13104   0.261   4.045   8.152
 3888SOL    HW113105   0.172   4.074   8.131
 3888SOL    HW213106   0.261   4.035   8.247
 3889SOL     OW13107   1.204   5.321   7.483
 3889SOL    HW113108   1.199   5.228   7.505
 3889SOL    HW213109   1.140   5.332   7.412
 3890SOL     OW13110   0.830   4.725   8.830
 3890SOL    HW113111   0.873   4.691   8.751
 3890SOL    HW213112   0.830   4.820   8.818
 3891SOL     OW13113   1.478   5.386   7.493
 3891SOL    HW113114   1.388   5.357   7.475
 3891SOL    HW213115   1.522   5.381   7.408
 3892SOL     OW13116   0.380   5.045   8.952
 3892SOL    HW113117   0.364   5.112   8.886
 3892SOL    HW213118   0.315   4.977   8.935
 3893SOL     OW13119   1.590   4.993   8.723
 3893SOL    HW113120   1.680   4.998   8.756
 3893SOL    HW213121   1.545   5.066   8.764
 3894SOL     OW13122   1.058   4.839   8.159
 3894SOL    HW113123   0.989   4.784   8.197
 3894SOL    HW213124   1.129   4.778   8.140
 3895SOL     OW13125   1.022   3.970   8.421
 3895SOL    HW113126   1.016   3.927   8.336
 3895SOL    HW213127   1.020   3.899   8.485
 3896SOL     OW13128   0.606   5.219   7.937
 3896SOL    HW113129   0.658   5.170   7.874
 3896SOL    HW213130   0.518   5.222   7.899
 3897SOL     OW13131   1.736   4.118   8.836
 3897SOL    HW113132   1.811   4.177   8.834
 3897SOL    HW213133   1.759   4.047   8.776
 3898SOL     OW13134   0.254   5.055   7.721
 3898SOL    HW113135   0.159   5.057   7.714
 3898SOL    HW213136   0.272   5.098   7.805
 3899SOL     OW13137   0.122   4.727   9.149
 3899SOL    HW113138   0.081   4.802   9.194
 3899SOL    HW213139   0.204   4.713   9.197
 3900SOL     OW13140   0.679   3.924   8.950
 3900SOL    HW113141   0.760   3.900   8.906
 3900SOL    HW213142   0.706   3.955   9.036
 3901SOL     OW13143   0.105   4.081   7.476
 3901SOL    HW113144   0.033   4.122   7.524
 3901SOL    HW213145   0.121   4.141   7.403
 3902SOL     OW13146   1.421   4.585   8.847
 3902SOL    HW113147   1.371   4.643   8.791
 3902SOL    HW213148   1.509   4.583   8.809
 3903SOL     OW13149   0.093   3.971   7.806
 3903SOL    HW113150   0.043   3.951   7.727
 3903SOL    HW213151   0.175   3.923   7.796
 3904SOL     OW13152   1.185   5.055   7.571
 3904SOL    HW113153   1.096   5.021   7.567
 3904SOL    HW213154   1.206   5.054   7.665
 3905SOL     OW13155   0.621   4.561   8.891
 3905SOL    HW113156   0.682   4.633   8.873
 3905SOL    HW213157   0.676   4.483   8.892
 3906SOL     OW13158   1.485   5.514   8.450
 3906SOL    HW113159   1.510   5.551   8.366
 3906SOL    HW213160   1.555   5.453   8.472
 3907SOL     OW13161   0.717   4.280   9.154
 3907SOL    HW113162   0.766   4.333   9.217
 3907SOL    HW213163   0.734   4.189   9.181
 3908SOL     OW13164   1.477   4.920   9.074
 3908SOL    HW113165   1.473   4.933   9.169
 3908SOL    HW213166   1.568   4.936   9.051
 3909SOL     OW13167   0.384   5.460   9.021
 3909SOL    HW113168   0.295   5.487   8.999
 3909SOL    HW213169   0.373   5.378   9.069
 3910SOL     OW13170   1.657   4.594   8.706
 3910SOL    HW113171   1.661   4.508   8.665
 3910SOL    HW213172   1.647   4.655   8.633
 3911SOL     OW13173   1.214   4.034   7.907
 3911SOL    HW113174   1.279   3.964   7.899
 3911SOL    HW213175   1.243   4.086   7.982
 3912SOL     OW13176   0.588   4.462   8.134
 3912SOL    HW113177   0.630   4.546   8.116
 3912SOL    HW213178   0.528   4.449   8.061
 3913SOL     OW13179   1.754   4.092   9.113
 3913SOL    HW113180   1.752   4.108   9.019
 3913SOL    HW213181   1.679   4.035   9.130
 3914SOL     OW13182   1.750   4.655   8.958
 3914SOL    HW113183   1.748   4.751   8.962
 3914SOL    HW213184   1.731   4.634   8.866
 3915SOL     OW13185   0.857   5.090   7.493
 3915SOL    HW113186   0.825   5.136   7.570
 3915SOL    HW213187   0.887   5.159   7.434
 3916SOL     OW13188   0.672   5.504   8.393
 3916SOL    HW113189   0.654   5.594   8.367
 3916SOL    HW213190   0.766   5.493   8.378
 3917SOL     OW13191   0.868   4.697   8.302
 3917SOL    HW113192   0.917   4.622   8.334
 3917SOL    HW213193   0.830   4.736   8.381
 3918SOL     OW13194   1.078   4.716   7.539
 3918SOL    HW113195   1.041   4.766   7.467
 3918SOL    HW213196   1.162   4.684   7.507
 3919SOL     OW13197   1.856   5.269   8.301
 3919SOL    HW113198   1.783   5.247   8.243
 3919SOL    HW213199   1.878   5.187   8.345
 3920SOL     OW13200   0.199   4.979   9.306
 3920SOL    HW113201   0.171   5.031   9.231
 3920SOL    HW213202   0.129   4.991   9.371
 3921SOL     OW13203   0.140   4.985   8.106
 3921SOL    HW113204   0.063   4.938   8.139
 3921SOL    HW213205   0.196   4.917   8.070
 3922SOL     OW13206   0.646   5.142   9.062
 3922SOL    HW113207   0.563   5.136   9.014
 3922SOL    HW213208   0.655   5.235   9.081
 3923SOL     OW13209   1.790   3.896   8.691
 3923SOL    HW113210   1.815   3.804   8.701
 3923SOL    HW213211   1.805   3.915   8.598
 3924SOL     OW13212   0.448   4.156   7.975
 3924SOL    HW113213   0.475   4.086   7.916
 3924SOL    HW213214   0.390   4.114   8.038
 3925SOL     OW13215   1.674   5.234   8.557
 3925SOL    HW113216   1.611   5.197   8.495
 3925SOL    HW213217   1.715   5.157   8.597
 3926SOL     OW13218   0.356   4.285   8.744
 3926SOL    HW113219   0.404   4.223   8.800
 3926SOL    HW213220   0.368   4.250   8.656
 3927SOL     OW13221   0.831   5.313   8.121
 3927SOL    HW113222   0.816   5.382   8.056
 3927SOL    HW213223   0.756   5.254   8.111
 3928SOL     OW13224   1.426   3.958   8.561
 3928SOL    HW113225   1.454   3.873   8.596
 3928SOL    HW213226   1.378   3.999   8.633
 3929SOL     OW13227   1.007   3.736   8.580
 3929SOL    HW113228   0.958   3.673   8.527
 3929SOL    HW213229   1.096   3.699   8.584
 3930SOL     OW13230   0.768   5.063   7.785
 3930SOL    HW113231   0.749   4.970   7.783
 3930SOL    HW213232   0.856   5.069   7.822
 3931SOL     OW13233   0.618   5.283   8.748
 3931SOL    HW113234   0.618   5.371   8.784
 3931SOL    HW213235   0.704   5.273   8.708
 3932SOL     OW13236   1.358   3.778   7.628
 3932SOL    HW113237   1.398   3.721   7.562
 3932SOL    HW213238   1.271   3.743   7.642
 3933SOL     OW13239   1.278   4.190   8.122
 3933SOL    HW113240   1.232   4.273   8.129
 3933SOL    HW213241   1.285   4.159   8.213
 3934SOL     OW13242   1.579   3.918   8.329
 3934SOL    HW113243   1.527   3.948   8.403
 3934SOL    HW213244   1.582   3.993   8.270
 3935SOL     OW13245   0.055   4.775   7.716
 3935SOL    HW113246   0.143   4.740   7.706
 3935SOL    HW213247   0.031   4.754   7.806
 3936SOL     OW13248   0.887   5.389   7.786
 3936SOL    HW113249   0.811   5.373   7.730
 3936SOL    HW213250   0.860   5.463   7.842
 3937SOL     OW13251   0.240   4.414   9.393
 3937SOL    HW113252   0.218   4.355   9.464
 3937SOL    HW213253   0.232   4.361   9.314
 3938SOL     OW13254   0.225   3.991  10.303
 3938SOL    HW113255   0.282   3.961  10.374
 3938SOL    HW213256   0.137   3.967  10.331
 3939SOL     OW13257   8.009   4.104   9.928
 3939SOL    HW113258   7.915   4.101   9.946
 3939SOL    HW213259   8.021   4.049   9.851
 3940SOL     OW13260   0.576   5.024  10.504
 3940SOL    HW113261   0.488   5.027  10.466
 3940SOL    HW213262   0.591   5.113  10.538
 3941SOL     OW13263   1.581   5.241  10.017
 3941SOL    HW113264   1.535   5.215  10.096
 3941SOL    HW213265   1.512   5.244   9.949
 3942SOL     OW13266   1.131   4.430  10.001
 3942SOL    HW113267   1.182   4.511   9.990
 3942SOL    HW213268   1.087   4.441  10.085
 3943SOL     OW13269   1.748   4.325   9.546
 3943SOL    HW113270   1.731   4.325   9.452
 3943SOL    HW213271   1.733   4.235   9.573
 3944SOL     OW13272   0.735   4.857  10.356
 3944SOL    HW113273   0.674   4.897  10.418
 3944SOL    HW213274   0.780   4.931  10.315
 3945SOL     OW13275   0.875   4.478  11.133
 3945SOL    HW113276   0.857   4.547  11.197
 3945SOL    HW213277   0.898   4.524  11.052
 3946SOL     OW13278   0.690   4.727   9.961
 3946SOL    HW113279   0.763   4.710  10.020
 3946SOL    HW213280   0.639   4.795  10.006
 3947SOL     OW13281   0.719   4.875  11.134
 3947SOL    HW113282   0.764   4.954  11.165
 3947SOL    HW213283   0.639   4.907  11.093
 3948SOL     OW13284   0.345   5.132  10.377
 3948SOL    HW113285   0.271   5.095  10.329
 3948SOL    HW213286   0.387   5.192  10.314
 3949SOL     OW13287   1.458   5.226  10.677
 3949SOL    HW113288   1.512   5.304  10.686
 3949SOL    HW213289   1.387   5.239  10.741
 3950SOL     OW13290   0.454   4.107  10.789
 3950SOL    HW113291   0.533   4.053  10.796
 3950SOL    HW213292   0.382   4.046  10.804
 3951SOL     OW13293   1.605   4.160  10.053
 3951SOL    HW113294   1.549   4.183   9.979
 3951SOL    HW213295   1.619   4.242  10.100
 3952SOL     OW13296   0.220   5.416   9.794
 3952SOL    HW113297   0.188   5.499   9.828
 3952SOL    HW213298   0.289   5.441   9.732
 3953SOL     OW13299   1.137   5.065  11.004
 3953SOL    HW113300   1.176   5.058  11.091
 3953SOL    HW213301   1.085   4.986  10.994
 3954SOL     OW13302   0.303   5.160   9.847
 3954SOL    HW113303   0.269   5.249   9.853
 3954SOL    HW213304   0.239   5.107   9.896
 3955SOL     OW13305   0.264   4.819  10.220
 3955SOL    HW113306   0.268   4.727  10.246
 3955SOL    HW213307   0.186   4.852  10.266
 3956SOL     OW13308   0.610   5.523  10.730
 3956SOL    HW113309   0.530   5.500  10.778
 3956SOL    HW213310   0.632   5.611  10.760
 3957SOL     OW13311   0.569   4.691   9.474
 3957SOL    HW113312   0.614   4.720   9.395
 3957SOL    HW213313   0.620   4.728   9.546
 3958SOL     OW13314   1.596   3.846  10.776
 3958SOL    HW113315   1.633   3.918  10.725
 3958SOL    HW213316   1.572   3.886  10.859
 3959SOL     OW13317   0.137   4.350   9.861
 3959SOL    HW113318   0.097   4.271   9.896
 3959SOL    HW213319   0.118   4.418   9.926
 3960SOL     OW13320   1.843   5.477   9.644
 3960SOL    HW113321   1.917   5.453   9.699
 3960SOL    HW213322   1.860   5.566   9.616
 3961SOL     OW13323   0.026   5.311   9.445
 3961SOL    HW113324   0.017   5.216   9.443
 3961SOL    HW213325  -0.007   5.336   9.532
 3962SOL     OW13326   1.695   4.643   9.959
 3962SOL    HW113327   1.772   4.592   9.934
 3962SOL    HW213328   1.672   4.692   9.881
 3963SOL     OW13329   1.652   4.826   9.743
 3963SOL    HW113330   1.738   4.822   9.701
 3963SOL    HW213331   1.663   4.889   9.814
 3964SOL     OW13332   0.153   4.485  10.900
 3964SOL    HW113333   0.249   4.489  10.894
 3964SOL    HW213334   0.129   4.565  10.946
 3965SOL     OW13335   0.617   5.116  10.046
 3965SOL    HW113336   0.568   5.034  10.054
 3965SOL    HW213337   0.601   5.144   9.956
 3966SOL     OW13338   1.280   4.958  10.730
 3966SOL    HW113339   1.308   4.889  10.670
 3966SOL    HW213340   1.342   4.952  10.803
 3967SOL     OW13341   0.829   3.728   9.834
 3967SOL    HW113342   0.869   3.809   9.803
 3967SOL    HW213343   0.735   3.746   9.832
 3968SOL     OW13344   0.160   4.631  10.578
 3968SOL    HW113345   0.254   4.615  10.578
 3968SOL    HW213346   0.137   4.638  10.485
 3969SOL     OW13347   1.526   4.730   9.513
 3969SOL    HW113348   1.458   4.671   9.547
 3969SOL    HW213349   1.574   4.758   9.590
 3970SOL     OW13350   1.187   5.543  10.941
 3970SOL    HW113351   1.188   5.604  10.867
 3970SOL    HW213352   1.202   5.457  10.902
 3971SOL     OW13353   0.356   3.978  11.150
 3971SOL    HW113354   0.402   4.058  11.177
 3971SOL    HW213355   0.263   4.000  11.160
 3972SOL     OW13356   1.464   5.147  10.248
 3972SOL    HW113357   1.401   5.161  10.319
 3972SOL    HW213358   1.454   5.055  10.225
 3973SOL     OW13359   1.644   5.493   9.886
 3973SOL    HW113360   1.637   5.456   9.798
 3973SOL    HW213361   1.636   5.418   9.945
 3974SOL     OW13362   0.592   4.429   9.586
 3974SOL    HW113363   0.593   4.513   9.541
 3974SOL    HW213364   0.528   4.440   9.657
 3975SOL     OW13365   1.279   4.102  10.248
 3975SOL    HW113366   1.191   4.065  10.253
 3975SOL    HW213367   1.332   4.046  10.304
 3976SOL     OW13368   1.578   5.399   9.622
 3976SOL    HW113369   1.671   5.419   9.615
 3976SOL    HW213370   1.550   5.382   9.532
 3977SOL     OW13371   0.792   4.341  10.754
 3977SOL    HW113372   0.764   4.315  10.841
 3977SOL    HW213373   0.761   4.272  10.696
 3978SOL     OW13374   1.389   4.200  10.987
 3978SOL    HW113375   1.395   4.245  11.071
 3978SOL    HW213376   1.447   4.125  10.995
 3979SOL     OW13377   0.947   4.607  10.899
 3979SOL    HW113378   1.003   4.541  10.857
 3979SOL    HW213379   0.899   4.647  10.826
 3980SOL     OW13380   0.996   4.128  10.537
 3980SOL    HW113381   0.905   4.144  10.561
 3980SOL    HW213382   0.992   4.092  10.449
 3981SOL     OW13383   1.054   4.425   9.732
 3981SOL    HW113384   1.074   4.419   9.825
 3981SOL    HW213385   0.972   4.377   9.723
 3982SOL     OW13386   0.098   4.527  10.075
 3982SOL    HW113387   0.174   4.538  10.132
 3982SOL    HW213388   0.049   4.609  10.084
 3983SOL     OW13389   0.128   5.543  10.878
 3983SOL    HW113390   0.135   5.532  10.972
 3983SOL    HW213391   0.038   5.520  10.857
 3984SOL     OW13392   0.898   4.076   9.510
 3984SOL    HW113393   0.943   4.137   9.452
 3984SOL    HW213394   0.890   3.995   9.459
 3985SOL     OW13395   1.696   4.294  11.144
 3985SOL    HW113396   1.667   4.369  11.093
 3985SOL    HW213397   1.726   4.230  11.079
 3986SOL     OW13398   1.384   4.864   9.843
 3986SOL    HW113399   1.465   4.852   9.794
 3986SOL    HW213400   1.335   4.928   9.792
 3987SOL     OW13401   0.553   3.895  10.209
 3987SOL    HW113402   0.560   3.931  10.297
 3987SOL    HW213403   0.554   3.972  10.152
 3988SOL     OW13404   0.993   5.169   9.776
 3988SOL    HW113405   0.968   5.247   9.727
 3988SOL    HW213406   0.972   5.189   9.867
 3989SOL     OW13407   0.363   5.548  10.168
 3989SOL    HW113408   0.407   5.464  10.181
 3989SOL    HW213409   0.430   5.613  10.191
 3990SOL     OW13410   1.803   4.773  10.192
 3990SOL    HW113411   1.758   4.754  10.111
 3990SOL    HW213412   1.734   4.777  10.258
 3991SOL     OW13413   1.225   5.267  10.825
 3991SOL    HW113414   1.213   5.193  10.885
 3991SOL    HW213415   1.156   5.256  10.760
 3992SOL     OW13416   0.312   4.645   9.555
 3992SOL    HW113417   0.398   4.651   9.513
 3992SOL    HW213418   0.268   4.572   9.511
 3993SOL     OW13419   1.479   4.488  10.036
 3993SOL    HW113420   1.484   4.442  10.120
 3993SOL    HW213421   1.562   4.536  10.030
 3994SOL     OW13422   0.478   4.976  11.040
 3994SOL    HW113423   0.447   4.989  10.950
 3994SOL    HW213424   0.397   4.964  11.091
 3995SOL     OW13425   1.124   5.505   9.535
 3995SOL    HW113426   1.049   5.464   9.577
 3995SOL    HW213427   1.152   5.441   9.469
 3996SOL     OW13428   0.192   3.995  10.805
 3996SOL    HW113429   0.166   4.079  10.845
 3996SOL    HW213430   0.163   3.929  10.868
 3997SOL     OW13431   1.626   5.112   9.418
 3997SOL    HW113432   1.589   5.196   9.389
 3997SOL    HW213433   1.565   5.046   9.385
 3998SOL     OW13434   0.458   5.472   9.616
 3998SOL    HW113435   0.504   5.521   9.684
 3998SOL    HW213436   0.527   5.431   9.564
 3999SOL     OW13437   1.399   3.827   9.757
 3999SOL    HW113438   1.390   3.804   9.665
 3999SOL    HW213439   1.493   3.838   9.770
 4000SOL     OW13440   0.238   5.521  10.530
 4000SOL    HW113441   0.286   5.443  10.558
 4000SOL    HW213442   0.197   5.497  10.447
 4001SOL     OW13443   0.945   5.425  10.205
 4001SOL    HW113444   1.027   5.380  10.224
 4001SOL    HW213445   0.905   5.373  10.135
 4002SOL     OW13446   0.408   4.422   9.796
 4002SOL    HW113447   0.428   4.328   9.805
 4002SOL    HW213448   0.314   4.428   9.807
 4003SOL     OW13449   1.521   3.951  11.030
 4003SOL    HW113450   1.532   3.969  11.124
 4003SOL    HW213451   1.450   3.887  11.027
 4004SOL     OW13452   0.658   3.831   9.414
 4004SOL    HW113453   0.719   3.758   9.423
 4004SOL    HW213454   0.599   3.805   9.344
 4005SOL     OW13455   0.761   4.003  11.066
 4005SOL    HW113456   0.844   3.955  11.063
 4005SOL    HW213457   0.716   3.970  11.144
 4006SOL     OW13458   0.878   5.250  10.506
 4006SOL    HW113459   0.859   5.210  10.421
 4006SOL    HW213460   0.944   5.194  10.545
 4007SOL     OW13461   1.335   4.314  10.741
 4007SOL    HW113462   1.367   4.284  10.827
 4007SOL    HW213463   1.373   4.401  10.730
 4008SOL     OW13464   0.822   5.108  10.262
 4008SOL    HW113465   0.908   5.099  10.220
 4008SOL    HW213466   0.761   5.120  10.189
 4009SOL     OW13467   0.926   4.232  10.206
 4009SOL    HW113468   0.901   4.223  10.114
 4009SOL    HW213469   0.958   4.145  10.231
 4010SOL     OW13470   0.564   3.784   9.803
 4010SOL    HW113471   0.482   3.784   9.852
 4010SOL    HW213472   0.556   3.860   9.744
 4011SOL     OW13473   1.432   4.928   9.347
 4011SOL    HW113474   1.465   4.853   9.396
 4011SOL    HW213475   1.351   4.952   9.391
 4012SOL     OW13476   0.282   3.779   9.487
 4012SOL    HW113477   0.332   3.840   9.433
 4012SOL    HW213478   0.348   3.723   9.528
 4013SOL     OW13479   0.947   3.971   9.764
 4013SOL    HW113480   0.922   4.007   9.679
 4013SOL    HW213481   1.041   3.987   9.770
 4014SOL     OW13482   1.080   4.413  10.764
 4014SOL    HW113483   1.016   4.341  10.765
 4014SOL    HW213484   1.165   4.369  10.757
 4015SOL     OW13485   1.213   5.301  10.106
 4015SOL    HW113486   1.229   5.365  10.037
 4015SOL    HW213487   1.289   5.307  10.163
 4016SOL     OW13488   0.470   4.873  10.051
 4016SOL    HW113489   0.404   4.880  10.120
 4016SOL    HW213490   0.452   4.789  10.008
 4017SOL     OW13491   1.260   5.516   9.924
 4017SOL    HW113492   1.311   5.577   9.870
 4017SOL    HW213493   1.193   5.570   9.966
 4018SOL     OW13494   1.028   4.252   9.343
 4018SOL    HW113495   0.989   4.338   9.324
 4018SOL    HW213496   1.097   4.271   9.406
 4019SOL     OW13497   0.098   4.319  10.693
 4019SOL    HW113498   0.188   4.304  10.667
 4019SOL    HW213499   0.103   4.385  10.762
 4020SOL     OW13500   0.563   3.952  10.481
 4020SOL    HW113501   0.609   3.878  10.522
 4020SOL    HW213502   0.473   3.946  10.514
 4021SOL     OW13503   0.865   4.177   9.945
 4021SOL    HW113504   0.827   4.233   9.876
 4021SOL    HW213505   0.893   4.098   9.899
 4022SOL     OW13506   1.011   3.786  10.061
 4022SOL    HW113507   0.956   3.780   9.983
 4022SOL    HW213508   0.990   3.707  10.111
 4023SOL     OW13509   1.448   4.884  10.165
 4023SOL    HW113510   1.377   4.821  10.153
 4023SOL    HW213511   1.487   4.892  10.078
 4024SOL     OW13512   1.465   4.341  10.276
 4024SOL    HW113513   1.410   4.263  10.273
 4024SOL    HW213514   1.523   4.328  10.351
 4025SOL     OW13515   1.830   4.535   9.700
 4025SOL    HW113516   1.891   4.486   9.753
 4025SOL    HW213517   1.803   4.474   9.631
 4026SOL     OW13518   0.486   5.141   9.416
 4026SOL    HW113519   0.424   5.101   9.477
 4026SOL    HW213520   0.431   5.177   9.347
 4027SOL     OW13521   1.682   4.983   9.960
 4027SOL    HW113522   1.777   4.978   9.970
 4027SOL    HW213523   1.661   5.076   9.972
 4028SOL     OW13524   1.395   4.306   9.379
 4028SOL    HW113525   1.344   4.272   9.452
 4028SOL    HW213526   1.485   4.277   9.397
 4029SOL     OW13527   0.536   3.979   9.617
 4029SOL    HW113528   0.585   3.930   9.551
 4029SOL    HW213529   0.509   4.060   9.573
 4030SOL     OW13530   1.747   4.966  10.868
 4030SOL    HW113531   1.834   4.931  10.851
 4030SOL    HW213532   1.763   5.056  10.897
 4031SOL     OW13533   1.048   5.077  10.642
 4031SOL    HW113534   0.972   5.045  10.691
 4031SOL    HW213535   1.123   5.035  10.684
 4032SOL     OW13536   1.614   5.355  10.974
 4032SOL    HW113537   1.600   5.389  10.886
 4032SOL    HW213538   1.693   5.303  10.968
 4033SOL     OW13539   1.139   4.944  10.412
 4033SOL    HW113540   1.078   4.981  10.475
 4033SOL    HW213541   1.111   4.978  10.327
 4034SOL     OW13542   1.613   4.812  10.387
 4034SOL    HW113543   1.605   4.878  10.456
 4034SOL    HW213544   1.543   4.833  10.325
 4035SOL     OW13545   0.920   3.812  10.699
 4035SOL    HW113546   0.941   3.794  10.607
 4035SOL    HW213547   0.999   3.853  10.734
 4036SOL     OW13548   0.983   4.838  11.035
 4036SOL    HW113549   0.893   4.855  11.061
 4036SOL    HW213550   0.979   4.759  10.981
 4037SOL     OW13551   0.712   4.787   9.690
 4037SOL    HW113552   0.701   4.767   9.783
 4037SOL    HW213553   0.789   4.737   9.664
 4038SOL     OW13554   0.425   4.545  10.563
 4038SOL    HW113555   0.490   4.560  10.631
 4038SOL    HW213556   0.397   4.455  10.577
 4039SOL     OW13557   1.261   4.092  10.599
 4039SOL    HW113558   1.293   4.173  10.640
 4039SOL    HW213559   1.171   4.113  10.573
 4040SOL     OW13560   0.087   5.293  10.691
 4040SOL    HW113561   0.057   5.380  10.662
 4040SOL    HW213562   0.181   5.294  10.672
 4041SOL     OW13563   0.542   4.252  10.177
 4041SOL    HW113564   0.556   4.310  10.103
 4041SOL    HW213565   0.610   4.275  10.240
 4042SOL     OW13566   1.248   5.077   9.705
 4042SOL    HW113567   1.304   5.147   9.739
 4042SOL    HW213568   1.161   5.098   9.740
 4043SOL     OW13569   1.296   5.187  10.459
 4043SOL    HW113570   1.350   5.192  10.538
 4043SOL    HW213571   1.243   5.108  10.471
 4044SOL     OW13572   1.581   4.329   9.806
 4044SOL    HW113573   1.530   4.396   9.851
 4044SOL    HW213574   1.632   4.377   9.741
 4045SOL     OW13575   0.345   5.271  10.609
 4045SOL    HW113576   0.337   5.215  10.531
 4045SOL    HW213577   0.439   5.276  10.624
 4046SOL     OW13578   0.432   4.449  10.921
 4046SOL    HW113579   0.483   4.504  10.861
 4046SOL    HW213580   0.494   4.382  10.950
 4047SOL     OW13581   1.617   4.509  11.000
 4047SOL    HW113582   1.531   4.550  10.992
 4047SOL    HW213583   1.669   4.548  10.930
 4048SOL     OW13584   0.996   3.862  11.069
 4048SOL    HW113585   1.053   3.936  11.048
 4048SOL    HW213586   1.046   3.785  11.042
 4049SOL     OW13587   0.497   3.757  11.066
 4049SOL    HW113588   0.451   3.708  10.998
 4049SOL    HW213589   0.444   3.835  11.080
 4050SOL     OW13590   0.587   4.602  10.343
 4050SOL    HW113591   0.626   4.690  10.348
 4050SOL    HW213592   0.532   4.596  10.421
 4051SOL     OW13593   1.338   4.582  10.331
 4051SOL    HW113594   1.256   4.566  10.285
 4051SOL    HW213595   1.389   4.502  10.317
 4052SOL     OW13596   1.199   4.249   9.572
 4052SOL    HW113597   1.209   4.170   9.625
 4052SOL    HW213598   1.157   4.312   9.630
 4053SOL     OW13599   0.305   3.913  10.563
 4053SOL    HW113600   0.262   3.946  10.642
 4053SOL    HW213601   0.286   3.819  10.563
 4054SOL     OW13602   0.065   5.042  10.581
 4054SOL    HW113603   0.011   4.996  10.645
 4054SOL    HW213604   0.072   5.131  10.615
 4055SOL     OW13605   0.719   4.352  10.361
 4055SOL    HW113606   0.795   4.340  10.305
 4055SOL    HW213607   0.692   4.443  10.344
 4056SOL     OW13608   1.746   4.685  11.175
 4056SOL    HW113609   1.706   4.618  11.120
 4056SOL    HW213610   1.681   4.703  11.243
 4057SOL     OW13611   0.323   3.788   9.927
 4057SOL    HW113612   0.291   3.876   9.946
 4057SOL    HW213613   0.327   3.745  10.012
 4058SOL     OW13614   1.614   4.092   9.670
 4058SOL    HW113615   1.655   4.028   9.729
 4058SOL    HW213616   1.595   4.167   9.725
 4059SOL     OW13617   1.026   4.481  10.264
 4059SOL    HW113618   1.017   4.496  10.358
 4059SOL    HW213619   1.001   4.389  10.252
 4060SOL     OW13620   0.985   5.293  11.033
 4060SOL    HW113621   0.965   5.335  10.949
 4060SOL    HW213622   1.025   5.209  11.009
 4061SOL     OW13623   1.850   5.224  10.912
 4061SOL    HW113624   1.872   5.250  10.823
 4061SOL    HW213625   1.932   5.234  10.960
 4062SOL     OW13626   0.367   4.663  11.109
 4062SOL    HW113627   0.445   4.681  11.160
 4062SOL    HW213628   0.386   4.582  11.062
 4063SOL     OW13629   1.508   3.999   9.434
 4063SOL    HW113630   1.452   3.927   9.463
 4063SOL    HW213631   1.549   4.032   9.513
 4064SOL     OW13632   1.280   4.551   9.336
 4064SOL    HW113633   1.323   4.466   9.341
 4064SOL    HW213634   1.315   4.590   9.256
 4065SOL     OW13635   1.071   5.066  10.168
 4065SOL    HW113636   1.078   4.995  10.105
 4065SOL    HW213637   1.127   5.135  10.132
 4066SOL     OW13638   0.319   4.534  10.248
 4066SOL    HW113639   0.413   4.552  10.253
 4066SOL    HW213640   0.310   4.445  10.283
 4067SOL     OW13641   0.318   4.245  10.324
 4067SOL    HW113642   0.284   4.157  10.306
 4067SOL    HW213643   0.396   4.252  10.269
 4068SOL     OW13644   1.135   4.093  11.001
 4068SOL    HW113645   1.087   4.149  11.062
 4068SOL    HW213646   1.220   4.135  10.992
 4069SOL     OW13647   1.160   3.916  10.788
 4069SOL    HW113648   1.148   3.981  10.858
 4069SOL    HW213649   1.203   3.965  10.717
 4070SOL     OW13650   8.005   5.028   9.503
 4070SOL    HW113651   7.919   5.056   9.534
 4070SOL    HW213652   8.016   4.940   9.538
 4071SOL     OW13653   0.128   5.475  10.282
 4071SOL    HW113654   0.097   5.411  10.219
 4071SOL    HW213655   0.203   5.517  10.240
 4072SOL     OW13656   0.489   5.300  10.212
 4072SOL    HW113657   0.558   5.362  10.238
 4072SOL    HW213658   0.534   5.238  10.154
 4073SOL     OW13659   0.966   4.508  10.529
 4073SOL    HW113660   1.029   4.495  10.600
 4073SOL    HW213661   0.885   4.469  10.561
 4074SOL     OW13662   0.056   4.262  10.434
 4074SOL    HW113663   0.147   4.259  10.406
 4074SOL    HW213664   0.061   4.285  10.527
 4075SOL     OW13665   0.200   4.232  10.987
 4075SOL    HW113666   0.292   4.232  10.959
 4075SOL    HW213667   0.168   4.319  10.963
 4076SOL     OW13668   1.385   4.654  10.965
 4076SOL    HW113669   1.405   4.747  10.959
 4076SOL    HW213670   1.379   4.625  10.874
 4077SOL     OW13671   0.818   4.290   9.682
 4077SOL    HW113672   0.831   4.217   9.622
 4077SOL    HW213673   0.742   4.337   9.648
 4078SOL     OW13674   1.640   4.322  10.488
 4078SOL    HW113675   1.631   4.263  10.563
 4078SOL    HW213676   1.728   4.307  10.455
 4079SOL     OW13677   0.328   5.265  11.049
 4079SOL    HW113678   0.273   5.330  11.093
 4079SOL    HW213679   0.268   5.197  11.021
 4080SOL     OW13680   0.720   4.167  10.559
 4080SOL    HW113681   0.661   4.096  10.533
 4080SOL    HW213682   0.710   4.232  10.489
 4081SOL     OW13683   0.922   5.402  10.782
 4081SOL    HW113684   0.896   5.359  10.701
 4081SOL    HW213685   0.912   5.495  10.764
 4082SOL     OW13686   0.460   4.203   9.487
 4082SOL    HW113687   0.515   4.279   9.503
 4082SOL    HW213688   0.374   4.226   9.522
 4083SOL     OW13689   0.208   4.824  10.781
 4083SOL    HW113690   0.152   4.802  10.856
 4083SOL    HW213691   0.175   4.770  10.709
 4084SOL     OW13692   1.312   4.764  10.529
 4084SOL    HW113693   1.332   4.701  10.461
 4084SOL    HW213694   1.251   4.826  10.488
 4085SOL     OW13695   1.309   4.584   9.611
 4085SOL    HW113696   1.239   4.538   9.658
 4085SOL    HW213697   1.291   4.565   9.518
 4086SOL     OW13698   1.791   5.456  10.479
 4086SOL    HW113699   1.848   5.481  10.407
 4086SOL    HW213700   1.754   5.372  10.452
 4087SOL     OW13701   1.240   5.457  10.413
 4087SOL    HW113702   1.323   5.483  10.373
 4087SOL    HW213703   1.251   5.365  10.434
 4088SOL     OW13704   0.040   4.934  10.339
 4088SOL    HW113705   0.059   4.967  10.427
 4088SOL    HW213706  -0.040   4.979  10.312
 4089SOL     OW13707   0.682   5.400  11.057
 4089SOL    HW113708   0.617   5.469  11.045
 4089SOL    HW213709   0.749   5.417  10.990
 4090SOL     OW13710   1.736   3.887   9.812
 4090SOL    HW113711   1.801   3.870   9.744
 4090SOL    HW213712   1.718   3.801   9.849
 4091SOL     OW13713   1.396   5.293   9.805
 4091SOL    HW113714   1.454   5.325   9.736
 4091SOL    HW213715   1.346   5.370   9.833
 4092SOL     OW13716   0.172   5.468  11.147
 4092SOL    HW113717   0.107   5.419  11.197
 4092SOL    HW213718   0.215   5.524  11.212
 4093SOL     OW13719   1.278   4.662   9.986
 4093SOL    HW113720   1.350   4.601  10.000
 4093SOL    HW213721   1.312   4.728   9.927
 4094SOL     OW13722   0.794   5.004  10.734
 4094SOL    HW113723   0.769   5.046  10.816
 4094SOL    HW213724   0.720   5.017  10.676
 4095SOL     OW13725   0.662   5.353   9.461
 4095SOL    HW113726   0.683   5.370   9.369
 4095SOL    HW213727   0.610   5.273   9.460
 4096SOL     OW13728   1.618   5.451  10.706
 4096SOL    HW113729   1.674   5.453  10.629
 4096SOL    HW213730   1.603   5.544  10.727
 4097SOL     OW13731   1.840   3.891  10.280
 4097SOL    HW113732   1.873   3.806  10.251
 4097SOL    HW213733   1.755   3.900  10.236
 4098SOL     OW13734   0.265   4.038  10.023
 4098SOL    HW113735   0.178   4.070   9.997
 4098SOL    HW213736   0.258   4.024  10.117
 4099SOL     OW13737   1.208   5.323   9.347
 4099SOL    HW113738   1.199   5.231   9.369
 4099SOL    HW213739   1.148   5.337   9.274
 4100SOL     OW13740   0.825   4.734  10.690
 4100SOL    HW113741   0.866   4.728  10.603
 4100SOL    HW213742   0.816   4.828  10.706
 4101SOL     OW13743   0.923   4.646   9.611
 4101SOL    HW113744   0.974   4.666   9.533
 4101SOL    HW213745   0.970   4.574   9.653
 4102SOL     OW13746   1.487   5.365   9.357
 4102SOL    HW113747   1.394   5.349   9.339
 4102SOL    HW213748   1.528   5.367   9.270
 4103SOL     OW13749   0.380   5.032  10.795
 4103SOL    HW113750   0.341   5.103  10.743
 4103SOL    HW213751   0.319   4.959  10.785
 4104SOL     OW13752   1.599   5.006  10.585
 4104SOL    HW113753   1.667   4.993  10.651
 4104SOL    HW213754   1.542   5.073  10.623
 4105SOL     OW13755   1.063   4.839  10.021
 4105SOL    HW113756   0.994   4.786  10.061
 4105SOL    HW213757   1.132   4.776   9.998
 4106SOL     OW13758   1.025   3.970  10.278
 4106SOL    HW113759   1.022   3.925  10.193
 4106SOL    HW213760   1.021   3.900  10.342
 4107SOL     OW13761   0.611   5.213   9.791
 4107SOL    HW113762   0.659   5.165   9.724
 4107SOL    HW213763   0.524   5.227   9.755
 4108SOL     OW13764   1.734   4.112  10.696
 4108SOL    HW113765   1.807   4.175  10.694
 4108SOL    HW213766   1.760   4.043  10.635
 4109SOL     OW13767   0.278   5.050   9.605
 4109SOL    HW113768   0.193   5.074   9.568
 4109SOL    HW213769   0.285   5.104   9.684
 4110SOL     OW13770   0.104   4.715  11.025
 4110SOL    HW113771   0.051   4.784  11.065
 4110SOL    HW213772   0.188   4.721  11.070
 4111SOL     OW13773   0.680   3.918  10.810
 4111SOL    HW113774   0.764   3.897  10.769
 4111SOL    HW213775   0.702   3.952  10.896
 4112SOL     OW13776   0.105   4.074   9.347
 4112SOL    HW113777   0.025   4.105   9.390
 4112SOL    HW213778   0.119   4.136   9.276
 4113SOL     OW13779   1.421   4.579  10.705
 4113SOL    HW113780   1.370   4.640  10.651
 4113SOL    HW213781   1.509   4.582  10.666
 4114SOL     OW13782   0.101   3.970   9.668
 4114SOL    HW113783   0.042   3.957   9.594
 4114SOL    HW213784   0.181   3.922   9.645
 4115SOL     OW13785   1.188   5.053   9.438
 4115SOL    HW113786   1.107   5.002   9.445
 4115SOL    HW213787   1.218   5.063   9.528
 4116SOL     OW13788   0.622   4.556  10.749
 4116SOL    HW113789   0.678   4.633  10.737
 4116SOL    HW213790   0.684   4.483  10.752
 4117SOL     OW13791   1.483   5.519  10.297
 4117SOL    HW113792   1.509   5.587  10.235
 4117SOL    HW213793   1.564   5.472  10.316
 4118SOL     OW13794   0.708   4.283  11.007
 4118SOL    HW113795   0.758   4.341  11.064
 4118SOL    HW213796   0.728   4.195  11.039
 4119SOL     OW13797   1.475   4.914  10.936
 4119SOL    HW113798   1.465   4.934  11.029
 4119SOL    HW213799   1.566   4.935  10.916
 4120SOL     OW13800   0.390   5.464  10.874
 4120SOL    HW113801   0.300   5.490  10.854
 4120SOL    HW213802   0.382   5.383  10.924
 4121SOL     OW13803   1.660   4.600  10.567
 4121SOL    HW113804   1.659   4.515  10.523
 4121SOL    HW213805   1.649   4.664  10.497
 4122SOL     OW13806   1.215   4.041   9.766
 4122SOL    HW113807   1.279   3.969   9.760
 4122SOL    HW213808   1.244   4.092   9.842
 4123SOL     OW13809   0.588   4.461  10.000
 4123SOL    HW113810   0.634   4.543   9.982
 4123SOL    HW213811   0.529   4.449   9.926
 4124SOL     OW13812   1.753   4.085  10.971
 4124SOL    HW113813   1.747   4.103  10.877
 4124SOL    HW213814   1.677   4.032  10.990
 4125SOL     OW13815   1.759   4.655  10.819
 4125SOL    HW113816   1.741   4.748  10.831
 4125SOL    HW213817   1.736   4.638  10.728
 4126SOL     OW13818   0.841   5.116   9.351
 4126SOL    HW113819   0.856   5.137   9.443
 4126SOL    HW213820   0.895   5.179   9.303
 4127SOL     OW13821   0.668   5.501  10.242
 4127SOL    HW113822   0.650   5.594  10.228
 4127SOL    HW213823   0.764   5.495  10.240
 4128SOL     OW13824   0.874   4.694  10.163
 4128SOL    HW113825   0.924   4.621  10.199
 4128SOL    HW213826   0.833   4.735  10.239
 4129SOL     OW13827   1.052   4.697   9.375
 4129SOL    HW113828   1.046   4.756   9.300
 4129SOL    HW213829   1.134   4.650   9.362
 4130SOL     OW13830   1.847   5.278  10.151
 4130SOL    HW113831   1.768   5.263  10.100
 4130SOL    HW213832   1.858   5.197  10.203
 4131SOL     OW13833   0.227   4.991  11.157
 4131SOL    HW113834   0.164   5.027  11.095
 4131SOL    HW213835   0.186   5.003  11.243
 4132SOL     OW13836   0.138   4.950   9.936
 4132SOL    HW113837   0.134   4.931  10.030
 4132SOL    HW213838   0.051   4.926   9.904
 4133SOL     OW13839   0.690   5.134  10.953
 4133SOL    HW113840   0.609   5.088  10.977
 4133SOL    HW213841   0.679   5.222  10.988
 4134SOL     OW13842   1.802   3.897  10.549
 4134SOL    HW113843   1.817   3.803  10.558
 4134SOL    HW213844   1.815   3.915  10.456
 4135SOL     OW13845   0.442   4.159   9.834
 4135SOL    HW113846   0.477   4.089   9.778
 4135SOL    HW213847   0.392   4.113   9.901
 4136SOL     OW13848   1.682   5.218  10.409
 4136SOL    HW113849   1.612   5.196  10.348
 4136SOL    HW213850   1.687   5.142  10.468
 4137SOL     OW13851   0.351   4.284  10.605
 4137SOL    HW113852   0.400   4.225  10.663
 4137SOL    HW213853   0.366   4.249  10.517
 4138SOL     OW13854   0.834   5.303   9.986
 4138SOL    HW113855   0.808   5.371   9.923
 4138SOL    HW213856   0.759   5.244   9.990
 4139SOL     OW13857   1.425   3.957  10.427
 4139SOL    HW113858   1.451   3.875  10.469
 4139SOL    HW213859   1.375   4.003  10.493
 4140SOL     OW13860   1.008   3.737  10.440
 4140SOL    HW113861   0.957   3.674  10.389
 4140SOL    HW213862   1.096   3.700  10.443
 4141SOL     OW13863   0.779   5.054   9.634
 4141SOL    HW113864   0.759   4.962   9.652
 4141SOL    HW213865   0.858   5.072   9.685
 4142SOL     OW13866   0.623   5.282  10.599
 4142SOL    HW113867   0.623   5.366  10.645
 4142SOL    HW213868   0.712   5.275  10.562
 4143SOL     OW13869   1.360   3.770   9.491
 4143SOL    HW113870   1.398   3.703   9.434
 4143SOL    HW213871   1.270   3.740   9.507
 4144SOL     OW13872   1.285   4.189   9.984
 4144SOL    HW113873   1.238   4.272   9.989
 4144SOL    HW213874   1.289   4.159  10.075
 4145SOL     OW13875   1.580   3.916  10.194
 4145SOL    HW113876   1.527   3.947  10.268
 4145SOL    HW213877   1.583   3.991  10.134
 4146SOL     OW13878   0.060   4.785   9.629
 4146SOL    HW113879   0.068   4.696   9.594
 4146SOL    HW213880  -0.022   4.784   9.678
 4147SOL     OW13881   0.887   5.387   9.643
 4147SOL    HW113882   0.809   5.375   9.589
 4147SOL    HW213883   0.864   5.458   9.703
 4148SOL     OW13884   0.243   4.415  11.255
 4148SOL    HW113885   0.185   4.388  11.326
 4148SOL    HW213886   0.233   4.347  11.188
 4149SOL     OW13887   0.241   3.999  12.148
 4149SOL    HW113888   0.273   3.970  12.233
 4149SOL    HW213889   0.156   3.958  12.139
 4150SOL     OW13890   8.000   4.114  11.777
 4150SOL    HW113891   7.911   4.102  11.809
 4150SOL    HW213892   8.005   4.059  11.699
 4151SOL     OW13893   0.543   4.971  12.347
 4151SOL    HW113894   0.466   5.005  12.302
 4151SOL    HW213895   0.571   5.043  12.404
 4152SOL     OW13896   1.579   5.242  11.883
 4152SOL    HW113897   1.536   5.218  11.965
 4152SOL    HW213898   1.509   5.246  11.819
 4153SOL     OW13899   1.136   4.423  11.864
 4153SOL    HW113900   1.183   4.506  11.851
 4153SOL    HW213901   1.087   4.435  11.945
 4154SOL     OW13902   1.779   4.321  11.398
 4154SOL    HW113903   1.751   4.318  11.307
 4154SOL    HW213904   1.741   4.242  11.437
 4155SOL     OW13905   0.754   4.850  12.237
 4155SOL    HW113906   0.674   4.884  12.278
 4155SOL    HW213907   0.787   4.924  12.186
 4156SOL     OW13908   0.689   4.720  11.817
 4156SOL    HW113909   0.755   4.718  11.886
 4156SOL    HW213910   0.620   4.778  11.851
 4157SOL     OW13911   0.346   5.132  12.228
 4157SOL    HW113912   0.279   5.087  12.177
 4157SOL    HW213913   0.388   5.191  12.166
 4158SOL     OW13914   1.600   4.160  11.918
 4158SOL    HW113915   1.533   4.176  11.853
 4158SOL    HW213916   1.595   4.235  11.977
 4159SOL     OW13917   0.221   5.418  11.650
 4159SOL    HW113918   0.199   5.504  11.687
 4159SOL    HW213919   0.290   5.437  11.587
 4160SOL     OW13920   0.300   5.165  11.705
 4160SOL    HW113921   0.267   5.255  11.705
 4160SOL    HW213922   0.241   5.118  11.764
 4161SOL     OW13923   0.281   4.809  12.081
 4161SOL    HW113924   0.279   4.716  12.102
 4161SOL    HW213925   0.200   4.844  12.118
 4162SOL     OW13926   0.582   4.709  11.312
 4162SOL    HW113927   0.630   4.758  11.245
 4162SOL    HW213928   0.618   4.741  11.395
 4163SOL     OW13929   0.142   4.352  11.726
 4163SOL    HW113930   0.096   4.273  11.754
 4163SOL    HW213931   0.122   4.417  11.793
 4164SOL     OW13932   1.841   5.475  11.495
 4164SOL    HW113933   1.905   5.453  11.562
 4164SOL    HW213934   1.857   5.568  11.477
 4165SOL     OW13935   0.018   5.316  11.314
 4165SOL    HW113936   0.008   5.222  11.299
 4165SOL    HW213937  -0.004   5.329  11.406
 4166SOL     OW13938   1.694   4.646  11.819
 4166SOL    HW113939   1.769   4.596  11.787
 4166SOL    HW213940   1.666   4.699  11.744
 4167SOL     OW13941   1.652   4.826  11.603
 4167SOL    HW113942   1.738   4.824  11.562
 4167SOL    HW213943   1.660   4.892  11.672
 4168SOL     OW13944   0.161   4.507   0.293
 4168SOL    HW113945   0.153   4.461   0.376
 4168SOL    HW213946   0.128   4.595   0.311
 4169SOL     OW13947   0.610   5.119  11.903
 4169SOL    HW113948   0.565   5.034  11.909
 4169SOL    HW213949   0.595   5.148  11.813
 4170SOL     OW13950   0.825   3.730  11.691
 4170SOL    HW113951   0.865   3.813  11.663
 4170SOL    HW213952   0.731   3.748  11.692
 4171SOL     OW13953   0.212   4.679  12.460
 4171SOL    HW113954   0.292   4.633  12.434
 4171SOL    HW213955   0.153   4.669  12.385
 4172SOL     OW13956   1.532   4.727  11.373
 4172SOL    HW113957   1.463   4.668  11.404
 4172SOL    HW213958   1.574   4.759  11.452
 4173SOL     OW13959   1.477   5.136  12.121
 4173SOL    HW113960   1.406   5.154  12.182
 4173SOL    HW213961   1.459   5.048  12.089
 4174SOL     OW13962   1.654   5.487  11.744
 4174SOL    HW113963   1.629   5.452  11.659
 4174SOL    HW213964   1.638   5.416  11.806
 4175SOL     OW13965   0.592   4.439  11.440
 4175SOL    HW113966   0.591   4.523  11.394
 4175SOL    HW213967   0.530   4.450  11.511
 4176SOL     OW13968   1.281   4.096  12.108
 4176SOL    HW113969   1.192   4.060  12.115
 4176SOL    HW213970   1.334   4.041  12.166
 4177SOL     OW13971   1.575   5.399  11.485
 4177SOL    HW113972   1.667   5.422  11.474
 4177SOL    HW213973   1.543   5.383  11.396
 4178SOL     OW13974   0.984   4.092  12.383
 4178SOL    HW113975   0.899   4.126  12.411
 4178SOL    HW213976   0.968   4.059  12.294
 4179SOL     OW13977   1.056   4.419  11.594
 4179SOL    HW113978   1.075   4.414  11.687
 4179SOL    HW213979   0.971   4.377  11.584
 4180SOL     OW13980   0.089   4.518  11.945
 4180SOL    HW113981   0.164   4.532  12.003
 4180SOL    HW213982   0.048   4.605  11.939
 4181SOL     OW13983   0.066   5.489   0.268
 4181SOL    HW113984   0.079   5.501   0.362
 4181SOL    HW213985   0.018   5.567   0.240
 4182SOL     OW13986   0.902   4.073  11.369
 4182SOL    HW113987   0.941   4.139  11.311
 4182SOL    HW213988   0.908   3.991  11.319
 4183SOL     OW13989   1.384   4.868  11.711
 4183SOL    HW113990   1.461   4.855  11.656
 4183SOL    HW213991   1.329   4.929  11.662
 4184SOL     OW13992   0.559   3.905  12.064
 4184SOL    HW113993   0.558   3.962  12.141
 4184SOL    HW213994   0.551   3.965  11.990
 4185SOL     OW13995   0.998   5.174  11.640
 4185SOL    HW113996   0.968   5.247  11.586
 4185SOL    HW213997   0.968   5.195  11.728
 4186SOL     OW13998   0.361   5.551  12.036
 4186SOL    HW113999   0.407   5.467  12.046
 4186SOL    HW214000   0.428   5.617  12.054
 4187SOL     OW14001   1.802   4.777  12.046
 4187SOL    HW114002   1.753   4.752  11.967
 4187SOL    HW214003   1.735   4.784  12.114
 4188SOL     OW14004   0.308   4.665  11.411
 4188SOL    HW114005   0.387   4.702  11.371
 4188SOL    HW214006   0.287   4.589  11.357
 4189SOL     OW14007   1.483   4.479  11.887
 4189SOL    HW114008   1.480   4.436  11.973
 4189SOL    HW214009   1.563   4.532  11.889
 4190SOL     OW14010   1.129   5.498  11.403
 4190SOL    HW114011   1.049   5.463  11.442
 4190SOL    HW214012   1.152   5.436  11.334
 4191SOL     OW14013   1.635   5.111  11.272
 4191SOL    HW114014   1.593   5.195  11.254
 4191SOL    HW214015   1.569   5.045  11.248
 4192SOL     OW14016   0.453   5.473  11.483
 4192SOL    HW114017   0.504   5.519  11.550
 4192SOL    HW214018   0.518   5.425  11.432
 4193SOL     OW14019   1.399   3.829  11.620
 4193SOL    HW114020   1.392   3.806  11.527
 4193SOL    HW214021   1.494   3.837  11.636
 4194SOL     OW14022   0.227   5.503  12.394
 4194SOL    HW114023   0.233   5.418  12.437
 4194SOL    HW214024   0.186   5.485  12.310
 4195SOL     OW14025   0.945   5.418  12.069
 4195SOL    HW114026   1.027   5.369  12.079
 4195SOL    HW214027   0.898   5.372  12.000
 4196SOL     OW14028   0.413   4.415  11.656
 4196SOL    HW114029   0.432   4.322  11.667
 4196SOL    HW214030   0.319   4.423  11.668
 4197SOL     OW14031   0.653   3.836  11.274
 4197SOL    HW114032   0.712   3.762  11.290
 4197SOL    HW214033   0.596   3.806  11.203
 4198SOL     OW14034   0.809   5.077  12.102
 4198SOL    HW114035   0.897   5.090  12.067
 4198SOL    HW214036   0.750   5.101  12.030
 4199SOL     OW14037   0.929   4.233  12.066
 4199SOL    HW114038   0.902   4.225  11.975
 4199SOL    HW214039   0.961   4.146  12.090
 4200SOL     OW14040   0.559   3.787  11.666
 4200SOL    HW114041   0.477   3.787  11.716
 4200SOL    HW214042   0.551   3.863  11.608
 4201SOL     OW14043   1.433   4.932  11.211
 4201SOL    HW114044   1.459   4.855  11.262
 4201SOL    HW214045   1.345   4.953  11.243
 4202SOL     OW14046   0.283   3.775  11.346
 4202SOL    HW114047   0.337   3.842  11.305
 4202SOL    HW214048   0.345   3.720  11.394
 4203SOL     OW14049   0.945   3.973  11.625
 4203SOL    HW114050   0.920   4.010  11.540
 4203SOL    HW214051   1.039   3.989  11.632
 4204SOL     OW14052   1.216   5.307  11.972
 4204SOL    HW114053   1.226   5.366  11.897
 4204SOL    HW214054   1.288   5.329  12.031
 4205SOL     OW14055   0.473   4.877  11.895
 4205SOL    HW114056   0.409   4.857  11.963
 4205SOL    HW214057   0.425   4.863  11.813
 4206SOL     OW14058   1.259   5.515  11.785
 4206SOL    HW114059   1.307   5.578  11.731
 4206SOL    HW214060   1.186   5.565  11.822
 4207SOL     OW14061   1.024   4.255  11.200
 4207SOL    HW114062   0.979   4.336  11.179
 4207SOL    HW214063   1.090   4.279  11.264
 4208SOL     OW14064   0.578   3.934  12.357
 4208SOL    HW114065   0.591   3.848  12.317
 4208SOL    HW214066   0.484   3.938  12.374
 4209SOL     OW14067   0.865   4.181  11.805
 4209SOL    HW114068   0.823   4.237  11.740
 4209SOL    HW214069   0.889   4.102  11.757
 4210SOL     OW14070   1.020   3.773  11.912
 4210SOL    HW114071   0.960   3.769  11.838
 4210SOL    HW214072   0.995   3.698  11.966
 4211SOL     OW14073   1.437   4.880  12.022
 4211SOL    HW114074   1.366   4.816  12.019
 4211SOL    HW214075   1.463   4.892  11.931
 4212SOL     OW14076   1.459   4.334  12.125
 4212SOL    HW114077   1.402   4.258  12.132
 4212SOL    HW214078   1.519   4.326  12.200
 4213SOL     OW14079   1.835   4.532  11.563
 4213SOL    HW114080   1.896   4.483  11.618
 4213SOL    HW214081   1.812   4.471  11.493
 4214SOL     OW14082   0.480   5.151  11.315
 4214SOL    HW114083   0.411   5.106  11.364
 4214SOL    HW214084   0.454   5.143  11.224
 4215SOL     OW14085   1.686   4.992  11.811
 4215SOL    HW114086   1.780   4.992  11.826
 4215SOL    HW214087   1.658   5.081  11.834
 4216SOL     OW14088   1.393   4.298  11.241
 4216SOL    HW114089   1.334   4.274  11.312
 4216SOL    HW214090   1.479   4.271  11.271
 4217SOL     OW14091   0.528   3.980  11.477
 4217SOL    HW114092   0.579   3.934  11.411
 4217SOL    HW214093   0.504   4.063  11.437
 4218SOL     OW14094   1.107   4.963  12.288
 4218SOL    HW114095   1.024   4.980  12.331
 4218SOL    HW214096   1.094   4.991  12.198
 4219SOL     OW14097   1.606   4.819  12.242
 4219SOL    HW114098   1.570   4.858  12.322
 4219SOL    HW214099   1.541   4.838  12.174
 4220SOL     OW14100   0.712   4.788  11.544
 4220SOL    HW114101   0.697   4.765  11.636
 4220SOL    HW214102   0.788   4.735  11.518
 4221SOL     OW14103   0.447   4.520  12.452
 4221SOL    HW114104   0.515   4.461  12.421
 4221SOL    HW214105   0.382   4.462  12.492
 4222SOL     OW14106   1.248   4.088  12.432
 4222SOL    HW114107   1.280   4.172  12.465
 4222SOL    HW214108   1.155   4.103  12.413
 4223SOL     OW14109   0.327   4.835  11.657
 4223SOL    HW114110   0.326   4.907  11.594
 4223SOL    HW214111   0.333   4.756  11.603
 4224SOL     OW14112   0.555   4.246  12.036
 4224SOL    HW114113   0.566   4.306  11.962
 4224SOL    HW214114   0.619   4.275  12.100
 4225SOL     OW14115   1.245   5.074  11.568
 4225SOL    HW114116   1.301   5.145  11.598
 4225SOL    HW214117   1.158   5.098  11.598
 4226SOL     OW14118   1.289   5.171  12.314
 4226SOL    HW114119   1.342   5.168  12.394
 4226SOL    HW214120   1.230   5.096  12.321
 4227SOL     OW14121   1.575   4.338  11.659
 4227SOL    HW114122   1.525   4.386  11.726
 4227SOL    HW214123   1.615   4.406  11.606
 4228SOL     OW14124   0.380   5.256  12.466
 4228SOL    HW114125   0.355   5.205  12.389
 4228SOL    HW214126   0.424   5.333  12.431
 4229SOL     OW14127   0.602   4.601  12.217
 4229SOL    HW114128   0.633   4.690  12.199
 4229SOL    HW214129   0.526   4.613  12.274
 4230SOL     OW14130   1.327   4.579  12.172
 4230SOL    HW114131   1.243   4.556  12.133
 4230SOL    HW214132   1.380   4.499  12.163
 4231SOL     OW14133   1.200   4.248  11.433
 4231SOL    HW114134   1.207   4.170  11.488
 4231SOL    HW214135   1.158   4.313  11.488
 4232SOL     OW14136   0.314   3.917  12.399
 4232SOL    HW114137   0.259   3.962  12.464
 4232SOL    HW214138   0.288   3.825  12.406
 4233SOL     OW14139   0.072   5.063  12.433
 4233SOL    HW114140   0.047   5.015  12.512
 4233SOL    HW214141   0.082   5.153  12.462
 4234SOL     OW14142   0.720   4.354  12.227
 4234SOL    HW114143   0.797   4.342  12.171
 4234SOL    HW214144   0.693   4.444  12.212
 4235SOL     OW14145   0.313   3.794  11.785
 4235SOL    HW114146   0.284   3.883  11.807
 4235SOL    HW214147   0.318   3.749  11.869
 4236SOL     OW14148   1.625   4.104  11.527
 4236SOL    HW114149   1.656   4.038  11.589
 4236SOL    HW214150   1.600   4.179  11.581
 4237SOL     OW14151   1.031   4.478  12.128
 4237SOL    HW114152   1.022   4.491  12.223
 4237SOL    HW214153   1.002   4.388  12.113
 4238SOL     OW14154   1.523   3.994  11.295
 4238SOL    HW114155   1.461   3.929  11.328
 4238SOL    HW214156   1.560   4.033  11.374
 4239SOL     OW14157   1.287   4.549  11.198
 4239SOL    HW114158   1.328   4.463  11.202
 4239SOL    HW214159   1.319   4.587  11.116
 4240SOL     OW14160   1.074   5.071  12.034
 4240SOL    HW114161   1.080   4.998  11.971
 4240SOL    HW214162   1.129   5.139  11.996
 4241SOL     OW14163   0.322   4.530  12.106
 4241SOL    HW114164   0.411   4.535  12.073
 4241SOL    HW214165   0.312   4.441  12.139
 4242SOL     OW14166   0.325   4.258  12.173
 4242SOL    HW114167   0.290   4.169  12.165
 4242SOL    HW214168   0.407   4.256  12.123
 4243SOL     OW14169   1.170   3.941   0.151
 4243SOL    HW114170   1.164   4.005   0.221
 4243SOL    HW214171   1.200   3.991   0.075
 4244SOL     OW14172   7.999   5.033  11.383
 4244SOL    HW114173   7.908   5.049  11.407
 4244SOL    HW214174   8.005   4.937  11.378
 4245SOL     OW14175   0.122   5.466  12.135
 4245SOL    HW114176   0.098   5.410  12.062
 4245SOL    HW214177   0.199   5.515  12.104
 4246SOL     OW14178   0.496   5.306  12.075
 4246SOL    HW114179   0.567   5.366  12.100
 4246SOL    HW214180   0.537   5.244  12.015
 4247SOL     OW14181   0.977   4.507  12.396
 4247SOL    HW114182   1.006   4.580  12.451
 4247SOL    HW214183   0.892   4.481  12.432
 4248SOL     OW14184   0.084   4.303  12.290
 4248SOL    HW114185   0.175   4.294  12.263
 4248SOL    HW214186   0.088   4.346  12.375
 4249SOL     OW14187   0.815   4.295  11.541
 4249SOL    HW114188   0.821   4.222  11.480
 4249SOL    HW214189   0.741   4.347  11.509
 4250SOL     OW14190   1.645   4.327  12.322
 4250SOL    HW114191   1.648   4.267  12.397
 4250SOL    HW214192   1.732   4.322  12.283
 4251SOL     OW14193   0.726   4.166  12.425
 4251SOL    HW114194   0.664   4.097  12.404
 4251SOL    HW214195   0.712   4.233  12.358
 4252SOL     OW14196   0.891   5.377   0.031
 4252SOL    HW114197   0.902   5.437  -0.043
 4252SOL    HW214198   0.926   5.425   0.106
 4253SOL     OW14199   0.460   4.206  11.345
 4253SOL    HW114200   0.510   4.286  11.360
 4253SOL    HW214201   0.374   4.225  11.382
 4254SOL     OW14202   1.279   4.753  12.374
 4254SOL    HW114203   1.304   4.699  12.299
 4254SOL    HW214204   1.231   4.827  12.335
 4255SOL     OW14205   1.319   4.579  11.473
 4255SOL    HW114206   1.244   4.548  11.523
 4255SOL    HW214207   1.293   4.568  11.381
 4256SOL     OW14208   1.754   5.472  12.304
 4256SOL    HW114209   1.824   5.491  12.242
 4256SOL    HW214210   1.741   5.377  12.296
 4257SOL     OW14211   1.248   5.443  12.276
 4257SOL    HW114212   1.328   5.478  12.236
 4257SOL    HW214213   1.263   5.349  12.285
 4258SOL     OW14214   0.054   4.920  12.204
 4258SOL    HW114215   0.066   4.970  12.285
 4258SOL    HW214216  -0.020   4.963  12.161
 4259SOL     OW14217   1.728   3.887  11.674
 4259SOL    HW114218   1.796   3.870  11.608
 4259SOL    HW214219   1.711   3.801  11.712
 4260SOL     OW14220   1.396   5.292  11.670
 4260SOL    HW114221   1.450   5.325  11.599
 4260SOL    HW214222   1.341   5.366  11.696
 4261SOL     OW14223   1.279   4.656  11.843
 4261SOL    HW114224   1.352   4.595  11.853
 4261SOL    HW214225   1.312   4.726  11.788
 4262SOL     OW14226   0.666   5.350  11.330
 4262SOL    HW114227   0.679   5.366  11.237
 4262SOL    HW214228   0.609   5.273  11.333
 4263SOL     OW14229   1.627   5.515   0.044
 4263SOL    HW114230   1.677   5.502  -0.037
 4263SOL    HW214231   1.653   5.601   0.075
 4264SOL     OW14232   1.844   3.893  12.144
 4264SOL    HW114233   1.875   3.806  12.117
 4264SOL    HW214234   1.758   3.901  12.103
 4265SOL     OW14235   0.257   4.044  11.873
 4265SOL    HW114236   0.170   4.078  11.853
 4265SOL    HW214237   0.258   4.038  11.969
 4266SOL     OW14238   1.210   5.322  11.207
 4266SOL    HW114239   1.198   5.231  11.232
 4266SOL    HW214240   1.144   5.337  11.139
 4267SOL     OW14241   0.764   4.756   0.021
 4267SOL    HW114242   0.768   4.778  -0.071
 4267SOL    HW214243   0.850   4.777   0.056
 4268SOL     OW14244   0.921   4.637  11.470
 4268SOL    HW114245   0.977   4.669  11.399
 4268SOL    HW214246   0.972   4.567  11.511
 4269SOL     OW14247   1.489   5.357  11.221
 4269SOL    HW114248   1.395   5.343  11.204
 4269SOL    HW214249   1.528   5.362  11.133
 4270SOL     OW14250   1.069   4.839  11.893
 4270SOL    HW114251   0.993   4.790  11.924
 4270SOL    HW214252   1.130   4.773  11.861
 4271SOL     OW14253   1.025   3.961  12.128
 4271SOL    HW114254   1.024   3.915  12.044
 4271SOL    HW214255   1.024   3.891  12.194
 4272SOL     OW14256   0.609   5.219  11.651
 4272SOL    HW114257   0.658   5.169  11.586
 4272SOL    HW214258   0.519   5.222  11.617
 4273SOL     OW14259   1.741   4.144   0.005
 4273SOL    HW114260   1.753   4.145   0.100
 4273SOL    HW214261   1.755   4.053  -0.021
 4274SOL     OW14262   0.265   5.047  11.466
 4274SOL    HW114263   0.172   5.055  11.445
 4274SOL    HW214264   0.276   5.098  11.546
 4275SOL     OW14265   0.103   4.077  11.189
 4275SOL    HW114266   0.035   4.120  11.242
 4275SOL    HW214267   0.119   4.137  11.117
 4276SOL     OW14268   0.088   3.965  11.534
 4276SOL    HW114269   0.038   3.948  11.454
 4276SOL    HW214270   0.171   3.919  11.521
 4277SOL     OW14271   1.175   5.056  11.288
 4277SOL    HW114272   1.081   5.039  11.284
 4277SOL    HW214273   1.196   5.052  11.382
 4278SOL     OW14274   1.489   5.508  12.155
 4278SOL    HW114275   1.508   5.582  12.096
 4278SOL    HW214276   1.572   5.493  12.200
 4279SOL     OW14277   1.699   4.596  12.395
 4279SOL    HW114278   1.668   4.512  12.362
 4279SOL    HW214279   1.663   4.661  12.334
 4280SOL     OW14280   1.216   4.042  11.630
 4280SOL    HW114281   1.277   3.969  11.625
 4280SOL    HW214282   1.245   4.094  11.705
 4281SOL     OW14283   0.583   4.465  11.866
 4281SOL    HW114284   0.629   4.546  11.845
 4281SOL    HW214285   0.526   4.450  11.791
 4282SOL     OW14286   1.770   4.597   0.156
 4282SOL    HW114287   1.795   4.689   0.168
 4282SOL    HW214288   1.738   4.593   0.066
 4283SOL     OW14289   0.883   5.091  11.229
 4283SOL    HW114290   0.829   5.115  11.304
 4283SOL    HW214291   0.883   5.169  11.173
 4284SOL     OW14292   0.668   5.515  12.122
 4284SOL    HW114293   0.649   5.603  12.091
 4284SOL    HW214294   0.762   5.504  12.108
 4285SOL     OW14295   0.872   4.696  12.028
 4285SOL    HW114296   0.921   4.621  12.061
 4285SOL    HW214297   0.838   4.739  12.106
 4286SOL     OW14298   1.076   4.710  11.262
 4286SOL    HW114299   1.054   4.764  11.187
 4286SOL    HW214300   1.150   4.657  11.233
 4287SOL     OW14301   1.838   5.279  12.018
 4287SOL    HW114302   1.760   5.270  11.963
 4287SOL    HW214303   1.819   5.228  12.096
 4288SOL     OW14304   0.135   4.984  11.829
 4288SOL    HW114305   0.061   4.934  11.865
 4288SOL    HW214306   0.193   4.917  11.792
 4289SOL     OW14307   1.803   3.890  12.417
 4289SOL    HW114308   1.843   3.804  12.426
 4289SOL    HW214309   1.812   3.912  12.324
 4290SOL     OW14310   0.451   4.153  11.704
 4290SOL    HW114311   0.469   4.084  11.640
 4290SOL    HW214312   0.387   4.114  11.764
 4291SOL     OW14313   1.709   5.207  12.267
 4291SOL    HW114314   1.626   5.180  12.226
 4291SOL    HW214315   1.711   5.158  12.349
 4292SOL     OW14316   0.829   5.313  11.845
 4292SOL    HW114317   0.813   5.383  11.782
 4292SOL    HW214318   0.754   5.254  11.835
 4293SOL     OW14319   1.440   3.960  12.291
 4293SOL    HW114320   1.503   3.920  12.351
 4293SOL    HW214321   1.374   4.000  12.348
 4294SOL     OW14322   1.011   3.725  12.291
 4294SOL    HW114323   0.968   3.669  12.227
 4294SOL    HW214324   1.099   3.690  12.299
 4295SOL     OW14325   0.772   5.058  11.497
 4295SOL    HW114326   0.745   4.967  11.503
 4295SOL    HW214327   0.856   5.061  11.542
 4296SOL     OW14328   1.359   3.775  11.353
 4296SOL    HW114329   1.393   3.708  11.293
 4296SOL    HW214330   1.270   3.746  11.372
 4297SOL     OW14331   1.297   4.188  11.848
 4297SOL    HW114332   1.245   4.269  11.850
 4297SOL    HW214333   1.292   4.154  11.937
 4298SOL     OW14334   1.585   3.913  12.058
 4298SOL    HW114335   1.528   3.939  12.131
 4298SOL    HW214336   1.585   3.989  11.999
 4299SOL     OW14337   0.047   4.759  11.439
 4299SOL    HW114338   0.139   4.738  11.424
 4299SOL    HW214339   0.038   4.761  11.535
 4300SOL     OW14340   0.888   5.389  11.506
 4300SOL    HW114341   0.812   5.371  11.451
 4300SOL    HW214342   0.860   5.461  11.564
 4301SOL     OW14343   0.268   6.208   0.064
 4301SOL    HW114344   0.222   6.244   0.139
 4301SOL    HW214345   0.224   6.124   0.047
 4302SOL     OW14346   0.237   5.854   0.985
 4302SOL    HW114347   0.261   5.825   1.073
 4302SOL    HW214348   0.154   5.809   0.967
 4303SOL     OW14349   8.007   5.981   0.603
 4303SOL    HW114350   7.919   5.969   0.639
 4303SOL    HW214351   8.011   5.919   0.530
 4304SOL     OW14352   0.574   6.886   1.195
 4304SOL    HW114353   0.488   6.887   1.154
 4304SOL    HW214354   0.587   6.976   1.225
 4305SOL     OW14355   1.581   7.110   0.718
 4305SOL    HW114356   1.536   7.080   0.797
 4305SOL    HW214357   1.513   7.112   0.651
 4306SOL     OW14358   1.135   6.283   0.694
 4306SOL    HW114359   1.182   6.366   0.682
 4306SOL    HW214360   1.087   6.295   0.776
 4307SOL     OW14361   1.745   6.196   0.262
 4307SOL    HW114362   1.725   6.197   0.168
 4307SOL    HW214363   1.706   6.114   0.293
 4308SOL     OW14364   0.743   6.722   1.053
 4308SOL    HW114365   0.679   6.761   1.113
 4308SOL    HW214366   0.782   6.797   1.008
 4309SOL     OW14367   0.880   6.341   1.824
 4309SOL    HW114368   0.875   6.411   1.889
 4309SOL    HW214369   0.900   6.386   1.742
 4310SOL     OW14370   0.684   6.575   0.656
 4310SOL    HW114371   0.754   6.575   0.722
 4310SOL    HW214372   0.620   6.638   0.690
 4311SOL     OW14373   0.715   6.737   1.823
 4311SOL    HW114374   0.763   6.814   1.854
 4311SOL    HW214375   0.637   6.772   1.782
 4312SOL     OW14376   0.339   6.998   1.066
 4312SOL    HW114377   0.282   6.946   1.009
 4312SOL    HW214378   0.386   7.056   1.007
 4313SOL     OW14379   1.457   7.088   1.365
 4313SOL    HW114380   1.511   7.166   1.375
 4313SOL    HW214381   1.387   7.099   1.429
 4314SOL     OW14382   0.451   5.974   1.490
 4314SOL    HW114383   0.529   5.920   1.494
 4314SOL    HW214384   0.378   5.912   1.498
 4315SOL     OW14385   1.602   6.026   0.751
 4315SOL    HW114386   1.541   6.048   0.681
 4315SOL    HW214387   1.589   6.093   0.818
 4316SOL     OW14388   0.253   7.283   0.514
 4316SOL    HW114389   0.253   7.370   0.552
 4316SOL    HW214390   0.299   7.293   0.430
 4317SOL     OW14391   1.139   6.928   1.695
 4317SOL    HW114392   1.179   6.920   1.781
 4317SOL    HW214393   1.086   6.848   1.685
 4318SOL     OW14394   0.285   7.019   0.524
 4318SOL    HW114395   0.271   7.113   0.537
 4318SOL    HW214396   0.235   6.977   0.593
 4319SOL     OW14397   0.280   6.670   0.908
 4319SOL    HW114398   0.275   6.576   0.929
 4319SOL    HW214399   0.199   6.706   0.946
 4320SOL     OW14400   0.609   7.383   1.421
 4320SOL    HW114401   0.529   7.362   1.468
 4320SOL    HW214402   0.632   7.471   1.449
 4321SOL     OW14403   0.570   6.554   0.137
 4321SOL    HW114404   0.639   6.577   0.075
 4321SOL    HW214405   0.605   6.581   0.222
 4322SOL     OW14406   1.593   5.718   1.459
 4322SOL    HW114407   1.622   5.799   1.417
 4322SOL    HW214408   1.569   5.745   1.548
 4323SOL     OW14409   0.128   6.232   0.547
 4323SOL    HW114410   0.098   6.144   0.571
 4323SOL    HW214411   0.114   6.284   0.625
 4324SOL     OW14412   1.851   7.326   0.310
 4324SOL    HW114413   1.917   7.300   0.374
 4324SOL    HW214414   1.866   7.419   0.295
 4325SOL     OW14415   0.029   7.140   0.108
 4325SOL    HW114416   0.019   7.060   0.161
 4325SOL    HW214417   0.058   7.206   0.170
 4326SOL     OW14418   1.686   6.522   0.653
 4326SOL    HW114419   1.749   6.472   0.601
 4326SOL    HW214420   1.648   6.585   0.591
 4327SOL     OW14421   1.647   6.703   0.433
 4327SOL    HW114422   1.734   6.700   0.394
 4327SOL    HW214423   1.655   6.767   0.504
 4328SOL     OW14424   0.154   6.350   1.581
 4328SOL    HW114425   0.249   6.357   1.577
 4328SOL    HW214426   0.126   6.430   1.625
 4329SOL     OW14427   0.613   6.975   0.750
 4329SOL    HW114428   0.569   6.890   0.753
 4329SOL    HW214429   0.606   7.003   0.659
 4330SOL     OW14430   1.281   6.819   1.419
 4330SOL    HW114431   1.310   6.750   1.359
 4330SOL    HW214432   1.341   6.813   1.494
 4331SOL     OW14433   0.825   5.599   0.526
 4331SOL    HW114434   0.864   5.682   0.499
 4331SOL    HW214435   0.731   5.615   0.526
 4332SOL     OW14436   0.167   6.497   1.269
 4332SOL    HW114437   0.260   6.474   1.262
 4332SOL    HW214438   0.137   6.501   1.178
 4333SOL     OW14439   1.507   6.593   0.225
 4333SOL    HW114440   1.441   6.535   0.263
 4333SOL    HW214441   1.555   6.627   0.301
 4334SOL     OW14442   1.190   7.401   1.633
 4334SOL    HW114443   1.188   7.461   1.559
 4334SOL    HW214444   1.203   7.315   1.593
 4335SOL     OW14445   0.362   5.839   1.835
 4335SOL    HW114446   0.413   5.917   1.855
 4335SOL    HW214447   0.272   5.864   1.856
 4336SOL     OW14448   1.469   7.005   0.943
 4336SOL    HW114449   1.402   7.022   1.010
 4336SOL    HW214450   1.454   6.914   0.917
 4337SOL     OW14451   1.649   7.352   0.579
 4337SOL    HW114452   1.628   7.311   0.495
 4337SOL    HW214453   1.638   7.283   0.643
 4338SOL     OW14454   0.597   6.297   0.282
 4338SOL    HW114455   0.613   6.386   0.250
 4338SOL    HW214456   0.531   6.308   0.351
 4339SOL     OW14457   1.281   5.960   0.936
 4339SOL    HW114458   1.192   5.926   0.943
 4339SOL    HW214459   1.333   5.904   0.994
 4340SOL     OW14460   1.585   7.260   0.323
 4340SOL    HW114461   1.678   7.277   0.312
 4340SOL    HW214462   1.556   7.229   0.237
 4341SOL     OW14463   0.789   6.202   1.447
 4341SOL    HW114464   0.763   6.174   1.535
 4341SOL    HW214465   0.759   6.132   1.389
 4342SOL     OW14466   1.393   6.059   1.677
 4342SOL    HW114467   1.398   6.103   1.762
 4342SOL    HW214468   1.446   5.980   1.688
 4343SOL     OW14469   0.948   6.469   1.587
 4343SOL    HW114470   1.003   6.402   1.547
 4343SOL    HW214471   0.900   6.509   1.514
 4344SOL     OW14472   0.997   5.994   1.227
 4344SOL    HW114473   0.907   6.008   1.255
 4344SOL    HW214474   0.989   5.951   1.142
 4345SOL     OW14475   1.059   6.288   0.426
 4345SOL    HW114476   1.076   6.283   0.520
 4345SOL    HW214477   0.973   6.247   0.414
 4346SOL     OW14478   0.090   6.382   0.771
 4346SOL    HW114479   0.167   6.392   0.827
 4346SOL    HW214480   0.047   6.467   0.775
 4347SOL     OW14481   0.123   7.390   1.564
 4347SOL    HW114482   0.129   7.387   1.660
 4347SOL    HW214483   0.029   7.379   1.546
 4348SOL     OW14484   0.892   5.944   0.219
 4348SOL    HW114485   0.918   6.010   0.155
 4348SOL    HW214486   0.878   5.864   0.167
 4349SOL     OW14487   1.699   6.153   1.833
 4349SOL    HW114488   1.668   6.228   1.782
 4349SOL    HW214489   1.729   6.090   1.767
 4350SOL     OW14490   1.386   6.727   0.546
 4350SOL    HW114491   1.464   6.722   0.489
 4350SOL    HW214492   1.329   6.790   0.501
 4351SOL     OW14493   0.558   5.759   0.901
 4351SOL    HW114494   0.560   5.790   0.991
 4351SOL    HW214495   0.554   5.838   0.848
 4352SOL     OW14496   1.031   7.041   0.510
 4352SOL    HW114497   0.969   7.017   0.441
 4352SOL    HW214498   0.976   7.079   0.579
 4353SOL     OW14499   0.366   7.414   0.870
 4353SOL    HW114500   0.409   7.329   0.879
 4353SOL    HW214501   0.434   7.478   0.890
 4354SOL     OW14502   1.807   6.638   0.875
 4354SOL    HW114503   1.757   6.613   0.798
 4354SOL    HW214504   1.742   6.644   0.945
 4355SOL     OW14505   1.224   7.127   1.514
 4355SOL    HW114506   1.213   7.055   1.576
 4355SOL    HW214507   1.156   7.114   1.449
 4356SOL     OW14508   0.302   6.543   0.230
 4356SOL    HW114509   0.393   6.568   0.213
 4356SOL    HW214510   0.266   6.522   0.144
 4357SOL     OW14511   1.485   6.340   0.721
 4357SOL    HW114512   1.482   6.299   0.808
 4357SOL    HW214513   1.561   6.398   0.725
 4358SOL     OW14514   0.469   6.840   1.734
 4358SOL    HW114515   0.443   6.847   1.642
 4358SOL    HW214516   0.386   6.839   1.781
 4359SOL     OW14517   1.135   7.368   0.257
 4359SOL    HW114518   1.055   7.343   0.302
 4359SOL    HW214519   1.156   7.293   0.201
 4360SOL     OW14520   0.199   5.848   1.494
 4360SOL    HW114521   0.141   5.919   1.523
 4360SOL    HW214522   0.169   5.772   1.543
 4361SOL     OW14523   1.655   6.997   0.076
 4361SOL    HW114524   1.587   7.060   0.055
 4361SOL    HW214525   1.609   6.913   0.083
 4362SOL     OW14526   0.445   7.331   0.307
 4362SOL    HW114527   0.503   7.371   0.372
 4362SOL    HW214528   0.504   7.283   0.249
 4363SOL     OW14529   1.403   5.686   0.448
 4363SOL    HW114530   1.397   5.653   0.358
 4363SOL    HW214531   1.497   5.689   0.467
 4364SOL     OW14532   0.230   7.372   1.219
 4364SOL    HW114533   0.281   7.296   1.247
 4364SOL    HW214534   0.199   7.349   1.132
 4365SOL     OW14535   0.944   7.284   0.895
 4365SOL    HW114536   1.025   7.236   0.911
 4365SOL    HW214537   0.900   7.234   0.827
 4366SOL     OW14538   0.402   6.277   0.480
 4366SOL    HW114539   0.425   6.185   0.488
 4366SOL    HW214540   0.310   6.282   0.507
 4367SOL     OW14541   1.522   5.808   1.722
 4367SOL    HW114542   1.532   5.830   1.815
 4367SOL    HW214543   1.460   5.735   1.722
 4368SOL     OW14544   0.637   5.710   0.117
 4368SOL    HW114545   0.730   5.689   0.117
 4368SOL    HW214546   0.622   5.752   0.032
 4369SOL     OW14547   0.762   5.865   1.759
 4369SOL    HW114548   0.844   5.817   1.752
 4369SOL    HW214549   0.717   5.825   1.834
 4370SOL     OW14550   0.875   7.112   1.196
 4370SOL    HW114551   0.857   7.073   1.110
 4370SOL    HW214552   0.943   7.056   1.234
 4371SOL     OW14553   1.336   6.176   1.435
 4371SOL    HW114554   1.368   6.144   1.519
 4371SOL    HW214555   1.375   6.263   1.426
 4372SOL     OW14556   0.819   6.974   0.952
 4372SOL    HW114557   0.904   6.963   0.908
 4372SOL    HW214558   0.756   6.983   0.880
 4373SOL     OW14559   0.931   6.096   0.898
 4373SOL    HW114560   0.905   6.088   0.806
 4373SOL    HW214561   0.959   6.008   0.923
 4374SOL     OW14562   0.558   5.646   0.499
 4374SOL    HW114563   0.479   5.646   0.552
 4374SOL    HW214564   0.549   5.723   0.442
 4375SOL     OW14565   1.461   6.807   0.062
 4375SOL    HW114566   1.475   6.724   0.109
 4375SOL    HW214567   1.368   6.826   0.075
 4376SOL     OW14568   0.294   5.683   0.203
 4376SOL    HW114569   0.375   5.735   0.205
 4376SOL    HW214570   0.321   5.595   0.230
 4377SOL     OW14571   0.947   5.837   0.464
 4377SOL    HW114572   0.920   5.874   0.380
 4377SOL    HW214573   1.042   5.851   0.467
 4378SOL     OW14574   1.079   6.272   1.454
 4378SOL    HW114575   1.017   6.200   1.459
 4378SOL    HW214576   1.165   6.229   1.449
 4379SOL     OW14577   1.209   7.168   0.806
 4379SOL    HW114578   1.222   7.224   0.730
 4379SOL    HW214579   1.285   7.184   0.862
 4380SOL     OW14580   0.474   6.739   0.730
 4380SOL    HW114581   0.410   6.718   0.798
 4380SOL    HW214582   0.427   6.727   0.648
 4381SOL     OW14583   1.259   7.375   0.616
 4381SOL    HW114584   1.305   7.441   0.564
 4381SOL    HW214585   1.184   7.422   0.654
 4382SOL     OW14586   1.023   6.135   0.063
 4382SOL    HW114587   1.005   6.219   0.020
 4382SOL    HW214588   1.087   6.157   0.130
 4383SOL     OW14589   0.099   6.173   1.383
 4383SOL    HW114590   0.190   6.159   1.357
 4383SOL    HW214591   0.104   6.240   1.451
 4384SOL     OW14592   0.563   5.811   1.175
 4384SOL    HW114593   0.606   5.738   1.220
 4384SOL    HW214594   0.471   5.805   1.200
 4385SOL     OW14595   0.866   6.045   0.639
 4385SOL    HW114596   0.827   6.102   0.573
 4385SOL    HW214597   0.889   5.965   0.591
 4386SOL     OW14598   1.024   5.638   0.741
 4386SOL    HW114599   0.960   5.635   0.670
 4386SOL    HW214600   0.997   5.567   0.800
 4387SOL     OW14601   1.436   6.745   0.856
 4387SOL    HW114602   1.362   6.685   0.862
 4387SOL    HW214603   1.454   6.751   0.762
 4388SOL     OW14604   1.466   6.195   0.960
 4388SOL    HW114605   1.404   6.122   0.967
 4388SOL    HW214606   1.521   6.188   1.038
 4389SOL     OW14607   1.822   6.409   0.429
 4389SOL    HW114608   1.877   6.347   0.477
 4389SOL    HW214609   1.786   6.358   0.357
 4390SOL     OW14610   0.464   6.969   0.128
 4390SOL    HW114611   0.429   6.912   0.197
 4390SOL    HW214612   0.386   7.014   0.093
 4391SOL     OW14613   1.682   6.860   0.644
 4391SOL    HW114614   1.776   6.856   0.660
 4391SOL    HW214615   1.656   6.949   0.670
 4392SOL     OW14616   1.403   6.134   0.084
 4392SOL    HW114617   1.346   6.131   0.161
 4392SOL    HW214618   1.452   6.051   0.089
 4393SOL     OW14619   0.520   5.844   0.317
 4393SOL    HW114620   0.573   5.797   0.253
 4393SOL    HW214621   0.502   5.929   0.277
 4394SOL     OW14622   1.744   6.830   1.551
 4394SOL    HW114623   1.831   6.791   1.547
 4394SOL    HW214624   1.759   6.918   1.584
 4395SOL     OW14625   1.050   6.942   1.334
 4395SOL    HW114626   0.973   6.909   1.382
 4395SOL    HW214627   1.124   6.898   1.375
 4396SOL     OW14628   1.610   7.220   1.664
 4396SOL    HW114629   1.599   7.251   1.574
 4396SOL    HW214630   1.689   7.167   1.662
 4397SOL     OW14631   1.143   6.808   1.102
 4397SOL    HW114632   1.077   6.840   1.164
 4397SOL    HW214633   1.114   6.840   1.017
 4398SOL     OW14634   1.621   6.681   1.073
 4398SOL    HW114635   1.613   6.744   1.145
 4398SOL    HW214636   1.547   6.700   1.017
 4399SOL     OW14637   0.917   5.679   1.389
 4399SOL    HW114638   0.940   5.660   1.298
 4399SOL    HW214639   0.996   5.717   1.426
 4400SOL     OW14640   0.983   6.701   1.722
 4400SOL    HW114641   0.893   6.718   1.748
 4400SOL    HW214642   0.979   6.622   1.669
 4401SOL     OW14643   0.678   6.580   0.379
 4401SOL    HW114644   0.681   6.587   0.474
 4401SOL    HW214645   0.770   6.564   0.354
 4402SOL     OW14646   0.427   6.406   1.253
 4402SOL    HW114647   0.494   6.420   1.319
 4402SOL    HW214648   0.400   6.315   1.266
 4403SOL     OW14649   1.263   5.961   1.282
 4403SOL    HW114650   1.294   6.039   1.329
 4403SOL    HW214651   1.173   5.981   1.260
 4404SOL     OW14652   0.062   7.170   1.338
 4404SOL    HW114653   0.075   7.261   1.313
 4404SOL    HW214654   0.149   7.139   1.364
 4405SOL     OW14655   0.326   6.693   0.500
 4405SOL    HW114656   0.315   6.762   0.433
 4405SOL    HW214657   0.352   6.616   0.450
 4406SOL     OW14658   0.546   6.113   0.861
 4406SOL    HW114659   0.559   6.172   0.786
 4406SOL    HW214660   0.614   6.139   0.923
 4407SOL     OW14661   1.258   6.936   0.409
 4407SOL    HW114662   1.318   7.005   0.439
 4407SOL    HW214663   1.174   6.961   0.447
 4408SOL     OW14664   1.295   7.049   1.147
 4408SOL    HW114665   1.346   7.052   1.227
 4408SOL    HW214666   1.240   6.971   1.156
 4409SOL     OW14667   1.555   6.189   0.499
 4409SOL    HW114668   1.514   6.241   0.568
 4409SOL    HW214669   1.583   6.253   0.434
 4410SOL     OW14670   0.340   7.120   1.308
 4410SOL    HW114671   0.330   7.070   1.226
 4410SOL    HW214672   0.435   7.131   1.318
 4411SOL     OW14673   0.433   6.324   1.610
 4411SOL    HW114674   0.491   6.371   1.550
 4411SOL    HW214675   0.480   6.244   1.632
 4412SOL     OW14676   1.615   6.368   1.690
 4412SOL    HW114677   1.528   6.409   1.684
 4412SOL    HW214678   1.666   6.410   1.621
 4413SOL     OW14679   0.995   5.725   1.750
 4413SOL    HW114680   1.055   5.796   1.731
 4413SOL    HW214681   1.044   5.646   1.728
 4414SOL     OW14682   0.502   5.618   1.753
 4414SOL    HW114683   0.456   5.567   1.687
 4414SOL    HW214684   0.447   5.695   1.766
 4415SOL     OW14685   0.591   6.459   1.033
 4415SOL    HW114686   0.622   6.550   1.032
 4415SOL    HW214687   0.531   6.455   1.108
 4416SOL     OW14688   1.335   6.442   1.016
 4416SOL    HW114689   1.248   6.423   0.983
 4416SOL    HW214690   1.384   6.361   1.004
 4417SOL     OW14691   1.210   6.113   0.279
 4417SOL    HW114692   1.222   6.039   0.339
 4417SOL    HW214693   1.165   6.179   0.332
 4418SOL     OW14694   0.302   5.774   1.246
 4418SOL    HW114695   0.264   5.806   1.327
 4418SOL    HW214696   0.284   5.680   1.246
 4419SOL     OW14697   0.048   6.892   1.274
 4419SOL    HW114698   0.079   6.837   1.347
 4419SOL    HW214699   0.052   6.981   1.309
 4420SOL     OW14700   0.720   6.213   1.050
 4420SOL    HW114701   0.797   6.202   0.994
 4420SOL    HW214702   0.690   6.302   1.034
 4421SOL     OW14703   1.742   6.549   1.862
 4421SOL    HW114704   1.701   6.478   1.812
 4421SOL    HW214705   1.681   6.566   1.933
 4422SOL     OW14706   0.317   5.656   0.627
 4422SOL    HW114707   0.288   5.745   0.644
 4422SOL    HW214708   0.324   5.616   0.713
 4423SOL     OW14709   1.622   5.960   0.365
 4423SOL    HW114710   1.651   5.892   0.425
 4423SOL    HW214711   1.587   6.029   0.421
 4424SOL     OW14712   1.035   6.342   0.959
 4424SOL    HW114713   1.020   6.359   1.052
 4424SOL    HW214714   1.006   6.252   0.945
 4425SOL     OW14715   0.983   7.152   1.724
 4425SOL    HW114716   0.963   7.194   1.641
 4425SOL    HW214717   1.025   7.070   1.701
 4426SOL     OW14718   1.845   7.085   1.605
 4426SOL    HW114719   1.871   7.113   1.517
 4426SOL    HW214720   1.925   7.096   1.657
 4427SOL     OW14721   0.353   6.503   1.811
 4427SOL    HW114722   0.433   6.536   1.853
 4427SOL    HW214723   0.385   6.439   1.747
 4428SOL     OW14724   1.510   5.865   0.131
 4428SOL    HW114725   1.458   5.788   0.156
 4428SOL    HW214726   1.551   5.893   0.213
 4429SOL     OW14727   1.300   6.395   0.052
 4429SOL    HW114728   1.350   6.314   0.044
 4429SOL    HW214729   1.342   6.456  -0.009
 4430SOL     OW14730   1.071   6.929   0.862
 4430SOL    HW114731   1.077   6.858   0.798
 4430SOL    HW214732   1.123   7.000   0.823
 4431SOL     OW14733   0.316   6.389   0.937
 4431SOL    HW114734   0.410   6.407   0.930
 4431SOL    HW214735   0.312   6.301   0.975
 4432SOL     OW14736   0.333   6.104   1.020
 4432SOL    HW114737   0.297   6.017   1.002
 4432SOL    HW214738   0.408   6.112   0.961
 4433SOL     OW14739   1.136   5.958   1.684
 4433SOL    HW114740   1.089   6.011   1.749
 4433SOL    HW214741   1.223   5.998   1.680
 4434SOL     OW14742   1.159   5.782   1.470
 4434SOL    HW114743   1.148   5.844   1.543
 4434SOL    HW214744   1.204   5.833   1.402
 4435SOL     OW14745   7.994   6.881   0.200
 4435SOL    HW114746   7.907   6.905   0.232
 4435SOL    HW214747   8.004   6.789   0.225
 4436SOL     OW14748   0.121   7.338   0.961
 4436SOL    HW114749   0.105   7.267   0.898
 4436SOL    HW214750   0.199   7.382   0.927
 4437SOL     OW14751   0.491   7.165   0.908
 4437SOL    HW114752   0.561   7.226   0.931
 4437SOL    HW214753   0.533   7.101   0.851
 4438SOL     OW14754   0.966   6.369   1.221
 4438SOL    HW114755   1.026   6.352   1.294
 4438SOL    HW214756   0.883   6.329   1.247
 4439SOL     OW14757   0.073   6.137   1.115
 4439SOL    HW114758   0.166   6.132   1.096
 4439SOL    HW214759   0.068   6.144   1.211
 4440SOL     OW14760   0.196   6.108   1.698
 4440SOL    HW114761   0.274   6.080   1.650
 4440SOL    HW214762   0.170   6.190   1.656
 4441SOL     OW14763   1.384   6.514   1.656
 4441SOL    HW114764   1.404   6.608   1.651
 4441SOL    HW214765   1.379   6.486   1.565
 4442SOL     OW14766   0.819   6.163   0.380
 4442SOL    HW114767   0.825   6.086   0.323
 4442SOL    HW214768   0.743   6.211   0.348
 4443SOL     OW14769   1.639   6.186   1.174
 4443SOL    HW114770   1.630   6.128   1.249
 4443SOL    HW214771   1.728   6.171   1.142
 4444SOL     OW14772   0.344   7.127   1.749
 4444SOL    HW114773   0.283   7.191   1.786
 4444SOL    HW214774   0.292   7.047   1.741
 4445SOL     OW14775   0.719   6.029   1.250
 4445SOL    HW114776   0.662   5.956   1.226
 4445SOL    HW214777   0.709   6.092   1.179
 4446SOL     OW14778   0.918   7.261   1.475
 4446SOL    HW114779   0.893   7.217   1.393
 4446SOL    HW214780   0.909   7.354   1.456
 4447SOL     OW14781   0.473   6.072   0.189
 4447SOL    HW114782   0.529   6.145   0.217
 4447SOL    HW214783   0.403   6.114   0.138
 4448SOL     OW14784   0.156   6.705   1.453
 4448SOL    HW114785   0.136   6.662   1.536
 4448SOL    HW214786   0.160   6.634   1.389
 4449SOL     OW14787   1.317   6.628   1.215
 4449SOL    HW114788   1.334   6.563   1.146
 4449SOL    HW214789   1.255   6.689   1.176
 4450SOL     OW14790   1.309   6.430   0.326
 4450SOL    HW114791   1.230   6.399   0.371
 4450SOL    HW214792   1.294   6.407   0.234
 4451SOL     OW14793   1.785   7.318   1.162
 4451SOL    HW114794   1.844   7.342   1.090
 4451SOL    HW214795   1.754   7.230   1.139
 4452SOL     OW14796   1.241   7.320   1.109
 4452SOL    HW114797   1.324   7.343   1.067
 4452SOL    HW214798   1.249   7.226   1.127
 4453SOL     OW14799   0.053   6.778   1.030
 4453SOL    HW114800   0.055   6.820   1.116
 4453SOL    HW214801  -0.028   6.811   0.989
 4454SOL     OW14802   0.683   7.260   1.745
 4454SOL    HW114803   0.616   7.328   1.732
 4454SOL    HW214804   0.749   7.278   1.678
 4455SOL     OW14805   0.907   5.685   0.097
 4455SOL    HW114806   0.951   5.697   0.013
 4455SOL    HW214807   0.975   5.647   0.154
 4456SOL     OW14808   1.726   5.742   0.506
 4456SOL    HW114809   1.794   5.717   0.443
 4456SOL    HW214810   1.704   5.660   0.551
 4457SOL     OW14811   1.403   7.154   0.508
 4457SOL    HW114812   1.455   7.192   0.436
 4457SOL    HW214813   1.342   7.224   0.531
 4458SOL     OW14814   0.174   7.321   1.837
 4458SOL    HW114815   0.109   7.273   1.888
 4458SOL    HW214816   0.213   7.383   1.899
 4459SOL     OW14817   1.278   6.511   0.667
 4459SOL    HW114818   1.353   6.453   0.679
 4459SOL    HW214819   1.312   6.584   0.615
 4460SOL     OW14820   0.795   6.866   1.421
 4460SOL    HW114821   0.768   6.908   1.502
 4460SOL    HW214822   0.722   6.881   1.361
 4461SOL     OW14823   0.611   7.201   0.120
 4461SOL    HW114824   0.706   7.187   0.120
 4461SOL    HW214825   0.574   7.115   0.136
 4462SOL     OW14826   1.616   7.313   1.393
 4462SOL    HW114827   1.673   7.315   1.316
 4462SOL    HW214828   1.601   7.406   1.414
 4463SOL     OW14829   1.845   5.752   0.962
 4463SOL    HW114830   1.873   5.663   0.941
 4463SOL    HW214831   1.757   5.759   0.926
 4464SOL     OW14832   0.257   5.907   0.710
 4464SOL    HW114833   0.170   5.941   0.688
 4464SOL    HW214834   0.256   5.898   0.805
 4465SOL     OW14835   1.192   7.181   0.069
 4465SOL    HW114836   1.191   7.088   0.093
 4465SOL    HW214837   1.106   7.196   0.030
 4466SOL     OW14838   0.824   6.597   1.378
 4466SOL    HW114839   0.861   6.590   1.290
 4466SOL    HW214840   0.816   6.691   1.394
 4467SOL     OW14841   0.927   6.505   0.293
 4467SOL    HW114842   0.985   6.533   0.223
 4467SOL    HW214843   0.976   6.438   0.340
 4468SOL     OW14844   1.460   7.170   0.028
 4468SOL    HW114845   1.366   7.190   0.036
 4468SOL    HW214846   1.501   7.255   0.014
 4469SOL     OW14847   0.373   6.880   1.486
 4469SOL    HW114848   0.348   6.965   1.449
 4469SOL    HW214849   0.296   6.824   1.471
 4470SOL     OW14850   1.608   6.871   1.281
 4470SOL    HW114851   1.661   6.850   1.358
 4470SOL    HW214852   1.546   6.937   1.313
 4471SOL     OW14853   1.072   6.697   0.722
 4471SOL    HW114854   0.996   6.650   0.755
 4471SOL    HW214855   1.131   6.629   0.690
 4472SOL     OW14856   1.028   5.830   0.964
 4472SOL    HW114857   1.026   5.783   0.880
 4472SOL    HW214858   1.021   5.760   1.029
 4473SOL     OW14859   0.615   7.072   0.497
 4473SOL    HW114860   0.673   7.038   0.429
 4473SOL    HW214861   0.528   7.074   0.456
 4474SOL     OW14862   1.730   5.977   1.379
 4474SOL    HW114863   1.803   6.039   1.380
 4474SOL    HW214864   1.760   5.907   1.322
 4475SOL     OW14865   0.261   6.878   0.300
 4475SOL    HW114866   0.174   6.893   0.264
 4475SOL    HW214867   0.267   6.939   0.373
 4476SOL     OW14868   0.107   6.588   1.709
 4476SOL    HW114869   0.072   6.672   1.738
 4476SOL    HW214870   0.188   6.577   1.759
 4477SOL     OW14871   0.679   5.785   1.500
 4477SOL    HW114872   0.762   5.761   1.460
 4477SOL    HW214873   0.702   5.814   1.589
 4478SOL     OW14874   0.131   5.973   0.016
 4478SOL    HW114875   0.053   5.969   0.071
 4478SOL    HW214876   0.099   5.999  -0.070
 4479SOL     OW14877   1.422   6.442   1.395
 4479SOL    HW114878   1.371   6.503   1.340
 4479SOL    HW214879   1.510   6.445   1.358
 4480SOL     OW14880   0.073   5.815   0.357
 4480SOL    HW114881   0.035   5.871   0.289
 4480SOL    HW214882   0.155   5.784   0.318
 4481SOL     OW14883   1.186   6.917   0.140
 4481SOL    HW114884   1.091   6.906   0.137
 4481SOL    HW214885   1.209   6.913   0.232
 4482SOL     OW14886   0.625   6.419   1.438
 4482SOL    HW114887   0.682   6.495   1.424
 4482SOL    HW214888   0.684   6.344   1.443
 4483SOL     OW14889   1.483   7.375   0.989
 4483SOL    HW114890   1.507   7.439   0.922
 4483SOL    HW214891   1.567   7.338   1.018
 4484SOL     OW14892   0.711   6.142   1.701
 4484SOL    HW114893   0.762   6.199   1.759
 4484SOL    HW214894   0.731   6.053   1.732
 4485SOL     OW14895   1.473   6.776   1.626
 4485SOL    HW114896   1.462   6.792   1.719
 4485SOL    HW214897   1.565   6.797   1.608
 4486SOL     OW14898   0.389   7.325   1.564
 4486SOL    HW114899   0.298   7.348   1.544
 4486SOL    HW214900   0.382   7.244   1.614
 4487SOL     OW14901   1.660   6.464   1.253
 4487SOL    HW114902   1.657   6.378   1.210
 4487SOL    HW214903   1.650   6.527   1.182
 4488SOL     OW14904   1.222   5.901   0.456
 4488SOL    HW114905   1.282   5.826   0.453
 4488SOL    HW214906   1.247   5.949   0.534
 4489SOL     OW14907   0.588   6.317   0.681
 4489SOL    HW114908   0.628   6.403   0.670
 4489SOL    HW214909   0.526   6.310   0.608
 4490SOL     OW14910   1.753   5.948   1.654
 4490SOL    HW114911   1.740   5.965   1.560
 4490SOL    HW214912   1.679   5.891   1.678
 4491SOL     OW14913   1.750   6.518   1.508
 4491SOL    HW114914   1.736   6.612   1.519
 4491SOL    HW214915   1.729   6.502   1.416
 4492SOL     OW14916   0.920   6.943  -0.009
 4492SOL    HW114917   0.879   6.936   0.077
 4492SOL    HW214918   0.909   7.035  -0.033
 4493SOL     OW14919   0.668   7.371   0.936
 4493SOL    HW114920   0.653   7.464   0.916
 4493SOL    HW214921   0.763   7.360   0.929
 4494SOL     OW14922   0.874   6.560   0.860
 4494SOL    HW114923   0.924   6.487   0.896
 4494SOL    HW214924   0.834   6.602   0.935
 4495SOL     OW14925   1.092   6.571   0.078
 4495SOL    HW114926   1.124   6.653   0.042
 4495SOL    HW214927   1.168   6.512   0.075
 4496SOL     OW14928   1.842   7.137   0.837
 4496SOL    HW114929   1.758   7.127   0.792
 4496SOL    HW214930   1.841   7.070   0.905
 4497SOL     OW14931   0.223   6.871   1.855
 4497SOL    HW114932   0.131   6.877   1.830
 4497SOL    HW214933   0.223   6.884   1.950
 4498SOL     OW14934   0.134   6.841   0.666
 4498SOL    HW114935   0.062   6.788   0.702
 4498SOL    HW214936   0.196   6.777   0.632
 4499SOL     OW14937   0.684   6.995   1.637
 4499SOL    HW114938   0.601   6.954   1.663
 4499SOL    HW214939   0.680   7.083   1.674
 4500SOL     OW14940   1.811   5.766   1.233
 4500SOL    HW114941   1.811   5.672   1.247
 4500SOL    HW214942   1.824   5.776   1.139
 4501SOL     OW14943   0.436   6.017   0.527
 4501SOL    HW114944   0.463   5.946   0.468
 4501SOL    HW214945   0.382   5.974   0.593
 4502SOL     OW14946   1.693   7.072   1.093
 4502SOL    HW114947   1.616   7.051   1.040
 4502SOL    HW214948   1.697   7.002   1.159
 4503SOL     OW14949   0.355   6.145   1.297
 4503SOL    HW114950   0.402   6.086   1.355
 4503SOL    HW214951   0.370   6.110   1.209
 4504SOL     OW14952   0.834   7.176   0.670
 4504SOL    HW114953   0.819   7.257   0.621
 4504SOL    HW214954   0.759   7.120   0.649
 4505SOL     OW14955   1.427   5.816   1.117
 4505SOL    HW114956   1.442   5.731   1.158
 4505SOL    HW214957   1.378   5.866   1.182
 4506SOL     OW14958   1.008   5.604   1.132
 4506SOL    HW114959   0.951   5.539   1.092
 4506SOL    HW214960   1.095   5.563   1.132
 4507SOL     OW14961   0.620   7.143   1.289
 4507SOL    HW114962   0.619   7.227   1.335
 4507SOL    HW214963   0.707   7.137   1.251
 4508SOL     OW14964   1.370   5.621   0.183
 4508SOL    HW114965   1.371   5.572   0.101
 4508SOL    HW214966   1.286   5.666   0.183
 4509SOL     OW14967   1.290   6.048   0.675
 4509SOL    HW114968   1.239   6.129   0.678
 4509SOL    HW214969   1.289   6.015   0.765
 4510SOL     OW14970   1.583   5.776   0.888
 4510SOL    HW114971   1.530   5.802   0.963
 4510SOL    HW214972   1.583   5.853   0.831
 4511SOL     OW14973   0.037   6.631   0.288
 4511SOL    HW114974   0.130   6.614   0.274
 4511SOL    HW214975   0.027   6.634   0.384
 4512SOL     OW14976   0.880   7.296   0.309
 4512SOL    HW114977   0.861   7.203   0.314
 4512SOL    HW214978   0.849   7.332   0.392
 4513SOL     OW14979   0.232   6.221   1.969
 4513SOL    HW114980   0.150   6.267   1.987
 4513SOL    HW214981   0.220   6.182   1.882
 4514SOL     OW14982   0.236   5.852   2.848
 4514SOL    HW114983   0.265   5.826   2.936
 4514SOL    HW214984   0.154   5.805   2.836
 4515SOL     OW14985   7.991   5.956   2.472
 4515SOL    HW114986   7.902   5.931   2.495
 4515SOL    HW214987   8.011   5.906   2.392
 4516SOL     OW14988   0.572   6.885   3.054
 4516SOL    HW114989   0.483   6.888   3.017
 4516SOL    HW214990   0.588   6.975   3.083
 4517SOL     OW14991   1.582   7.107   2.573
 4517SOL    HW114992   1.536   7.082   2.653
 4517SOL    HW214993   1.513   7.109   2.506
 4518SOL     OW14994   1.134   6.288   2.554
 4518SOL    HW114995   1.182   6.370   2.540
 4518SOL    HW214996   1.085   6.303   2.635
 4519SOL     OW14997   1.774   6.180   2.089
 4519SOL    HW114998   1.748   6.176   1.997
 4519SOL    HW214999   1.738   6.101   2.128
 4520SOL     OW15000   0.740   6.720   2.913
 4520SOL    HW115001   0.676   6.759   2.972
 4520SOL    HW215002   0.781   6.794   2.869
 4521SOL     OW15003   0.879   6.342   3.690
 4521SOL    HW115004   0.873   6.406   3.761
 4521SOL    HW215005   0.899   6.393   3.612
 4522SOL     OW15006   0.690   6.585   2.508
 4522SOL    HW115007   0.757   6.581   2.576
 4522SOL    HW215008   0.622   6.641   2.544
 4523SOL     OW15009   0.713   6.734   3.680
 4523SOL    HW115010   0.759   6.810   3.714
 4523SOL    HW215011   0.633   6.769   3.641
 4524SOL     OW15012   0.333   6.997   2.928
 4524SOL    HW115013   0.262   6.947   2.888
 4524SOL    HW215014   0.366   7.053   2.857
 4525SOL     OW15015   1.459   7.091   3.227
 4525SOL    HW115016   1.514   7.169   3.237
 4525SOL    HW215017   1.390   7.102   3.292
 4526SOL     OW15018   0.455   5.969   3.339
 4526SOL    HW115019   0.533   5.915   3.349
 4526SOL    HW215020   0.382   5.910   3.360
 4527SOL     OW15021   1.597   6.042   2.617
 4527SOL    HW115022   1.538   6.054   2.544
 4527SOL    HW215023   1.650   6.122   2.620
 4528SOL     OW15024   0.223   7.278   2.334
 4528SOL    HW115025   0.175   7.358   2.352
 4528SOL    HW215026   0.292   7.304   2.273
 4529SOL     OW15027   1.137   6.930   3.558
 4529SOL    HW115028   1.178   6.923   3.644
 4529SOL    HW215029   1.084   6.850   3.550
 4530SOL     OW15030   0.302   7.020   2.378
 4530SOL    HW115031   0.275   7.112   2.385
 4530SOL    HW215032   0.245   6.974   2.439
 4531SOL     OW15033   0.277   6.666   2.751
 4531SOL    HW115034   0.272   6.578   2.788
 4531SOL    HW215035   0.212   6.717   2.799
 4532SOL     OW15036   0.602   7.382   3.271
 4532SOL    HW115037   0.527   7.359   3.326
 4532SOL    HW215038   0.630   7.467   3.304
 4533SOL     OW15039   0.579   6.578   2.008
 4533SOL    HW115040   0.627   6.622   1.938
 4533SOL    HW215041   0.620   6.608   2.088
 4534SOL     OW15042   1.562   5.731   3.294
 4534SOL    HW115043   1.643   5.770   3.260
 4534SOL    HW215044   1.559   5.758   3.385
 4535SOL     OW15045   1.843   7.343   2.189
 4535SOL    HW115046   1.915   7.320   2.247
 4535SOL    HW215047   1.861   7.433   2.161
 4536SOL     OW15048   0.018   7.162   1.997
 4536SOL    HW115049   0.003   7.068   1.996
 4536SOL    HW215050  -0.001   7.189   2.087
 4537SOL     OW15051   1.692   6.501   2.515
 4537SOL    HW115052   1.779   6.462   2.507
 4537SOL    HW215053   1.679   6.548   2.432
 4538SOL     OW15054   1.654   6.686   2.294
 4538SOL    HW115055   1.740   6.684   2.252
 4538SOL    HW215056   1.663   6.750   2.364
 4539SOL     OW15057   0.147   6.354   3.451
 4539SOL    HW115058   0.243   6.348   3.451
 4539SOL    HW215059   0.128   6.436   3.497
 4540SOL     OW15060   0.605   6.984   2.601
 4540SOL    HW115061   0.565   6.897   2.606
 4540SOL    HW215062   0.596   7.009   2.509
 4541SOL     OW15063   1.282   6.822   3.280
 4541SOL    HW115064   1.312   6.752   3.222
 4541SOL    HW215065   1.340   6.817   3.356
 4542SOL     OW15066   0.828   5.600   2.370
 4542SOL    HW115067   0.866   5.685   2.349
 4542SOL    HW215068   0.734   5.617   2.375
 4543SOL     OW15069   0.182   6.515   3.119
 4543SOL    HW115070   0.276   6.497   3.118
 4543SOL    HW215071   0.142   6.438   3.079
 4544SOL     OW15072   1.531   6.591   2.064
 4544SOL    HW115073   1.462   6.532   2.096
 4544SOL    HW215074   1.576   6.621   2.142
 4545SOL     OW15075   1.184   7.401   3.492
 4545SOL    HW115076   1.189   7.463   3.420
 4545SOL    HW215077   1.205   7.316   3.453
 4546SOL     OW15078   0.361   5.846   3.691
 4546SOL    HW115079   0.409   5.919   3.731
 4546SOL    HW215080   0.268   5.868   3.706
 4547SOL     OW15081   1.466   7.007   2.803
 4547SOL    HW115082   1.402   7.022   2.873
 4547SOL    HW215083   1.453   6.916   2.778
 4548SOL     OW15084   1.632   7.375   2.426
 4548SOL    HW115085   1.626   7.325   2.345
 4548SOL    HW215086   1.632   7.308   2.495
 4549SOL     OW15087   0.607   6.301   2.120
 4549SOL    HW115088   0.611   6.387   2.078
 4549SOL    HW215089   0.552   6.314   2.197
 4550SOL     OW15090   1.265   5.963   2.883
 4550SOL    HW115091   1.188   5.916   2.852
 4550SOL    HW215092   1.326   5.894   2.910
 4551SOL     OW15093   1.576   7.269   2.172
 4551SOL    HW115094   1.670   7.285   2.163
 4551SOL    HW215095   1.546   7.249   2.083
 4552SOL     OW15096   0.801   6.198   3.314
 4552SOL    HW115097   0.767   6.172   3.400
 4552SOL    HW215098   0.769   6.130   3.255
 4553SOL     OW15099   1.395   6.055   3.528
 4553SOL    HW115100   1.402   6.102   3.611
 4553SOL    HW215101   1.448   5.976   3.540
 4554SOL     OW15102   0.951   6.471   3.447
 4554SOL    HW115103   1.010   6.407   3.408
 4554SOL    HW215104   0.905   6.510   3.373
 4555SOL     OW15105   1.028   6.004   3.082
 4555SOL    HW115106   0.943   6.019   3.124
 4555SOL    HW215107   1.011   5.934   3.019
 4556SOL     OW15108   1.056   6.285   2.285
 4556SOL    HW115109   1.076   6.279   2.378
 4556SOL    HW215110   0.973   6.239   2.275
 4557SOL     OW15111   0.106   6.385   2.606
 4557SOL    HW115112   0.185   6.391   2.659
 4557SOL    HW215113   0.062   6.469   2.618
 4558SOL     OW15114   0.123   7.389   3.427
 4558SOL    HW115115   0.139   7.372   3.520
 4558SOL    HW215116   0.031   7.413   3.422
 4559SOL     OW15117   0.898   5.939   2.060
 4559SOL    HW115118   0.941   5.998   1.998
 4559SOL    HW215119   0.896   5.855   2.014
 4560SOL     OW15120   1.692   6.155   3.697
 4560SOL    HW115121   1.668   6.231   3.645
 4560SOL    HW215122   1.729   6.093   3.635
 4561SOL     OW15123   1.385   6.727   2.399
 4561SOL    HW115124   1.466   6.716   2.349
 4561SOL    HW215125   1.333   6.789   2.348
 4562SOL     OW15126   0.555   5.758   2.767
 4562SOL    HW115127   0.560   5.786   2.858
 4562SOL    HW215128   0.559   5.840   2.717
 4563SOL     OW15129   0.999   7.032   2.327
 4563SOL    HW115130   0.971   7.107   2.275
 4563SOL    HW215131   0.973   7.055   2.417
 4564SOL     OW15132   1.801   6.644   2.742
 4564SOL    HW115133   1.750   6.623   2.664
 4564SOL    HW215134   1.736   6.647   2.813
 4565SOL     OW15135   1.226   7.129   3.377
 4565SOL    HW115136   1.214   7.057   3.439
 4565SOL    HW215137   1.151   7.123   3.319
 4566SOL     OW15138   0.321   6.533   2.112
 4566SOL    HW115139   0.406   6.564   2.080
 4566SOL    HW215140   0.297   6.463   2.051
 4567SOL     OW15141   1.482   6.346   2.592
 4567SOL    HW115142   1.489   6.309   2.680
 4567SOL    HW215143   1.560   6.400   2.582
 4568SOL     OW15144   0.469   6.852   3.600
 4568SOL    HW115145   0.444   6.857   3.508
 4568SOL    HW215146   0.386   6.837   3.646
 4569SOL     OW15147   1.133   7.365   2.087
 4569SOL    HW115148   1.054   7.331   2.130
 4569SOL    HW215149   1.155   7.300   2.021
 4570SOL     OW15150   0.197   5.849   3.361
 4570SOL    HW115151   0.171   5.929   3.405
 4570SOL    HW215152   0.166   5.778   3.417
 4571SOL     OW15153   1.625   6.973   1.956
 4571SOL    HW115154   1.583   7.057   1.938
 4571SOL    HW215155   1.559   6.908   1.933
 4572SOL     OW15156   0.453   7.340   2.170
 4572SOL    HW115157   0.503   7.380   2.242
 4572SOL    HW215158   0.519   7.292   2.120
 4573SOL     OW15159   1.400   5.697   2.306
 4573SOL    HW115160   1.395   5.667   2.215
 4573SOL    HW215161   1.493   5.690   2.328
 4574SOL     OW15162   0.280   7.376   3.084
 4574SOL    HW115163   0.325   7.308   3.134
 4574SOL    HW215164   0.194   7.339   3.064
 4575SOL     OW15165   0.929   7.285   2.757
 4575SOL    HW115166   1.009   7.241   2.784
 4575SOL    HW215167   0.896   7.233   2.684
 4576SOL     OW15168   0.433   6.283   2.332
 4576SOL    HW115169   0.438   6.190   2.350
 4576SOL    HW215170   0.340   6.299   2.312
 4577SOL     OW15171   1.531   5.808   3.583
 4577SOL    HW115172   1.534   5.837   3.674
 4577SOL    HW215173   1.499   5.718   3.587
 4578SOL     OW15174   0.651   5.701   1.965
 4578SOL    HW115175   0.701   5.624   1.994
 4578SOL    HW215176   0.597   5.668   1.893
 4579SOL     OW15177   0.760   5.869   3.618
 4579SOL    HW115178   0.842   5.819   3.613
 4579SOL    HW215179   0.716   5.835   3.697
 4580SOL     OW15180   0.876   7.110   3.054
 4580SOL    HW115181   0.857   7.068   2.971
 4580SOL    HW215182   0.943   7.055   3.095
 4581SOL     OW15183   1.352   6.159   3.267
 4581SOL    HW115184   1.378   6.121   3.351
 4581SOL    HW215185   1.380   6.251   3.273
 4582SOL     OW15186   0.816   6.973   2.811
 4582SOL    HW115187   0.901   6.962   2.769
 4582SOL    HW215188   0.755   6.983   2.737
 4583SOL     OW15189   0.930   6.093   2.758
 4583SOL    HW115190   0.905   6.083   2.667
 4583SOL    HW215191   0.953   6.005   2.787
 4584SOL     OW15192   0.560   5.653   2.353
 4584SOL    HW115193   0.480   5.651   2.405
 4584SOL    HW215194   0.549   5.728   2.294
 4585SOL     OW15195   1.428   6.789   1.899
 4585SOL    HW115196   1.459   6.715   1.951
 4585SOL    HW215197   1.342   6.811   1.935
 4586SOL     OW15198   0.280   5.636   2.035
 4586SOL    HW115199   0.338   5.700   1.994
 4586SOL    HW215200   0.339   5.579   2.085
 4587SOL     OW15201   0.947   5.845   2.316
 4587SOL    HW115202   0.925   5.879   2.230
 4587SOL    HW215203   1.042   5.856   2.323
 4588SOL     OW15204   1.072   6.254   3.317
 4588SOL    HW115205   0.985   6.216   3.331
 4588SOL    HW215206   1.130   6.201   3.371
 4589SOL     OW15207   1.213   7.160   2.658
 4589SOL    HW115208   1.230   7.225   2.590
 4589SOL    HW215209   1.284   7.171   2.721
 4590SOL     OW15210   0.476   6.741   2.583
 4590SOL    HW115211   0.412   6.717   2.651
 4590SOL    HW215212   0.430   6.724   2.501
 4591SOL     OW15213   1.260   7.378   2.475
 4591SOL    HW115214   1.304   7.445   2.422
 4591SOL    HW215215   1.188   7.425   2.518
 4592SOL     OW15216   1.027   6.114   1.889
 4592SOL    HW115217   0.985   6.197   1.870
 4592SOL    HW215218   1.092   6.135   1.957
 4593SOL     OW15219   0.101   6.208   3.224
 4593SOL    HW115220   0.190   6.178   3.209
 4593SOL    HW215221   0.105   6.255   3.308
 4594SOL     OW15222   0.566   5.812   3.040
 4594SOL    HW115223   0.606   5.738   3.085
 4594SOL    HW215224   0.474   5.810   3.067
 4595SOL     OW15225   0.866   6.045   2.498
 4595SOL    HW115226   0.829   6.101   2.430
 4595SOL    HW215227   0.893   5.965   2.452
 4596SOL     OW15228   1.011   5.644   2.605
 4596SOL    HW115229   0.956   5.631   2.528
 4596SOL    HW215230   0.992   5.569   2.662
 4597SOL     OW15231   1.440   6.747   2.716
 4597SOL    HW115232   1.367   6.685   2.716
 4597SOL    HW215233   1.466   6.753   2.625
 4598SOL     OW15234   1.447   6.201   2.861
 4598SOL    HW115235   1.440   6.114   2.823
 4598SOL    HW215236   1.522   6.195   2.921
 4599SOL     OW15237   1.833   6.395   2.245
 4599SOL    HW115238   1.892   6.348   2.305
 4599SOL    HW215239   1.811   6.330   2.179
 4600SOL     OW15240   0.489   7.008   2.012
 4600SOL    HW115241   0.410   6.974   2.054
 4600SOL    HW215242   0.476   6.990   1.919
 4601SOL     OW15243   1.688   6.853   2.501
 4601SOL    HW115244   1.782   6.848   2.518
 4601SOL    HW215245   1.664   6.942   2.524
 4602SOL     OW15246   1.393   6.159   1.932
 4602SOL    HW115247   1.332   6.135   2.002
 4602SOL    HW215248   1.478   6.124   1.961
 4603SOL     OW15249   0.526   5.850   2.168
 4603SOL    HW115250   0.577   5.805   2.101
 4603SOL    HW215251   0.499   5.932   2.126
 4604SOL     OW15252   1.745   6.830   3.416
 4604SOL    HW115253   1.833   6.791   3.412
 4604SOL    HW215254   1.761   6.920   3.447
 4605SOL     OW15255   1.048   6.934   3.188
 4605SOL    HW115256   0.973   6.905   3.240
 4605SOL    HW215257   1.124   6.897   3.234
 4606SOL     OW15258   1.608   7.216   3.521
 4606SOL    HW115259   1.601   7.252   3.433
 4606SOL    HW215260   1.689   7.165   3.520
 4607SOL     OW15261   1.132   6.796   2.962
 4607SOL    HW115262   1.079   6.839   3.029
 4607SOL    HW215263   1.106   6.837   2.880
 4608SOL     OW15264   1.615   6.678   2.939
 4608SOL    HW115265   1.609   6.741   3.010
 4608SOL    HW215266   1.542   6.701   2.881
 4609SOL     OW15267   0.909   5.675   3.250
 4609SOL    HW115268   0.937   5.652   3.162
 4609SOL    HW215269   0.987   5.711   3.291
 4610SOL     OW15270   0.983   6.704   3.583
 4610SOL    HW115271   0.893   6.719   3.611
 4610SOL    HW215272   0.978   6.623   3.531
 4611SOL     OW15273   0.712   6.649   2.237
 4611SOL    HW115274   0.700   6.628   2.330
 4611SOL    HW215275   0.787   6.596   2.210
 4612SOL     OW15276   0.433   6.404   3.115
 4612SOL    HW115277   0.498   6.417   3.184
 4612SOL    HW215278   0.403   6.314   3.127
 4613SOL     OW15279   0.063   7.206   3.186
 4613SOL    HW115280   0.049   7.252   3.268
 4613SOL    HW215281   0.143   7.155   3.200
 4614SOL     OW15282   0.333   6.695   2.349
 4614SOL    HW115283   0.340   6.771   2.292
 4614SOL    HW215284   0.340   6.620   2.291
 4615SOL     OW15285   0.548   6.113   2.719
 4615SOL    HW115286   0.565   6.176   2.649
 4615SOL    HW215287   0.613   6.134   2.786
 4616SOL     OW15288   1.247   6.937   2.254
 4616SOL    HW115289   1.303   7.007   2.288
 4616SOL    HW215290   1.160   6.958   2.287
 4617SOL     OW15291   1.296   7.047   3.013
 4617SOL    HW115292   1.353   7.058   3.090
 4617SOL    HW215293   1.240   6.973   3.036
 4618SOL     OW15294   1.578   6.197   2.363
 4618SOL    HW115295   1.523   6.255   2.416
 4618SOL    HW215296   1.628   6.257   2.307
 4619SOL     OW15297   0.342   7.112   3.174
 4619SOL    HW115298   0.329   7.067   3.091
 4619SOL    HW215299   0.436   7.122   3.183
 4620SOL     OW15300   0.427   6.310   3.471
 4620SOL    HW115301   0.483   6.362   3.414
 4620SOL    HW215302   0.484   6.241   3.505
 4621SOL     OW15303   1.621   6.377   3.557
 4621SOL    HW115304   1.533   6.414   3.549
 4621SOL    HW215305   1.671   6.419   3.486
 4622SOL     OW15306   0.989   5.721   3.612
 4622SOL    HW115307   1.058   5.786   3.599
 4622SOL    HW215308   1.030   5.638   3.586
 4623SOL     OW15309   0.502   5.622   3.610
 4623SOL    HW115310   0.454   5.571   3.545
 4623SOL    HW215311   0.448   5.700   3.624
 4624SOL     OW15312   0.588   6.460   2.893
 4624SOL    HW115313   0.621   6.550   2.896
 4624SOL    HW215314   0.532   6.452   2.971
 4625SOL     OW15315   1.330   6.445   2.879
 4625SOL    HW115316   1.252   6.432   2.825
 4625SOL    HW215317   1.378   6.363   2.873
 4626SOL     OW15318   1.197   6.112   2.121
 4626SOL    HW115319   1.207   6.034   2.176
 4626SOL    HW215320   1.156   6.176   2.178
 4627SOL     OW15321   0.301   5.784   3.109
 4627SOL    HW115322   0.264   5.810   3.194
 4627SOL    HW215323   0.287   5.689   3.105
 4628SOL     OW15324   0.055   6.900   3.141
 4628SOL    HW115325   0.080   6.829   3.201
 4628SOL    HW215326   0.047   6.977   3.196
 4629SOL     OW15327   0.718   6.213   2.911
 4629SOL    HW115328   0.794   6.202   2.853
 4629SOL    HW215329   0.687   6.302   2.893
 4630SOL     OW15330   1.742   6.558   3.737
 4630SOL    HW115331   1.712   6.486   3.680
 4630SOL    HW215332   1.673   6.565   3.804
 4631SOL     OW15333   0.319   5.658   2.477
 4631SOL    HW115334   0.285   5.743   2.503
 4631SOL    HW215335   0.328   5.609   2.559
 4632SOL     OW15336   1.628   5.968   2.216
 4632SOL    HW115337   1.657   5.896   2.273
 4632SOL    HW215338   1.602   6.037   2.276
 4633SOL     OW15339   1.027   6.341   2.812
 4633SOL    HW115340   1.018   6.355   2.906
 4633SOL    HW215341   0.997   6.251   2.798
 4634SOL     OW15342   0.980   7.154   3.587
 4634SOL    HW115343   0.966   7.196   3.502
 4634SOL    HW215344   1.021   7.070   3.567
 4635SOL     OW15345   1.848   7.086   3.466
 4635SOL    HW115346   1.873   7.113   3.378
 4635SOL    HW215347   1.928   7.097   3.518
 4636SOL     OW15348   0.365   6.535   3.655
 4636SOL    HW115349   0.437   6.547   3.717
 4636SOL    HW215350   0.380   6.448   3.618
 4637SOL     OW15351   1.519   5.862   1.985
 4637SOL    HW115352   1.463   5.790   2.015
 4637SOL    HW215353   1.558   5.896   2.065
 4638SOL     OW15354   1.285   6.409   1.889
 4638SOL    HW115355   1.327   6.323   1.894
 4638SOL    HW215356   1.318   6.447   1.807
 4639SOL     OW15357   1.067   6.930   2.722
 4639SOL    HW115358   1.076   6.858   2.659
 4639SOL    HW215359   1.124   6.999   2.687
 4640SOL     OW15360   0.316   6.383   2.792
 4640SOL    HW115361   0.409   6.407   2.794
 4640SOL    HW215362   0.313   6.297   2.832
 4641SOL     OW15363   0.330   6.103   2.874
 4641SOL    HW115364   0.297   6.015   2.860
 4641SOL    HW215365   0.407   6.109   2.817
 4642SOL     OW15366   1.132   5.979   3.533
 4642SOL    HW115367   1.088   6.021   3.607
 4642SOL    HW215368   1.223   6.006   3.540
 4643SOL     OW15369   1.141   5.790   3.335
 4643SOL    HW115370   1.134   5.854   3.405
 4643SOL    HW215371   1.209   5.826   3.277
 4644SOL     OW15372   7.981   6.890   2.062
 4644SOL    HW115373   7.891   6.904   2.092
 4644SOL    HW215374   7.993   6.795   2.068
 4645SOL     OW15375   0.181   7.394   2.769
 4645SOL    HW115376   0.126   7.318   2.790
 4645SOL    HW215377   0.119   7.467   2.760
 4646SOL     OW15378   0.475   7.182   2.750
 4646SOL    HW115379   0.553   7.221   2.790
 4646SOL    HW215380   0.509   7.111   2.695
 4647SOL     OW15381   0.977   6.348   3.078
 4647SOL    HW115382   1.025   6.335   3.160
 4647SOL    HW215383   0.886   6.331   3.100
 4648SOL     OW15384   0.067   6.123   2.970
 4648SOL    HW115385   0.161   6.116   2.956
 4648SOL    HW215386   0.058   6.147   3.062
 4649SOL     OW15387   0.187   6.087   3.514
 4649SOL    HW115388   0.282   6.091   3.502
 4649SOL    HW215389   0.159   6.179   3.511
 4650SOL     OW15390   1.384   6.513   3.512
 4650SOL    HW115391   1.405   6.606   3.508
 4650SOL    HW215392   1.381   6.484   3.421
 4651SOL     OW15393   0.820   6.154   2.232
 4651SOL    HW115394   0.831   6.079   2.173
 4651SOL    HW215395   0.750   6.206   2.192
 4652SOL     OW15396   1.648   6.180   3.039
 4652SOL    HW115397   1.650   6.125   3.117
 4652SOL    HW215398   1.736   6.172   3.002
 4653SOL     OW15399   0.290   7.116   3.581
 4653SOL    HW115400   0.253   7.188   3.633
 4653SOL    HW215401   0.282   7.039   3.637
 4654SOL     OW15402   0.736   6.028   3.112
 4654SOL    HW115403   0.676   5.956   3.095
 4654SOL    HW215404   0.719   6.090   3.040
 4655SOL     OW15405   0.926   7.259   3.333
 4655SOL    HW115406   0.893   7.222   3.252
 4655SOL    HW215407   0.920   7.354   3.321
 4656SOL     OW15408   0.458   6.080   2.038
 4656SOL    HW115409   0.521   6.149   2.058
 4656SOL    HW215410   0.377   6.127   2.016
 4657SOL     OW15411   0.155   6.708   3.312
 4657SOL    HW115412   0.134   6.664   3.394
 4657SOL    HW215413   0.162   6.637   3.248
 4658SOL     OW15414   1.312   6.626   3.080
 4658SOL    HW115415   1.332   6.564   3.010
 4658SOL    HW215416   1.248   6.686   3.042
 4659SOL     OW15417   1.317   6.442   2.163
 4659SOL    HW115418   1.243   6.409   2.214
 4659SOL    HW215419   1.292   6.428   2.072
 4660SOL     OW15420   1.779   7.324   3.018
 4660SOL    HW115421   1.842   7.344   2.948
 4660SOL    HW215422   1.751   7.235   2.999
 4661SOL     OW15423   1.236   7.314   2.957
 4661SOL    HW115424   1.320   7.341   2.921
 4661SOL    HW215425   1.250   7.222   2.983
 4662SOL     OW15426   0.091   6.818   2.884
 4662SOL    HW115427   0.080   6.847   2.975
 4662SOL    HW215428   0.002   6.811   2.850
 4663SOL     OW15429   0.681   7.258   3.608
 4663SOL    HW115430   0.623   7.333   3.599
 4663SOL    HW215431   0.759   7.281   3.557
 4664SOL     OW15432   1.723   5.750   2.360
 4664SOL    HW115433   1.793   5.729   2.298
 4664SOL    HW215434   1.704   5.666   2.403
 4665SOL     OW15435   1.396   7.155   2.357
 4665SOL    HW115436   1.450   7.191   2.287
 4665SOL    HW215437   1.343   7.229   2.386
 4666SOL     OW15438   0.172   7.330   3.698
 4666SOL    HW115439   0.110   7.281   3.752
 4666SOL    HW215440   0.218   7.387   3.760
 4667SOL     OW15441   1.278   6.519   2.535
 4667SOL    HW115442   1.352   6.460   2.550
 4667SOL    HW215443   1.313   6.588   2.479
 4668SOL     OW15444   0.795   6.863   3.284
 4668SOL    HW115445   0.770   6.907   3.365
 4668SOL    HW215446   0.720   6.876   3.225
 4669SOL     OW15447   0.666   7.215   2.019
 4669SOL    HW115448   0.679   7.229   1.926
 4669SOL    HW215449   0.612   7.137   2.025
 4670SOL     OW15450   1.616   7.318   3.254
 4670SOL    HW115451   1.672   7.322   3.176
 4670SOL    HW215452   1.601   7.410   3.277
 4671SOL     OW15453   1.836   5.753   2.831
 4671SOL    HW115454   1.872   5.667   2.811
 4671SOL    HW215455   1.753   5.757   2.784
 4672SOL     OW15456   0.250   5.904   2.576
 4672SOL    HW115457   0.157   5.914   2.558
 4672SOL    HW215458   0.255   5.889   2.670
 4673SOL     OW15459   1.208   7.182   1.896
 4673SOL    HW115460   1.197   7.091   1.924
 4673SOL    HW215461   1.141   7.195   1.830
 4674SOL     OW15462   0.829   6.595   3.234
 4674SOL    HW115463   0.862   6.599   3.145
 4674SOL    HW215464   0.818   6.686   3.261
 4675SOL     OW15465   0.917   6.497   2.156
 4675SOL    HW115466   0.975   6.529   2.087
 4675SOL    HW215467   0.969   6.429   2.201
 4676SOL     OW15468   1.483   7.230   1.910
 4676SOL    HW115469   1.391   7.211   1.893
 4676SOL    HW215470   1.524   7.231   1.823
 4677SOL     OW15471   0.369   6.882   3.350
 4677SOL    HW115472   0.345   6.964   3.306
 4677SOL    HW215473   0.294   6.824   3.335
 4678SOL     OW15474   1.602   6.869   3.142
 4678SOL    HW115475   1.664   6.852   3.213
 4678SOL    HW215476   1.544   6.937   3.176
 4679SOL     OW15477   1.067   6.701   2.577
 4679SOL    HW115478   0.994   6.651   2.613
 4679SOL    HW215479   1.131   6.635   2.551
 4680SOL     OW15480   1.029   5.823   2.829
 4680SOL    HW115481   1.023   5.782   2.743
 4680SOL    HW215482   1.020   5.751   2.891
 4681SOL     OW15483   0.608   7.074   2.344
 4681SOL    HW115484   0.661   7.027   2.279
 4681SOL    HW215485   0.520   7.076   2.307
 4682SOL     OW15486   1.728   5.990   3.239
 4682SOL    HW115487   1.805   6.047   3.244
 4682SOL    HW215488   1.756   5.916   3.185
 4683SOL     OW15489   0.250   6.919   2.134
 4683SOL    HW115490   0.154   6.925   2.126
 4683SOL    HW215491   0.269   6.961   2.218
 4684SOL     OW15492   0.107   6.593   3.567
 4684SOL    HW115493   0.064   6.674   3.596
 4684SOL    HW215494   0.190   6.592   3.615
 4685SOL     OW15495   0.677   5.787   3.361
 4685SOL    HW115496   0.760   5.758   3.323
 4685SOL    HW215497   0.699   5.814   3.450
 4686SOL     OW15498   0.117   5.938   1.898
 4686SOL    HW115499   0.027   5.908   1.910
 4686SOL    HW215500   0.113   5.997   1.822
 4687SOL     OW15501   1.416   6.434   3.250
 4687SOL    HW115502   1.370   6.501   3.199
 4687SOL    HW215503   1.507   6.438   3.219
 4688SOL     OW15504   0.084   5.820   2.240
 4688SOL    HW115505   0.039   5.821   2.155
 4688SOL    HW215506   0.170   5.782   2.220
 4689SOL     OW15507   1.177   6.916   1.980
 4689SOL    HW115508   1.085   6.891   1.980
 4689SOL    HW215509   1.202   6.917   2.073
 4690SOL     OW15510   0.627   6.414   3.302
 4690SOL    HW115511   0.684   6.490   3.289
 4690SOL    HW215512   0.688   6.341   3.311
 4691SOL     OW15513   1.484   7.368   2.848
 4691SOL    HW115514   1.510   7.437   2.787
 4691SOL    HW215515   1.567   7.337   2.886
 4692SOL     OW15516   0.711   6.146   3.562
 4692SOL    HW115517   0.759   6.201   3.624
 4692SOL    HW215518   0.726   6.056   3.593
 4693SOL     OW15519   1.472   6.776   3.488
 4693SOL    HW115520   1.461   6.792   3.582
 4693SOL    HW215521   1.564   6.797   3.471
 4694SOL     OW15522   0.386   7.318   3.420
 4694SOL    HW115523   0.297   7.347   3.402
 4694SOL    HW215524   0.375   7.234   3.464
 4695SOL     OW15525   1.658   6.463   3.119
 4695SOL    HW115526   1.669   6.378   3.077
 4695SOL    HW215527   1.652   6.525   3.047
 4696SOL     OW15528   1.219   5.909   2.319
 4696SOL    HW115529   1.280   5.836   2.313
 4696SOL    HW215530   1.245   5.955   2.399
 4697SOL     OW15531   0.596   6.323   2.547
 4697SOL    HW115532   0.639   6.409   2.537
 4697SOL    HW215533   0.540   6.315   2.471
 4698SOL     OW15534   1.759   5.954   3.515
 4698SOL    HW115535   1.744   5.971   3.422
 4698SOL    HW215536   1.689   5.894   3.540
 4699SOL     OW15537   1.744   6.531   3.372
 4699SOL    HW115538   1.732   6.626   3.377
 4699SOL    HW215539   1.727   6.509   3.280
 4700SOL     OW15540   0.872   6.950   1.913
 4700SOL    HW115541   0.828   6.977   1.994
 4700SOL    HW215542   0.881   7.031   1.863
 4701SOL     OW15543   0.659   7.384   2.788
 4701SOL    HW115544   0.667   7.480   2.789
 4701SOL    HW215545   0.750   7.353   2.790
 4702SOL     OW15546   0.872   6.561   2.716
 4702SOL    HW115547   0.921   6.487   2.751
 4702SOL    HW215548   0.831   6.602   2.792
 4703SOL     OW15549   1.072   6.569   1.949
 4703SOL    HW115550   1.053   6.624   1.872
 4703SOL    HW215551   1.147   6.517   1.923
 4704SOL     OW15552   1.848   7.136   2.699
 4704SOL    HW115553   1.763   7.123   2.658
 4704SOL    HW215554   1.856   7.062   2.760
 4705SOL     OW15555   0.218   6.884   3.717
 4705SOL    HW115556   0.125   6.870   3.697
 4705SOL    HW215557   0.221   6.887   3.812
 4706SOL     OW15558   0.134   6.848   2.509
 4706SOL    HW115559   0.060   6.803   2.549
 4706SOL    HW215560   0.197   6.778   2.490
 4707SOL     OW15561   0.681   6.999   3.491
 4707SOL    HW115562   0.603   6.957   3.528
 4707SOL    HW215563   0.683   7.086   3.532
 4708SOL     OW15564   1.793   5.768   3.104
 4708SOL    HW115565   1.857   5.704   3.134
 4708SOL    HW215566   1.805   5.771   3.009
 4709SOL     OW15567   0.411   6.018   2.376
 4709SOL    HW115568   0.463   5.950   2.332
 4709SOL    HW215569   0.375   5.974   2.453
 4710SOL     OW15570   1.690   7.076   2.958
 4710SOL    HW115571   1.614   7.053   2.904
 4710SOL    HW215572   1.697   7.003   3.020
 4711SOL     OW15573   0.356   6.145   3.156
 4711SOL    HW115574   0.398   6.085   3.218
 4711SOL    HW215575   0.371   6.105   3.071
 4712SOL     OW15576   0.832   7.172   2.529
 4712SOL    HW115577   0.816   7.247   2.472
 4712SOL    HW215578   0.755   7.116   2.518
 4713SOL     OW15579   1.440   5.783   2.988
 4713SOL    HW115580   1.447   5.694   2.955
 4713SOL    HW215581   1.481   5.780   3.075
 4714SOL     OW15582   1.010   5.602   2.996
 4714SOL    HW115583   0.955   5.538   2.951
 4714SOL    HW215584   1.097   5.562   2.999
 4715SOL     OW15585   0.776   6.920   2.189
 4715SOL    HW115586   0.751   6.827   2.196
 4715SOL    HW215587   0.859   6.927   2.235
 4716SOL     OW15588   0.619   7.144   3.140
 4716SOL    HW115589   0.616   7.228   3.186
 4716SOL    HW215590   0.709   7.136   3.110
 4717SOL     OW15591   1.367   5.632   2.038
 4717SOL    HW115592   1.406   5.556   1.995
 4717SOL    HW215593   1.276   5.607   2.053
 4718SOL     OW15594   1.280   6.048   2.551
 4718SOL    HW115595   1.231   6.130   2.547
 4718SOL    HW215596   1.274   6.021   2.642
 4719SOL     OW15597   1.584   5.791   2.735
 4719SOL    HW115598   1.538   5.810   2.817
 4719SOL    HW215599   1.584   5.875   2.688
 4720SOL     OW15600   0.055   6.626   2.133
 4720SOL    HW115601   0.150   6.612   2.130
 4720SOL    HW215602   0.036   6.643   2.225
 4721SOL     OW15603   0.893   7.249   2.190
 4721SOL    HW115604   0.816   7.232   2.136
 4721SOL    HW215605   0.863   7.314   2.254
 4722SOL     OW15606   0.227   6.277   3.792
 4722SOL    HW115607   0.167   6.265   3.866
 4722SOL    HW215608   0.251   6.188   3.766
 4723SOL     OW15609   0.239   5.855   4.708
 4723SOL    HW115610   0.263   5.826   4.796
 4723SOL    HW215611   0.155   5.811   4.691
 4724SOL     OW15612   8.004   5.985   4.325
 4724SOL    HW115613   7.921   5.971   4.370
 4724SOL    HW215614   8.005   5.921   4.254
 4725SOL     OW15615   0.571   6.888   4.917
 4725SOL    HW115616   0.485   6.893   4.875
 4725SOL    HW215617   0.590   6.977   4.945
 4726SOL     OW15618   1.576   7.104   4.438
 4726SOL    HW115619   1.532   7.078   4.519
 4726SOL    HW215620   1.505   7.106   4.373
 4727SOL     OW15621   1.128   6.288   4.415
 4727SOL    HW115622   1.177   6.370   4.407
 4727SOL    HW215623   1.082   6.296   4.498
 4728SOL     OW15624   1.757   6.197   3.957
 4728SOL    HW115625   1.737   6.185   3.864
 4728SOL    HW215626   1.729   6.114   3.997
 4729SOL     OW15627   0.734   6.719   4.770
 4729SOL    HW115628   0.673   6.758   4.833
 4729SOL    HW215629   0.777   6.794   4.729
 4730SOL     OW15630   0.880   6.342   5.551
 4730SOL    HW115631   0.883   6.411   5.617
 4730SOL    HW215632   0.901   6.386   5.469
 4731SOL     OW15633   0.690   6.583   4.367
 4731SOL    HW115634   0.757   6.576   4.435
 4731SOL    HW215635   0.622   6.639   4.406
 4732SOL     OW15636   0.711   6.733   5.545
 4732SOL    HW115637   0.758   6.810   5.576
 4732SOL    HW215638   0.632   6.768   5.503
 4733SOL     OW15639   0.333   7.000   4.793
 4733SOL    HW115640   0.274   6.948   4.739
 4733SOL    HW215641   0.380   7.055   4.730
 4734SOL     OW15642   1.459   7.091   5.088
 4734SOL    HW115643   1.514   7.169   5.098
 4734SOL    HW215644   1.392   7.100   5.155
 4735SOL     OW15645   0.447   5.972   5.209
 4735SOL    HW115646   0.529   5.923   5.215
 4735SOL    HW215647   0.379   5.906   5.221
 4736SOL     OW15648   1.603   6.022   4.475
 4736SOL    HW115649   1.538   6.044   4.408
 4736SOL    HW215650   1.590   6.088   4.543
 4737SOL     OW15651   0.234   7.282   4.207
 4737SOL    HW115652   0.228   7.366   4.252
 4737SOL    HW215653   0.300   7.296   4.139
 4738SOL     OW15654   1.137   6.929   5.420
 4738SOL    HW115655   1.183   6.919   5.503
 4738SOL    HW215656   1.085   6.849   5.411
 4739SOL     OW15657   0.301   7.020   4.234
 4739SOL    HW115658   0.274   7.111   4.243
 4739SOL    HW215659   0.246   6.972   4.296
 4740SOL     OW15660   0.281   6.671   4.621
 4740SOL    HW115661   0.279   6.580   4.648
 4740SOL    HW215662   0.209   6.712   4.669
 4741SOL     OW15663   0.596   7.388   5.129
 4741SOL    HW115664   0.521   7.365   5.184
 4741SOL    HW215665   0.628   7.471   5.165
 4742SOL     OW15666   0.571   6.579   3.868
 4742SOL    HW115667   0.625   6.619   3.800
 4742SOL    HW215668   0.613   6.606   3.950
 4743SOL     OW15669   1.581   5.719   5.178
 4743SOL    HW115670   1.632   5.787   5.133
 4743SOL    HW215671   1.568   5.753   5.266
 4744SOL     OW15672   0.138   6.222   4.268
 4744SOL    HW115673   0.097   6.139   4.295
 4744SOL    HW215674   0.123   6.281   4.341
 4745SOL     OW15675   1.848   7.333   4.050
 4745SOL    HW115676   1.916   7.309   4.113
 4745SOL    HW215677   1.864   7.425   4.032
 4746SOL     OW15678   0.022   7.169   3.860
 4746SOL    HW115679   0.003   7.076   3.848
 4746SOL    HW215680   0.010   7.184   3.954
 4747SOL     OW15681   1.695   6.501   4.377
 4747SOL    HW115682   1.780   6.458   4.380
 4747SOL    HW215683   1.690   6.539   4.289
 4748SOL     OW15684   1.650   6.707   4.144
 4748SOL    HW115685   1.709   6.755   4.086
 4748SOL    HW215686   1.656   6.753   4.228
 4749SOL     OW15687   0.153   6.349   5.316
 4749SOL    HW115688   0.249   6.344   5.316
 4749SOL    HW215689   0.133   6.434   5.355
 4750SOL     OW15690   0.617   6.981   4.461
 4750SOL    HW115691   0.575   6.896   4.468
 4750SOL    HW215692   0.605   7.007   4.370
 4751SOL     OW15693   1.284   6.820   5.141
 4751SOL    HW115694   1.314   6.751   5.082
 4751SOL    HW215695   1.343   6.815   5.216
 4752SOL     OW15696   0.824   5.588   4.229
 4752SOL    HW115697   0.866   5.672   4.210
 4752SOL    HW215698   0.731   5.609   4.237
 4753SOL     OW15699   0.184   6.519   4.982
 4753SOL    HW115700   0.277   6.496   4.987
 4753SOL    HW215701   0.150   6.466   4.910
 4754SOL     OW15702   1.531   6.588   3.926
 4754SOL    HW115703   1.460   6.532   3.956
 4754SOL    HW215704   1.573   6.618   4.007
 4755SOL     OW15705   1.179   7.395   5.353
 4755SOL    HW115706   1.187   7.458   5.282
 4755SOL    HW215707   1.200   7.311   5.313
 4756SOL     OW15708   0.364   5.845   5.563
 4756SOL    HW115709   0.415   5.919   5.596
 4756SOL    HW215710   0.273   5.871   5.578
 4757SOL     OW15711   1.467   7.002   4.668
 4757SOL    HW115712   1.403   7.019   4.737
 4757SOL    HW215713   1.452   6.911   4.643
 4758SOL     OW15714   1.654   7.344   4.300
 4758SOL    HW115715   1.628   7.309   4.215
 4758SOL    HW215716   1.639   7.272   4.361
 4759SOL     OW15717   0.588   6.293   3.988
 4759SOL    HW115718   0.596   6.381   3.952
 4759SOL    HW215719   0.529   6.303   4.063
 4760SOL     OW15720   1.278   5.961   4.659
 4760SOL    HW115721   1.191   5.924   4.671
 4760SOL    HW215722   1.334   5.907   4.715
 4761SOL     OW15723   1.579   7.261   4.037
 4761SOL    HW115724   1.672   7.284   4.030
 4761SOL    HW215725   1.551   7.248   3.946
 4762SOL     OW15726   0.782   6.206   5.169
 4762SOL    HW115727   0.761   6.176   5.257
 4762SOL    HW215728   0.756   6.133   5.112
 4763SOL     OW15729   1.393   6.056   5.402
 4763SOL    HW115730   1.400   6.101   5.486
 4763SOL    HW215731   1.447   5.978   5.411
 4764SOL     OW15732   0.949   6.467   5.313
 4764SOL    HW115733   1.005   6.400   5.273
 4764SOL    HW215734   0.899   6.504   5.240
 4765SOL     OW15735   0.996   6.000   4.949
 4765SOL    HW115736   0.905   6.010   4.977
 4765SOL    HW215737   0.992   5.946   4.871
 4766SOL     OW15738   1.053   6.286   4.146
 4766SOL    HW115739   1.074   6.281   4.239
 4766SOL    HW215740   0.971   6.239   4.137
 4767SOL     OW15741   0.100   6.374   4.497
 4767SOL    HW115742   0.181   6.381   4.548
 4767SOL    HW215743   0.046   6.447   4.526
 4768SOL     OW15744   0.123   7.413   5.309
 4768SOL    HW115745   0.139   7.376   5.396
 4768SOL    HW215746   0.038   7.457   5.317
 4769SOL     OW15747   0.901   5.934   3.920
 4769SOL    HW115748   0.941   5.996   3.859
 4769SOL    HW215749   0.920   5.848   3.883
 4770SOL     OW15750   1.692   6.153   5.559
 4770SOL    HW115751   1.664   6.227   5.506
 4770SOL    HW215752   1.728   6.091   5.496
 4771SOL     OW15753   1.382   6.730   4.266
 4771SOL    HW115754   1.461   6.722   4.214
 4771SOL    HW215755   1.327   6.792   4.218
 4772SOL     OW15756   0.556   5.760   4.627
 4772SOL    HW115757   0.559   5.785   4.719
 4772SOL    HW215758   0.556   5.843   4.579
 4773SOL     OW15759   0.995   7.030   4.188
 4773SOL    HW115760   0.969   7.107   4.137
 4773SOL    HW215761   0.971   7.052   4.278
 4774SOL     OW15762   0.362   7.413   4.587
 4774SOL    HW115763   0.409   7.331   4.600
 4774SOL    HW215764   0.425   7.481   4.609
 4775SOL     OW15765   1.796   6.650   4.593
 4775SOL    HW115766   1.739   6.620   4.522
 4775SOL    HW215767   1.739   6.654   4.670
 4776SOL     OW15768   1.223   7.127   5.238
 4776SOL    HW115769   1.214   7.057   5.302
 4776SOL    HW215770   1.161   7.105   5.169
 4777SOL     OW15771   0.305   6.534   3.963
 4777SOL    HW115772   0.391   6.560   3.933
 4777SOL    HW215773   0.285   6.455   3.914
 4778SOL     OW15774   1.478   6.342   4.445
 4778SOL    HW115775   1.478   6.296   4.529
 4778SOL    HW215776   1.558   6.393   4.446
 4779SOL     OW15777   0.467   6.856   5.467
 4779SOL    HW115778   0.442   6.863   5.375
 4779SOL    HW215779   0.385   6.839   5.513
 4780SOL     OW15780   1.128   7.368   3.944
 4780SOL    HW115781   1.051   7.332   3.988
 4780SOL    HW215782   1.152   7.301   3.880
 4781SOL     OW15783   0.196   5.838   5.224
 4781SOL    HW115784   0.170   5.906   5.287
 4781SOL    HW215785   0.166   5.756   5.264
 4782SOL     OW15786   1.622   6.980   3.821
 4782SOL    HW115787   1.580   7.065   3.806
 4782SOL    HW215788   1.555   6.916   3.797
 4783SOL     OW15789   0.454   7.334   4.034
 4783SOL    HW115790   0.501   7.381   4.102
 4783SOL    HW215791   0.522   7.289   3.984
 4784SOL     OW15792   1.402   5.695   4.168
 4784SOL    HW115793   1.403   5.666   4.077
 4784SOL    HW215794   1.493   5.691   4.196
 4785SOL     OW15795   0.240   7.365   4.947
 4785SOL    HW115796   0.299   7.295   4.975
 4785SOL    HW215797   0.220   7.345   4.856
 4786SOL     OW15798   0.940   7.286   4.620
 4786SOL    HW115799   1.020   7.240   4.644
 4786SOL    HW215800   0.903   7.234   4.548
 4787SOL     OW15801   0.409   6.283   4.199
 4787SOL    HW115802   0.425   6.190   4.213
 4787SOL    HW215803   0.316   6.294   4.218
 4788SOL     OW15804   1.529   5.810   5.447
 4788SOL    HW115805   1.533   5.836   5.539
 4788SOL    HW215806   1.483   5.725   5.448
 4789SOL     OW15807   0.651   5.702   3.824
 4789SOL    HW115808   0.711   5.631   3.844
 4789SOL    HW215809   0.597   5.669   3.752
 4790SOL     OW15810   0.758   5.866   5.482
 4790SOL    HW115811   0.842   5.820   5.475
 4790SOL    HW215812   0.716   5.828   5.558
 4791SOL     OW15813   0.876   7.110   4.919
 4791SOL    HW115814   0.859   7.069   4.834
 4791SOL    HW215815   0.945   7.055   4.958
 4792SOL     OW15816   1.337   6.178   5.162
 4792SOL    HW115817   1.370   6.142   5.244
 4792SOL    HW215818   1.381   6.263   5.154
 4793SOL     OW15819   0.819   6.971   4.675
 4793SOL    HW115820   0.905   6.960   4.633
 4793SOL    HW215821   0.758   6.982   4.602
 4794SOL     OW15822   0.929   6.098   4.622
 4794SOL    HW115823   0.904   6.085   4.531
 4794SOL    HW215824   0.959   6.012   4.652
 4795SOL     OW15825   0.555   5.649   4.217
 4795SOL    HW115826   0.477   5.650   4.272
 4795SOL    HW215827   0.546   5.726   4.161
 4796SOL     OW15828   1.429   6.790   3.763
 4796SOL    HW115829   1.458   6.715   3.814
 4796SOL    HW215830   1.343   6.813   3.799
 4797SOL     OW15831   0.282   5.635   3.899
 4797SOL    HW115832   0.340   5.705   3.870
 4797SOL    HW215833   0.339   5.575   3.948
 4798SOL     OW15834   0.946   5.836   4.179
 4798SOL    HW115835   0.923   5.875   4.095
 4798SOL    HW215836   1.040   5.849   4.187
 4799SOL     OW15837   1.082   6.271   5.177
 4799SOL    HW115838   1.025   6.195   5.187
 4799SOL    HW215839   1.171   6.236   5.175
 4800SOL     OW15840   1.216   7.158   4.519
 4800SOL    HW115841   1.231   7.225   4.452
 4800SOL    HW215842   1.285   7.173   4.583
 4801SOL     OW15843   0.477   6.743   4.447
 4801SOL    HW115844   0.415   6.720   4.516
 4801SOL    HW215845   0.430   6.723   4.365
 4802SOL     OW15846   1.260   7.374   4.340
 4802SOL    HW115847   1.309   7.435   4.286
 4802SOL    HW215848   1.191   7.426   4.381
 4803SOL     OW15849   1.030   6.114   3.751
 4803SOL    HW115850   0.986   6.198   3.739
 4803SOL    HW215851   1.091   6.129   3.823
 4804SOL     OW15852   0.098   6.214   5.090
 4804SOL    HW115853   0.185   6.180   5.071
 4804SOL    HW215854   0.108   6.260   5.174
 4805SOL     OW15855   0.562   5.809   4.901
 4805SOL    HW115856   0.605   5.740   4.951
 4805SOL    HW215857   0.470   5.804   4.927
 4806SOL     OW15858   0.866   6.041   4.362
 4806SOL    HW115859   0.824   6.097   4.296
 4806SOL    HW215860   0.891   5.962   4.315
 4807SOL     OW15861   1.017   5.647   4.474
 4807SOL    HW115862   0.961   5.635   4.398
 4807SOL    HW215863   0.997   5.573   4.531
 4808SOL     OW15864   1.430   6.742   4.582
 4808SOL    HW115865   1.370   6.669   4.596
 4808SOL    HW215866   1.440   6.747   4.487
 4809SOL     OW15867   1.467   6.195   4.685
 4809SOL    HW115868   1.407   6.122   4.693
 4809SOL    HW215869   1.524   6.188   4.762
 4810SOL     OW15870   1.867   6.397   4.110
 4810SOL    HW115871   1.890   6.328   4.173
 4810SOL    HW215872   1.822   6.351   4.039
 4811SOL     OW15873   0.489   7.005   3.868
 4811SOL    HW115874   0.409   6.977   3.912
 4811SOL    HW215875   0.492   6.954   3.787
 4812SOL     OW15876   1.680   6.854   4.362
 4812SOL    HW115877   1.774   6.849   4.382
 4812SOL    HW215878   1.654   6.942   4.392
 4813SOL     OW15879   1.391   6.158   3.786
 4813SOL    HW115880   1.333   6.133   3.858
 4813SOL    HW215881   1.477   6.124   3.812
 4814SOL     OW15882   0.524   5.843   4.028
 4814SOL    HW115883   0.578   5.798   3.963
 4814SOL    HW215884   0.500   5.926   3.986
 4815SOL     OW15885   1.744   6.832   5.277
 4815SOL    HW115886   1.829   6.790   5.282
 4815SOL    HW215887   1.760   6.922   5.307
 4816SOL     OW15888   1.053   6.940   5.056
 4816SOL    HW115889   0.977   6.907   5.104
 4816SOL    HW215890   1.128   6.896   5.096
 4817SOL     OW15891   1.605   7.221   5.384
 4817SOL    HW115892   1.598   7.254   5.295
 4817SOL    HW215893   1.685   7.168   5.385
 4818SOL     OW15894   1.138   6.803   4.824
 4818SOL    HW115895   1.079   6.841   4.889
 4818SOL    HW215896   1.109   6.839   4.740
 4819SOL     OW15897   1.623   6.684   4.799
 4819SOL    HW115898   1.618   6.743   4.874
 4819SOL    HW215899   1.544   6.702   4.749
 4820SOL     OW15900   0.917   5.679   5.113
 4820SOL    HW115901   0.942   5.658   5.023
 4820SOL    HW215902   0.996   5.717   5.152
 4821SOL     OW15903   0.981   6.704   5.442
 4821SOL    HW115904   0.890   6.717   5.469
 4821SOL    HW215905   0.979   6.623   5.391
 4822SOL     OW15906   0.712   6.648   4.097
 4822SOL    HW115907   0.700   6.628   4.189
 4822SOL    HW215908   0.785   6.593   4.069
 4823SOL     OW15909   0.432   6.406   4.979
 4823SOL    HW115910   0.497   6.418   5.048
 4823SOL    HW215911   0.403   6.315   4.990
 4824SOL     OW15912   1.264   5.964   5.006
 4824SOL    HW115913   1.297   6.041   5.054
 4824SOL    HW215914   1.173   5.986   4.985
 4825SOL     OW15915   0.058   7.183   5.052
 4825SOL    HW115916   0.106   7.257   5.015
 4825SOL    HW215917   0.107   7.160   5.131
 4826SOL     OW15918   0.333   6.693   4.214
 4826SOL    HW115919   0.342   6.767   4.154
 4826SOL    HW215920   0.335   6.616   4.156
 4827SOL     OW15921   0.548   6.111   4.579
 4827SOL    HW115922   0.564   6.172   4.506
 4827SOL    HW215923   0.613   6.135   4.645
 4828SOL     OW15924   1.246   6.939   4.115
 4828SOL    HW115925   1.301   7.009   4.150
 4828SOL    HW215926   1.159   6.959   4.149
 4829SOL     OW15927   1.296   7.048   4.874
 4829SOL    HW115928   1.352   7.056   4.951
 4829SOL    HW215929   1.243   6.970   4.890
 4830SOL     OW15930   1.563   6.196   4.218
 4830SOL    HW115931   1.518   6.247   4.286
 4830SOL    HW215932   1.595   6.262   4.156
 4831SOL     OW15933   0.350   7.109   5.039
 4831SOL    HW115934   0.336   7.067   4.954
 4831SOL    HW215935   0.445   7.124   5.042
 4832SOL     OW15936   0.430   6.313   5.338
 4832SOL    HW115937   0.486   6.363   5.279
 4832SOL    HW215938   0.485   6.240   5.367
 4833SOL     OW15939   1.611   6.369   5.416
 4833SOL    HW115940   1.524   6.410   5.411
 4833SOL    HW215941   1.661   6.412   5.347
 4834SOL     OW15942   0.992   5.728   5.472
 4834SOL    HW115943   1.053   5.800   5.454
 4834SOL    HW215944   1.040   5.649   5.449
 4835SOL     OW15945   0.503   5.622   5.476
 4835SOL    HW115946   0.455   5.569   5.413
 4835SOL    HW215947   0.448   5.700   5.488
 4836SOL     OW15948   0.587   6.463   4.755
 4836SOL    HW115949   0.626   6.550   4.760
 4836SOL    HW215950   0.536   6.455   4.836
 4837SOL     OW15951   1.337   6.446   4.733
 4837SOL    HW115952   1.249   6.419   4.708
 4837SOL    HW215953   1.389   6.366   4.728
 4838SOL     OW15954   1.193   6.112   3.980
 4838SOL    HW115955   1.208   6.034   4.035
 4838SOL    HW215956   1.154   6.176   4.040
 4839SOL     OW15957   0.298   5.779   4.971
 4839SOL    HW115958   0.260   5.808   5.054
 4839SOL    HW215959   0.285   5.684   4.971
 4840SOL     OW15960   0.008   6.898   5.012
 4840SOL    HW115961   0.059   6.840   5.069
 4840SOL    HW215962   0.046   6.985   5.027
 4841SOL     OW15963   0.716   6.210   4.771
 4841SOL    HW115964   0.796   6.196   4.720
 4841SOL    HW215965   0.693   6.301   4.754
 4842SOL     OW15966   1.740   6.552   5.584
 4842SOL    HW115967   1.701   6.479   5.535
 4842SOL    HW215968   1.680   6.566   5.657
 4843SOL     OW15969   0.308   5.656   4.339
 4843SOL    HW115970   0.284   5.745   4.364
 4843SOL    HW215971   0.317   5.610   4.423
 4844SOL     OW15972   1.627   5.969   4.076
 4844SOL    HW115973   1.656   5.897   4.131
 4844SOL    HW215974   1.597   6.036   4.138
 4845SOL     OW15975   1.029   6.345   4.684
 4845SOL    HW115976   1.016   6.361   4.778
 4845SOL    HW215977   1.003   6.254   4.672
 4846SOL     OW15978   0.978   7.149   5.451
 4846SOL    HW115979   0.962   7.193   5.367
 4846SOL    HW215980   1.023   7.068   5.428
 4847SOL     OW15981   1.843   7.090   5.328
 4847SOL    HW115982   1.872   7.115   5.240
 4847SOL    HW215983   1.922   7.098   5.382
 4848SOL     OW15984   0.370   6.530   5.516
 4848SOL    HW115985   0.442   6.543   5.579
 4848SOL    HW215986   0.393   6.450   5.470
 4849SOL     OW15987   1.512   5.870   3.845
 4849SOL    HW115988   1.462   5.794   3.874
 4849SOL    HW215989   1.556   5.902   3.924
 4850SOL     OW15990   1.282   6.407   3.746
 4850SOL    HW115991   1.325   6.322   3.755
 4850SOL    HW215992   1.319   6.444   3.666
 4851SOL     OW15993   1.069   6.928   4.581
 4851SOL    HW115994   1.077   6.856   4.519
 4851SOL    HW215995   1.126   6.996   4.546
 4852SOL     OW15996   0.319   6.390   4.668
 4852SOL    HW115997   0.412   6.412   4.671
 4852SOL    HW215998   0.315   6.300   4.700
 4853SOL     OW15999   0.332   6.106   4.738
 4853SOL    HW116000   0.298   6.018   4.723
 4853SOL    HW216001   0.408   6.112   4.680
 4854SOL     OW16002   1.134   5.962   5.407
 4854SOL    HW116003   1.090   6.013   5.475
 4854SOL    HW216004   1.223   5.996   5.405
 4855SOL     OW16005   1.158   5.786   5.193
 4855SOL    HW116006   1.149   5.848   5.266
 4855SOL    HW216007   1.207   5.834   5.127
 4856SOL     OW16008   7.980   6.887   3.920
 4856SOL    HW116009   7.891   6.908   3.949
 4856SOL    HW216010   7.989   6.793   3.937
 4857SOL     OW16011   0.112   7.329   4.671
 4857SOL    HW116012   0.113   7.255   4.609
 4857SOL    HW216013   0.185   7.384   4.643
 4858SOL     OW16014   0.489   7.161   4.629
 4858SOL    HW116015   0.557   7.224   4.652
 4858SOL    HW216016   0.532   7.099   4.571
 4859SOL     OW16017   0.963   6.372   4.949
 4859SOL    HW116018   1.027   6.353   5.017
 4859SOL    HW216019   0.883   6.326   4.977
 4860SOL     OW16020   0.071   6.139   4.833
 4860SOL    HW116021   0.164   6.128   4.818
 4860SOL    HW216022   0.063   6.158   4.926
 4861SOL     OW16023   0.191   6.082   5.383
 4861SOL    HW116024   0.282   6.080   5.353
 4861SOL    HW216025   0.163   6.172   5.366
 4862SOL     OW16026   1.380   6.518   5.380
 4862SOL    HW116027   1.404   6.610   5.376
 4862SOL    HW216028   1.379   6.488   5.289
 4863SOL     OW16029   0.817   6.154   4.090
 4863SOL    HW116030   0.826   6.078   4.032
 4863SOL    HW216031   0.741   6.201   4.057
 4864SOL     OW16032   1.642   6.187   4.897
 4864SOL    HW116033   1.636   6.128   4.972
 4864SOL    HW216034   1.731   6.175   4.864
 4865SOL     OW16035   0.279   7.123   5.438
 4865SOL    HW116036   0.250   7.189   5.501
 4865SOL    HW216037   0.283   7.042   5.489
 4866SOL     OW16038   0.717   6.028   4.974
 4866SOL    HW116039   0.661   5.954   4.951
 4866SOL    HW216040   0.706   6.090   4.902
 4867SOL     OW16041   0.908   7.264   5.206
 4867SOL    HW116042   0.890   7.221   5.122
 4867SOL    HW216043   0.910   7.357   5.185
 4868SOL     OW16044   0.449   6.068   3.888
 4868SOL    HW116045   0.503   6.143   3.910
 4868SOL    HW216046   0.367   6.083   3.935
 4869SOL     OW16047   0.146   6.720   5.167
 4869SOL    HW116048   0.137   6.677   5.252
 4869SOL    HW216049   0.159   6.649   5.105
 4870SOL     OW16050   1.318   6.628   4.937
 4870SOL    HW116051   1.336   6.564   4.868
 4870SOL    HW216052   1.254   6.687   4.898
 4871SOL     OW16053   1.317   6.446   4.024
 4871SOL    HW116054   1.250   6.411   4.082
 4871SOL    HW216055   1.286   6.426   3.935
 4872SOL     OW16056   1.776   7.323   4.877
 4872SOL    HW116057   1.839   7.345   4.809
 4872SOL    HW216058   1.752   7.232   4.858
 4873SOL     OW16059   1.238   7.315   4.819
 4873SOL    HW116060   1.323   7.343   4.784
 4873SOL    HW216061   1.252   7.224   4.844
 4874SOL     OW16062   0.074   6.795   4.757
 4874SOL    HW116063   0.049   6.833   4.841
 4874SOL    HW216064  -0.004   6.806   4.702
 4875SOL     OW16065   0.686   7.258   5.468
 4875SOL    HW116066   0.629   7.334   5.454
 4875SOL    HW216067   0.761   7.274   5.411
 4876SOL     OW16068   1.720   5.750   4.218
 4876SOL    HW116069   1.793   5.729   4.159
 4876SOL    HW216070   1.702   5.668   4.263
 4877SOL     OW16071   1.393   7.154   4.218
 4877SOL    HW116072   1.451   7.191   4.150
 4877SOL    HW216073   1.343   7.229   4.250
 4878SOL     OW16074   0.160   7.332   5.570
 4878SOL    HW116075   0.103   7.278   5.625
 4878SOL    HW216076   0.209   7.385   5.633
 4879SOL     OW16077   1.275   6.516   4.394
 4879SOL    HW116078   1.348   6.457   4.410
 4879SOL    HW216079   1.312   6.587   4.342
 4880SOL     OW16080   0.799   6.865   5.141
 4880SOL    HW116081   0.771   6.907   5.222
 4880SOL    HW216082   0.725   6.877   5.081
 4881SOL     OW16083   0.664   7.213   3.882
 4881SOL    HW116084   0.677   7.228   3.788
 4881SOL    HW216085   0.610   7.134   3.886
 4882SOL     OW16086   1.615   7.318   5.115
 4882SOL    HW116087   1.671   7.320   5.037
 4882SOL    HW216088   1.601   7.410   5.138
 4883SOL     OW16089   1.841   5.754   4.685
 4883SOL    HW116090   1.876   5.667   4.667
 4883SOL    HW216091   1.753   5.753   4.647
 4884SOL     OW16092   0.258   5.907   4.432
 4884SOL    HW116093   0.171   5.942   4.414
 4884SOL    HW216094   0.260   5.895   4.527
 4885SOL     OW16095   1.209   7.182   3.757
 4885SOL    HW116096   1.196   7.091   3.786
 4885SOL    HW216097   1.140   7.196   3.692
 4886SOL     OW16098   0.824   6.593   5.104
 4886SOL    HW116099   0.873   6.579   5.023
 4886SOL    HW216100   0.822   6.688   5.115
 4887SOL     OW16101   0.913   6.491   4.008
 4887SOL    HW116102   0.975   6.527   3.945
 4887SOL    HW216103   0.963   6.428   4.059
 4888SOL     OW16104   1.485   7.226   3.770
 4888SOL    HW116105   1.392   7.210   3.755
 4888SOL    HW216106   1.523   7.229   3.683
 4889SOL     OW16107   0.361   6.890   5.222
 4889SOL    HW116108   0.355   6.965   5.163
 4889SOL    HW216109   0.290   6.832   5.194
 4890SOL     OW16110   1.606   6.870   5.007
 4890SOL    HW116111   1.664   6.850   5.081
 4890SOL    HW216112   1.547   6.938   5.039
 4891SOL     OW16113   1.066   6.698   4.436
 4891SOL    HW116114   0.993   6.649   4.475
 4891SOL    HW216115   1.132   6.632   4.415
 4892SOL     OW16116   1.024   5.832   4.694
 4892SOL    HW116117   1.023   5.787   4.610
 4892SOL    HW216118   1.021   5.762   4.759
 4893SOL     OW16119   0.608   7.071   4.205
 4893SOL    HW116120   0.657   7.025   4.136
 4893SOL    HW216121   0.518   7.075   4.172
 4894SOL     OW16122   1.731   5.986   5.102
 4894SOL    HW116123   1.807   6.044   5.104
 4894SOL    HW216124   1.758   5.914   5.045
 4895SOL     OW16125   0.248   6.924   3.989
 4895SOL    HW116126   0.152   6.928   3.984
 4895SOL    HW216127   0.269   6.963   4.074
 4896SOL     OW16128   0.122   6.598   5.417
 4896SOL    HW116129   0.071   6.661   5.468
 4896SOL    HW216130   0.204   6.588   5.466
 4897SOL     OW16131   0.679   5.786   5.222
 4897SOL    HW116132   0.763   5.760   5.184
 4897SOL    HW216133   0.701   5.813   5.311
 4898SOL     OW16134   0.114   5.952   3.741
 4898SOL    HW116135   0.040   5.986   3.791
 4898SOL    HW216136   0.114   6.003   3.660
 4899SOL     OW16137   1.422   6.446   5.120
 4899SOL    HW116138   1.375   6.507   5.064
 4899SOL    HW216139   1.512   6.446   5.086
 4900SOL     OW16140   0.095   5.829   4.082
 4900SOL    HW116141   0.049   5.808   4.000
 4900SOL    HW216142   0.175   5.775   4.078
 4901SOL     OW16143   1.178   6.916   3.844
 4901SOL    HW116144   1.089   6.882   3.848
 4901SOL    HW216145   1.206   6.920   3.936
 4902SOL     OW16146   0.621   6.422   5.169
 4902SOL    HW116147   0.679   6.496   5.154
 4902SOL    HW216148   0.678   6.345   5.172
 4903SOL     OW16149   1.487   7.378   4.714
 4903SOL    HW116150   1.511   7.446   4.652
 4903SOL    HW216151   1.571   7.348   4.749
 4904SOL     OW16152   0.710   6.144   5.425
 4904SOL    HW116153   0.762   6.199   5.484
 4904SOL    HW216154   0.728   6.055   5.454
 4905SOL     OW16155   1.472   6.780   5.349
 4905SOL    HW116156   1.463   6.793   5.443
 4905SOL    HW216157   1.565   6.797   5.332
 4906SOL     OW16158   0.382   7.327   5.284
 4906SOL    HW116159   0.294   7.359   5.266
 4906SOL    HW216160   0.369   7.240   5.323
 4907SOL     OW16161   1.660   6.462   4.977
 4907SOL    HW116162   1.661   6.375   4.937
 4907SOL    HW216163   1.655   6.522   4.903
 4908SOL     OW16164   1.218   5.907   4.175
 4908SOL    HW116165   1.280   5.834   4.171
 4908SOL    HW216166   1.245   5.956   4.253
 4909SOL     OW16167   0.595   6.319   4.401
 4909SOL    HW116168   0.635   6.405   4.390
 4909SOL    HW216169   0.531   6.313   4.330
 4910SOL     OW16170   1.757   5.952   5.377
 4910SOL    HW116171   1.743   5.969   5.284
 4910SOL    HW216172   1.685   5.893   5.402
 4911SOL     OW16173   1.734   6.524   5.233
 4911SOL    HW116174   1.735   6.619   5.238
 4911SOL    HW216175   1.722   6.505   5.140
 4912SOL     OW16176   0.858   6.947   3.772
 4912SOL    HW116177   0.827   6.964   3.860
 4912SOL    HW216178   0.873   7.034   3.734
 4913SOL     OW16179   0.664   7.368   4.652
 4913SOL    HW116180   0.648   7.462   4.640
 4913SOL    HW216181   0.759   7.359   4.653
 4914SOL     OW16182   0.873   6.559   4.577
 4914SOL    HW116183   0.922   6.486   4.614
 4914SOL    HW216184   0.830   6.599   4.653
 4915SOL     OW16185   1.075   6.573   3.809
 4915SOL    HW116186   1.057   6.626   3.732
 4915SOL    HW216187   1.149   6.518   3.784
 4916SOL     OW16188   1.847   7.128   4.558
 4916SOL    HW116189   1.759   7.124   4.520
 4916SOL    HW216190   1.843   7.071   4.634
 4917SOL     OW16191   0.214   6.886   5.577
 4917SOL    HW116192   0.121   6.870   5.560
 4917SOL    HW216193   0.221   6.888   5.673
 4918SOL     OW16194   0.137   6.851   4.373
 4918SOL    HW116195   0.060   6.811   4.413
 4918SOL    HW216196   0.197   6.778   4.358
 4919SOL     OW16197   0.680   6.997   5.349
 4919SOL    HW116198   0.605   6.955   5.390
 4919SOL    HW216199   0.686   7.083   5.391
 4920SOL     OW16200   1.796   5.770   4.956
 4920SOL    HW116201   1.819   5.680   4.978
 4920SOL    HW216202   1.813   5.778   4.862
 4921SOL     OW16203   0.435   6.021   4.245
 4921SOL    HW116204   0.468   5.946   4.196
 4921SOL    HW216205   0.384   5.982   4.317
 4922SOL     OW16206   1.699   7.069   4.812
 4922SOL    HW116207   1.619   7.046   4.766
 4922SOL    HW216208   1.709   7.001   4.879
 4923SOL     OW16209   0.352   6.146   5.020
 4923SOL    HW116210   0.394   6.086   5.081
 4923SOL    HW216211   0.369   6.107   4.934
 4924SOL     OW16212   0.837   7.171   4.394
 4924SOL    HW116213   0.815   7.245   4.338
 4924SOL    HW216214   0.759   7.115   4.392
 4925SOL     OW16215   1.432   5.823   4.838
 4925SOL    HW116216   1.466   5.744   4.880
 4925SOL    HW216217   1.382   5.868   4.906
 4926SOL     OW16218   1.009   5.605   4.858
 4926SOL    HW116219   0.954   5.537   4.819
 4926SOL    HW216220   1.098   5.567   4.857
 4927SOL     OW16221   0.779   6.918   4.042
 4927SOL    HW116222   0.755   6.826   4.057
 4927SOL    HW216223   0.857   6.931   4.097
 4928SOL     OW16224   0.621   7.146   5.006
 4928SOL    HW116225   0.618   7.231   5.049
 4928SOL    HW216226   0.711   7.138   4.974
 4929SOL     OW16227   1.372   5.631   3.897
 4929SOL    HW116228   1.415   5.551   3.865
 4929SOL    HW216229   1.281   5.605   3.910
 4930SOL     OW16230   1.287   6.051   4.398
 4930SOL    HW116231   1.235   6.132   4.405
 4930SOL    HW216232   1.287   6.016   4.487
 4931SOL     OW16233   1.579   5.771   4.605
 4931SOL    HW116234   1.528   5.799   4.681
 4931SOL    HW216235   1.584   5.849   4.549
 4932SOL     OW16236   0.041   6.620   4.002
 4932SOL    HW116237   0.134   6.605   3.987
 4932SOL    HW216238   0.033   6.633   4.097
 4933SOL     OW16239   0.893   7.248   4.050
 4933SOL    HW116240   0.815   7.232   3.997
 4933SOL    HW216241   0.866   7.311   4.116
 4934SOL     OW16242   0.233   6.276   5.668
 4934SOL    HW116243   0.206   6.223   5.743
 4934SOL    HW216244   0.244   6.213   5.597
 4935SOL     OW16245   7.981   5.985   6.192
 4935SOL    HW116246   7.894   5.985   6.232
 4935SOL    HW216247   7.995   5.895   6.163
 4936SOL     OW16248   0.572   6.887   6.781
 4936SOL    HW116249   0.486   6.892   6.739
 4936SOL    HW216250   0.590   6.977   6.809
 4937SOL     OW16251   1.581   7.102   6.295
 4937SOL    HW116252   1.536   7.076   6.375
 4937SOL    HW216253   1.512   7.103   6.228
 4938SOL     OW16254   1.128   6.294   6.278
 4938SOL    HW116255   1.179   6.374   6.268
 4938SOL    HW216256   1.083   6.304   6.362
 4939SOL     OW16257   1.761   6.184   5.818
 4939SOL    HW116258   1.740   6.178   5.724
 4939SOL    HW216259   1.733   6.101   5.854
 4940SOL     OW16260   0.733   6.719   6.634
 4940SOL    HW116261   0.673   6.760   6.696
 4940SOL    HW216262   0.777   6.792   6.591
 4941SOL     OW16263   0.878   6.342   7.410
 4941SOL    HW116264   0.877   6.413   7.474
 4941SOL    HW216265   0.900   6.385   7.327
 4942SOL     OW16266   0.687   6.582   6.230
 4942SOL    HW116267   0.756   6.575   6.297
 4942SOL    HW216268   0.621   6.639   6.270
 4943SOL     OW16269   0.710   6.734   7.410
 4943SOL    HW116270   0.759   6.810   7.439
 4943SOL    HW216271   0.633   6.770   7.365
 4944SOL     OW16272   0.337   7.000   6.653
 4944SOL    HW116273   0.283   6.945   6.597
 4944SOL    HW216274   0.385   7.057   6.593
 4945SOL     OW16275   1.458   7.088   6.953
 4945SOL    HW116276   1.514   7.165   6.959
 4945SOL    HW216277   1.391   7.101   7.020
 4946SOL     OW16278   0.450   5.974   7.072
 4946SOL    HW116279   0.532   5.926   7.078
 4946SOL    HW216280   0.382   5.909   7.090
 4947SOL     OW16281   1.606   6.023   6.330
 4947SOL    HW116282   1.549   6.049   6.257
 4947SOL    HW216283   1.618   6.104   6.380
 4948SOL     OW16284   0.234   7.286   6.070
 4948SOL    HW116285   0.233   7.370   6.114
 4948SOL    HW216286   0.300   7.295   6.001
 4949SOL     OW16287   1.137   6.928   7.284
 4949SOL    HW116288   1.185   6.916   7.366
 4949SOL    HW216289   1.086   6.848   7.273
 4950SOL     OW16290   0.293   7.020   6.094
 4950SOL    HW116291   0.269   7.112   6.107
 4950SOL    HW216292   0.241   6.972   6.159
 4951SOL     OW16293   0.279   6.670   6.482
 4951SOL    HW116294   0.282   6.578   6.506
 4951SOL    HW216295   0.202   6.704   6.528
 4952SOL     OW16296   0.598   7.389   6.993
 4952SOL    HW116297   0.523   7.366   7.048
 4952SOL    HW216298   0.628   7.473   7.028
 4953SOL     OW16299   0.570   6.579   5.732
 4953SOL    HW116300   0.623   6.618   5.663
 4953SOL    HW216301   0.612   6.606   5.814
 4954SOL     OW16302   1.579   5.717   7.038
 4954SOL    HW116303   1.632   5.777   6.985
 4954SOL    HW216304   1.569   5.762   7.122
 4955SOL     OW16305   0.131   6.212   6.130
 4955SOL    HW116306   0.078   6.136   6.154
 4955SOL    HW216307   0.118   6.274   6.202
 4956SOL     OW16308   1.843   7.333   5.917
 4956SOL    HW116309   1.914   7.309   5.976
 4956SOL    HW216310   1.860   7.424   5.894
 4957SOL     OW16311   0.013   7.170   5.727
 4957SOL    HW116312  -0.001   7.076   5.715
 4957SOL    HW216313  -0.000   7.185   5.821
 4958SOL     OW16314   1.697   6.504   6.243
 4958SOL    HW116315   1.780   6.457   6.233
 4958SOL    HW216316   1.682   6.544   6.157
 4959SOL     OW16317   1.653   6.687   6.016
 4959SOL    HW116318   1.740   6.682   5.976
 4959SOL    HW216319   1.664   6.749   6.089
 4960SOL     OW16320   0.154   6.351   7.174
 4960SOL    HW116321   0.250   6.351   7.173
 4960SOL    HW216322   0.130   6.432   7.220
 4961SOL     OW16323   0.615   6.981   6.324
 4961SOL    HW116324   0.573   6.895   6.330
 4961SOL    HW216325   0.603   7.007   6.233
 4962SOL     OW16326   1.281   6.819   7.007
 4962SOL    HW116327   1.309   6.751   6.946
 4962SOL    HW216328   1.344   6.814   7.079
 4963SOL     OW16329   0.829   5.598   6.099
 4963SOL    HW116330   0.869   5.682   6.076
 4963SOL    HW216331   0.735   5.616   6.101
 4964SOL     OW16332   0.177   6.509   6.851
 4964SOL    HW116333   0.268   6.479   6.852
 4964SOL    HW216334   0.148   6.497   6.760
 4965SOL     OW16335   1.528   6.592   5.787
 4965SOL    HW116336   1.460   6.534   5.820
 4965SOL    HW216337   1.576   6.621   5.866
 4966SOL     OW16338   1.179   7.394   7.217
 4966SOL    HW116339   1.186   7.458   7.146
 4966SOL    HW216340   1.198   7.310   7.176
 4967SOL     OW16341   0.359   5.844   7.423
 4967SOL    HW116342   0.408   5.920   7.453
 4967SOL    HW216343   0.267   5.867   7.437
 4968SOL     OW16344   1.462   7.008   6.523
 4968SOL    HW116345   1.401   7.022   6.595
 4968SOL    HW216346   1.452   6.916   6.500
 4969SOL     OW16347   1.643   7.350   6.162
 4969SOL    HW116348   1.630   7.311   6.076
 4969SOL    HW216349   1.637   7.276   6.223
 4970SOL     OW16350   0.590   6.294   5.852
 4970SOL    HW116351   0.599   6.381   5.812
 4970SOL    HW216352   0.531   6.308   5.926
 4971SOL     OW16353   1.275   5.963   6.522
 4971SOL    HW116354   1.189   5.922   6.531
 4971SOL    HW216355   1.333   5.909   6.576
 4972SOL     OW16356   1.576   7.263   5.898
 4972SOL    HW116357   1.670   7.279   5.892
 4972SOL    HW216358   1.549   7.244   5.809
 4973SOL     OW16359   0.781   6.206   7.032
 4973SOL    HW116360   0.759   6.175   7.120
 4973SOL    HW216361   0.756   6.134   6.975
 4974SOL     OW16362   1.390   6.059   7.260
 4974SOL    HW116363   1.399   6.102   7.345
 4974SOL    HW216364   1.444   5.980   7.268
 4975SOL     OW16365   0.949   6.467   7.174
 4975SOL    HW116366   1.003   6.399   7.134
 4975SOL    HW216367   0.899   6.504   7.101
 4976SOL     OW16368   0.996   6.000   6.811
 4976SOL    HW116369   0.904   6.007   6.837
 4976SOL    HW216370   0.995   5.949   6.730
 4977SOL     OW16371   1.054   6.287   6.008
 4977SOL    HW116372   1.075   6.282   6.102
 4977SOL    HW216373   0.972   6.239   6.000
 4978SOL     OW16374   0.104   6.376   6.354
 4978SOL    HW116375   0.183   6.387   6.406
 4978SOL    HW216376   0.053   6.456   6.371
 4979SOL     OW16377   0.127   7.423   7.153
 4979SOL    HW116378   0.133   7.402   7.246
 4979SOL    HW216379   0.042   7.388   7.125
 4980SOL     OW16380   0.898   5.938   5.784
 4980SOL    HW116381   0.941   5.998   5.723
 4980SOL    HW216382   0.905   5.852   5.742
 4981SOL     OW16383   1.697   6.162   7.426
 4981SOL    HW116384   1.667   6.235   7.371
 4981SOL    HW216385   1.726   6.096   7.363
 4982SOL     OW16386   1.386   6.727   6.121
 4982SOL    HW116387   1.467   6.713   6.072
 4982SOL    HW216388   1.336   6.788   6.068
 4983SOL     OW16389   0.505   5.787   6.495
 4983SOL    HW116390   0.542   5.802   6.582
 4983SOL    HW216391   0.529   5.865   6.445
 4984SOL     OW16392   0.997   7.031   6.052
 4984SOL    HW116393   0.971   7.107   6.000
 4984SOL    HW216394   0.973   7.054   6.142
 4985SOL     OW16395   0.361   7.413   6.448
 4985SOL    HW116396   0.407   7.330   6.460
 4985SOL    HW216397   0.427   7.480   6.468
 4986SOL     OW16398   1.802   6.646   6.468
 4986SOL    HW116399   1.755   6.620   6.388
 4986SOL    HW216400   1.736   6.645   6.536
 4987SOL     OW16401   1.221   7.127   7.101
 4987SOL    HW116402   1.212   7.055   7.164
 4987SOL    HW216403   1.165   7.102   7.028
 4988SOL     OW16404   0.298   6.525   5.818
 4988SOL    HW116405   0.385   6.553   5.791
 4988SOL    HW216406   0.279   6.448   5.764
 4989SOL     OW16407   1.479   6.348   6.313
 4989SOL    HW116408   1.482   6.302   6.397
 4989SOL    HW216409   1.562   6.397   6.311
 4990SOL     OW16410   0.464   6.856   7.331
 4990SOL    HW116411   0.440   6.862   7.238
 4990SOL    HW216412   0.381   6.839   7.376
 4991SOL     OW16413   1.128   7.368   5.806
 4991SOL    HW116414   1.052   7.331   5.850
 4991SOL    HW216415   1.153   7.302   5.741
 4992SOL     OW16416   0.196   5.845   7.082
 4992SOL    HW116417   0.158   5.923   7.122
 4992SOL    HW216418   0.163   5.773   7.136
 4993SOL     OW16419   1.624   6.973   5.679
 4993SOL    HW116420   1.581   7.056   5.661
 4993SOL    HW216421   1.558   6.907   5.655
 4994SOL     OW16422   0.452   7.334   5.895
 4994SOL    HW116423   0.501   7.379   5.964
 4994SOL    HW216424   0.519   7.290   5.843
 4995SOL     OW16425   1.402   5.695   6.030
 4995SOL    HW116426   1.400   5.666   5.938
 4995SOL    HW216427   1.495   5.690   6.054
 4996SOL     OW16428   0.237   7.366   6.812
 4996SOL    HW116429   0.291   7.293   6.841
 4996SOL    HW216430   0.213   7.343   6.722
 4997SOL     OW16431   0.943   7.284   6.481
 4997SOL    HW116432   1.028   7.242   6.496
 4997SOL    HW216433   0.903   7.233   6.410
 4998SOL     OW16434   0.407   6.282   6.064
 4998SOL    HW116435   0.426   6.189   6.075
 4998SOL    HW216436   0.313   6.290   6.080
 4999SOL     OW16437   1.525   5.813   7.307
 4999SOL    HW116438   1.527   5.834   7.400
 4999SOL    HW216439   1.483   5.727   7.302
 5000SOL     OW16440   0.651   5.697   5.690
 5000SOL    HW116441   0.703   5.621   5.716
 5000SOL    HW216442   0.598   5.667   5.617
 5001SOL     OW16443   0.761   5.867   7.344
 5001SOL    HW116444   0.844   5.820   7.338
 5001SOL    HW216445   0.717   5.828   7.420
 5002SOL     OW16446   0.876   7.110   6.782
 5002SOL    HW116447   0.860   7.070   6.697
 5002SOL    HW216448   0.946   7.057   6.821
 5003SOL     OW16449   1.336   6.180   7.019
 5003SOL    HW116450   1.369   6.145   7.102
 5003SOL    HW216451   1.380   6.264   7.010
 5004SOL     OW16452   0.818   6.970   6.537
 5004SOL    HW116453   0.904   6.960   6.496
 5004SOL    HW216454   0.758   6.982   6.463
 5005SOL     OW16455   0.925   6.094   6.484
 5005SOL    HW116456   0.901   6.084   6.392
 5005SOL    HW216457   0.959   6.009   6.510
 5006SOL     OW16458   0.561   5.653   6.080
 5006SOL    HW116459   0.479   5.651   6.129
 5006SOL    HW216460   0.551   5.727   6.020
 5007SOL     OW16461   1.428   6.787   5.621
 5007SOL    HW116462   1.462   6.714   5.673
 5007SOL    HW216463   1.344   6.809   5.661
 5008SOL     OW16464   0.282   5.640   5.761
 5008SOL    HW116465   0.340   5.698   5.712
 5008SOL    HW216466   0.340   5.581   5.808
 5009SOL     OW16467   0.947   5.842   6.041
 5009SOL    HW116468   0.925   5.877   5.955
 5009SOL    HW216469   1.042   5.853   6.047
 5010SOL     OW16470   1.080   6.270   7.040
 5010SOL    HW116471   1.025   6.192   7.041
 5010SOL    HW216472   1.169   6.236   7.034
 5011SOL     OW16473   1.209   7.165   6.386
 5011SOL    HW116474   1.227   7.228   6.316
 5011SOL    HW216475   1.287   7.165   6.440
 5012SOL     OW16476   0.475   6.743   6.309
 5012SOL    HW116477   0.413   6.720   6.378
 5012SOL    HW216478   0.429   6.724   6.228
 5013SOL     OW16479   1.260   7.377   6.201
 5013SOL    HW116480   1.309   7.438   6.146
 5013SOL    HW216481   1.192   7.431   6.243
 5014SOL     OW16482   1.028   6.113   5.615
 5014SOL    HW116483   0.987   6.198   5.598
 5014SOL    HW216484   1.093   6.131   5.683
 5015SOL     OW16485   0.102   6.200   6.956
 5015SOL    HW116486   0.191   6.174   6.933
 5015SOL    HW216487   0.112   6.255   7.034
 5016SOL     OW16488   0.573   5.806   6.762
 5016SOL    HW116489   0.617   5.731   6.803
 5016SOL    HW216490   0.483   5.802   6.796
 5017SOL     OW16491   0.861   6.042   6.223
 5017SOL    HW116492   0.826   6.097   6.152
 5017SOL    HW216493   0.892   5.962   6.179
 5018SOL     OW16494   0.995   5.651   6.343
 5018SOL    HW116495   0.951   5.632   6.259
 5018SOL    HW216496   0.986   5.569   6.393
 5019SOL     OW16497   1.441   6.745   6.441
 5019SOL    HW116498   1.374   6.677   6.438
 5019SOL    HW216499   1.474   6.751   6.351
 5020SOL     OW16500   1.465   6.203   6.554
 5020SOL    HW116501   1.412   6.123   6.551
 5020SOL    HW216502   1.524   6.190   6.628
 5021SOL     OW16503   1.830   6.397   5.971
 5021SOL    HW116504   1.889   6.349   6.030
 5021SOL    HW216505   1.805   6.333   5.905
 5022SOL     OW16506   0.489   7.008   5.731
 5022SOL    HW116507   0.409   6.977   5.772
 5022SOL    HW216508   0.500   6.953   5.653
 5023SOL     OW16509   1.688   6.849   6.228
 5023SOL    HW116510   1.782   6.843   6.243
 5023SOL    HW216511   1.666   6.940   6.248
 5024SOL     OW16512   1.395   6.162   5.655
 5024SOL    HW116513   1.337   6.133   5.726
 5024SOL    HW216514   1.481   6.128   5.679
 5025SOL     OW16515   0.530   5.847   5.892
 5025SOL    HW116516   0.580   5.798   5.827
 5025SOL    HW216517   0.505   5.927   5.846
 5026SOL     OW16518   1.747   6.830   7.147
 5026SOL    HW116519   1.833   6.793   7.133
 5026SOL    HW216520   1.764   6.920   7.174
 5027SOL     OW16521   1.053   6.945   6.923
 5027SOL    HW116522   0.976   6.909   6.969
 5027SOL    HW216523   1.127   6.897   6.961
 5028SOL     OW16524   1.608   7.219   7.248
 5028SOL    HW116525   1.598   7.253   7.159
 5028SOL    HW216526   1.689   7.167   7.245
 5029SOL     OW16527   1.141   6.809   6.689
 5029SOL    HW116528   1.077   6.845   6.750
 5029SOL    HW216529   1.112   6.841   6.603
 5030SOL     OW16530   1.612   6.673   6.662
 5030SOL    HW116531   1.604   6.736   6.733
 5030SOL    HW216532   1.541   6.694   6.602
 5031SOL     OW16533   0.913   5.681   6.970
 5031SOL    HW116534   0.938   5.656   6.881
 5031SOL    HW216535   0.993   5.718   7.008
 5032SOL     OW16536   0.982   6.701   7.308
 5032SOL    HW116537   0.891   6.716   7.332
 5032SOL    HW216538   0.980   6.621   7.254
 5033SOL     OW16539   0.711   6.648   5.960
 5033SOL    HW116540   0.699   6.627   6.053
 5033SOL    HW216541   0.786   6.596   5.932
 5034SOL     OW16542   0.427   6.400   6.840
 5034SOL    HW116543   0.494   6.414   6.907
 5034SOL    HW216544   0.403   6.308   6.849
 5035SOL     OW16545   1.263   5.958   6.873
 5035SOL    HW116546   1.297   6.037   6.915
 5035SOL    HW216547   1.174   5.981   6.848
 5036SOL     OW16548   0.045   7.182   6.912
 5036SOL    HW116549   0.105   7.253   6.886
 5036SOL    HW216550   0.084   7.146   6.992
 5037SOL     OW16551   0.330   6.691   6.077
 5037SOL    HW116552   0.345   6.762   6.014
 5037SOL    HW216553   0.336   6.612   6.024
 5038SOL     OW16554   0.550   6.111   6.450
 5038SOL    HW116555   0.562   6.171   6.377
 5038SOL    HW216556   0.618   6.136   6.513
 5039SOL     OW16557   1.248   6.939   5.976
 5039SOL    HW116558   1.304   7.007   6.012
 5039SOL    HW216559   1.161   6.958   6.011
 5040SOL     OW16560   1.297   7.048   6.735
 5040SOL    HW116561   1.352   7.052   6.813
 5040SOL    HW216562   1.247   6.966   6.745
 5041SOL     OW16563   1.574   6.196   6.084
 5041SOL    HW116564   1.525   6.257   6.139
 5041SOL    HW216565   1.627   6.252   6.027
 5042SOL     OW16566   0.349   7.119   6.897
 5042SOL    HW116567   0.333   7.071   6.816
 5042SOL    HW216568   0.445   7.128   6.900
 5043SOL     OW16569   0.432   6.316   7.200
 5043SOL    HW116570   0.487   6.365   7.139
 5043SOL    HW216571   0.487   6.244   7.229
 5044SOL     OW16572   1.614   6.375   7.278
 5044SOL    HW116573   1.527   6.415   7.268
 5044SOL    HW216574   1.666   6.412   7.207
 5045SOL     OW16575   0.994   5.725   7.340
 5045SOL    HW116576   1.054   5.797   7.318
 5045SOL    HW216577   1.038   5.646   7.310
 5046SOL     OW16578   0.502   5.622   7.338
 5046SOL    HW116579   0.454   5.569   7.274
 5046SOL    HW216580   0.447   5.700   7.350
 5047SOL     OW16581   0.591   6.465   6.619
 5047SOL    HW116582   0.630   6.552   6.623
 5047SOL    HW216583   0.536   6.459   6.697
 5048SOL     OW16584   1.338   6.446   6.604
 5048SOL    HW116585   1.255   6.425   6.561
 5048SOL    HW216586   1.391   6.366   6.596
 5049SOL     OW16587   1.194   6.111   5.844
 5049SOL    HW116588   1.208   6.033   5.898
 5049SOL    HW216589   1.155   6.174   5.904
 5050SOL     OW16590   0.307   5.776   6.835
 5050SOL    HW116591   0.266   5.817   6.912
 5050SOL    HW216592   0.309   5.683   6.856
 5051SOL     OW16593   0.040   6.894   6.857
 5051SOL    HW116594   0.069   6.840   6.930
 5051SOL    HW216595   0.049   6.984   6.889
 5052SOL     OW16596   0.722   6.212   6.638
 5052SOL    HW116597   0.799   6.195   6.584
 5052SOL    HW216598   0.699   6.303   6.618
 5053SOL     OW16599   1.746   6.547   7.453
 5053SOL    HW116600   1.706   6.480   7.397
 5053SOL    HW216601   1.679   6.564   7.520
 5054SOL     OW16602   0.318   5.649   6.205
 5054SOL    HW116603   0.281   5.736   6.220
 5054SOL    HW216604   0.328   5.612   6.293
 5055SOL     OW16605   1.624   5.965   5.940
 5055SOL    HW116606   1.657   5.894   5.996
 5055SOL    HW216607   1.599   6.034   6.001
 5056SOL     OW16608   1.023   6.345   6.542
 5056SOL    HW116609   1.015   6.360   6.636
 5056SOL    HW216610   1.001   6.252   6.531
 5057SOL     OW16611   0.978   7.148   7.313
 5057SOL    HW116612   0.962   7.192   7.230
 5057SOL    HW216613   1.025   7.068   7.289
 5058SOL     OW16614   1.846   7.089   7.189
 5058SOL    HW116615   1.872   7.113   7.099
 5058SOL    HW216616   1.927   7.099   7.240
 5059SOL     OW16617   0.368   6.532   7.375
 5059SOL    HW116618   0.440   6.545   7.437
 5059SOL    HW216619   0.392   6.453   7.327
 5060SOL     OW16620   1.511   5.867   5.709
 5060SOL    HW116621   1.459   5.792   5.738
 5060SOL    HW216622   1.554   5.898   5.788
 5061SOL     OW16623   1.281   6.408   5.612
 5061SOL    HW116624   1.324   6.323   5.619
 5061SOL    HW216625   1.316   6.446   5.532
 5062SOL     OW16626   1.068   6.928   6.446
 5062SOL    HW116627   1.075   6.856   6.383
 5062SOL    HW216628   1.123   6.997   6.409
 5063SOL     OW16629   0.323   6.394   6.525
 5063SOL    HW116630   0.417   6.414   6.523
 5063SOL    HW216631   0.319   6.306   6.563
 5064SOL     OW16632   0.319   6.090   6.579
 5064SOL    HW116633   0.267   6.047   6.511
 5064SOL    HW216634   0.406   6.097   6.542
 5065SOL     OW16635   1.133   5.960   7.273
 5065SOL    HW116636   1.089   6.013   7.338
 5065SOL    HW216637   1.221   5.997   7.265
 5066SOL     OW16638   1.152   5.783   7.059
 5066SOL    HW116639   1.146   5.846   7.130
 5066SOL    HW216640   1.203   5.828   6.991
 5067SOL     OW16641   7.976   6.893   5.781
 5067SOL    HW116642   7.887   6.909   5.810
 5067SOL    HW216643   7.992   6.800   5.801
 5068SOL     OW16644   0.111   7.333   6.533
 5068SOL    HW116645   0.115   7.252   6.482
 5068SOL    HW216646   0.186   7.384   6.503
 5069SOL     OW16647   0.489   7.163   6.490
 5069SOL    HW116648   0.558   7.225   6.515
 5069SOL    HW216649   0.532   7.101   6.432
 5070SOL     OW16650   0.964   6.374   6.810
 5070SOL    HW116651   1.028   6.356   6.878
 5070SOL    HW216652   0.886   6.324   6.836
 5071SOL     OW16653   0.071   6.122   6.700
 5071SOL    HW116654   0.164   6.111   6.682
 5071SOL    HW216655   0.066   6.148   6.792
 5072SOL     OW16656   0.194   6.093   7.259
 5072SOL    HW116657   0.284   6.086   7.226
 5072SOL    HW216658   0.165   6.180   7.232
 5073SOL     OW16659   1.381   6.520   7.242
 5073SOL    HW116660   1.404   6.613   7.236
 5073SOL    HW216661   1.378   6.490   7.151
 5074SOL     OW16662   0.817   6.153   5.957
 5074SOL    HW116663   0.830   6.079   5.898
 5074SOL    HW216664   0.742   6.201   5.920
 5075SOL     OW16665   1.642   6.186   6.765
 5075SOL    HW116666   1.635   6.123   6.837
 5075SOL    HW216667   1.730   6.173   6.730
 5076SOL     OW16668   0.294   7.117   7.305
 5076SOL    HW116669   0.258   7.191   7.354
 5076SOL    HW216670   0.286   7.043   7.365
 5077SOL     OW16671   0.717   6.029   6.838
 5077SOL    HW116672   0.666   5.953   6.811
 5077SOL    HW216673   0.708   6.091   6.766
 5078SOL     OW16674   0.903   7.265   7.071
 5078SOL    HW116675   0.891   7.219   6.988
 5078SOL    HW216676   0.906   7.358   7.047
 5079SOL     OW16677   0.454   6.069   5.753
 5079SOL    HW116678   0.509   6.144   5.772
 5079SOL    HW216679   0.370   6.089   5.795
 5080SOL     OW16680   0.153   6.711   7.038
 5080SOL    HW116681   0.134   6.664   7.120
 5080SOL    HW216682   0.161   6.642   6.972
 5081SOL     OW16683   1.311   6.627   6.805
 5081SOL    HW116684   1.332   6.563   6.736
 5081SOL    HW216685   1.251   6.688   6.763
 5082SOL     OW16686   1.313   6.448   5.886
 5082SOL    HW116687   1.245   6.405   5.938
 5082SOL    HW216688   1.290   6.427   5.796
 5083SOL     OW16689   1.788   7.321   6.750
 5083SOL    HW116690   1.847   7.344   6.679
 5083SOL    HW216691   1.754   7.235   6.727
 5084SOL     OW16692   1.240   7.317   6.691
 5084SOL    HW116693   1.323   7.345   6.651
 5084SOL    HW216694   1.253   7.224   6.710
 5085SOL     OW16695   0.062   6.774   6.617
 5085SOL    HW116696   0.058   6.818   6.702
 5085SOL    HW216697  -0.009   6.813   6.567
 5086SOL     OW16698   0.689   7.259   7.333
 5086SOL    HW116699   0.630   7.331   7.310
 5086SOL    HW216700   0.764   7.269   7.274
 5087SOL     OW16701   1.725   5.750   6.082
 5087SOL    HW116702   1.795   5.729   6.021
 5087SOL    HW216703   1.706   5.667   6.126
 5088SOL     OW16704   1.395   7.154   6.082
 5088SOL    HW116705   1.451   7.188   6.013
 5088SOL    HW216706   1.344   7.229   6.112
 5089SOL     OW16707   0.181   7.334   7.421
 5089SOL    HW116708   0.122   7.282   7.475
 5089SOL    HW216709   0.226   7.392   7.483
 5090SOL     OW16710   1.278   6.523   6.263
 5090SOL    HW116711   1.350   6.462   6.277
 5090SOL    HW216712   1.314   6.589   6.204
 5091SOL     OW16713   0.798   6.865   7.004
 5091SOL    HW116714   0.770   6.907   7.085
 5091SOL    HW216715   0.726   6.878   6.943
 5092SOL     OW16716   0.663   7.218   5.743
 5092SOL    HW116717   0.680   7.230   5.649
 5092SOL    HW216718   0.610   7.138   5.747
 5093SOL     OW16719   1.615   7.314   6.979
 5093SOL    HW116720   1.674   7.316   6.903
 5093SOL    HW216721   1.599   7.406   6.999
 5094SOL     OW16722   1.841   5.754   6.554
 5094SOL    HW116723   1.875   5.667   6.533
 5094SOL    HW216724   1.755   5.756   6.510
 5095SOL     OW16725   0.244   5.905   6.290
 5095SOL    HW116726   0.182   5.953   6.234
 5095SOL    HW216727   0.190   5.873   6.362
 5096SOL     OW16728   1.207   7.181   5.620
 5096SOL    HW116729   1.196   7.090   5.648
 5096SOL    HW216730   1.139   7.194   5.554
 5097SOL     OW16731   0.823   6.593   6.966
 5097SOL    HW116732   0.871   6.578   6.884
 5097SOL    HW216733   0.822   6.688   6.975
 5098SOL     OW16734   0.916   6.497   5.877
 5098SOL    HW116735   0.975   6.529   5.809
 5098SOL    HW216736   0.967   6.430   5.924
 5099SOL     OW16737   1.483   7.229   5.633
 5099SOL    HW116738   1.390   7.210   5.616
 5099SOL    HW216739   1.523   7.230   5.546
 5100SOL     OW16740   0.364   6.888   7.082
 5100SOL    HW116741   0.352   6.965   7.026
 5100SOL    HW216742   0.293   6.829   7.058
 5101SOL     OW16743   1.597   6.865   6.860
 5101SOL    HW116744   1.670   6.855   6.921
 5101SOL    HW216745   1.543   6.933   6.900
 5102SOL     OW16746   1.064   6.700   6.300
 5102SOL    HW116747   0.993   6.648   6.336
 5102SOL    HW216748   1.132   6.637   6.277
 5103SOL     OW16749   1.020   5.830   6.558
 5103SOL    HW116750   1.014   5.786   6.474
 5103SOL    HW216751   1.021   5.759   6.623
 5104SOL     OW16752   0.609   7.071   6.067
 5104SOL    HW116753   0.663   7.024   6.003
 5104SOL    HW216754   0.523   7.078   6.027
 5105SOL     OW16755   1.737   5.979   6.970
 5105SOL    HW116756   1.811   6.039   6.967
 5105SOL    HW216757   1.761   5.907   6.911
 5106SOL     OW16758   0.247   6.924   5.849
 5106SOL    HW116759   0.151   6.926   5.844
 5106SOL    HW216760   0.268   6.961   5.934
 5107SOL     OW16761   0.109   6.589   7.297
 5107SOL    HW116762   0.073   6.672   7.329
 5107SOL    HW216763   0.195   6.583   7.339
 5108SOL     OW16764   0.679   5.789   7.086
 5108SOL    HW116765   0.762   5.764   7.045
 5108SOL    HW216766   0.704   5.816   7.175
 5109SOL     OW16767   0.118   5.955   5.615
 5109SOL    HW116768   0.038   5.984   5.658
 5109SOL    HW216769   0.118   6.001   5.531
 5110SOL     OW16770   1.423   6.446   6.983
 5110SOL    HW116771   1.373   6.505   6.927
 5110SOL    HW216772   1.511   6.446   6.945
 5111SOL     OW16773   0.128   5.828   5.920
 5111SOL    HW116774   0.062   5.814   5.852
 5111SOL    HW216775   0.201   5.772   5.895
 5112SOL     OW16776   1.181   6.914   5.707
 5112SOL    HW116777   1.097   6.869   5.712
 5112SOL    HW216778   1.210   6.920   5.798
 5113SOL     OW16779   0.619   6.422   7.028
 5113SOL    HW116780   0.677   6.496   7.013
 5113SOL    HW216781   0.678   6.346   7.030
 5114SOL     OW16782   1.485   7.379   6.577
 5114SOL    HW116783   1.511   7.443   6.511
 5114SOL    HW216784   1.566   7.334   6.600
 5115SOL     OW16785   0.707   6.144   7.288
 5115SOL    HW116786   0.760   6.200   7.345
 5115SOL    HW216787   0.728   6.055   7.317
 5116SOL     OW16788   1.475   6.780   7.211
 5116SOL    HW116789   1.467   6.795   7.306
 5116SOL    HW216790   1.567   6.798   7.191
 5117SOL     OW16791   0.387   7.329   7.152
 5117SOL    HW116792   0.299   7.360   7.129
 5117SOL    HW216793   0.373   7.240   7.186
 5118SOL     OW16794   1.660   6.460   6.844
 5118SOL    HW116795   1.661   6.373   6.803
 5118SOL    HW216796   1.651   6.521   6.770
 5119SOL     OW16797   1.218   5.906   6.038
 5119SOL    HW116798   1.281   5.834   6.033
 5119SOL    HW216799   1.245   5.955   6.115
 5120SOL     OW16800   0.582   6.323   6.274
 5120SOL    HW116801   0.629   6.405   6.258
 5120SOL    HW216802   0.524   6.313   6.199
 5121SOL     OW16803   1.751   5.959   7.247
 5121SOL    HW116804   1.746   5.972   7.153
 5121SOL    HW216805   1.679   5.898   7.266
 5122SOL     OW16806   1.753   6.519   7.095
 5122SOL    HW116807   1.741   6.614   7.103
 5122SOL    HW216808   1.733   6.499   7.004
 5123SOL     OW16809   0.845   6.953   5.628
 5123SOL    HW116810   0.825   6.977   5.718
 5123SOL    HW216811   0.876   7.034   5.587
 5124SOL     OW16812   0.666   7.368   6.519
 5124SOL    HW116813   0.652   7.461   6.500
 5124SOL    HW216814   0.761   7.357   6.516
 5125SOL     OW16815   0.870   6.558   6.438
 5125SOL    HW116816   0.920   6.484   6.473
 5125SOL    HW216817   0.830   6.597   6.515
 5126SOL     OW16818   1.070   6.572   5.669
 5126SOL    HW116819   1.054   6.623   5.590
 5126SOL    HW216820   1.146   6.517   5.647
 5127SOL     OW16821   1.853   7.132   6.427
 5127SOL    HW116822   1.770   7.117   6.383
 5127SOL    HW216823   1.869   7.053   6.479
 5128SOL     OW16824   0.210   6.887   7.448
 5128SOL    HW116825   0.120   6.874   7.418
 5128SOL    HW216826   0.205   6.878   7.543
 5129SOL     OW16827   0.136   6.849   6.238
 5129SOL    HW116828   0.060   6.804   6.276
 5129SOL    HW216829   0.197   6.778   6.215
 5130SOL     OW16830   0.681   6.995   7.215
 5130SOL    HW116831   0.601   6.956   7.251
 5130SOL    HW216832   0.686   7.081   7.257
 5131SOL     OW16833   1.797   5.760   6.824
 5131SOL    HW116834   1.810   5.666   6.836
 5131SOL    HW216835   1.813   5.775   6.731
 5132SOL     OW16836   0.436   6.019   6.107
 5132SOL    HW116837   0.474   5.951   6.051
 5132SOL    HW216838   0.395   5.971   6.179
 5133SOL     OW16839   1.682   7.081   6.685
 5133SOL    HW116840   1.611   7.055   6.626
 5133SOL    HW216841   1.696   7.005   6.741
 5134SOL     OW16842   0.354   6.136   6.872
 5134SOL    HW116843   0.398   6.083   6.938
 5134SOL    HW216844   0.371   6.091   6.790
 5135SOL     OW16845   0.835   7.173   6.257
 5135SOL    HW116846   0.816   7.247   6.199
 5135SOL    HW216847   0.758   7.117   6.250
 5136SOL     OW16848   1.428   5.819   6.695
 5136SOL    HW116849   1.449   5.729   6.722
 5136SOL    HW216850   1.383   5.857   6.770
 5137SOL     OW16851   1.007   5.598   6.718
 5137SOL    HW116852   0.958   5.532   6.669
 5137SOL    HW216853   1.096   5.562   6.724
 5138SOL     OW16854   0.779   6.919   5.910
 5138SOL    HW116855   0.756   6.827   5.920
 5138SOL    HW216856   0.860   6.929   5.960
 5139SOL     OW16857   0.622   7.145   6.870
 5139SOL    HW116858   0.620   7.231   6.913
 5139SOL    HW216859   0.711   7.137   6.837
 5140SOL     OW16860   1.369   5.630   5.761
 5140SOL    HW116861   1.411   5.553   5.725
 5140SOL    HW216862   1.278   5.604   5.774
 5141SOL     OW16863   1.281   6.052   6.260
 5141SOL    HW116864   1.233   6.134   6.268
 5141SOL    HW216865   1.286   6.018   6.349
 5142SOL     OW16866   1.583   5.777   6.465
 5142SOL    HW116867   1.529   5.804   6.539
 5142SOL    HW216868   1.585   5.855   6.408
 5143SOL     OW16869   0.047   6.641   5.865
 5143SOL    HW116870   0.134   6.609   5.842
 5143SOL    HW216871   0.043   6.635   5.960
 5144SOL     OW16872   0.893   7.248   5.913
 5144SOL    HW116873   0.815   7.232   5.860
 5144SOL    HW216874   0.865   7.311   5.979
 5145SOL     OW16875   0.239   6.281   7.533
 5145SOL    HW116876   0.209   6.226   7.606
 5145SOL    HW216877   0.236   6.222   7.457
 5146SOL     OW16878   0.237   5.854   8.430
 5146SOL    HW116879   0.256   5.823   8.519
 5146SOL    HW216880   0.156   5.809   8.405
 5147SOL     OW16881   8.004   5.974   8.056
 5147SOL    HW116882   7.915   5.962   8.088
 5147SOL    HW216883   8.011   5.913   7.981
 5148SOL     OW16884   0.570   6.884   8.637
 5148SOL    HW116885   0.481   6.885   8.601
 5148SOL    HW216886   0.587   6.974   8.663
 5149SOL     OW16887   1.568   7.104   8.157
 5149SOL    HW116888   1.524   7.080   8.239
 5149SOL    HW216889   1.499   7.106   8.091
 5150SOL     OW16890   1.135   6.285   8.140
 5150SOL    HW116891   1.182   6.367   8.127
 5150SOL    HW216892   1.087   6.298   8.222
 5151SOL     OW16893   1.763   6.183   7.685
 5151SOL    HW116894   1.742   6.186   7.592
 5151SOL    HW216895   1.738   6.094   7.712
 5152SOL     OW16896   0.741   6.719   8.494
 5152SOL    HW116897   0.680   6.762   8.554
 5152SOL    HW216898   0.779   6.791   8.443
 5153SOL     OW16899   0.879   6.344   9.270
 5153SOL    HW116900   0.884   6.417   9.332
 5153SOL    HW216901   0.898   6.385   9.185
 5154SOL     OW16902   0.687   6.582   8.093
 5154SOL    HW116903   0.757   6.576   8.159
 5154SOL    HW216904   0.622   6.641   8.132
 5155SOL     OW16905   0.714   6.738   9.274
 5155SOL    HW116906   0.766   6.813   9.303
 5155SOL    HW216907   0.639   6.775   9.228
 5156SOL     OW16908   0.325   7.010   8.514
 5156SOL    HW116909   0.279   6.945   8.460
 5156SOL    HW216910   0.378   7.059   8.452
 5157SOL     OW16911   1.457   7.085   8.813
 5157SOL    HW116912   1.510   7.165   8.820
 5157SOL    HW216913   1.386   7.099   8.876
 5158SOL     OW16914   0.442   5.971   8.967
 5158SOL    HW116915   0.518   5.914   8.954
 5158SOL    HW216916   0.367   5.915   8.948
 5159SOL     OW16917   1.656   6.025   8.171
 5159SOL    HW116918   1.613   6.066   8.095
 5159SOL    HW216919   1.635   6.083   8.244
 5160SOL     OW16920   1.140   6.928   9.146
 5160SOL    HW116921   1.181   6.916   9.231
 5160SOL    HW216922   1.090   6.848   9.132
 5161SOL     OW16923   0.244   7.099   7.984
 5161SOL    HW116924   0.150   7.081   7.978
 5161SOL    HW216925   0.277   7.031   8.042
 5162SOL     OW16926   0.281   6.669   8.346
 5162SOL    HW116927   0.280   6.576   8.370
 5162SOL    HW216928   0.203   6.705   8.389
 5163SOL     OW16929   0.590   7.394   8.854
 5163SOL    HW116930   0.518   7.368   8.911
 5163SOL    HW216931   0.622   7.476   8.891
 5164SOL     OW16932   0.570   6.578   7.595
 5164SOL    HW116933   0.622   6.619   7.526
 5164SOL    HW216934   0.612   6.605   7.676
 5165SOL     OW16935   1.588   5.719   8.905
 5165SOL    HW116936   1.626   5.793   8.857
 5165SOL    HW216937   1.572   5.753   8.993
 5166SOL     OW16938   0.134   6.215   7.993
 5166SOL    HW116939   0.095   6.133   8.023
 5166SOL    HW216940   0.120   6.276   8.065
 5167SOL     OW16941   1.846   7.339   7.778
 5167SOL    HW116942   1.918   7.316   7.836
 5167SOL    HW216943   1.864   7.429   7.752
 5168SOL     OW16944   0.039   7.173   7.590
 5168SOL    HW116945   0.027   7.078   7.599
 5168SOL    HW216946  -0.025   7.211   7.650
 5169SOL     OW16947   1.694   6.506   8.083
 5169SOL    HW116948   1.761   6.459   8.033
 5169SOL    HW216949   1.657   6.568   8.020
 5170SOL     OW16950   1.649   6.694   7.877
 5170SOL    HW116951   1.735   6.691   7.836
 5170SOL    HW216952   1.657   6.758   7.947
 5171SOL     OW16953   0.146   6.352   9.026
 5171SOL    HW116954   0.242   6.358   9.023
 5171SOL    HW216955   0.118   6.432   9.070
 5172SOL     OW16956   0.597   6.988   8.170
 5172SOL    HW116957   0.563   6.899   8.181
 5172SOL    HW216958   0.585   7.007   8.077
 5173SOL     OW16959   1.284   6.812   8.875
 5173SOL    HW116960   1.311   6.747   8.810
 5173SOL    HW216961   1.350   6.806   8.944
 5174SOL     OW16962   0.828   5.596   7.971
 5174SOL    HW116963   0.868   5.678   7.941
 5174SOL    HW216964   0.734   5.613   7.969
 5175SOL     OW16965   0.172   6.502   8.711
 5175SOL    HW116966   0.265   6.479   8.711
 5175SOL    HW216967   0.145   6.494   8.619
 5176SOL     OW16968   1.530   6.590   7.648
 5176SOL    HW116969   1.463   6.530   7.681
 5176SOL    HW216970   1.572   6.623   7.727
 5177SOL     OW16971   1.180   7.394   9.080
 5177SOL    HW116972   1.186   7.458   9.009
 5177SOL    HW216973   1.198   7.310   9.037
 5178SOL     OW16974   0.352   5.839   9.276
 5178SOL    HW116975   0.378   5.908   9.214
 5178SOL    HW216976   0.263   5.863   9.302
 5179SOL     OW16977   1.482   7.001   8.401
 5179SOL    HW116978   1.404   7.027   8.450
 5179SOL    HW216979   1.462   6.912   8.370
 5180SOL     OW16980   1.645   7.346   8.023
 5180SOL    HW116981   1.630   7.311   7.936
 5180SOL    HW216982   1.627   7.272   8.082
 5181SOL     OW16983   0.591   6.296   7.716
 5181SOL    HW116984   0.597   6.382   7.673
 5181SOL    HW216985   0.530   6.309   7.788
 5182SOL     OW16986   1.283   5.960   8.386
 5182SOL    HW116987   1.194   5.926   8.391
 5182SOL    HW216988   1.333   5.903   8.445
 5183SOL     OW16989   1.578   7.271   7.758
 5183SOL    HW116990   1.672   7.288   7.750
 5183SOL    HW216991   1.550   7.251   7.668
 5184SOL     OW16992   0.783   6.199   8.903
 5184SOL    HW116993   0.754   6.169   8.989
 5184SOL    HW216994   0.754   6.130   8.843
 5185SOL     OW16995   1.390   6.059   9.124
 5185SOL    HW116996   1.398   6.104   9.208
 5185SOL    HW216997   1.446   5.982   9.132
 5186SOL     OW16998   0.947   6.468   9.032
 5186SOL    HW116999   1.001   6.401   8.992
 5186SOL    HW217000   0.901   6.509   8.959
 5187SOL     OW17001   0.995   5.993   8.676
 5187SOL    HW117002   0.903   6.006   8.700
 5187SOL    HW217003   0.991   5.953   8.589
 5188SOL     OW17004   1.055   6.284   7.871
 5188SOL    HW117005   1.074   6.278   7.964
 5188SOL    HW217006   0.971   6.239   7.860
 5189SOL     OW17007   0.103   6.375   8.218
 5189SOL    HW117008   0.183   6.383   8.270
 5189SOL    HW217009   0.052   6.452   8.240
 5190SOL     OW17010   0.116   7.398   9.009
 5190SOL    HW117011   0.132   7.388   9.103
 5190SOL    HW217012   0.022   7.383   8.999
 5191SOL     OW17013   0.901   5.937   7.645
 5191SOL    HW117014   0.943   6.000   7.586
 5191SOL    HW217015   0.902   5.854   7.597
 5192SOL     OW17016   1.692   6.156   9.283
 5192SOL    HW117017   1.665   6.231   9.230
 5192SOL    HW217018   1.725   6.093   9.219
 5193SOL     OW17019   1.384   6.727   7.987
 5193SOL    HW117020   1.462   6.717   7.932
 5193SOL    HW217021   1.329   6.790   7.940
 5194SOL     OW17022   0.558   5.756   8.343
 5194SOL    HW117023   0.558   5.794   8.431
 5194SOL    HW217024   0.555   5.831   8.284
 5195SOL     OW17025   1.004   7.028   7.899
 5195SOL    HW117026   0.981   7.105   7.847
 5195SOL    HW217027   0.964   7.043   7.985
 5196SOL     OW17028   0.353   7.408   8.311
 5196SOL    HW117029   0.395   7.323   8.320
 5196SOL    HW217030   0.421   7.471   8.337
 5197SOL     OW17031   1.802   6.628   8.320
 5197SOL    HW117032   1.752   6.612   8.240
 5197SOL    HW217033   1.736   6.638   8.388
 5198SOL     OW17034   1.222   7.127   8.963
 5198SOL    HW117035   1.214   7.054   9.026
 5198SOL    HW217036   1.165   7.102   8.891
 5199SOL     OW17037   0.301   6.519   7.678
 5199SOL    HW117038   0.389   6.545   7.650
 5199SOL    HW217039   0.281   6.442   7.626
 5200SOL     OW17040   1.482   6.344   8.168
 5200SOL    HW117041   1.485   6.298   8.252
 5200SOL    HW217042   1.562   6.396   8.166
 5201SOL     OW17043   0.461   6.849   9.193
 5201SOL    HW117044   0.440   6.854   9.100
 5201SOL    HW217045   0.377   6.841   9.237
 5202SOL     OW17046   1.128   7.367   7.668
 5202SOL    HW117047   1.051   7.330   7.711
 5202SOL    HW217048   1.153   7.301   7.603
 5203SOL     OW17049   0.189   5.861   8.936
 5203SOL    HW117050   0.116   5.922   8.926
 5203SOL    HW217051   0.152   5.787   8.984
 5204SOL     OW17052   1.629   6.974   7.550
 5204SOL    HW117053   1.589   7.058   7.527
 5204SOL    HW217054   1.565   6.908   7.524
 5205SOL     OW17055   0.439   7.328   7.777
 5205SOL    HW117056   0.495   7.379   7.835
 5205SOL    HW217057   0.499   7.288   7.715
 5206SOL     OW17058   1.400   5.683   7.889
 5206SOL    HW117059   1.386   5.664   7.796
 5206SOL    HW217060   1.486   5.644   7.907
 5207SOL     OW17061   0.266   7.376   8.675
 5207SOL    HW117062   0.309   7.306   8.725
 5207SOL    HW217063   0.214   7.330   8.609
 5208SOL     OW17064   0.408   6.283   7.928
 5208SOL    HW117065   0.428   6.190   7.939
 5208SOL    HW217066   0.313   6.288   7.942
 5209SOL     OW17067   1.525   5.812   9.170
 5209SOL    HW117068   1.532   5.834   9.263
 5209SOL    HW217069   1.471   5.734   9.167
 5210SOL     OW17070   0.654   5.696   7.550
 5210SOL    HW117071   0.711   5.622   7.569
 5210SOL    HW217072   0.598   5.667   7.477
 5211SOL     OW17073   0.767   5.867   9.205
 5211SOL    HW117074   0.849   5.819   9.198
 5211SOL    HW217075   0.721   5.826   9.278
 5212SOL     OW17076   0.880   7.129   8.687
 5212SOL    HW117077   0.895   7.165   8.600
 5212SOL    HW217078   0.953   7.069   8.701
 5213SOL     OW17079   1.334   6.176   8.880
 5213SOL    HW117080   1.367   6.145   8.964
 5213SOL    HW217081   1.374   6.262   8.869
 5214SOL     OW17082   0.808   6.955   8.368
 5214SOL    HW117083   0.863   7.033   8.372
 5214SOL    HW217084   0.750   6.969   8.293
 5215SOL     OW17085   0.926   6.094   8.345
 5215SOL    HW117086   0.902   6.086   8.253
 5215SOL    HW217087   0.957   6.006   8.369
 5216SOL     OW17088   0.563   5.650   7.941
 5216SOL    HW117089   0.481   5.648   7.990
 5216SOL    HW217090   0.554   5.724   7.881
 5217SOL     OW17091   1.433   6.792   7.485
 5217SOL    HW117092   1.462   6.715   7.535
 5217SOL    HW217093   1.347   6.813   7.522
 5218SOL     OW17094   0.283   5.637   7.620
 5218SOL    HW117095   0.340   5.700   7.578
 5218SOL    HW217096   0.342   5.580   7.669
 5219SOL     OW17097   0.947   5.839   7.902
 5219SOL    HW117098   0.923   5.873   7.816
 5219SOL    HW217099   1.042   5.852   7.907
 5220SOL     OW17100   1.077   6.269   8.902
 5220SOL    HW117101   1.018   6.194   8.903
 5220SOL    HW217102   1.164   6.230   8.895
 5221SOL     OW17103   1.244   7.144   8.231
 5221SOL    HW117104   1.249   7.214   8.167
 5221SOL    HW217105   1.197   7.182   8.305
 5222SOL     OW17106   0.472   6.742   8.168
 5222SOL    HW117107   0.410   6.718   8.237
 5222SOL    HW217108   0.428   6.719   8.087
 5223SOL     OW17109   1.260   7.372   8.060
 5223SOL    HW117110   1.302   7.440   8.007
 5223SOL    HW217111   1.187   7.416   8.102
 5224SOL     OW17112   1.026   6.116   7.478
 5224SOL    HW117113   0.983   6.199   7.457
 5224SOL    HW217114   1.094   6.140   7.542
 5225SOL     OW17115   0.112   6.162   8.834
 5225SOL    HW117116   0.203   6.156   8.806
 5225SOL    HW217117   0.112   6.234   8.898
 5226SOL     OW17118   0.564   5.814   8.618
 5226SOL    HW117119   0.606   5.733   8.648
 5226SOL    HW217120   0.473   5.805   8.644
 5227SOL     OW17121   0.865   6.042   8.084
 5227SOL    HW117122   0.825   6.098   8.017
 5227SOL    HW217123   0.892   5.964   8.036
 5228SOL     OW17124   1.012   5.646   8.196
 5228SOL    HW117125   0.954   5.638   8.120
 5228SOL    HW217126   0.993   5.568   8.248
 5229SOL     OW17127   1.446   6.745   8.302
 5229SOL    HW117128   1.359   6.705   8.299
 5229SOL    HW217129   1.471   6.754   8.211
 5230SOL     OW17130   1.470   6.193   8.406
 5230SOL    HW117131   1.407   6.121   8.411
 5230SOL    HW217132   1.523   6.185   8.485
 5231SOL     OW17133   1.834   6.401   7.834
 5231SOL    HW117134   1.906   6.359   7.881
 5231SOL    HW217135   1.807   6.337   7.769
 5232SOL     OW17136   0.483   7.011   7.595
 5232SOL    HW117137   0.408   6.973   7.640
 5232SOL    HW217138   0.494   6.958   7.516
 5233SOL     OW17139   1.678   6.851   8.092
 5233SOL    HW117140   1.773   6.852   8.106
 5233SOL    HW217141   1.650   6.940   8.113
 5234SOL     OW17142   1.394   6.160   7.516
 5234SOL    HW117143   1.336   6.133   7.587
 5234SOL    HW217144   1.479   6.121   7.538
 5235SOL     OW17145   0.531   5.843   7.753
 5235SOL    HW117146   0.581   5.795   7.687
 5235SOL    HW217147   0.507   5.925   7.710
 5236SOL     OW17148   1.747   6.829   9.001
 5236SOL    HW117149   1.834   6.791   8.992
 5236SOL    HW217150   1.763   6.919   9.032
 5237SOL     OW17151   1.062   6.951   8.799
 5237SOL    HW117152   0.986   6.911   8.840
 5237SOL    HW217153   1.136   6.897   8.828
 5238SOL     OW17154   1.611   7.219   9.113
 5238SOL    HW117155   1.598   7.251   9.024
 5238SOL    HW217156   1.691   7.166   9.109
 5239SOL     OW17157   1.144   6.803   8.561
 5239SOL    HW117158   1.065   6.839   8.603
 5239SOL    HW217159   1.136   6.831   8.469
 5240SOL     OW17160   1.620   6.679   8.521
 5240SOL    HW117161   1.611   6.744   8.591
 5240SOL    HW217162   1.548   6.699   8.460
 5241SOL     OW17163   0.916   5.675   8.837
 5241SOL    HW117164   0.937   5.654   8.746
 5241SOL    HW217165   0.997   5.713   8.872
 5242SOL     OW17166   0.985   6.699   9.171
 5242SOL    HW117167   0.893   6.717   9.192
 5242SOL    HW217168   0.982   6.622   9.115
 5243SOL     OW17169   0.711   6.647   7.822
 5243SOL    HW117170   0.700   6.626   7.915
 5243SOL    HW217171   0.786   6.595   7.795
 5244SOL     OW17172   0.429   6.410   8.706
 5244SOL    HW117173   0.497   6.424   8.772
 5244SOL    HW217174   0.405   6.318   8.715
 5245SOL     OW17175   1.262   5.954   8.734
 5245SOL    HW117176   1.295   6.033   8.776
 5245SOL    HW217177   1.172   5.975   8.710
 5246SOL     OW17178   0.057   7.187   8.766
 5246SOL    HW117179   0.058   7.271   8.813
 5246SOL    HW217180   0.129   7.137   8.805
 5247SOL     OW17181   0.336   6.688   7.931
 5247SOL    HW117182   0.352   6.749   7.860
 5247SOL    HW217183   0.340   6.601   7.891
 5248SOL     OW17184   0.548   6.118   8.313
 5248SOL    HW117185   0.561   6.176   8.238
 5248SOL    HW217186   0.618   6.140   8.374
 5249SOL     OW17187   1.254   6.934   7.841
 5249SOL    HW117188   1.308   7.006   7.873
 5249SOL    HW217189   1.165   6.956   7.872
 5250SOL     OW17190   1.289   7.058   8.593
 5250SOL    HW117191   1.345   7.054   8.671
 5250SOL    HW217192   1.236   6.978   8.598
 5251SOL     OW17193   1.585   6.190   7.952
 5251SOL    HW117194   1.527   6.246   8.002
 5251SOL    HW217195   1.614   6.244   7.878
 5252SOL     OW17196   0.344   7.111   8.765
 5252SOL    HW117197   0.326   7.071   8.680
 5252SOL    HW217198   0.439   7.121   8.767
 5253SOL     OW17199   0.425   6.332   9.056
 5253SOL    HW117200   0.489   6.376   8.999
 5253SOL    HW217201   0.463   6.246   9.073
 5254SOL     OW17202   1.615   6.372   9.138
 5254SOL    HW117203   1.528   6.412   9.129
 5254SOL    HW217204   1.666   6.412   9.067
 5255SOL     OW17205   0.997   5.723   9.204
 5255SOL    HW117206   1.056   5.795   9.183
 5255SOL    HW217207   1.043   5.644   9.174
 5256SOL     OW17208   0.498   5.619   9.209
 5256SOL    HW117209   0.453   5.567   9.142
 5256SOL    HW217210   0.443   5.696   9.221
 5257SOL     OW17211   0.593   6.462   8.483
 5257SOL    HW117212   0.632   6.550   8.481
 5257SOL    HW217213   0.536   6.463   8.559
 5258SOL     OW17214   1.341   6.437   8.473
 5258SOL    HW117215   1.259   6.428   8.424
 5258SOL    HW217216   1.390   6.357   8.453
 5259SOL     OW17217   1.201   6.111   7.709
 5259SOL    HW117218   1.208   6.032   7.763
 5259SOL    HW217219   1.158   6.175   7.767
 5260SOL     OW17220   0.307   5.775   8.696
 5260SOL    HW117221   0.259   5.809   8.771
 5260SOL    HW217222   0.283   5.682   8.692
 5261SOL     OW17223   0.042   6.893   8.721
 5261SOL    HW117224   0.070   6.832   8.789
 5261SOL    HW217225   0.041   6.978   8.764
 5262SOL     OW17226   0.724   6.215   8.504
 5262SOL    HW117227   0.799   6.202   8.445
 5262SOL    HW217228   0.694   6.304   8.484
 5263SOL     OW17229   1.744   6.547   9.312
 5263SOL    HW117230   1.704   6.479   9.258
 5263SOL    HW217231   1.680   6.565   9.381
 5264SOL     OW17232   0.321   5.656   8.062
 5264SOL    HW117233   0.287   5.742   8.084
 5264SOL    HW217234   0.324   5.610   8.146
 5265SOL     OW17235   1.623   5.957   7.807
 5265SOL    HW117236   1.645   5.888   7.869
 5265SOL    HW217237   1.596   6.031   7.861
 5266SOL     OW17238   1.029   6.342   8.401
 5266SOL    HW117239   1.020   6.359   8.495
 5266SOL    HW217240   1.002   6.251   8.390
 5267SOL     OW17241   0.979   7.146   9.174
 5267SOL    HW117242   0.959   7.192   9.092
 5267SOL    HW217243   1.027   7.068   9.147
 5268SOL     OW17244   1.847   7.085   9.053
 5268SOL    HW117245   1.870   7.113   8.964
 5268SOL    HW217246   1.928   7.097   9.103
 5269SOL     OW17247   0.356   6.514   9.257
 5269SOL    HW117248   0.439   6.543   9.294
 5269SOL    HW217249   0.379   6.448   9.192
 5270SOL     OW17250   1.508   5.866   7.571
 5270SOL    HW117251   1.456   5.791   7.598
 5270SOL    HW217252   1.552   5.894   7.651
 5271SOL     OW17253   1.286   6.410   7.475
 5271SOL    HW117254   1.328   6.324   7.479
 5271SOL    HW217255   1.319   6.449   7.394
 5272SOL     OW17256   1.134   6.897   8.312
 5272SOL    HW117257   1.098   6.842   8.242
 5272SOL    HW217258   1.164   6.976   8.267
 5273SOL     OW17259   0.321   6.391   8.390
 5273SOL    HW117260   0.415   6.409   8.385
 5273SOL    HW217261   0.316   6.302   8.424
 5274SOL     OW17262   0.333   6.103   8.470
 5274SOL    HW117263   0.297   6.017   8.450
 5274SOL    HW217264   0.409   6.112   8.412
 5275SOL     OW17265   1.134   5.957   9.138
 5275SOL    HW117266   1.088   6.013   9.201
 5275SOL    HW217267   1.221   5.996   9.130
 5276SOL     OW17268   1.157   5.779   8.924
 5276SOL    HW117269   1.148   5.844   8.994
 5276SOL    HW217270   1.203   5.825   8.854
 5277SOL     OW17271   7.988   6.907   7.678
 5277SOL    HW117272   7.892   6.911   7.688
 5277SOL    HW217273   8.007   6.813   7.683
 5278SOL     OW17274   0.097   7.360   8.393
 5278SOL    HW117275   0.098   7.264   8.399
 5278SOL    HW217276   0.183   7.383   8.357
 5279SOL     OW17277   0.481   7.164   8.347
 5279SOL    HW117278   0.551   7.223   8.377
 5279SOL    HW217279   0.525   7.103   8.288
 5280SOL     OW17280   0.968   6.369   8.667
 5280SOL    HW117281   1.027   6.352   8.741
 5280SOL    HW217282   0.886   6.327   8.691
 5281SOL     OW17283   0.074   6.145   8.565
 5281SOL    HW117284   0.166   6.132   8.544
 5281SOL    HW217285   0.070   6.142   8.660
 5282SOL     OW17286   0.204   6.110   9.144
 5282SOL    HW117287   0.256   6.069   9.074
 5282SOL    HW217288   0.165   6.187   9.103
 5283SOL     OW17289   1.381   6.516   9.104
 5283SOL    HW117290   1.405   6.609   9.099
 5283SOL    HW217291   1.377   6.487   9.013
 5284SOL     OW17292   0.817   6.154   7.817
 5284SOL    HW117293   0.828   6.080   7.758
 5284SOL    HW217294   0.742   6.203   7.783
 5285SOL     OW17295   1.639   6.184   8.624
 5285SOL    HW117296   1.631   6.126   8.699
 5285SOL    HW217297   1.728   6.170   8.591
 5286SOL     OW17298   0.293   7.117   9.171
 5286SOL    HW117299   0.253   7.190   9.220
 5286SOL    HW217300   0.281   7.041   9.227
 5287SOL     OW17301   0.714   6.030   8.702
 5287SOL    HW117302   0.661   5.956   8.672
 5287SOL    HW217303   0.708   6.094   8.631
 5288SOL     OW17304   0.896   7.265   8.936
 5288SOL    HW117305   0.889   7.215   8.855
 5288SOL    HW217306   0.900   7.357   8.908
 5289SOL     OW17307   0.457   6.067   7.618
 5289SOL    HW117308   0.511   6.144   7.635
 5289SOL    HW217309   0.373   6.087   7.659
 5290SOL     OW17310   0.155   6.706   8.897
 5290SOL    HW117311   0.132   6.661   8.978
 5290SOL    HW217312   0.160   6.636   8.832
 5291SOL     OW17313   1.316   6.624   8.670
 5291SOL    HW117314   1.334   6.561   8.600
 5291SOL    HW217315   1.254   6.686   8.631
 5292SOL     OW17316   1.320   6.438   7.750
 5292SOL    HW117317   1.244   6.407   7.799
 5292SOL    HW217318   1.296   6.424   7.658
 5293SOL     OW17319   1.794   7.315   8.617
 5293SOL    HW117320   1.850   7.342   8.544
 5293SOL    HW217321   1.760   7.230   8.591
 5294SOL     OW17322   1.266   7.340   8.595
 5294SOL    HW117323   1.343   7.357   8.541
 5294SOL    HW217324   1.256   7.245   8.593
 5295SOL     OW17325   0.067   6.782   8.475
 5295SOL    HW117326   0.059   6.825   8.560
 5295SOL    HW217327  -0.011   6.811   8.427
 5296SOL     OW17328   0.686   7.258   9.188
 5296SOL    HW117329   0.628   7.332   9.173
 5296SOL    HW217330   0.758   7.270   9.125
 5297SOL     OW17331   1.753   5.740   7.971
 5297SOL    HW117332   1.807   5.733   7.892
 5297SOL    HW217333   1.718   5.652   7.985
 5298SOL     OW17334   1.396   7.155   7.935
 5298SOL    HW117335   1.451   7.194   7.867
 5298SOL    HW217336   1.343   7.228   7.967
 5299SOL     OW17337   0.171   7.330   9.285
 5299SOL    HW117338   0.108   7.281   9.337
 5299SOL    HW217339   0.216   7.386   9.348
 5300SOL     OW17340   1.275   6.517   8.119
 5300SOL    HW117341   1.350   6.459   8.132
 5300SOL    HW217342   1.309   6.589   8.065
 5301SOL     OW17343   0.808   6.864   8.875
 5301SOL    HW117344   0.774   6.904   8.955
 5301SOL    HW217345   0.750   6.896   8.805
 5302SOL     OW17346   0.649   7.224   7.607
 5302SOL    HW117347   0.674   7.238   7.515
 5302SOL    HW217348   0.601   7.142   7.606
 5303SOL     OW17349   1.617   7.312   8.844
 5303SOL    HW117350   1.673   7.314   8.766
 5303SOL    HW217351   1.600   7.404   8.864
 5304SOL     OW17352   1.847   5.756   8.373
 5304SOL    HW117353   1.876   5.665   8.376
 5304SOL    HW217354   1.752   5.751   8.375
 5305SOL     OW17355   0.260   5.906   8.153
 5305SOL    HW117356   0.171   5.936   8.132
 5305SOL    HW217357   0.260   5.896   8.248
 5306SOL     OW17358   1.209   7.182   7.483
 5306SOL    HW117359   1.198   7.090   7.510
 5306SOL    HW217360   1.143   7.194   7.414
 5307SOL     OW17361   0.825   6.596   8.823
 5307SOL    HW117362   0.864   6.589   8.736
 5307SOL    HW217363   0.820   6.690   8.840
 5308SOL     OW17364   0.917   6.497   7.740
 5308SOL    HW117365   0.976   6.529   7.672
 5308SOL    HW217366   0.968   6.430   7.785
 5309SOL     OW17367   1.485   7.229   7.495
 5309SOL    HW117368   1.393   7.209   7.478
 5309SOL    HW217369   1.526   7.230   7.408
 5310SOL     OW17370   0.366   6.884   8.944
 5310SOL    HW117371   0.352   6.962   8.890
 5310SOL    HW217372   0.294   6.826   8.920
 5311SOL     OW17373   1.606   6.868   8.729
 5311SOL    HW117374   1.662   6.851   8.806
 5311SOL    HW217375   1.545   6.935   8.759
 5312SOL     OW17376   1.055   6.695   8.146
 5312SOL    HW117377   0.985   6.648   8.190
 5312SOL    HW217378   1.122   6.628   8.127
 5313SOL     OW17379   1.026   5.831   8.415
 5313SOL    HW117380   1.022   5.786   8.331
 5313SOL    HW217381   1.021   5.760   8.480
 5314SOL     OW17382   0.575   7.051   7.907
 5314SOL    HW117383   0.648   7.006   7.864
 5314SOL    HW217384   0.528   7.093   7.835
 5315SOL     OW17385   1.738   5.972   8.829
 5315SOL    HW117386   1.811   6.035   8.826
 5315SOL    HW217387   1.764   5.904   8.767
 5316SOL     OW17388   0.260   6.932   7.744
 5316SOL    HW117389   0.165   6.924   7.736
 5316SOL    HW217390   0.273   6.979   7.826
 5317SOL     OW17391   0.105   6.590   9.156
 5317SOL    HW117392   0.072   6.676   9.183
 5317SOL    HW217393   0.187   6.581   9.205
 5318SOL     OW17394   0.678   5.783   8.951
 5318SOL    HW117395   0.759   5.760   8.906
 5318SOL    HW217396   0.706   5.818   9.035
 5319SOL     OW17397   0.111   5.949   7.476
 5319SOL    HW117398   0.034   5.984   7.521
 5319SOL    HW217399   0.120   6.003   7.398
 5320SOL     OW17400   1.423   6.440   8.844
 5320SOL    HW117401   1.371   6.500   8.790
 5320SOL    HW217402   1.511   6.443   8.806
 5321SOL     OW17403   0.097   5.829   7.801
 5321SOL    HW117404   0.047   5.808   7.722
 5321SOL    HW217405   0.179   5.782   7.791
 5322SOL     OW17406   1.183   6.914   7.571
 5322SOL    HW117407   1.097   6.873   7.574
 5322SOL    HW217408   1.211   6.918   7.662
 5323SOL     OW17409   0.627   6.421   8.891
 5323SOL    HW117410   0.684   6.495   8.872
 5323SOL    HW217411   0.685   6.345   8.896
 5324SOL     OW17412   1.492   7.392   8.450
 5324SOL    HW117413   1.507   7.435   8.366
 5324SOL    HW217414   1.566   7.331   8.458
 5325SOL     OW17415   0.707   6.143   9.161
 5325SOL    HW117416   0.763   6.202   9.210
 5325SOL    HW217417   0.736   6.055   9.186
 5326SOL     OW17418   1.479   6.773   9.076
 5326SOL    HW117419   1.469   6.793   9.169
 5326SOL    HW217420   1.570   6.796   9.056
 5327SOL     OW17421   0.381   7.325   9.013
 5327SOL    HW117422   0.292   7.351   8.990
 5327SOL    HW217423   0.372   7.238   9.052
 5328SOL     OW17424   1.660   6.464   8.702
 5328SOL    HW117425   1.656   6.379   8.657
 5328SOL    HW217426   1.649   6.529   8.632
 5329SOL     OW17427   1.219   5.903   7.904
 5329SOL    HW117428   1.282   5.830   7.897
 5329SOL    HW217429   1.248   5.952   7.980
 5330SOL     OW17430   0.588   6.323   8.134
 5330SOL    HW117431   0.632   6.406   8.118
 5330SOL    HW217432   0.528   6.313   8.060
 5331SOL     OW17433   1.754   5.953   9.105
 5331SOL    HW117434   1.746   5.966   9.011
 5331SOL    HW217435   1.681   5.895   9.127
 5332SOL     OW17436   1.753   6.519   8.955
 5332SOL    HW117437   1.738   6.613   8.966
 5332SOL    HW217438   1.730   6.502   8.863
 5333SOL     OW17439   0.852   6.952   7.491
 5333SOL    HW117440   0.831   6.982   7.579
 5333SOL    HW217441   0.881   7.031   7.445
 5334SOL     OW17442   0.639   7.395   8.387
 5334SOL    HW117443   0.668   7.478   8.350
 5334SOL    HW217444   0.720   7.348   8.406
 5335SOL     OW17445   0.872   6.557   8.299
 5335SOL    HW117446   0.923   6.485   8.336
 5335SOL    HW217447   0.836   6.603   8.375
 5336SOL     OW17448   1.074   6.571   7.534
 5336SOL    HW117449   1.054   6.623   7.456
 5336SOL    HW217450   1.149   6.518   7.510
 5337SOL     OW17451   1.836   7.142   8.289
 5337SOL    HW117452   1.758   7.129   8.235
 5337SOL    HW217453   1.827   7.079   8.360
 5338SOL     OW17454   0.211   6.884   9.304
 5338SOL    HW117455   0.119   6.871   9.283
 5338SOL    HW217456   0.214   6.886   9.399
 5339SOL     OW17457   0.145   6.850   8.074
 5339SOL    HW117458   0.072   6.807   8.119
 5339SOL    HW217459   0.201   6.778   8.045
 5340SOL     OW17460   0.684   6.990   9.086
 5340SOL    HW117461   0.597   6.957   9.111
 5340SOL    HW217462   0.685   7.080   9.119
 5341SOL     OW17463   1.804   5.765   8.667
 5341SOL    HW117464   1.807   5.670   8.677
 5341SOL    HW217465   1.828   5.781   8.576
 5342SOL     OW17466   0.441   6.020   7.971
 5342SOL    HW117467   0.473   5.948   7.915
 5342SOL    HW217468   0.386   5.977   8.037
 5343SOL     OW17469   1.701   7.071   8.545
 5343SOL    HW117470   1.623   7.050   8.492
 5343SOL    HW217471   1.705   7.000   8.610
 5344SOL     OW17472   0.366   6.146   8.742
 5344SOL    HW117473   0.418   6.083   8.793
 5344SOL    HW217474   0.373   6.115   8.652
 5345SOL     OW17475   0.826   7.135   8.074
 5345SOL    HW117476   0.802   7.225   8.053
 5345SOL    HW217477   0.748   7.099   8.118
 5346SOL     OW17478   1.426   5.808   8.561
 5346SOL    HW117479   1.438   5.718   8.592
 5346SOL    HW217480   1.380   5.852   8.633
 5347SOL     OW17481   1.006   5.598   8.578
 5347SOL    HW117482   0.958   5.536   8.524
 5347SOL    HW217483   1.094   5.561   8.585
 5348SOL     OW17484   0.776   6.919   7.776
 5348SOL    HW117485   0.757   6.825   7.785
 5348SOL    HW217486   0.859   6.930   7.822
 5349SOL     OW17487   0.615   7.145   8.735
 5349SOL    HW117488   0.611   7.233   8.773
 5349SOL    HW217489   0.707   7.134   8.710
 5350SOL     OW17490   1.365   5.629   7.622
 5350SOL    HW117491   1.408   5.558   7.575
 5350SOL    HW217492   1.275   5.600   7.634
 5351SOL     OW17493   1.293   6.048   8.124
 5351SOL    HW117494   1.244   6.131   8.125
 5351SOL    HW217495   1.291   6.018   8.215
 5352SOL     OW17496   1.585   5.788   8.334
 5352SOL    HW117497   1.528   5.792   8.411
 5352SOL    HW217498   1.547   5.853   8.274
 5353SOL     OW17499   0.064   6.652   7.721
 5353SOL    HW117500   0.149   6.609   7.705
 5353SOL    HW217501   0.040   6.623   7.809
 5354SOL     OW17502   0.893   7.249   7.766
 5354SOL    HW117503   0.811   7.232   7.719
 5354SOL    HW217504   0.868   7.311   7.835
 5355SOL     OW17505   0.250   6.237   9.397
 5355SOL    HW117506   0.165   6.257   9.437
 5355SOL    HW217507   0.229   6.201   9.311
 5356SOL     OW17508   0.240   5.854  10.291
 5356SOL    HW117509   0.258   5.825  10.381
 5356SOL    HW217510   0.157   5.812  10.268
 5357SOL     OW17511   7.994   5.975   9.921
 5357SOL    HW117512   7.907   5.971   9.963
 5357SOL    HW217513   7.997   5.896   9.866
 5358SOL     OW17514   0.574   6.886  10.506
 5358SOL    HW117515   0.487   6.888  10.466
 5358SOL    HW217516   0.590   6.976  10.535
 5359SOL     OW17517   1.580   7.104  10.018
 5359SOL    HW117518   1.535   7.077  10.097
 5359SOL    HW217519   1.512   7.106   9.951
 5360SOL     OW17520   1.133   6.290  10.003
 5360SOL    HW117521   1.182   6.371   9.992
 5360SOL    HW217522   1.086   6.301  10.086
 5361SOL     OW17523   1.767   6.184   9.540
 5361SOL    HW117524   1.743   6.181   9.447
 5361SOL    HW217525   1.737   6.101   9.575
 5362SOL     OW17526   0.740   6.721  10.360
 5362SOL    HW117527   0.677   6.760  10.421
 5362SOL    HW217528   0.780   6.796  10.316
 5363SOL     OW17529   0.880   6.340  11.136
 5363SOL    HW117530   0.864   6.409  11.200
 5363SOL    HW217531   0.900   6.386  11.055
 5364SOL     OW17532   0.688   6.580   9.956
 5364SOL    HW117533   0.756   6.576  10.023
 5364SOL    HW217534   0.621   6.638   9.991
 5365SOL     OW17535   0.714   6.735  11.134
 5365SOL    HW117536   0.762   6.812  11.164
 5365SOL    HW217537   0.636   6.771  11.091
 5366SOL     OW17538   0.339   6.997  10.378
 5366SOL    HW117539   0.279   6.945  10.323
 5366SOL    HW217540   0.384   7.054  10.316
 5367SOL     OW17541   1.456   7.087  10.676
 5367SOL    HW117542   1.511   7.165  10.685
 5367SOL    HW217543   1.386   7.099  10.740
 5368SOL     OW17544   0.450   5.973  10.794
 5368SOL    HW117545   0.528   5.917  10.799
 5368SOL    HW217546   0.376   5.913  10.805
 5369SOL     OW17547   1.604   6.023  10.056
 5369SOL    HW117548   1.545   6.044   9.984
 5369SOL    HW217549   1.603   6.101  10.111
 5370SOL     OW17550   0.229   7.279   9.791
 5370SOL    HW117551   0.210   7.363   9.832
 5370SOL    HW217552   0.297   7.299   9.726
 5371SOL     OW17553   1.137   6.928  11.006
 5371SOL    HW117554   1.177   6.920  11.093
 5371SOL    HW217555   1.085   6.849  10.996
 5372SOL     OW17556   0.297   7.018   9.824
 5372SOL    HW117557   0.271   7.110   9.832
 5372SOL    HW217558   0.242   6.972   9.888
 5373SOL     OW17559   0.285   6.667  10.208
 5373SOL    HW117560   0.282   6.575  10.232
 5373SOL    HW217561   0.209   6.706  10.252
 5374SOL     OW17562   0.607   7.383  10.730
 5374SOL    HW117563   0.528   7.360  10.778
 5374SOL    HW217564   0.629   7.471  10.760
 5375SOL     OW17565   0.585   6.574   9.455
 5375SOL    HW117566   0.632   6.619   9.385
 5375SOL    HW217567   0.625   6.606   9.536
 5376SOL     OW17568   1.595   5.715  10.773
 5376SOL    HW117569   1.625   5.792  10.726
 5376SOL    HW217570   1.569   5.747  10.859
 5377SOL     OW17571   0.136   6.209   9.868
 5377SOL    HW117572   0.088   6.132   9.899
 5377SOL    HW217573   0.118   6.276   9.934
 5378SOL     OW17574   1.844   7.337   9.639
 5378SOL    HW117575   1.916   7.314   9.698
 5378SOL    HW217576   1.862   7.428   9.614
 5379SOL     OW17577   0.022   7.169   9.448
 5379SOL    HW117578   0.003   7.076   9.438
 5379SOL    HW217579   0.005   7.187   9.541
 5380SOL     OW17580   1.695   6.507   9.959
 5380SOL    HW117581   1.772   6.457   9.932
 5380SOL    HW217582   1.670   6.557   9.881
 5381SOL     OW17583   1.652   6.687   9.741
 5381SOL    HW117584   1.738   6.684   9.700
 5381SOL    HW217585   1.661   6.752   9.811
 5382SOL     OW17586   0.149   6.353  10.895
 5382SOL    HW117587   0.245   6.353  10.893
 5382SOL    HW217588   0.127   6.433  10.942
 5383SOL     OW17589   0.615   6.979  10.051
 5383SOL    HW117590   0.572   6.894  10.055
 5383SOL    HW217591   0.602   7.008   9.961
 5384SOL     OW17592   1.280   6.819  10.730
 5384SOL    HW117593   1.308   6.751  10.670
 5384SOL    HW217594   1.341   6.813  10.804
 5385SOL     OW17595   0.827   5.593   9.823
 5385SOL    HW117596   0.867   5.676   9.799
 5385SOL    HW217597   0.733   5.611   9.825
 5386SOL     OW17598   0.176   6.505  10.571
 5386SOL    HW117599   0.269   6.482  10.575
 5386SOL    HW217600   0.150   6.483  10.481
 5387SOL     OW17601   1.530   6.591   9.511
 5387SOL    HW117602   1.462   6.532   9.543
 5387SOL    HW217603   1.575   6.621   9.590
 5388SOL     OW17604   1.193   7.400  10.943
 5388SOL    HW117605   1.189   7.460  10.868
 5388SOL    HW217606   1.205   7.313  10.903
 5389SOL     OW17607   0.358   5.842  11.158
 5389SOL    HW117608   0.403   5.922  11.186
 5389SOL    HW217609   0.265   5.863  11.166
 5390SOL     OW17610   1.465   7.008  10.248
 5390SOL    HW117611   1.402   7.023  10.318
 5390SOL    HW217612   1.454   6.916  10.224
 5391SOL     OW17613   1.646   7.351   9.884
 5391SOL    HW117614   1.629   7.314   9.797
 5391SOL    HW217615   1.636   7.277   9.944
 5392SOL     OW17616   0.586   6.304   9.568
 5392SOL    HW117617   0.605   6.382   9.517
 5392SOL    HW217618   0.554   6.336   9.652
 5393SOL     OW17619   1.279   5.964  10.247
 5393SOL    HW117620   1.191   5.927  10.254
 5393SOL    HW217621   1.333   5.908  10.302
 5394SOL     OW17622   1.577   7.264   9.623
 5394SOL    HW117623   1.670   7.282   9.613
 5394SOL    HW217624   1.546   7.247   9.534
 5395SOL     OW17625   0.792   6.202  10.754
 5395SOL    HW117626   0.766   6.174  10.842
 5395SOL    HW217627   0.761   6.132  10.697
 5396SOL     OW17628   1.392   6.063  10.987
 5396SOL    HW117629   1.397   6.105  11.072
 5396SOL    HW217630   1.445   5.984  10.997
 5397SOL     OW17631   0.948   6.469  10.899
 5397SOL    HW117632   1.003   6.402  10.859
 5397SOL    HW217633   0.900   6.508  10.827
 5398SOL     OW17634   0.998   5.993  10.536
 5398SOL    HW117635   0.907   6.006  10.562
 5398SOL    HW217636   0.992   5.948  10.451
 5399SOL     OW17637   1.054   6.281   9.737
 5399SOL    HW117638   1.077   6.279   9.830
 5399SOL    HW217639   0.971   6.235   9.731
 5400SOL     OW17640   0.100   6.379  10.082
 5400SOL    HW117641   0.179   6.386  10.136
 5400SOL    HW217642   0.046   6.453  10.109
 5401SOL     OW17643   0.127   7.411  10.876
 5401SOL    HW117644   0.132   7.396  10.971
 5401SOL    HW217645   0.038   7.385  10.852
 5402SOL     OW17646   0.891   5.942   9.504
 5402SOL    HW117647   0.937   6.004   9.447
 5402SOL    HW217648   0.898   5.858   9.460
 5403SOL     OW17649   1.702   6.156  11.143
 5403SOL    HW117650   1.670   6.231  11.093
 5403SOL    HW217651   1.726   6.091  11.078
 5404SOL     OW17652   1.384   6.728   9.848
 5404SOL    HW117653   1.463   6.716   9.795
 5404SOL    HW217654   1.331   6.790   9.797
 5405SOL     OW17655   0.560   5.758  10.211
 5405SOL    HW117656   0.560   5.788  10.302
 5405SOL    HW217657   0.553   5.838  10.159
 5406SOL     OW17658   0.997   7.034   9.777
 5406SOL    HW117659   0.970   7.107   9.722
 5406SOL    HW217660   0.968   7.058   9.865
 5407SOL     OW17661   0.363   7.413  10.172
 5407SOL    HW117662   0.409   7.330  10.184
 5407SOL    HW217663   0.430   7.479  10.192
 5408SOL     OW17664   1.804   6.638  10.188
 5408SOL    HW117665   1.757   6.615  10.108
 5408SOL    HW217666   1.737   6.641  10.256
 5409SOL     OW17667   1.224   7.127  10.825
 5409SOL    HW117668   1.212   7.055  10.887
 5409SOL    HW217669   1.158   7.112  10.758
 5410SOL     OW17670   0.323   6.540   9.555
 5410SOL    HW117671   0.410   6.566   9.524
 5410SOL    HW217672   0.289   6.484   9.486
 5411SOL     OW17673   1.482   6.346  10.032
 5411SOL    HW117674   1.482   6.302  10.117
 5411SOL    HW217675   1.563   6.397  10.030
 5412SOL     OW17676   0.468   6.854  11.050
 5412SOL    HW117677   0.443   6.860  10.958
 5412SOL    HW217678   0.386   6.838  11.096
 5413SOL     OW17679   1.130   7.364   9.535
 5413SOL    HW117680   1.051   7.328   9.576
 5413SOL    HW217681   1.154   7.300   9.468
 5414SOL     OW17682   0.200   5.847  10.808
 5414SOL    HW117683   0.141   5.916  10.838
 5414SOL    HW217684   0.169   5.768  10.852
 5415SOL     OW17685   1.629   6.975   9.411
 5415SOL    HW117686   1.589   7.059   9.388
 5415SOL    HW217687   1.564   6.909   9.385
 5416SOL     OW17688   0.454   7.335   9.619
 5416SOL    HW117689   0.503   7.379   9.687
 5416SOL    HW217690   0.520   7.289   9.567
 5417SOL     OW17691   1.398   5.692   9.756
 5417SOL    HW117692   1.393   5.667   9.664
 5417SOL    HW217693   1.492   5.693   9.775
 5418SOL     OW17694   0.234   7.367  10.535
 5418SOL    HW117695   0.286   7.291  10.563
 5418SOL    HW217696   0.204   7.343  10.447
 5419SOL     OW17697   0.942   7.286  10.201
 5419SOL    HW117698   1.025   7.241  10.217
 5419SOL    HW217699   0.901   7.236  10.131
 5420SOL     OW17700   0.404   6.267   9.780
 5420SOL    HW117701   0.424   6.180   9.814
 5420SOL    HW217702   0.313   6.283   9.807
 5421SOL     OW17703   1.519   5.811  11.031
 5421SOL    HW117704   1.530   5.829  11.125
 5421SOL    HW217705   1.452   5.743  11.028
 5422SOL     OW17706   0.655   5.706   9.411
 5422SOL    HW117707   0.714   5.633   9.430
 5422SOL    HW217708   0.598   5.673   9.342
 5423SOL     OW17709   0.763   5.865  11.067
 5423SOL    HW117710   0.845   5.816  11.063
 5423SOL    HW217711   0.715   5.825  11.140
 5424SOL     OW17712   0.878   7.113  10.505
 5424SOL    HW117713   0.859   7.073  10.420
 5424SOL    HW217714   0.945   7.057  10.544
 5425SOL     OW17715   1.335   6.176  10.743
 5425SOL    HW117716   1.367   6.145  10.828
 5425SOL    HW217717   1.374   6.263  10.733
 5426SOL     OW17718   0.819   6.972  10.260
 5426SOL    HW117719   0.905   6.962  10.218
 5426SOL    HW217720   0.758   6.984  10.188
 5427SOL     OW17721   0.929   6.096  10.207
 5427SOL    HW117722   0.904   6.086  10.116
 5427SOL    HW217723   0.959   6.009  10.234
 5428SOL     OW17724   0.561   5.653   9.792
 5428SOL    HW117725   0.484   5.652   9.849
 5428SOL    HW217726   0.551   5.732   9.739
 5429SOL     OW17727   1.432   6.793   9.349
 5429SOL    HW117728   1.460   6.717   9.399
 5429SOL    HW217729   1.345   6.813   9.383
 5430SOL     OW17730   0.283   5.639   9.480
 5430SOL    HW117731   0.337   5.701   9.433
 5430SOL    HW217732   0.345   5.581   9.525
 5431SOL     OW17733   0.944   5.839   9.760
 5431SOL    HW117734   0.926   5.877   9.674
 5431SOL    HW217735   1.038   5.850   9.772
 5432SOL     OW17736   1.079   6.273  10.763
 5432SOL    HW117737   1.015   6.203  10.767
 5432SOL    HW217738   1.164   6.229  10.758
 5433SOL     OW17739   1.209   7.165  10.109
 5433SOL    HW117740   1.225   7.228  10.039
 5433SOL    HW217741   1.287   7.171  10.165
 5434SOL     OW17742   0.478   6.741  10.032
 5434SOL    HW117743   0.415   6.718  10.100
 5434SOL    HW217744   0.430   6.725   9.950
 5435SOL     OW17745   1.259   7.377   9.926
 5435SOL    HW117746   1.307   7.438   9.870
 5435SOL    HW217747   1.189   7.430   9.965
 5436SOL     OW17748   1.024   6.117   9.341
 5436SOL    HW117749   0.986   6.202   9.318
 5436SOL    HW217750   1.094   6.139   9.403
 5437SOL     OW17751   0.100   6.185  10.688
 5437SOL    HW117752   0.191   6.167  10.664
 5437SOL    HW217753   0.107   6.247  10.761
 5438SOL     OW17754   0.563   5.812  10.484
 5438SOL    HW117755   0.603   5.739  10.530
 5438SOL    HW217756   0.471   5.809  10.509
 5439SOL     OW17757   0.867   6.042   9.947
 5439SOL    HW117758   0.823   6.097   9.881
 5439SOL    HW217759   0.893   5.964   9.898
 5440SOL     OW17760   1.016   5.645  10.056
 5440SOL    HW117761   0.958   5.634   9.981
 5440SOL    HW217762   0.996   5.570  10.113
 5441SOL     OW17763   1.442   6.746  10.165
 5441SOL    HW117764   1.371   6.683  10.164
 5441SOL    HW217765   1.470   6.752  10.074
 5442SOL     OW17766   1.465   6.201  10.273
 5442SOL    HW117767   1.407   6.125  10.274
 5442SOL    HW217768   1.521   6.190  10.349
 5443SOL     OW17769   1.833   6.395   9.700
 5443SOL    HW117770   1.894   6.346   9.755
 5443SOL    HW217771   1.808   6.333   9.631
 5444SOL     OW17772   0.489   7.006   9.452
 5444SOL    HW117773   0.409   6.976   9.496
 5444SOL    HW217774   0.492   6.955   9.371
 5445SOL     OW17775   1.685   6.850   9.952
 5445SOL    HW117776   1.779   6.847   9.965
 5445SOL    HW217777   1.661   6.941   9.970
 5446SOL     OW17778   1.394   6.161   9.379
 5446SOL    HW117779   1.337   6.133   9.451
 5446SOL    HW217780   1.481   6.129   9.403
 5447SOL     OW17781   0.555   5.869   9.614
 5447SOL    HW117782   0.578   5.817   9.537
 5447SOL    HW217783   0.636   5.914   9.638
 5448SOL     OW17784   1.745   6.829  10.863
 5448SOL    HW117785   1.832   6.792  10.852
 5448SOL    HW217786   1.761   6.918  10.895
 5449SOL     OW17787   1.050   6.943  10.645
 5449SOL    HW117788   0.973   6.909  10.692
 5449SOL    HW217789   1.124   6.898  10.685
 5450SOL     OW17790   1.612   7.220  10.976
 5450SOL    HW117791   1.599   7.251  10.887
 5450SOL    HW217792   1.691   7.166  10.971
 5451SOL     OW17793   1.142   6.809  10.412
 5451SOL    HW117794   1.077   6.842  10.474
 5451SOL    HW217795   1.113   6.840  10.327
 5452SOL     OW17796   1.617   6.677  10.385
 5452SOL    HW117797   1.609   6.741  10.456
 5452SOL    HW217798   1.545   6.697  10.326
 5453SOL     OW17799   0.918   5.678  10.699
 5453SOL    HW117800   0.940   5.658  10.608
 5453SOL    HW217801   0.998   5.716  10.735
 5454SOL     OW17802   0.983   6.701  11.034
 5454SOL    HW117803   0.892   6.717  11.059
 5454SOL    HW217804   0.979   6.621  10.981
 5455SOL     OW17805   0.714   6.647   9.686
 5455SOL    HW117806   0.702   6.627   9.779
 5455SOL    HW217807   0.789   6.593   9.660
 5456SOL     OW17808   0.432   6.407  10.566
 5456SOL    HW117809   0.497   6.419  10.634
 5456SOL    HW217810   0.403   6.316  10.576
 5457SOL     OW17811   1.262   5.957  10.596
 5457SOL    HW117812   1.294   6.036  10.640
 5457SOL    HW217813   1.172   5.977  10.571
 5458SOL     OW17814   0.044   7.180  10.639
 5458SOL    HW117815   0.102   7.253  10.618
 5458SOL    HW217816   0.080   7.143  10.719
 5459SOL     OW17817   0.334   6.697   9.798
 5459SOL    HW117818   0.338   6.776   9.744
 5459SOL    HW217819   0.337   6.625   9.735
 5460SOL     OW17820   0.549   6.115  10.167
 5460SOL    HW117821   0.566   6.174  10.094
 5460SOL    HW217822   0.615   6.137  10.232
 5461SOL     OW17823   1.245   6.936   9.704
 5461SOL    HW117824   1.302   7.006   9.736
 5461SOL    HW217825   1.158   6.959   9.736
 5462SOL     OW17826   1.296   7.048  10.457
 5462SOL    HW117827   1.348   7.051  10.537
 5462SOL    HW217828   1.243   6.969  10.465
 5463SOL     OW17829   1.575   6.196   9.804
 5463SOL    HW117830   1.525   6.252   9.863
 5463SOL    HW217831   1.621   6.256   9.746
 5464SOL     OW17832   0.349   7.123  10.618
 5464SOL    HW117833   0.333   7.072  10.538
 5464SOL    HW217834   0.444   7.130  10.623
 5465SOL     OW17835   0.426   6.320  10.919
 5465SOL    HW117836   0.486   6.367  10.862
 5465SOL    HW217837   0.475   6.242  10.947
 5466SOL     OW17838   1.617   6.371  11.001
 5466SOL    HW117839   1.530   6.411  10.993
 5466SOL    HW217840   1.668   6.410  10.930
 5467SOL     OW17841   0.997   5.724  11.065
 5467SOL    HW117842   1.055   5.796  11.044
 5467SOL    HW217843   1.046   5.645  11.041
 5468SOL     OW17844   0.499   5.625  11.065
 5468SOL    HW117845   0.453   5.575  10.997
 5468SOL    HW217846   0.444   5.701  11.080
 5469SOL     OW17847   0.588   6.461  10.342
 5469SOL    HW117848   0.623   6.550  10.345
 5469SOL    HW217849   0.534   6.455  10.421
 5470SOL     OW17850   1.336   6.444  10.328
 5470SOL    HW117851   1.251   6.425  10.291
 5470SOL    HW217852   1.387   6.364  10.315
 5471SOL     OW17853   1.197   6.110   9.571
 5471SOL    HW117854   1.209   6.032   9.626
 5471SOL    HW217855   1.158   6.174   9.630
 5472SOL     OW17856   0.303   5.781  10.556
 5472SOL    HW117857   0.262   5.811  10.637
 5472SOL    HW217858   0.284   5.688  10.553
 5473SOL     OW17859   0.045   6.894  10.579
 5473SOL    HW117860   0.071   6.839  10.653
 5473SOL    HW217861   0.050   6.984  10.612
 5474SOL     OW17862   0.719   6.213  10.360
 5474SOL    HW117863   0.797   6.201  10.306
 5474SOL    HW217864   0.691   6.303  10.343
 5475SOL     OW17865   1.745   6.549  11.173
 5475SOL    HW117866   1.705   6.479  11.121
 5475SOL    HW217867   1.681   6.566  11.243
 5476SOL     OW17868   0.328   5.666   9.924
 5476SOL    HW117869   0.287   5.749   9.947
 5476SOL    HW217870   0.327   5.615  10.005
 5477SOL     OW17871   1.623   5.963   9.666
 5477SOL    HW117872   1.657   5.896   9.725
 5477SOL    HW217873   1.599   6.036   9.723
 5478SOL     OW17874   1.029   6.344  10.267
 5478SOL    HW117875   1.017   6.360  10.360
 5478SOL    HW217876   1.003   6.253  10.254
 5479SOL     OW17877   0.984   7.155  11.035
 5479SOL    HW117878   0.964   7.196  10.951
 5479SOL    HW217879   1.024   7.071  11.012
 5480SOL     OW17880   1.848   7.086  10.915
 5480SOL    HW117881   1.871   7.112  10.826
 5480SOL    HW217882   1.929   7.097  10.965
 5481SOL     OW17883   0.365   6.535  11.099
 5481SOL    HW117884   0.436   6.544  11.163
 5481SOL    HW217885   0.385   6.454  11.052
 5482SOL     OW17886   1.514   5.863   9.433
 5482SOL    HW117887   1.459   5.791   9.463
 5482SOL    HW217888   1.555   5.896   9.513
 5483SOL     OW17889   1.284   6.410   9.337
 5483SOL    HW117890   1.327   6.324   9.342
 5483SOL    HW217891   1.317   6.448   9.256
 5484SOL     OW17892   1.070   6.928  10.170
 5484SOL    HW117893   1.076   6.857  10.106
 5484SOL    HW217894   1.123   6.998  10.132
 5485SOL     OW17895   0.318   6.388  10.254
 5485SOL    HW117896   0.411   6.408  10.256
 5485SOL    HW217897   0.312   6.299  10.287
 5486SOL     OW17898   0.335   6.104  10.327
 5486SOL    HW117899   0.299   6.016  10.311
 5486SOL    HW217900   0.410   6.111  10.269
 5487SOL     OW17901   1.136   5.957  10.996
 5487SOL    HW117902   1.088   6.010  11.060
 5487SOL    HW217903   1.221   5.999  10.990
 5488SOL     OW17904   1.159   5.780  10.784
 5488SOL    HW117905   1.148   5.843  10.855
 5488SOL    HW217906   1.203   5.829  10.715
 5489SOL     OW17907   7.982   6.889   9.510
 5489SOL    HW117908   7.892   6.904   9.539
 5489SOL    HW217909   7.995   6.795   9.522
 5490SOL     OW17910   0.118   7.341  10.268
 5490SOL    HW117911   0.108   7.264  10.212
 5490SOL    HW217912   0.196   7.385  10.233
 5491SOL     OW17913   0.489   7.164  10.216
 5491SOL    HW117914   0.559   7.225  10.240
 5491SOL    HW217915   0.532   7.101  10.157
 5492SOL     OW17916   0.964   6.371  10.531
 5492SOL    HW117917   1.026   6.355  10.602
 5492SOL    HW217918   0.884   6.327  10.559
 5493SOL     OW17919   0.073   6.144  10.422
 5493SOL    HW117920   0.166   6.129  10.406
 5493SOL    HW217921   0.066   6.152  10.517
 5494SOL     OW17922   0.197   6.105  11.005
 5494SOL    HW117923   0.275   6.083  10.954
 5494SOL    HW217924   0.167   6.188  10.967
 5495SOL     OW17925   1.385   6.515  10.966
 5495SOL    HW117926   1.404   6.609  10.960
 5495SOL    HW217927   1.379   6.487  10.874
 5496SOL     OW17928   0.812   6.150   9.679
 5496SOL    HW117929   0.836   6.085   9.613
 5496SOL    HW217930   0.749   6.207   9.635
 5497SOL     OW17931   1.638   6.187  10.487
 5497SOL    HW117932   1.628   6.126  10.560
 5497SOL    HW217933   1.727   6.171  10.454
 5498SOL     OW17934   0.292   7.121  11.035
 5498SOL    HW117935   0.251   7.192  11.084
 5498SOL    HW217936   0.282   7.044  11.090
 5499SOL     OW17937   0.721   6.028  10.559
 5499SOL    HW117938   0.663   5.955  10.537
 5499SOL    HW217939   0.709   6.091  10.488
 5500SOL     OW17940   0.916   7.262  10.786
 5500SOL    HW117941   0.895   7.218  10.704
 5500SOL    HW217942   0.908   7.356  10.766
 5501SOL     OW17943   0.157   6.709  10.760
 5501SOL    HW117944   0.135   6.663  10.842
 5501SOL    HW217945   0.161   6.639  10.695
 5502SOL     OW17946   1.315   6.628  10.527
 5502SOL    HW117947   1.333   6.564  10.459
 5502SOL    HW217948   1.254   6.690  10.487
 5503SOL     OW17949   1.318   6.443   9.611
 5503SOL    HW117950   1.244   6.408   9.661
 5503SOL    HW217951   1.294   6.428   9.519
 5504SOL     OW17952   1.792   7.317  10.478
 5504SOL    HW117953   1.849   7.341  10.405
 5504SOL    HW217954   1.755   7.232  10.453
 5505SOL     OW17955   1.241   7.319  10.420
 5505SOL    HW117956   1.323   7.345  10.378
 5505SOL    HW217957   1.252   7.226  10.437
 5506SOL     OW17958   0.071   6.779  10.338
 5506SOL    HW117959   0.065   6.821  10.424
 5506SOL    HW217960  -0.002   6.816  10.288
 5507SOL     OW17961   0.682   7.259  11.052
 5507SOL    HW117962   0.619   7.331  11.042
 5507SOL    HW217963   0.750   7.278  10.987
 5508SOL     OW17964   1.731   5.751   9.811
 5508SOL    HW117965   1.798   5.733   9.745
 5508SOL    HW217966   1.712   5.665   9.850
 5509SOL     OW17967   1.396   7.154   9.807
 5509SOL    HW117968   1.451   7.188   9.736
 5509SOL    HW217969   1.342   7.228   9.834
 5510SOL     OW17970   0.166   7.332  11.150
 5510SOL    HW117971   0.103   7.281  11.203
 5510SOL    HW217972   0.211   7.387  11.214
 5511SOL     OW17973   1.278   6.520   9.983
 5511SOL    HW117974   1.352   6.460   9.995
 5511SOL    HW217975   1.313   6.589   9.927
 5512SOL     OW17976   0.795   6.865  10.729
 5512SOL    HW117977   0.768   6.908  10.811
 5512SOL    HW217978   0.722   6.879  10.670
 5513SOL     OW17979   0.664   7.215   9.464
 5513SOL    HW117980   0.680   7.228   9.371
 5513SOL    HW217981   0.610   7.136   9.468
 5514SOL     OW17982   1.617   7.311  10.706
 5514SOL    HW117983   1.674   7.314  10.629
 5514SOL    HW217984   1.600   7.403  10.727
 5515SOL     OW17985   1.843   5.753  10.277
 5515SOL    HW117986   1.873   5.665  10.253
 5515SOL    HW217987   1.757   5.760  10.236
 5516SOL     OW17988   0.255   5.914  10.018
 5516SOL    HW117989   0.165   5.942  10.001
 5516SOL    HW217990   0.257   5.899  10.113
 5517SOL     OW17991   1.209   7.183   9.344
 5517SOL    HW117992   1.198   7.091   9.368
 5517SOL    HW217993   1.145   7.198   9.274
 5518SOL     OW17994   0.824   6.595  10.690
 5518SOL    HW117995   0.864   6.585  10.604
 5518SOL    HW217996   0.817   6.689  10.703
 5519SOL     OW17997   0.914   6.487   9.605
 5519SOL    HW117998   0.969   6.521   9.535
 5519SOL    HW217999   0.969   6.424   9.651
 5520SOL     OW18000   1.485   7.229   9.359
 5520SOL    HW118001   1.393   7.210   9.341
 5520SOL    HW218002   1.526   7.231   9.272
 5521SOL     OW18003   0.368   6.888  10.801
 5521SOL    HW118004   0.349   6.967  10.751
 5521SOL    HW218005   0.296   6.828  10.781
 5522SOL     OW18006   1.603   6.869  10.589
 5522SOL    HW118007   1.662   6.850  10.662
 5522SOL    HW218008   1.543   6.936  10.623
 5523SOL     OW18009   1.066   6.699  10.025
 5523SOL    HW118010   0.993   6.648  10.061
 5523SOL    HW218011   1.131   6.634  10.001
 5524SOL     OW18012   1.026   5.831  10.277
 5524SOL    HW118013   1.023   5.786  10.193
 5524SOL    HW218014   1.021   5.761  10.342
 5525SOL     OW18015   0.608   7.075   9.797
 5525SOL    HW118016   0.659   7.027   9.731
 5525SOL    HW218017   0.520   7.080   9.759
 5526SOL     OW18018   1.734   5.974  10.693
 5526SOL    HW118019   1.806   6.037  10.690
 5526SOL    HW218020   1.761   5.904  10.634
 5527SOL     OW18021   0.250   6.922   9.579
 5527SOL    HW118022   0.154   6.923   9.572
 5527SOL    HW218023   0.269   6.963   9.663
 5528SOL     OW18024   0.104   6.590  11.020
 5528SOL    HW118025   0.068   6.674  11.045
 5528SOL    HW218026   0.189   6.586  11.064
 5529SOL     OW18027   0.679   5.785  10.809
 5529SOL    HW118028   0.763   5.761  10.769
 5529SOL    HW218029   0.702   5.815  10.897
 5530SOL     OW18030   0.106   5.939   9.337
 5530SOL    HW118031   0.032   5.974   9.386
 5530SOL    HW218032   0.116   5.999   9.262
 5531SOL     OW18033   1.422   6.443  10.705
 5531SOL    HW118034   1.371   6.503  10.651
 5531SOL    HW218035   1.510   6.444  10.666
 5532SOL     OW18036   0.098   5.820   9.653
 5532SOL    HW118037   0.041   5.805   9.577
 5532SOL    HW218038   0.174   5.765   9.637
 5533SOL     OW18039   1.178   6.915   9.429
 5533SOL    HW118040   1.085   6.892   9.428
 5533SOL    HW218041   1.201   6.916   9.522
 5534SOL     OW18042   0.625   6.418  10.754
 5534SOL    HW118043   0.682   6.493  10.739
 5534SOL    HW218044   0.684   6.343  10.756
 5535SOL     OW18045   1.483   7.383  10.302
 5535SOL    HW118046   1.507   7.446  10.234
 5535SOL    HW218047   1.564   7.335  10.320
 5536SOL     OW18048   0.715   6.141  11.007
 5536SOL    HW118049   0.763   6.197  11.069
 5536SOL    HW218050   0.731   6.052  11.039
 5537SOL     OW18051   1.473   6.777  10.937
 5537SOL    HW118052   1.464   6.794  11.030
 5537SOL    HW218053   1.565   6.797  10.918
 5538SOL     OW18054   0.387   7.324  10.875
 5538SOL    HW118055   0.299   7.356  10.852
 5538SOL    HW218056   0.372   7.239  10.915
 5539SOL     OW18057   1.661   6.462  10.566
 5539SOL    HW118058   1.658   6.377  10.523
 5539SOL    HW218059   1.650   6.525  10.495
 5540SOL     OW18060   1.214   5.903   9.767
 5540SOL    HW118061   1.277   5.831   9.761
 5540SOL    HW218062   1.243   5.954   9.843
 5541SOL     OW18063   0.594   6.318   9.984
 5541SOL    HW118064   0.634   6.404   9.976
 5541SOL    HW218065   0.529   6.315   9.914
 5542SOL     OW18066   1.750   5.949  10.968
 5542SOL    HW118067   1.742   5.964  10.874
 5542SOL    HW218068   1.675   5.893  10.989
 5543SOL     OW18069   1.759   6.516  10.818
 5543SOL    HW118070   1.740   6.609  10.830
 5543SOL    HW218071   1.735   6.499  10.727
 5544SOL     OW18072   0.872   6.950   9.360
 5544SOL    HW118073   0.829   6.986   9.438
 5544SOL    HW218074   0.888   7.027   9.304
 5545SOL     OW18075   0.666   7.369  10.244
 5545SOL    HW118076   0.651   7.462  10.226
 5545SOL    HW218077   0.761   7.359  10.238
 5546SOL     OW18078   0.871   6.559  10.164
 5546SOL    HW118079   0.921   6.486  10.201
 5546SOL    HW218080   0.830   6.601  10.240
 5547SOL     OW18081   1.065   6.562   9.396
 5547SOL    HW118082   1.049   6.621   9.322
 5547SOL    HW218083   1.144   6.513   9.372
 5548SOL     OW18084   1.846   7.139  10.150
 5548SOL    HW118085   1.765   7.125  10.101
 5548SOL    HW218086   1.855   7.060  10.204
 5549SOL     OW18087   0.216   6.886  11.166
 5549SOL    HW118088   0.124   6.871  11.144
 5549SOL    HW218089   0.217   6.886  11.262
 5550SOL     OW18090   0.135   6.849   9.967
 5550SOL    HW118091   0.056   6.808  10.001
 5550SOL    HW218092   0.193   6.776   9.945
 5551SOL     OW18093   0.686   6.995  10.945
 5551SOL    HW118094   0.605   6.955  10.976
 5551SOL    HW218095   0.684   7.084  10.982
 5552SOL     OW18096   1.811   5.761  10.547
 5552SOL    HW118097   1.813   5.666  10.558
 5552SOL    HW218098   1.823   5.775  10.453
 5553SOL     OW18099   0.444   6.012   9.840
 5553SOL    HW118100   0.449   5.939   9.779
 5553SOL    HW218101   0.387   5.981   9.910
 5554SOL     OW18102   1.684   7.078  10.409
 5554SOL    HW118103   1.612   7.056  10.350
 5554SOL    HW218104   1.688   7.005  10.470
 5555SOL     OW18105   0.356   6.147  10.605
 5555SOL    HW118106   0.400   6.086  10.664
 5555SOL    HW218107   0.369   6.110  10.518
 5556SOL     OW18108   0.835   7.174   9.977
 5556SOL    HW118109   0.819   7.251   9.922
 5556SOL    HW218110   0.757   7.120   9.966
 5557SOL     OW18111   1.426   5.818  10.424
 5557SOL    HW118112   1.438   5.729  10.457
 5557SOL    HW218113   1.377   5.863  10.493
 5558SOL     OW18114   1.009   5.602  10.442
 5558SOL    HW118115   0.954   5.537  10.399
 5558SOL    HW218116   1.096   5.563  10.444
 5559SOL     OW18117   0.772   6.920   9.640
 5559SOL    HW118118   0.750   6.827   9.646
 5559SOL    HW218119   0.857   6.927   9.684
 5560SOL     OW18120   0.623   7.144  10.597
 5560SOL    HW118121   0.622   7.228  10.643
 5560SOL    HW218122   0.711   7.138  10.561
 5561SOL     OW18123   1.365   5.632   9.489
 5561SOL    HW118124   1.405   5.559   9.442
 5561SOL    HW218125   1.274   5.605   9.502
 5562SOL     OW18126   1.287   6.052   9.985
 5562SOL    HW118127   1.238   6.134   9.990
 5562SOL    HW218128   1.289   6.019  10.074
 5563SOL     OW18129   1.583   5.778  10.195
 5563SOL    HW118130   1.529   5.806  10.269
 5563SOL    HW218131   1.585   5.853  10.136
 5564SOL     OW18132   0.057   6.630   9.582
 5564SOL    HW118133   0.150   6.610   9.583
 5564SOL    HW218134   0.030   6.623   9.674
 5565SOL     OW18135   0.892   7.248   9.637
 5565SOL    HW118136   0.814   7.232   9.583
 5565SOL    HW218137   0.862   7.312   9.702
 5566SOL     OW18138   0.244   6.282  11.254
 5566SOL    HW118139   0.206   6.235  11.328
 5566SOL    HW218140   0.235   6.222  11.180
 5567SOL     OW18141   0.239   5.860  12.148
 5567SOL    HW118142   0.274   5.831  12.232
 5567SOL    HW218143   0.153   5.816  12.143
 5568SOL     OW18144   8.002   5.975  11.780
 5568SOL    HW118145   7.912   5.963  11.810
 5568SOL    HW218146   8.009   5.919  11.702
 5569SOL     OW18147   0.549   6.833  12.354
 5569SOL    HW118148   0.479   6.882  12.311
 5569SOL    HW218149   0.550   6.867  12.444
 5570SOL     OW18150   1.579   7.107  11.887
 5570SOL    HW118151   1.537   7.078  11.968
 5570SOL    HW218152   1.508   7.107  11.822
 5571SOL     OW18153   1.136   6.282  11.864
 5571SOL    HW118154   1.180   6.367  11.856
 5571SOL    HW218155   1.083   6.289  11.943
 5572SOL     OW18156   1.787   6.180  11.396
 5572SOL    HW118157   1.756   6.177  11.306
 5572SOL    HW218158   1.744   6.106  11.438
 5573SOL     OW18159   0.760   6.726  12.228
 5573SOL    HW118160   0.681   6.755  12.274
 5573SOL    HW218161   0.793   6.804  12.184
 5574SOL     OW18162   0.690   6.582  11.818
 5574SOL    HW118163   0.756   6.577  11.887
 5574SOL    HW218164   0.622   6.639  11.854
 5575SOL     OW18165   0.356   6.997  12.240
 5575SOL    HW118166   0.285   6.951  12.195
 5575SOL    HW218167   0.394   7.054  12.173
 5576SOL     OW18168   1.597   6.024  11.920
 5576SOL    HW118169   1.527   6.036  11.856
 5576SOL    HW218170   1.586   6.096  11.982
 5577SOL     OW18171   0.231   7.279  11.653
 5577SOL    HW118172   0.216   7.364  11.695
 5577SOL    HW218173   0.298   7.298  11.586
 5578SOL     OW18174   0.304   7.020  11.686
 5578SOL    HW118175   0.275   7.111  11.693
 5578SOL    HW218176   0.248   6.972  11.746
 5579SOL     OW18177   0.278   6.672  12.063
 5579SOL    HW118178   0.278   6.580  12.089
 5579SOL    HW218179   0.202   6.710  12.108
 5580SOL     OW18180   0.572   6.576  11.317
 5580SOL    HW118181   0.623   6.618  11.249
 5580SOL    HW218182   0.612   6.605  11.399
 5581SOL     OW18183   0.138   6.214  11.719
 5581SOL    HW118184   0.096   6.133  11.749
 5581SOL    HW218185   0.123   6.276  11.791
 5582SOL     OW18186   1.843   7.343  11.495
 5582SOL    HW118187   1.914   7.318  11.555
 5582SOL    HW218188   1.863   7.433  11.471
 5583SOL     OW18189   0.019   7.169  11.313
 5583SOL    HW118190   0.002   7.076  11.300
 5583SOL    HW218191   0.005   7.184  11.406
 5584SOL     OW18192   1.694   6.511  11.822
 5584SOL    HW118193   1.772   6.462  11.796
 5584SOL    HW218194   1.669   6.560  11.745
 5585SOL     OW18195   1.652   6.687  11.602
 5585SOL    HW118196   1.739   6.685  11.560
 5585SOL    HW218197   1.660   6.754  11.670
 5586SOL     OW18198   0.154   6.317   0.291
 5586SOL    HW118199   0.147   6.283   0.380
 5586SOL    HW218200   0.213   6.392   0.298
 5587SOL     OW18201   0.616   6.983  11.900
 5587SOL    HW118202   0.572   6.899  11.908
 5587SOL    HW218203   0.599   7.010  11.810
 5588SOL     OW18204   0.828   5.593  11.694
 5588SOL    HW118205   0.867   5.675  11.665
 5588SOL    HW218206   0.733   5.610  11.693
 5589SOL     OW18207   0.183   6.503  12.440
 5589SOL    HW118208   0.276   6.487  12.425
 5589SOL    HW218209   0.144   6.503  12.352
 5590SOL     OW18210   1.532   6.589  11.372
 5590SOL    HW118211   1.463   6.531  11.403
 5590SOL    HW218212   1.575   6.620  11.452
 5591SOL     OW18213   1.479   6.996  12.120
 5591SOL    HW118214   1.409   7.014  12.184
 5591SOL    HW218215   1.460   6.907  12.089
 5592SOL     OW18216   1.643   7.353  11.744
 5592SOL    HW118217   1.626   7.312  11.660
 5592SOL    HW218218   1.634   7.283  11.808
 5593SOL     OW18219   0.591   6.299  11.440
 5593SOL    HW118220   0.591   6.385  11.398
 5593SOL    HW218221   0.530   6.308  11.513
 5594SOL     OW18222   1.288   5.962  12.107
 5594SOL    HW118223   1.199   5.927  12.106
 5594SOL    HW218224   1.335   5.903  12.167
 5595SOL     OW18225   1.575   7.270  11.484
 5595SOL    HW118226   1.668   7.288  11.474
 5595SOL    HW218227   1.544   7.250  11.395
 5596SOL     OW18228   0.987   5.935  12.383
 5596SOL    HW118229   0.984   6.006  12.447
 5596SOL    HW218230   0.899   5.932  12.346
 5597SOL     OW18231   1.056   6.285  11.594
 5597SOL    HW118232   1.075   6.277  11.688
 5597SOL    HW218233   0.971   6.241  11.583
 5598SOL     OW18234   0.099   6.371  11.945
 5598SOL    HW118235   0.178   6.384  11.997
 5598SOL    HW218236   0.046   6.449  11.961
 5599SOL     OW18237   0.071   7.340   0.286
 5599SOL    HW118238   0.052   7.371   0.374
 5599SOL    HW218239   0.033   7.407   0.229
 5600SOL     OW18240   0.897   5.937  11.370
 5600SOL    HW118241   0.941   5.997  11.310
 5600SOL    HW218242   0.883   5.857  11.319
 5601SOL     OW18243   1.386   6.730  11.715
 5601SOL    HW118244   1.463   6.717  11.660
 5601SOL    HW218245   1.330   6.790  11.665
 5602SOL     OW18246   0.558   5.766  12.064
 5602SOL    HW118247   0.562   5.819  12.144
 5602SOL    HW218248   0.551   5.830  11.993
 5603SOL     OW18249   0.997   7.034  11.638
 5603SOL    HW118250   0.969   7.109  11.585
 5603SOL    HW218251   0.967   7.057  11.727
 5604SOL     OW18252   0.360   7.409  12.030
 5604SOL    HW118253   0.405   7.326  12.044
 5604SOL    HW218254   0.426   7.476  12.050
 5605SOL     OW18255   1.802   6.648  12.046
 5605SOL    HW118256   1.752   6.620  11.969
 5605SOL    HW218257   1.737   6.651  12.116
 5606SOL     OW18258   0.303   6.527  11.408
 5606SOL    HW118259   0.389   6.552  11.376
 5606SOL    HW218260   0.281   6.448  11.358
 5607SOL     OW18261   1.483   6.341  11.886
 5607SOL    HW118262   1.479   6.298  11.971
 5607SOL    HW218263   1.561   6.395  11.889
 5608SOL     OW18264   1.133   7.364  11.398
 5608SOL    HW118265   1.053   7.331  11.439
 5608SOL    HW218266   1.154   7.299  11.331
 5609SOL     OW18267   1.632   6.975  11.270
 5609SOL    HW118268   1.589   7.058  11.251
 5609SOL    HW218269   1.567   6.908  11.248
 5610SOL     OW18270   0.452   7.339  11.479
 5610SOL    HW118271   0.501   7.380  11.550
 5610SOL    HW218272   0.519   7.289  11.431
 5611SOL     OW18273   1.398   5.692  11.618
 5611SOL    HW118274   1.389   5.666  11.526
 5611SOL    HW218275   1.492   5.696  11.633
 5612SOL     OW18276   0.208   7.384  12.389
 5612SOL    HW118277   0.254   7.307  12.421
 5612SOL    HW218278   0.174   7.358  12.304
 5613SOL     OW18279   0.936   7.286  12.068
 5613SOL    HW118280   1.006   7.228  12.098
 5613SOL    HW218281   0.895   7.238  11.995
 5614SOL     OW18282   0.411   6.280  11.652
 5614SOL    HW118283   0.429   6.187  11.664
 5614SOL    HW218284   0.317   6.289  11.667
 5615SOL     OW18285   0.657   5.696  11.272
 5615SOL    HW118286   0.707   5.617  11.293
 5615SOL    HW218287   0.598   5.669  11.202
 5616SOL     OW18288   0.813   6.959  12.101
 5616SOL    HW118289   0.901   6.959  12.063
 5616SOL    HW218290   0.755   6.971  12.026
 5617SOL     OW18291   0.937   6.100  12.066
 5617SOL    HW118292   0.907   6.088  11.975
 5617SOL    HW218293   0.970   6.013  12.091
 5618SOL     OW18294   0.563   5.649  11.666
 5618SOL    HW118295   0.480   5.648  11.714
 5618SOL    HW218296   0.555   5.723  11.606
 5619SOL     OW18297   1.433   6.792  11.211
 5619SOL    HW118298   1.461   6.716  11.261
 5619SOL    HW218299   1.345   6.812  11.244
 5620SOL     OW18300   0.280   5.637  11.345
 5620SOL    HW118301   0.335   5.701  11.300
 5620SOL    HW218302   0.342   5.581  11.392
 5621SOL     OW18303   0.946   5.836  11.625
 5621SOL    HW118304   0.921   5.872  11.539
 5621SOL    HW218305   1.040   5.853  11.631
 5622SOL     OW18306   1.225   7.157  11.964
 5622SOL    HW118307   1.234   7.223  11.897
 5622SOL    HW218308   1.289   7.181  12.031
 5623SOL     OW18309   0.477   6.743  11.891
 5623SOL    HW118310   0.414   6.721  11.960
 5623SOL    HW218311   0.431   6.724  11.810
 5624SOL     OW18312   1.259   7.377  11.787
 5624SOL    HW118313   1.301   7.442  11.731
 5624SOL    HW218314   1.186   7.423  11.828
 5625SOL     OW18315   1.027   6.114  11.200
 5625SOL    HW118316   0.982   6.196  11.180
 5625SOL    HW218317   1.090   6.136  11.268
 5626SOL     OW18318   0.574   5.793  12.353
 5626SOL    HW118319   0.587   5.704  12.320
 5626SOL    HW218320   0.480   5.798  12.372
 5627SOL     OW18321   0.867   6.044  11.806
 5627SOL    HW118322   0.821   6.100  11.743
 5627SOL    HW218323   0.890   5.966  11.757
 5628SOL     OW18324   1.021   5.629  11.910
 5628SOL    HW118325   0.959   5.627  11.836
 5628SOL    HW218326   0.995   5.554  11.964
 5629SOL     OW18327   1.433   6.740  12.022
 5629SOL    HW118328   1.365   6.673  12.027
 5629SOL    HW218329   1.449   6.751  11.928
 5630SOL     OW18330   1.460   6.196  12.125
 5630SOL    HW118331   1.402   6.121  12.131
 5630SOL    HW218332   1.520   6.187  12.199
 5631SOL     OW18333   1.838   6.394  11.559
 5631SOL    HW118334   1.898   6.346  11.617
 5631SOL    HW218335   1.816   6.331  11.491
 5632SOL     OW18336   0.490   7.007  11.316
 5632SOL    HW118337   0.410   6.977  11.360
 5632SOL    HW218338   0.491   6.958  11.234
 5633SOL     OW18339   1.686   6.860  11.802
 5633SOL    HW118340   1.780   6.856  11.822
 5633SOL    HW218341   1.659   6.946  11.832
 5634SOL     OW18342   1.393   6.159  11.242
 5634SOL    HW118343   1.331   6.137  11.312
 5634SOL    HW218344   1.477   6.127  11.274
 5635SOL     OW18345   0.533   5.842  11.477
 5635SOL    HW118346   0.582   5.795  11.409
 5635SOL    HW218347   0.508   5.924  11.435
 5636SOL     OW18348   1.104   6.830  12.295
 5636SOL    HW118349   1.029   6.856  12.349
 5636SOL    HW218350   1.078   6.854  12.206
 5637SOL     OW18351   1.605   6.680  12.241
 5637SOL    HW118352   1.568   6.713  12.323
 5637SOL    HW218353   1.538   6.700  12.175
 5638SOL     OW18354   0.712   6.650  11.545
 5638SOL    HW118355   0.698   6.628  11.638
 5638SOL    HW218356   0.787   6.597  11.518
 5639SOL     OW18357   0.440   6.405  12.442
 5639SOL    HW118358   0.487   6.443  12.516
 5639SOL    HW218359   0.398   6.327  12.479
 5640SOL     OW18360   1.253   5.948  12.430
 5640SOL    HW118361   1.275   6.036  12.462
 5640SOL    HW218362   1.162   5.955  12.402
 5641SOL     OW18363   0.336   6.691  11.657
 5641SOL    HW118364   0.337   6.764  11.595
 5641SOL    HW218365   0.336   6.612  11.603
 5642SOL     OW18366   0.552   6.106  12.031
 5642SOL    HW118367   0.567   6.167  11.958
 5642SOL    HW218368   0.613   6.135  12.099
 5643SOL     OW18369   1.246   6.937  11.567
 5643SOL    HW118370   1.301   7.007  11.601
 5643SOL    HW218371   1.158   6.958  11.598
 5644SOL     OW18372   1.291   7.033  12.314
 5644SOL    HW118373   1.333   7.026  12.400
 5644SOL    HW218374   1.226   6.963  12.313
 5645SOL     OW18375   1.575   6.203  11.657
 5645SOL    HW118376   1.525   6.245  11.727
 5645SOL    HW218377   1.611   6.275  11.606
 5646SOL     OW18378   0.353   7.164  12.456
 5646SOL    HW118379   0.351   7.100  12.385
 5646SOL    HW218380   0.446   7.171  12.480
 5647SOL     OW18381   0.582   6.458  12.213
 5647SOL    HW118382   0.611   6.549  12.218
 5647SOL    HW218383   0.534   6.443  12.294
 5648SOL     OW18384   1.319   6.440  12.170
 5648SOL    HW118385   1.231   6.412  12.145
 5648SOL    HW218386   1.373   6.361  12.160
 5649SOL     OW18387   1.198   6.112  11.432
 5649SOL    HW118388   1.206   6.034  11.487
 5649SOL    HW218389   1.156   6.177  11.488
 5650SOL     OW18390   0.310   5.778  12.400
 5650SOL    HW118391   0.258   5.832  12.459
 5650SOL    HW218392   0.281   5.688  12.416
 5651SOL     OW18393   0.078   6.927  12.431
 5651SOL    HW118394   0.050   6.880  12.510
 5651SOL    HW218395   0.085   7.018  12.458
 5652SOL     OW18396   0.716   6.213  12.221
 5652SOL    HW118397   0.795   6.207  12.166
 5652SOL    HW218398   0.685   6.302  12.208
 5653SOL     OW18399   0.321   5.657  11.785
 5653SOL    HW118400   0.287   5.744  11.806
 5653SOL    HW218401   0.320   5.609  11.868
 5654SOL     OW18402   1.628   5.968  11.527
 5654SOL    HW118403   1.655   5.903  11.591
 5654SOL    HW218404   1.600   6.043  11.580
 5655SOL     OW18405   1.034   6.342  12.146
 5655SOL    HW118406   1.020   6.351  12.240
 5655SOL    HW218407   1.006   6.253  12.126
 5656SOL     OW18408   1.523   5.857  11.296
 5656SOL    HW118409   1.461   5.790  11.327
 5656SOL    HW218410   1.559   5.895  11.376
 5657SOL     OW18411   1.286   6.410  11.198
 5657SOL    HW118412   1.326   6.323  11.204
 5657SOL    HW218413   1.319   6.447  11.117
 5658SOL     OW18414   1.073   6.930  12.029
 5658SOL    HW118415   1.080   6.856  11.969
 5658SOL    HW218416   1.131   6.997  11.993
 5659SOL     OW18417   0.319   6.396  12.116
 5659SOL    HW118418   0.412   6.417  12.124
 5659SOL    HW218419   0.313   6.304  12.138
 5660SOL     OW18420   0.318   6.120  12.161
 5660SOL    HW118421   0.287   6.029  12.156
 5660SOL    HW218422   0.401   6.120  12.115
 5661SOL     OW18423   1.178   5.805   0.153
 5661SOL    HW118424   1.140   5.871   0.211
 5661SOL    HW218425   1.201   5.854   0.074
 5662SOL     OW18426   7.981   6.888  11.372
 5662SOL    HW118427   7.891   6.906  11.400
 5662SOL    HW218428   7.992   6.795  11.386
 5663SOL     OW18429   0.113   7.339  12.130
 5663SOL    HW118430   0.101   7.264  12.072
 5663SOL    HW218431   0.189   7.384  12.095
 5664SOL     OW18432   0.495   7.168  12.073
 5664SOL    HW118433   0.565   7.226  12.103
 5664SOL    HW218434   0.540   7.105  12.016
 5665SOL     OW18435   0.969   6.376  12.419
 5665SOL    HW118436   1.016   6.444  12.467
 5665SOL    HW218437   0.877   6.399  12.427
 5666SOL     OW18438   0.094   6.160  12.307
 5666SOL    HW118439   0.180   6.150  12.266
 5666SOL    HW218440   0.104   6.236  12.365
 5667SOL     OW18441   0.818   6.158  11.539
 5667SOL    HW118442   0.825   6.083  11.480
 5667SOL    HW218443   0.742   6.207  11.507
 5668SOL     OW18444   1.651   6.189  12.323
 5668SOL    HW118445   1.648   6.135  12.402
 5668SOL    HW218446   1.744   6.194  12.301
 5669SOL     OW18447   0.726   6.022  12.419
 5669SOL    HW118448   0.656   5.959  12.399
 5669SOL    HW218449   0.710   6.096  12.361
 5670SOL     OW18450   0.923   7.240   0.031
 5670SOL    HW118451   0.901   7.328   0.002
 5670SOL    HW218452   0.908   7.241   0.125
 5671SOL     OW18453   0.459   6.067  11.345
 5671SOL    HW118454   0.511   6.146  11.361
 5671SOL    HW218455   0.373   6.086  11.383
 5672SOL     OW18456   1.294   6.628  12.365
 5672SOL    HW118457   1.306   6.568  12.292
 5672SOL    HW218458   1.233   6.695  12.332
 5673SOL     OW18459   1.320   6.443  11.473
 5673SOL    HW118460   1.247   6.410  11.526
 5673SOL    HW218461   1.292   6.429  11.383
 5674SOL     OW18462   1.765   7.338  12.306
 5674SOL    HW118463   1.831   7.349  12.238
 5674SOL    HW218464   1.744   7.244  12.303
 5675SOL     OW18465   1.247   7.309  12.274
 5675SOL    HW118466   1.330   7.336  12.235
 5675SOL    HW218467   1.258   7.216  12.292
 5676SOL     OW18468   0.065   6.784  12.201
 5676SOL    HW118469   0.074   6.833  12.283
 5676SOL    HW218470  -0.011   6.823  12.158
 5677SOL     OW18471   1.730   5.749  11.677
 5677SOL    HW118472   1.796   5.732  11.610
 5677SOL    HW218473   1.710   5.663  11.714
 5678SOL     OW18474   1.396   7.154  11.669
 5678SOL    HW118475   1.449   7.190  11.598
 5678SOL    HW218476   1.341   7.227  11.697
 5679SOL     OW18477   1.277   6.516  11.841
 5679SOL    HW118478   1.350   6.455  11.851
 5679SOL    HW218479   1.312   6.587  11.788
 5680SOL     OW18480   0.665   7.216  11.327
 5680SOL    HW118481   0.679   7.230  11.234
 5680SOL    HW218482   0.611   7.137  11.332
 5681SOL     OW18483   1.614   7.392   0.030
 5681SOL    HW118484   1.670   7.367  -0.044
 5681SOL    HW218485   1.663   7.461   0.075
 5682SOL     OW18486   1.843   5.755  12.143
 5682SOL    HW118487   1.873   5.667  12.117
 5682SOL    HW218488   1.757   5.763  12.103
 5683SOL     OW18489   0.259   5.906  11.874
 5683SOL    HW118490   0.171   5.938  11.853
 5683SOL    HW218491   0.259   5.897  11.970
 5684SOL     OW18492   1.209   7.182  11.207
 5684SOL    HW118493   1.198   7.091  11.235
 5684SOL    HW218494   1.143   7.195  11.140
 5685SOL     OW18495   0.792   6.607  12.483
 5685SOL    HW118496   0.796   6.658  12.403
 5685SOL    HW218497   0.853   6.650  12.543
 5686SOL     OW18498   0.919   6.500  11.464
 5686SOL    HW118499   0.979   6.533  11.397
 5686SOL    HW218500   0.968   6.431  11.509
 5687SOL     OW18501   1.485   7.230  11.221
 5687SOL    HW118502   1.392   7.210  11.204
 5687SOL    HW218503   1.525   7.231  11.134
 5688SOL     OW18504   1.068   6.699  11.888
 5688SOL    HW118505   0.994   6.650  11.924
 5688SOL    HW218506   1.130   6.631  11.861
 5689SOL     OW18507   1.042   5.834  12.103
 5689SOL    HW118508   1.034   5.769  12.034
 5689SOL    HW218509   1.024   5.786  12.184
 5690SOL     OW18510   0.604   7.078  11.646
 5690SOL    HW118511   0.653   7.029  11.579
 5690SOL    HW218512   0.513   7.072  11.618
 5691SOL     OW18513   1.766   6.017   0.020
 5691SOL    HW118514   1.826   6.010   0.094
 5691SOL    HW218515   1.753   5.927  -0.009
 5692SOL     OW18516   0.250   6.922  11.442
 5692SOL    HW118517   0.154   6.926  11.436
 5692SOL    HW218518   0.270   6.962  11.527
 5693SOL     OW18519   0.106   5.942  11.201
 5693SOL    HW118520   0.033   5.981  11.249
 5693SOL    HW218521   0.122   6.002  11.128
 5694SOL     OW18522   0.093   5.830  11.527
 5694SOL    HW118523   0.043   5.810  11.448
 5694SOL    HW218524   0.175   5.782  11.516
 5695SOL     OW18525   1.177   6.916  11.292
 5695SOL    HW118526   1.087   6.886  11.290
 5695SOL    HW218527   1.202   6.916  11.384
 5696SOL     OW18528   1.490   7.369  12.158
 5696SOL    HW118529   1.511   7.438  12.095
 5696SOL    HW218530   1.574   7.346  12.198
 5697SOL     OW18531   1.681   6.458  12.401
 5697SOL    HW118532   1.656   6.374  12.364
 5697SOL    HW218533   1.656   6.523  12.335
 5698SOL     OW18534   1.217   5.907  11.628
 5698SOL    HW118535   1.277   5.832  11.624
 5698SOL    HW218536   1.247   5.957  11.704
 5699SOL     OW18537   0.597   6.317  11.854
 5699SOL    HW118538   0.636   6.404  11.840
 5699SOL    HW218539   0.533   6.308  11.784
 5700SOL     OW18540   1.822   6.477   0.127
 5700SOL    HW118541   1.783   6.551   0.174
 5700SOL    HW218542   1.768   6.467   0.049
 5701SOL     OW18543   0.869   6.949  11.223
 5701SOL    HW118544   0.829   6.970  11.307
 5701SOL    HW218545   0.878   7.033  11.178
 5702SOL     OW18546   0.667   7.379  12.121
 5702SOL    HW118547   0.649   7.467  12.088
 5702SOL    HW218548   0.760   7.366  12.105
 5703SOL     OW18549   0.874   6.559  12.030
 5703SOL    HW118550   0.921   6.486  12.070
 5703SOL    HW218551   0.836   6.607  12.103
 5704SOL     OW18552   1.080   6.578  11.262
 5704SOL    HW118553   1.056   6.627  11.184
 5704SOL    HW218554   1.152   6.521  11.234
 5705SOL     OW18555   1.845   7.139  12.014
 5705SOL    HW118556   1.760   7.126  11.972
 5705SOL    HW218557   1.855   7.063  12.072
 5706SOL     OW18558   0.135   6.850  11.819
 5706SOL    HW118559   0.057   6.810  11.859
 5706SOL    HW218560   0.195   6.777  11.807
 5707SOL     OW18561   1.804   5.760  12.415
 5707SOL    HW118562   1.837   5.671  12.428
 5707SOL    HW218563   1.812   5.775  12.321
 5708SOL     OW18564   0.445   6.018  11.696
 5708SOL    HW118565   0.471   5.946  11.639
 5708SOL    HW218566   0.387   5.977  11.761
 5709SOL     OW18567   1.696   7.081  12.283
 5709SOL    HW118568   1.623   7.043  12.233
 5709SOL    HW218569   1.712   7.019  12.354
 5710SOL     OW18570   0.832   7.172  11.842
 5710SOL    HW118571   0.808   7.243  11.783
 5710SOL    HW218572   0.756   7.114  11.841
 5711SOL     OW18573   1.444   5.821  12.293
 5711SOL    HW118574   1.505   5.781  12.355
 5711SOL    HW218575   1.377   5.862  12.348
 5712SOL     OW18576   0.998   5.552  12.316
 5712SOL    HW118577   0.963   5.515  12.235
 5712SOL    HW218578   1.091   5.534  12.313
 5713SOL     OW18579   0.776   6.920  11.493
 5713SOL    HW118580   0.750   6.828  11.503
 5713SOL    HW218581   0.856   6.928  11.545
 5714SOL     OW18582   1.361   5.634  11.350
 5714SOL    HW118583   1.396   5.566  11.293
 5714SOL    HW218584   1.271   5.607  11.369
 5715SOL     OW18585   1.302   6.052  11.847
 5715SOL    HW118586   1.248   6.131  11.848
 5715SOL    HW218587   1.295   6.017  11.936
 5716SOL     OW18588   1.585   5.776  12.059
 5716SOL    HW118589   1.529   5.800  12.132
 5716SOL    HW218590   1.582   5.852  12.000
 5717SOL     OW18591   0.045   6.625  11.445
 5717SOL    HW118592   0.137   6.602  11.431
 5717SOL    HW218593   0.035   6.628  11.540
 5718SOL     OW18594   0.893   7.251  11.499
 5718SOL    HW118595   0.815   7.233  11.446
 5718SOL    HW218596   0.863   7.314  11.565
 5719SOL     OW18597   0.242   7.711   0.989
 5719SOL    HW118598   0.267   7.683   1.077
 5719SOL    HW218599   0.158   7.669   0.973
 5720SOL     OW18600   8.005   7.819   0.605
 5720SOL    HW118601   7.911   7.809   0.624
 5720SOL    HW218602   8.020   7.763   0.529
 5721SOL     OW18603   1.761   0.035   0.221
 5721SOL    HW118604   1.720  -0.031   0.166
 5721SOL    HW218605   1.717   0.027   0.305
 5722SOL     OW18606   0.452   7.836   1.549
 5722SOL    HW118607   0.525   7.790   1.508
 5722SOL    HW218608   0.375   7.786   1.523
 5723SOL     OW18609   1.593   7.943   0.697
 5723SOL    HW118610   1.503   7.925   0.671
 5723SOL    HW218611   1.587   7.969   0.789
 5724SOL     OW18612   1.590   7.577   1.456
 5724SOL    HW118613   1.629   7.654   1.415
 5724SOL    HW218614   1.561   7.609   1.542
 5725SOL     OW18615   0.111   0.075   0.637
 5725SOL    HW118616   0.077  -0.010   0.608
 5725SOL    HW218617   0.034   0.121   0.670
 5726SOL     OW18618   0.819   7.437   0.541
 5726SOL    HW118619   0.862   7.515   0.507
 5726SOL    HW218620   0.726   7.457   0.537
 5727SOL     OW18621   0.346   7.700   1.832
 5727SOL    HW118622   0.376   7.781   1.791
 5727SOL    HW218623   0.256   7.718   1.858
 5728SOL     OW18624   1.267   7.797   0.929
 5728SOL    HW118625   1.179   7.764   0.941
 5728SOL    HW218626   1.322   7.743   0.986
 5729SOL     OW18627   1.409   7.936   1.692
 5729SOL    HW118628   1.414   7.953   1.786
 5729SOL    HW218629   1.461   7.855   1.680
 5730SOL     OW18630   0.933   0.398   1.508
 5730SOL    HW118631   0.975   0.320   1.472
 5730SOL    HW218632   0.839   0.384   1.497
 5731SOL     OW18633   0.998   7.819   1.236
 5731SOL    HW118634   0.911   7.841   1.270
 5731SOL    HW218635   0.982   7.757   1.165
 5732SOL     OW18636   0.884   7.783   0.216
 5732SOL    HW118637   0.971   7.795   0.177
 5732SOL    HW218638   0.853   7.700   0.179
 5733SOL     OW18639   1.695   7.986   1.843
 5733SOL    HW118640   1.700   8.073   1.804
 5733SOL    HW218641   1.727   7.927   1.774
 5734SOL     OW18642   0.563   7.631   0.900
 5734SOL    HW118643   0.563   7.654   0.993
 5734SOL    HW218644   0.557   7.715   0.855
 5735SOL     OW18645   0.209   7.711   1.492
 5735SOL    HW118646   0.164   7.795   1.490
 5735SOL    HW218647   0.158   7.657   1.552
 5736SOL     OW18648   1.410   7.546   0.447
 5736SOL    HW118649   1.404   7.515   0.357
 5736SOL    HW218650   1.502   7.531   0.472
 5737SOL     OW18651   1.510   7.668   1.717
 5737SOL    HW118652   1.506   7.694   1.809
 5737SOL    HW218653   1.452   7.591   1.712
 5738SOL     OW18654   0.624   7.539   0.116
 5738SOL    HW118655   0.720   7.532   0.111
 5738SOL    HW218656   0.593   7.451   0.097
 5739SOL     OW18657   0.777   7.729   1.756
 5739SOL    HW118658   0.855   7.674   1.752
 5739SOL    HW218659   0.724   7.689   1.826
 5740SOL     OW18660   1.356   0.017   1.426
 5740SOL    HW118661   1.383  -0.009   1.514
 5740SOL    HW218662   1.289   0.084   1.440
 5741SOL     OW18663   0.560   7.504   0.495
 5741SOL    HW118664   0.481   7.506   0.549
 5741SOL    HW218665   0.553   7.582   0.439
 5742SOL     OW18666   0.289   7.541   0.203
 5742SOL    HW118667   0.371   7.587   0.185
 5742SOL    HW218668   0.317   7.454   0.232
 5743SOL     OW18669   0.951   7.658   0.456
 5743SOL    HW118670   0.915   7.716   0.389
 5743SOL    HW218671   1.041   7.687   0.467
 5744SOL     OW18672   0.142  -0.024   1.445
 5744SOL    HW118673   0.186  -0.005   1.362
 5744SOL    HW218674   0.098   0.058   1.468
 5745SOL     OW18675   0.564   7.670   1.174
 5745SOL    HW118676   0.603   7.595   1.219
 5745SOL    HW218677   0.472   7.667   1.199
 5746SOL     OW18678   1.026   7.493   0.740
 5746SOL    HW118679   0.960   7.493   0.670
 5746SOL    HW218680   1.000   7.421   0.798
 5747SOL     OW18681   1.504   7.948   0.956
 5747SOL    HW118682   1.412   7.921   0.964
 5747SOL    HW218683   1.526   7.982   1.042
 5748SOL     OW18684   0.539   7.710   0.313
 5748SOL    HW118685   0.572   7.658   0.240
 5748SOL    HW218686   0.585   7.794   0.305
 5749SOL     OW18687   0.919   7.535   1.392
 5749SOL    HW118688   0.941   7.512   1.301
 5749SOL    HW218689   1.000   7.573   1.427
 5750SOL     OW18690   1.268   7.802   1.283
 5750SOL    HW118691   1.299   7.883   1.324
 5750SOL    HW218692   1.175   7.818   1.266
 5751SOL     OW18693   0.544   7.932   0.844
 5751SOL    HW118694   0.499   7.970   0.768
 5751SOL    HW218695   0.583   8.008   0.888
 5752SOL     OW18696   1.008   7.588   1.757
 5752SOL    HW118697   1.069   7.658   1.734
 5752SOL    HW218698   1.053   7.507   1.733
 5753SOL     OW18699   0.496   7.485   1.755
 5753SOL    HW118700   0.452   7.435   1.686
 5753SOL    HW218701   0.440   7.561   1.769
 5754SOL     OW18702   0.305   7.631   1.248
 5754SOL    HW118703   0.273   7.660   1.333
 5754SOL    HW218704   0.284   7.537   1.246
 5755SOL     OW18705   0.774   0.059   1.023
 5755SOL    HW118706   0.812   0.049   0.935
 5755SOL    HW218707   0.701   0.120   1.012
 5756SOL     OW18708   0.321   7.525   0.627
 5756SOL    HW118709   0.290   7.613   0.649
 5756SOL    HW218710   0.330   7.481   0.712
 5757SOL     OW18711   1.605   7.810   0.367
 5757SOL    HW118712   1.649   7.743   0.418
 5757SOL    HW218713   1.538   7.845   0.426
 5758SOL     OW18714   1.474   7.725   0.117
 5758SOL    HW118715   1.444   7.640   0.149
 5758SOL    HW218716   1.527   7.760   0.189
 5759SOL     OW18717   0.313   7.972   1.009
 5759SOL    HW118718   0.300   7.877   1.000
 5759SOL    HW218719   0.393   7.990   0.960
 5760SOL     OW18720   1.152   7.826   1.678
 5760SOL    HW118721   1.099   7.902   1.701
 5760SOL    HW218722   1.242   7.858   1.677
 5761SOL     OW18723   1.162   7.635   1.477
 5761SOL    HW118724   1.152   7.703   1.543
 5761SOL    HW218725   1.208   7.678   1.405
 5762SOL     OW18726   0.103   8.028   1.162
 5762SOL    HW118727   0.174   8.002   1.102
 5762SOL    HW218728   0.042   7.954   1.161
 5763SOL     OW18729   0.192   7.961   1.720
 5763SOL    HW118730   0.225   7.954   1.630
 5763SOL    HW218731   0.110   8.009   1.712
 5764SOL     OW18732   0.798   0.032   0.267
 5764SOL    HW118733   0.830  -0.058   0.264
 5764SOL    HW218734   0.744   0.035   0.346
 5765SOL     OW18735   1.630   8.020   1.200
 5765SOL    HW118736   1.617   7.971   1.281
 5765SOL    HW218737   1.704   7.977   1.158
 5766SOL     OW18738   0.730   7.885   1.238
 5766SOL    HW118739   0.665   7.818   1.219
 5766SOL    HW218740   0.727   7.944   1.163
 5767SOL     OW18741   0.899   7.526   0.106
 5767SOL    HW118742   0.967   7.557   0.046
 5767SOL    HW218743   0.947   7.484   0.177
 5768SOL     OW18744   1.731   7.603   0.508
 5768SOL    HW118745   1.800   7.582   0.445
 5768SOL    HW218746   1.709   7.519   0.548
 5769SOL     OW18747   1.843   7.617   0.959
 5769SOL    HW118748   1.867   7.526   0.937
 5769SOL    HW218749   1.755   7.628   0.923
 5770SOL     OW18750   0.254   7.773   0.715
 5770SOL    HW118751   0.163   7.799   0.697
 5770SOL    HW218752   0.257   7.762   0.810
 5771SOL     OW18753   1.031   7.667   0.966
 5771SOL    HW118754   1.023   7.625   0.880
 5771SOL    HW218755   1.021   7.595   1.029
 5772SOL     OW18756   1.740   7.820   1.392
 5772SOL    HW118757   1.807   7.889   1.391
 5772SOL    HW218758   1.774   7.754   1.332
 5773SOL     OW18759   0.682   7.640   1.499
 5773SOL    HW118760   0.766   7.617   1.458
 5773SOL    HW218761   0.707   7.676   1.585
 5774SOL     OW18762   0.113   7.791  12.514
 5774SOL    HW118763   0.068   7.767  12.433
 5774SOL    HW218764   0.101   7.886  12.520
 5775SOL     OW18765   0.110   7.667   0.379
 5775SOL    HW118766   0.071   7.726   0.315
 5775SOL    HW218767   0.178   7.620   0.330
 5776SOL     OW18768   0.779   8.009   1.727
 5776SOL    HW118769   0.685   8.022   1.717
 5776SOL    HW218770   0.790   7.914   1.727
 5777SOL     OW18771   1.220   7.744   0.449
 5777SOL    HW118772   1.286   7.674   0.454
 5777SOL    HW218773   1.245   7.806   0.518
 5778SOL     OW18774   0.621   0.257   0.671
 5778SOL    HW118775   0.591   0.337   0.627
 5778SOL    HW218776   0.550   0.194   0.657
 5779SOL     OW18777   1.758   7.787   1.667
 5779SOL    HW118778   1.756   7.806   1.573
 5779SOL    HW218779   1.682   7.731   1.682
 5780SOL     OW18780   1.814   7.620   1.231
 5780SOL    HW118781   1.815   7.525   1.241
 5780SOL    HW218782   1.824   7.634   1.137
 5781SOL     OW18783   0.374   7.865   0.485
 5781SOL    HW118784   0.410   7.790   0.438
 5781SOL    HW218785   0.333   7.828   0.563
 5782SOL     OW18786   1.425   7.662   1.112
 5782SOL    HW118787   1.433   7.574   1.148
 5782SOL    HW218788   1.378   7.711   1.179
 5783SOL     OW18789   1.005   7.453   1.138
 5783SOL    HW118790   0.950   7.387   1.095
 5783SOL    HW218791   1.093   7.414   1.139
 5784SOL     OW18792   1.355   7.491   0.179
 5784SOL    HW118793   1.382   7.435   0.106
 5784SOL    HW218794   1.275   7.450   0.211
 5785SOL     OW18795   1.317   7.894   0.673
 5785SOL    HW118796   1.269   7.978   0.673
 5785SOL    HW218797   1.299   7.856   0.758
 5786SOL     OW18798   1.583   7.654   0.888
 5786SOL    HW118799   1.533   7.662   0.969
 5786SOL    HW218800   1.566   7.735   0.841
 5787SOL     OW18801   0.238   7.715   2.864
 5787SOL    HW118802   0.273   7.688   2.949
 5787SOL    HW218803   0.143   7.711   2.875
 5788SOL     OW18804   8.014   7.824   2.462
 5788SOL    HW118805   7.928   7.846   2.496
 5788SOL    HW218806   7.997   7.770   2.385
 5789SOL     OW18807   1.718   7.939   2.114
 5789SOL    HW118808   1.695   7.945   2.021
 5789SOL    HW218809   1.782   8.009   2.128
 5790SOL     OW18810   0.455   7.857   3.384
 5790SOL    HW118811   0.531   7.811   3.347
 5790SOL    HW218812   0.382   7.796   3.373
 5791SOL     OW18813   1.578   7.909   2.546
 5791SOL    HW118814   1.484   7.901   2.531
 5791SOL    HW218815   1.586   7.950   2.632
 5792SOL     OW18816   1.588   7.582   3.321
 5792SOL    HW118817   1.629   7.659   3.284
 5792SOL    HW218818   1.560   7.609   3.409
 5793SOL     OW18819   0.119   0.080   2.424
 5793SOL    HW118820   0.086  -0.010   2.428
 5793SOL    HW218821   0.073   0.126   2.495
 5794SOL     OW18822   0.816   7.434   2.382
 5794SOL    HW118823   0.861   7.514   2.355
 5794SOL    HW218824   0.724   7.458   2.387
 5795SOL     OW18825   0.352   7.698   3.673
 5795SOL    HW118826   0.397   7.782   3.662
 5795SOL    HW218827   0.262   7.722   3.697
 5796SOL     OW18828   1.263   7.794   2.795
 5796SOL    HW118829   1.174   7.761   2.807
 5796SOL    HW218830   1.317   7.739   2.852
 5797SOL     OW18831   1.411   7.945   3.568
 5797SOL    HW118832   1.389   7.965   3.659
 5797SOL    HW218833   1.462   7.865   3.573
 5798SOL     OW18834   0.911   0.392   3.381
 5798SOL    HW118835   0.996   0.381   3.425
 5798SOL    HW218836   0.901   0.314   3.327
 5799SOL     OW18837   0.991   7.820   3.114
 5799SOL    HW118838   0.908   7.850   3.152
 5799SOL    HW218839   0.965   7.756   3.048
 5800SOL     OW18840   0.901   7.782   2.057
 5800SOL    HW118841   0.911   7.818   1.969
 5800SOL    HW218842   0.918   7.688   2.046
 5801SOL     OW18843   1.757   0.022   3.668
 5801SOL    HW118844   1.725   0.089   3.608
 5801SOL    HW218845   1.762  -0.057   3.615
 5802SOL     OW18846   0.530   7.636   2.766
 5802SOL    HW118847   0.542   7.654   2.859
 5802SOL    HW218848   0.530   7.722   2.725
 5803SOL     OW18849   0.195   7.714   3.373
 5803SOL    HW118850   0.186   7.790   3.431
 5803SOL    HW218851   0.169   7.640   3.427
 5804SOL     OW18852   1.408   7.553   2.300
 5804SOL    HW118853   1.398   7.526   2.209
 5804SOL    HW218854   1.491   7.515   2.327
 5805SOL     OW18855   1.513   7.672   3.590
 5805SOL    HW118856   1.523   7.694   3.683
 5805SOL    HW218857   1.450   7.600   3.589
 5806SOL     OW18858   0.654   7.563   1.960
 5806SOL    HW118859   0.705   7.485   1.982
 5806SOL    HW218860   0.595   7.535   1.890
 5807SOL     OW18861   0.763   7.717   3.606
 5807SOL    HW118862   0.847   7.669   3.606
 5807SOL    HW218863   0.724   7.695   3.691
 5808SOL     OW18864   1.336  -0.001   3.300
 5808SOL    HW118865   1.374  -0.015   3.387
 5808SOL    HW218866   1.277   0.073   3.311
 5809SOL     OW18867   0.550   7.502   2.373
 5809SOL    HW118868   0.473   7.509   2.430
 5809SOL    HW218869   0.544   7.578   2.316
 5810SOL     OW18870   0.278   7.509   2.039
 5810SOL    HW118871   0.328   7.571   1.986
 5810SOL    HW218872   0.344   7.452   2.079
 5811SOL     OW18873   0.950   7.663   2.316
 5811SOL    HW118874   0.916   7.728   2.254
 5811SOL    HW218875   1.042   7.688   2.329
 5812SOL     OW18876   0.126   0.015   3.238
 5812SOL    HW118877   0.176  -0.038   3.300
 5812SOL    HW218878   0.098   0.091   3.290
 5813SOL     OW18879   0.558   7.658   3.038
 5813SOL    HW118880   0.606   7.608   3.104
 5813SOL    HW218881   0.468   7.663   3.071
 5814SOL     OW18882   1.027   7.492   2.602
 5814SOL    HW118883   0.966   7.496   2.528
 5814SOL    HW218884   0.993   7.420   2.656
 5815SOL     OW18885   1.506   7.939   2.811
 5815SOL    HW118886   1.414   7.915   2.826
 5815SOL    HW218887   1.537   7.967   2.897
 5816SOL     OW18888   0.543   7.700   2.181
 5816SOL    HW118889   0.578   7.656   2.104
 5816SOL    HW218890   0.574   7.790   2.174
 5817SOL     OW18891   0.922   7.533   3.254
 5817SOL    HW118892   0.947   7.513   3.164
 5817SOL    HW218893   1.000   7.573   3.292
 5818SOL     OW18894   1.261   7.804   3.134
 5818SOL    HW118895   1.293   7.876   3.188
 5818SOL    HW218896   1.166   7.817   3.130
 5819SOL     OW18897   0.541   7.921   2.719
 5819SOL    HW118898   0.507   7.983   2.654
 5819SOL    HW218899   0.614   7.967   2.761
 5820SOL     OW18900   1.003   7.589   3.610
 5820SOL    HW118901   1.064   7.661   3.594
 5820SOL    HW218902   1.053   7.510   3.588
 5821SOL     OW18903   0.501   7.477   3.610
 5821SOL    HW118904   0.454   7.426   3.544
 5821SOL    HW218905   0.447   7.555   3.624
 5822SOL     OW18906   0.298   7.642   3.123
 5822SOL    HW118907   0.263   7.667   3.209
 5822SOL    HW218908   0.292   7.547   3.121
 5823SOL     OW18909   0.748   0.053   2.873
 5823SOL    HW118910   0.812   0.078   2.806
 5823SOL    HW218911   0.686   0.126   2.875
 5824SOL     OW18912   0.319   7.513   2.533
 5824SOL    HW118913   0.305   7.606   2.550
 5824SOL    HW218914   0.232   7.480   2.511
 5825SOL     OW18915   1.476   7.748   1.981
 5825SOL    HW118916   1.431   7.668   2.007
 5825SOL    HW218917   1.556   7.748   2.034
 5826SOL     OW18918   1.308   0.285   1.941
 5826SOL    HW118919   1.291   0.194   1.964
 5826SOL    HW218920   1.246   0.303   1.870
 5827SOL     OW18921   0.325   7.971   2.899
 5827SOL    HW118922   0.304   7.879   2.884
 5827SOL    HW218923   0.400   7.989   2.842
 5828SOL     OW18924   1.158   7.816   3.539
 5828SOL    HW118925   1.103   7.894   3.551
 5828SOL    HW218926   1.247   7.849   3.546
 5829SOL     OW18927   1.167   7.633   3.335
 5829SOL    HW118928   1.159   7.698   3.405
 5829SOL    HW218929   1.211   7.680   3.264
 5830SOL     OW18930   0.071   0.022   2.972
 5830SOL    HW118931   0.162   0.012   2.946
 5830SOL    HW218932   0.073   0.015   3.068
 5831SOL     OW18933   0.185   7.957   3.509
 5831SOL    HW118934   0.251   8.006   3.559
 5831SOL    HW218935   0.104   8.007   3.521
 5832SOL     OW18936   0.792   0.032   2.106
 5832SOL    HW118937   0.840  -0.050   2.111
 5832SOL    HW218938   0.737   0.033   2.184
 5833SOL     OW18939   1.614   8.010   3.050
 5833SOL    HW118940   1.606   7.998   3.145
 5833SOL    HW218941   1.702   7.980   3.030
 5834SOL     OW18942   0.722   7.882   3.092
 5834SOL    HW118943   0.655   7.817   3.071
 5834SOL    HW218944   0.717   7.946   3.020
 5835SOL     OW18945   1.730   7.631   2.350
 5835SOL    HW118946   1.794   7.608   2.283
 5835SOL    HW218947   1.703   7.546   2.387
 5836SOL     OW18948   1.844   7.622   2.809
 5836SOL    HW118949   1.868   7.531   2.794
 5836SOL    HW218950   1.751   7.626   2.784
 5837SOL     OW18951   0.255   7.768   2.583
 5837SOL    HW118952   0.168   7.796   2.556
 5837SOL    HW218953   0.252   7.770   2.678
 5838SOL     OW18954   1.024   7.667   2.823
 5838SOL    HW118955   1.024   7.620   2.740
 5838SOL    HW218956   1.018   7.598   2.889
 5839SOL     OW18957   1.742   7.816   3.256
 5839SOL    HW118958   1.805   7.888   3.254
 5839SOL    HW218959   1.774   7.754   3.191
 5840SOL     OW18960   0.680   7.635   3.350
 5840SOL    HW118961   0.768   7.614   3.317
 5840SOL    HW218962   0.696   7.668   3.439
 5841SOL     OW18963   0.093   7.775   1.904
 5841SOL    HW118964   0.002   7.760   1.880
 5841SOL    HW218965   0.118   7.854   1.856
 5842SOL     OW18966   0.107   7.665   2.216
 5842SOL    HW118967   0.066   7.716   2.147
 5842SOL    HW218968   0.174   7.613   2.172
 5843SOL     OW18969   0.782   7.998   3.587
 5843SOL    HW118970   0.689   8.020   3.579
 5843SOL    HW218971   0.785   7.902   3.586
 5844SOL     OW18972   1.214   7.750   2.328
 5844SOL    HW118973   1.282   7.684   2.318
 5844SOL    HW218974   1.245   7.806   2.400
 5845SOL     OW18975   0.648   0.277   2.495
 5845SOL    HW118976   0.582   0.340   2.466
 5845SOL    HW218977   0.599   0.212   2.545
 5846SOL     OW18978   1.755   7.789   3.529
 5846SOL    HW118979   1.753   7.802   3.434
 5846SOL    HW218980   1.675   7.739   3.548
 5847SOL     OW18981   1.811   7.621   3.084
 5847SOL    HW118982   1.814   7.525   3.092
 5847SOL    HW218983   1.825   7.638   2.991
 5848SOL     OW18984   0.382   7.863   2.354
 5848SOL    HW118985   0.408   7.786   2.304
 5848SOL    HW218986   0.339   7.829   2.432
 5849SOL     OW18987   1.426   7.661   2.978
 5849SOL    HW118988   1.453   7.586   3.031
 5849SOL    HW218989   1.375   7.716   3.038
 5850SOL     OW18990   1.007   7.455   3.000
 5850SOL    HW118991   0.950   7.387   2.963
 5850SOL    HW218992   1.094   7.417   2.997
 5851SOL     OW18993   1.367   7.496   2.030
 5851SOL    HW118994   1.406   7.420   1.986
 5851SOL    HW218995   1.277   7.470   2.048
 5852SOL     OW18996   1.305   7.898   2.544
 5852SOL    HW118997   1.260   7.982   2.549
 5852SOL    HW218998   1.290   7.858   2.630
 5853SOL     OW18999   1.580   7.653   2.752
 5853SOL    HW119000   1.530   7.657   2.834
 5853SOL    HW219001   1.560   7.736   2.708
 5854SOL     OW19002   0.240   7.717   4.719
 5854SOL    HW119003   0.272   7.689   4.805
 5854SOL    HW219004   0.149   7.687   4.717
 5855SOL     OW19005   8.018   7.838   4.316
 5855SOL    HW119006   7.924   7.843   4.337
 5855SOL    HW219007   8.023   7.779   4.241
 5856SOL     OW19008   1.650   0.031   3.920
 5856SOL    HW119009   1.692   0.017   3.835
 5856SOL    HW219010   1.723   0.043   3.981
 5857SOL     OW19011   0.445   7.859   5.195
 5857SOL    HW119012   0.538   7.838   5.192
 5857SOL    HW219013   0.401   7.774   5.199
 5858SOL     OW19014   1.597   7.915   4.427
 5858SOL    HW119015   1.507   7.905   4.396
 5858SOL    HW219016   1.589   7.954   4.514
 5859SOL     OW19017   1.588   7.582   5.184
 5859SOL    HW119018   1.630   7.656   5.141
 5859SOL    HW219019   1.564   7.614   5.270
 5860SOL     OW19020   0.111   0.096   4.273
 5860SOL    HW119021   0.069   0.011   4.285
 5860SOL    HW219022   0.113   0.134   4.361
 5861SOL     OW19023   0.820   7.432   4.242
 5861SOL    HW119024   0.864   7.513   4.214
 5861SOL    HW219025   0.727   7.455   4.245
 5862SOL     OW19026   0.362   7.708   5.535
 5862SOL    HW119027   0.401   7.791   5.507
 5862SOL    HW219028   0.278   7.734   5.573
 5863SOL     OW19029   1.259   7.804   4.660
 5863SOL    HW119030   1.172   7.766   4.671
 5863SOL    HW219031   1.316   7.748   4.712
 5864SOL     OW19032   1.403   7.942   5.429
 5864SOL    HW119033   1.386   7.960   5.522
 5864SOL    HW219034   1.452   7.860   5.429
 5865SOL     OW19035   0.897   0.380   5.285
 5865SOL    HW119036   0.993   0.377   5.280
 5865SOL    HW219037   0.867   0.330   5.209
 5866SOL     OW19038   0.984   7.816   4.973
 5866SOL    HW119039   0.899   7.845   5.006
 5866SOL    HW219040   0.963   7.753   4.904
 5867SOL     OW19041   0.891   7.788   3.908
 5867SOL    HW119042   0.953   7.798   3.835
 5867SOL    HW219043   0.922   7.711   3.955
 5868SOL     OW19044   1.771   0.031   5.532
 5868SOL    HW119045   1.707   0.095   5.499
 5868SOL    HW219046   1.760  -0.045   5.474
 5869SOL     OW19047   0.555   7.629   4.627
 5869SOL    HW119048   0.557   7.648   4.721
 5869SOL    HW219049   0.549   7.715   4.586
 5870SOL     OW19050   0.190   7.708   5.222
 5870SOL    HW119051   0.187   7.784   5.280
 5870SOL    HW219052   0.180   7.633   5.281
 5871SOL     OW19053   1.396   7.543   4.168
 5871SOL    HW119054   1.392   7.523   4.075
 5871SOL    HW219055   1.487   7.571   4.183
 5872SOL     OW19056   1.522   7.677   5.455
 5872SOL    HW119057   1.527   7.699   5.548
 5872SOL    HW219058   1.469   7.598   5.452
 5873SOL     OW19059   0.641   7.567   3.827
 5873SOL    HW119060   0.703   7.498   3.850
 5873SOL    HW219061   0.593   7.532   3.752
 5874SOL     OW19062   0.771   7.713   5.478
 5874SOL    HW119063   0.854   7.665   5.476
 5874SOL    HW219064   0.728   7.682   5.558
 5875SOL     OW19065   1.332   0.003   5.158
 5875SOL    HW119066   1.380  -0.011   5.240
 5875SOL    HW219067   1.275   0.077   5.176
 5876SOL     OW19068   0.557   7.505   4.220
 5876SOL    HW119069   0.478   7.510   4.274
 5876SOL    HW219070   0.554   7.585   4.167
 5877SOL     OW19071   0.280   7.497   3.894
 5877SOL    HW119072   0.337   7.565   3.860
 5877SOL    HW219073   0.338   7.440   3.944
 5878SOL     OW19074   0.944   7.670   4.177
 5878SOL    HW119075   0.904   7.756   4.184
 5878SOL    HW219076   1.038   7.686   4.185
 5879SOL     OW19077   0.132   0.015   5.107
 5879SOL    HW119078   0.196  -0.037   5.154
 5879SOL    HW219079   0.118   0.093   5.162
 5880SOL     OW19080   0.558   7.665   4.901
 5880SOL    HW119081   0.599   7.597   4.955
 5880SOL    HW219082   0.467   7.665   4.930
 5881SOL     OW19083   1.025   7.497   4.466
 5881SOL    HW119084   0.964   7.496   4.392
 5881SOL    HW219085   0.997   7.423   4.520
 5882SOL     OW19086   1.499   7.951   4.680
 5882SOL    HW119087   1.409   7.922   4.696
 5882SOL    HW219088   1.530   7.981   4.765
 5883SOL     OW19089   0.543   7.715   4.043
 5883SOL    HW119090   0.578   7.671   3.965
 5883SOL    HW219091   0.582   7.802   4.041
 5884SOL     OW19092   0.922   7.532   5.117
 5884SOL    HW119093   0.946   7.511   5.027
 5884SOL    HW219094   1.001   7.572   5.154
 5885SOL     OW19095   1.256   7.801   5.000
 5885SOL    HW119096   1.287   7.876   5.050
 5885SOL    HW219097   1.161   7.815   4.992
 5886SOL     OW19098   0.545   7.922   4.584
 5886SOL    HW119099   0.513   7.985   4.520
 5886SOL    HW219100   0.619   7.966   4.627
 5887SOL     OW19101   1.007   7.584   5.478
 5887SOL    HW119102   1.068   7.655   5.458
 5887SOL    HW219103   1.054   7.505   5.452
 5888SOL     OW19104   0.499   7.478   5.478
 5888SOL    HW119105   0.454   7.429   5.409
 5888SOL    HW219106   0.449   7.559   5.486
 5889SOL     OW19107   0.296   7.633   4.979
 5889SOL    HW119108   0.255   7.666   5.059
 5889SOL    HW219109   0.279   7.539   4.981
 5890SOL     OW19110   0.750   0.053   4.729
 5890SOL    HW119111   0.818   0.065   4.663
 5890SOL    HW219112   0.694   0.131   4.721
 5891SOL     OW19113   0.309   7.518   4.342
 5891SOL    HW119114   0.281   7.606   4.368
 5891SOL    HW219115   0.321   7.471   4.425
 5892SOL     OW19116   1.589   7.784   4.110
 5892SOL    HW119117   1.648   7.727   4.160
 5892SOL    HW219118   1.590   7.866   4.159
 5893SOL     OW19119   1.504   7.732   3.854
 5893SOL    HW119120   1.450   7.656   3.876
 5893SOL    HW219121   1.546   7.757   3.937
 5894SOL     OW19122   1.219   0.237   3.764
 5894SOL    HW119123   1.284   0.178   3.804
 5894SOL    HW219124   1.261   0.323   3.766
 5895SOL     OW19125   0.324   7.974   4.760
 5895SOL    HW119126   0.303   7.882   4.743
 5895SOL    HW219127   0.401   7.992   4.706
 5896SOL     OW19128   1.143   7.827   5.407
 5896SOL    HW119129   1.083   7.899   5.428
 5896SOL    HW219130   1.230   7.867   5.410
 5897SOL     OW19131   1.163   7.637   5.203
 5897SOL    HW119132   1.153   7.705   5.270
 5897SOL    HW219133   1.208   7.680   5.131
 5898SOL     OW19134   0.073   0.023   4.841
 5898SOL    HW119135   0.163   0.009   4.813
 5898SOL    HW219136   0.076   0.014   4.936
 5899SOL     OW19137   0.187   7.926   5.388
 5899SOL    HW119138   0.274   7.959   5.411
 5899SOL    HW219139   0.129   8.002   5.398
 5900SOL     OW19140   0.800   0.040   3.963
 5900SOL    HW119141   0.836  -0.048   3.951
 5900SOL    HW219142   0.750   0.034   4.044
 5901SOL     OW19143   1.629   8.017   4.916
 5901SOL    HW119144   1.618   7.981   5.004
 5901SOL    HW219145   1.706   7.972   4.881
 5902SOL     OW19146   0.718   7.891   4.955
 5902SOL    HW119147   0.653   7.823   4.937
 5902SOL    HW219148   0.716   7.947   4.878
 5903SOL     OW19149   1.743   7.599   4.239
 5903SOL    HW119150   1.811   7.581   4.174
 5903SOL    HW219151   1.718   7.513   4.272
 5904SOL     OW19152   1.844   7.615   4.686
 5904SOL    HW119153   1.870   7.526   4.661
 5904SOL    HW219154   1.757   7.626   4.648
 5905SOL     OW19155   0.252   7.763   4.441
 5905SOL    HW119156   0.163   7.794   4.422
 5905SOL    HW219157   0.255   7.756   4.536
 5906SOL     OW19158   1.025   7.668   4.691
 5906SOL    HW119159   1.023   7.624   4.606
 5906SOL    HW219160   1.019   7.597   4.755
 5907SOL     OW19161   1.745   7.821   5.114
 5907SOL    HW119162   1.808   7.892   5.105
 5907SOL    HW219163   1.772   7.756   5.050
 5908SOL     OW19164   0.684   7.632   5.222
 5908SOL    HW119165   0.769   7.611   5.185
 5908SOL    HW219166   0.704   7.666   5.310
 5909SOL     OW19167   0.105   7.789   3.740
 5909SOL    HW119168   0.019   7.748   3.755
 5909SOL    HW219169   0.085   7.882   3.729
 5910SOL     OW19170   0.076   7.671   4.097
 5910SOL    HW119171   0.044   7.671   4.007
 5910SOL    HW219172   0.167   7.640   4.090
 5911SOL     OW19173   0.708   7.975   5.421
 5911SOL    HW119174   0.784   8.029   5.445
 5911SOL    HW219175   0.738   7.885   5.433
 5912SOL     OW19176   1.207   7.744   4.198
 5912SOL    HW119177   1.274   7.677   4.185
 5912SOL    HW219178   1.246   7.804   4.262
 5913SOL     OW19179   0.646   0.227   4.346
 5913SOL    HW119180   0.632   0.321   4.356
 5913SOL    HW219181   0.570   0.187   4.390
 5914SOL     OW19182   1.756   7.808   5.384
 5914SOL    HW119183   1.745   7.821   5.290
 5914SOL    HW219184   1.684   7.750   5.409
 5915SOL     OW19185   1.814   7.617   4.957
 5915SOL    HW119186   1.818   7.522   4.964
 5915SOL    HW219187   1.826   7.634   4.864
 5916SOL     OW19188   0.371   7.863   4.215
 5916SOL    HW119189   0.413   7.791   4.169
 5916SOL    HW219190   0.333   7.823   4.293
 5917SOL     OW19191   1.426   7.670   4.835
 5917SOL    HW119192   1.450   7.588   4.877
 5917SOL    HW219193   1.373   7.716   4.900
 5918SOL     OW19194   1.007   7.453   4.863
 5918SOL    HW119195   0.951   7.387   4.821
 5918SOL    HW219196   1.095   7.415   4.860
 5919SOL     OW19197   1.364   7.497   3.894
 5919SOL    HW119198   1.402   7.420   3.852
 5919SOL    HW219199   1.274   7.471   3.913
 5920SOL     OW19200   1.318   7.897   4.404
 5920SOL    HW119201   1.285   7.987   4.407
 5920SOL    HW219202   1.299   7.862   4.491
 5921SOL     OW19203   1.584   7.650   4.608
 5921SOL    HW119204   1.532   7.671   4.686
 5921SOL    HW219205   1.577   7.727   4.553
 5922SOL     OW19206   0.242   7.719   6.576
 5922SOL    HW119207   0.272   7.691   6.662
 5922SOL    HW219208   0.153   7.683   6.568
 5923SOL     OW19209   8.009   7.830   6.179
 5923SOL    HW119210   7.922   7.805   6.207
 5923SOL    HW219211   8.027   7.775   6.103
 5924SOL     OW19212   1.642   0.032   5.779
 5924SOL    HW119213   1.707   0.027   5.709
 5924SOL    HW219214   1.679  -0.020   5.850
 5925SOL     OW19215   0.442   7.846   7.082
 5925SOL    HW119216   0.531   7.816   7.062
 5925SOL    HW219217   0.387   7.770   7.062
 5926SOL     OW19218   1.597   7.912   6.289
 5926SOL    HW119219   1.506   7.902   6.260
 5926SOL    HW219220   1.591   7.957   6.373
 5927SOL     OW19221   1.585   7.577   7.044
 5927SOL    HW119222   1.633   7.645   6.997
 5927SOL    HW219223   1.562   7.618   7.128
 5928SOL     OW19224   0.086   0.099   6.169
 5928SOL    HW119225   0.057   0.008   6.167
 5928SOL    HW219226   0.181   0.093   6.180
 5929SOL     OW19227   0.819   7.431   6.106
 5929SOL    HW119228   0.864   7.511   6.079
 5929SOL    HW219229   0.726   7.455   6.109
 5930SOL     OW19230   0.356   7.707   7.426
 5930SOL    HW119231   0.392   7.788   7.389
 5930SOL    HW219232   0.264   7.728   7.443
 5931SOL     OW19233   1.254   7.804   6.522
 5931SOL    HW119234   1.167   7.765   6.535
 5931SOL    HW219235   1.313   7.747   6.572
 5932SOL     OW19236   1.408   7.938   7.296
 5932SOL    HW119237   1.423   7.960   7.388
 5932SOL    HW219238   1.456   7.856   7.283
 5933SOL     OW19239   0.906   0.391   7.131
 5933SOL    HW119240   0.989   0.347   7.114
 5933SOL    HW219241   0.845   0.351   7.071
 5934SOL     OW19242   0.976   7.820   6.822
 5934SOL    HW119243   0.888   7.840   6.856
 5934SOL    HW219244   0.960   7.755   6.753
 5935SOL     OW19245   0.899   7.790   5.779
 5935SOL    HW119246   0.943   7.808   5.696
 5935SOL    HW219247   0.925   7.701   5.802
 5936SOL     OW19248   1.719   0.022   7.400
 5936SOL    HW119249   1.754   0.093   7.347
 5936SOL    HW219250   1.739  -0.057   7.349
 5937SOL     OW19251   0.553   7.628   6.484
 5937SOL    HW119252   0.557   7.649   6.578
 5937SOL    HW219253   0.549   7.714   6.441
 5938SOL     OW19254   0.184   7.700   7.078
 5938SOL    HW119255   0.180   7.762   7.150
 5938SOL    HW219256   0.159   7.616   7.117
 5939SOL     OW19257   1.401   7.547   6.029
 5939SOL    HW119258   1.396   7.522   5.937
 5939SOL    HW219259   1.494   7.541   6.051
 5940SOL     OW19260   1.515   7.672   7.313
 5940SOL    HW119261   1.515   7.694   7.406
 5940SOL    HW219262   1.465   7.590   7.308
 5941SOL     OW19263   0.649   7.560   5.689
 5941SOL    HW119264   0.705   7.485   5.711
 5941SOL    HW219265   0.595   7.529   5.616
 5942SOL     OW19266   0.772   7.713   7.344
 5942SOL    HW119267   0.854   7.664   7.339
 5942SOL    HW219268   0.727   7.677   7.420
 5943SOL     OW19269   1.335  -0.006   7.020
 5943SOL    HW119270   1.376  -0.023   7.105
 5943SOL    HW219271   1.362   0.083   6.998
 5944SOL     OW19272   0.556   7.504   6.084
 5944SOL    HW119273   0.475   7.511   6.135
 5944SOL    HW219274   0.556   7.583   6.029
 5945SOL     OW19275   0.278   7.498   5.757
 5945SOL    HW119276   0.336   7.563   5.718
 5945SOL    HW219277   0.336   7.441   5.807
 5946SOL     OW19278   0.946   7.664   6.043
 5946SOL    HW119279   0.908   7.747   6.016
 5946SOL    HW219280   1.040   7.683   6.054
 5947SOL     OW19281   0.113   0.014   6.975
 5947SOL    HW119282   0.176  -0.043   7.018
 5947SOL    HW219283   0.116   0.095   7.026
 5948SOL     OW19284   0.560   7.665   6.759
 5948SOL    HW119285   0.603   7.593   6.805
 5948SOL    HW219286   0.469   7.662   6.788
 5949SOL     OW19287   1.022   7.501   6.332
 5949SOL    HW119288   0.964   7.500   6.255
 5949SOL    HW219289   0.995   7.425   6.382
 5950SOL     OW19290   1.491   7.956   6.538
 5950SOL    HW119291   1.404   7.921   6.557
 5950SOL    HW219292   1.528   7.978   6.624
 5951SOL     OW19293   0.554   7.710   5.903
 5951SOL    HW119294   0.586   7.661   5.827
 5951SOL    HW219295   0.591   7.797   5.893
 5952SOL     OW19296   0.921   7.533   6.978
 5952SOL    HW119297   0.944   7.509   6.889
 5952SOL    HW219298   1.001   7.572   7.014
 5953SOL     OW19299   1.249   7.795   6.862
 5953SOL    HW119300   1.280   7.869   6.913
 5953SOL    HW219301   1.156   7.812   6.849
 5954SOL     OW19302   0.554   7.929   6.437
 5954SOL    HW119303   0.557   8.000   6.373
 5954SOL    HW219304   0.620   7.953   6.502
 5955SOL     OW19305   1.009   7.584   7.346
 5955SOL    HW119306   1.069   7.655   7.322
 5955SOL    HW219307   1.053   7.504   7.317
 5956SOL     OW19308   0.496   7.482   7.347
 5956SOL    HW119309   0.453   7.431   7.278
 5956SOL    HW219310   0.444   7.562   7.354
 5957SOL     OW19311   0.300   7.632   6.837
 5957SOL    HW119312   0.255   7.664   6.915
 5957SOL    HW219313   0.283   7.537   6.837
 5958SOL     OW19314   0.749   0.043   6.596
 5958SOL    HW119315   0.820   0.054   6.533
 5958SOL    HW219316   0.721   0.133   6.615
 5959SOL     OW19317   0.307   7.523   6.204
 5959SOL    HW119318   0.284   7.612   6.230
 5959SOL    HW219319   0.319   7.476   6.287
 5960SOL     OW19320   1.614   7.809   5.968
 5960SOL    HW119321   1.657   7.735   6.012
 5960SOL    HW219322   1.589   7.868   6.038
 5961SOL     OW19323   1.505   7.735   5.722
 5961SOL    HW119324   1.454   7.657   5.743
 5961SOL    HW219325   1.549   7.758   5.804
 5962SOL     OW19326   1.219   0.230   5.620
 5962SOL    HW119327   1.291   0.187   5.666
 5962SOL    HW219328   1.245   0.322   5.617
 5963SOL     OW19329   0.324   7.980   6.629
 5963SOL    HW119330   0.314   7.888   6.601
 5963SOL    HW219331   0.398   8.012   6.578
 5964SOL     OW19332   1.144   7.830   7.275
 5964SOL    HW119333   1.085   7.904   7.288
 5964SOL    HW219334   1.231   7.869   7.277
 5965SOL     OW19335   1.160   7.637   7.069
 5965SOL    HW119336   1.154   7.707   7.134
 5965SOL    HW219337   1.204   7.677   6.994
 5966SOL     OW19338   0.066   0.009   6.703
 5966SOL    HW119339   0.158  -0.003   6.678
 5966SOL    HW219340   0.067   0.005   6.798
 5967SOL     OW19341   0.177   7.911   7.262
 5967SOL    HW119342   0.266   7.944   7.276
 5967SOL    HW219343   0.122   7.989   7.267
 5968SOL     OW19344   0.785   0.034   5.825
 5968SOL    HW119345   0.831  -0.049   5.817
 5968SOL    HW219346   0.753   0.036   5.916
 5969SOL     OW19347   1.620   8.005   6.774
 5969SOL    HW119348   1.616   7.978   6.866
 5969SOL    HW219349   1.704   7.972   6.743
 5970SOL     OW19350   0.708   7.892   6.822
 5970SOL    HW119351   0.649   7.821   6.800
 5970SOL    HW219352   0.715   7.944   6.742
 5971SOL     OW19353   1.737   7.600   6.094
 5971SOL    HW119354   1.806   7.581   6.032
 5971SOL    HW219355   1.713   7.515   6.132
 5972SOL     OW19356   1.842   7.616   6.551
 5972SOL    HW119357   1.870   7.527   6.527
 5972SOL    HW219358   1.756   7.626   6.509
 5973SOL     OW19359   0.258   7.775   6.299
 5973SOL    HW119360   0.167   7.800   6.280
 5973SOL    HW219361   0.260   7.761   6.393
 5974SOL     OW19362   1.020   7.667   6.560
 5974SOL    HW119363   1.018   7.626   6.473
 5974SOL    HW219364   1.018   7.593   6.620
 5975SOL     OW19365   1.747   7.825   6.985
 5975SOL    HW119366   1.817   7.890   6.981
 5975SOL    HW219367   1.773   7.758   6.922
 5976SOL     OW19368   0.685   7.635   7.086
 5976SOL    HW119369   0.769   7.612   7.046
 5976SOL    HW219370   0.707   7.668   7.173
 5977SOL     OW19371   0.114   7.790   5.621
 5977SOL    HW119372   0.039   7.732   5.607
 5977SOL    HW219373   0.114   7.848   5.546
 5978SOL     OW19374   0.083   7.679   5.956
 5978SOL    HW119375   0.074   7.724   5.873
 5978SOL    HW219376   0.174   7.649   5.958
 5979SOL     OW19377   0.706   7.980   7.309
 5979SOL    HW119378   0.790   8.027   7.302
 5979SOL    HW219379   0.731   7.887   7.308
 5980SOL     OW19380   1.209   7.743   6.062
 5980SOL    HW119381   1.276   7.677   6.047
 5980SOL    HW219382   1.247   7.802   6.127
 5981SOL     OW19383   0.631   0.240   6.278
 5981SOL    HW119384   0.656   0.328   6.249
 5981SOL    HW219385   0.566   0.212   6.213
 5982SOL     OW19386   1.756   7.792   7.257
 5982SOL    HW119387   1.755   7.807   7.162
 5982SOL    HW219388   1.679   7.738   7.273
 5983SOL     OW19389   1.801   7.616   6.822
 5983SOL    HW119390   1.812   7.521   6.828
 5983SOL    HW219391   1.816   7.637   6.730
 5984SOL     OW19392   0.348   7.850   6.036
 5984SOL    HW119393   0.416   7.787   6.011
 5984SOL    HW219394   0.330   7.831   6.128
 5985SOL     OW19395   1.424   7.671   6.692
 5985SOL    HW119396   1.452   7.587   6.730
 5985SOL    HW219397   1.372   7.712   6.761
 5986SOL     OW19398   1.005   7.448   6.726
 5986SOL    HW119399   0.953   7.383   6.680
 5986SOL    HW219400   1.094   7.412   6.726
 5987SOL     OW19401   1.369   7.494   5.757
 5987SOL    HW119402   1.408   7.417   5.716
 5987SOL    HW219403   1.278   7.469   5.773
 5988SOL     OW19404   1.319   7.896   6.267
 5988SOL    HW119405   1.292   7.988   6.270
 5988SOL    HW219406   1.299   7.862   6.354
 5989SOL     OW19407   1.585   7.653   6.466
 5989SOL    HW119408   1.531   7.673   6.543
 5989SOL    HW219409   1.578   7.731   6.411
 5990SOL     OW19410   7.996   7.818   8.035
 5990SOL    HW119411   7.902   7.805   8.049
 5990SOL    HW219412   8.015   7.768   7.955
 5991SOL     OW19413   1.678   0.040   7.670
 5991SOL    HW119414   1.704   0.031   7.578
 5991SOL    HW219415   1.679  -0.049   7.704
 5992SOL     OW19416   0.447   7.858   8.978
 5992SOL    HW119417   0.524   7.821   8.935
 5992SOL    HW219418   0.377   7.795   8.960
 5993SOL     OW19419   1.599   7.912   8.152
 5993SOL    HW119420   1.510   7.907   8.118
 5993SOL    HW219421   1.589   7.952   8.239
 5994SOL     OW19422   1.591   7.576   8.910
 5994SOL    HW119423   1.626   7.648   8.858
 5994SOL    HW219424   1.566   7.616   8.993
 5995SOL     OW19425   0.080   0.079   8.083
 5995SOL    HW119426   0.055  -0.005   8.044
 5995SOL    HW219427   0.131   0.123   8.015
 5996SOL     OW19428   0.820   7.439   7.955
 5996SOL    HW119429   0.868   7.519   7.935
 5996SOL    HW219430   0.728   7.465   7.956
 5997SOL     OW19431   0.351   7.698   9.278
 5997SOL    HW119432   0.386   7.780   9.244
 5997SOL    HW219433   0.261   7.719   9.304
 5998SOL     OW19434   1.264   7.816   8.383
 5998SOL    HW119435   1.178   7.773   8.386
 5998SOL    HW219436   1.320   7.760   8.437
 5999SOL     OW19437   1.407   7.945   9.151
 5999SOL    HW119438   1.394   7.958   9.245
 5999SOL    HW219439   1.460   7.866   9.145
 6000SOL     OW19440   0.925   0.385   8.974
 6000SOL    HW119441   0.993   0.323   8.947
 6000SOL    HW219442   0.852   0.367   8.915
 6001SOL     OW19443   0.980   7.819   8.693
 6001SOL    HW119444   0.895   7.840   8.733
 6001SOL    HW219445   0.964   7.737   8.645
 6002SOL     OW19446   0.905   7.783   7.637
 6002SOL    HW119447   0.928   7.812   7.549
 6002SOL    HW219448   0.930   7.690   7.639
 6003SOL     OW19449   1.724   0.013   9.282
 6003SOL    HW119450   1.681   0.081   9.230
 6003SOL    HW219451   1.747  -0.055   9.219
 6004SOL     OW19452   0.463   7.665   8.376
 6004SOL    HW119453   0.521   7.660   8.452
 6004SOL    HW219454   0.494   7.741   8.328
 6005SOL     OW19455   0.201   7.711   8.949
 6005SOL    HW119456   0.178   7.778   9.014
 6005SOL    HW219457   0.170   7.629   8.988
 6006SOL     OW19458   1.400   7.550   7.888
 6006SOL    HW119459   1.391   7.524   7.797
 6006SOL    HW219460   1.492   7.535   7.909
 6007SOL     OW19461   1.516   7.678   9.175
 6007SOL    HW119462   1.517   7.699   9.268
 6007SOL    HW219463   1.462   7.599   9.168
 6008SOL     OW19464   0.647   7.559   7.557
 6008SOL    HW119465   0.704   7.485   7.578
 6008SOL    HW219466   0.594   7.529   7.483
 6009SOL     OW19467   0.772   7.722   9.203
 6009SOL    HW119468   0.853   7.671   9.198
 6009SOL    HW219469   0.723   7.683   9.276
 6010SOL     OW19470   1.334   0.009   8.879
 6010SOL    HW119471   1.378  -0.006   8.962
 6010SOL    HW219472   1.272   0.080   8.896
 6011SOL     OW19473   0.558   7.516   7.936
 6011SOL    HW119474   0.480   7.522   7.991
 6011SOL    HW219475   0.558   7.598   7.886
 6012SOL     OW19476   0.287   7.510   7.622
 6012SOL    HW119477   0.332   7.575   7.567
 6012SOL    HW219478   0.357   7.459   7.661
 6013SOL     OW19479   0.945   7.674   7.900
 6013SOL    HW119480   0.920   7.741   7.837
 6013SOL    HW219481   1.037   7.693   7.920
 6014SOL     OW19482   0.137   0.014   8.824
 6014SOL    HW119483   0.189  -0.040   8.883
 6014SOL    HW219484   0.104   0.085   8.879
 6015SOL     OW19485   0.578   7.657   8.624
 6015SOL    HW119486   0.621   7.579   8.656
 6015SOL    HW219487   0.490   7.655   8.663
 6016SOL     OW19488   1.021   7.468   8.196
 6016SOL    HW119489   0.959   7.456   8.123
 6016SOL    HW219490   0.995   7.402   8.260
 6017SOL     OW19491   1.496   7.981   8.395
 6017SOL    HW119492   1.410   7.940   8.403
 6017SOL    HW219493   1.527   7.991   8.485
 6018SOL     OW19494   0.547   7.729   7.755
 6018SOL    HW119495   0.580   7.676   7.683
 6018SOL    HW219496   0.598   7.810   7.750
 6019SOL     OW19497   0.916   7.540   8.848
 6019SOL    HW119498   0.944   7.516   8.760
 6019SOL    HW219499   0.995   7.575   8.890
 6020SOL     OW19500   1.257   7.796   8.730
 6020SOL    HW119501   1.290   7.874   8.774
 6020SOL    HW219502   1.165   7.814   8.714
 6021SOL     OW19503   0.560   7.914   8.294
 6021SOL    HW119504   0.531   7.994   8.249
 6021SOL    HW219505   0.632   7.943   8.350
 6022SOL     OW19506   1.007   7.588   9.206
 6022SOL    HW119507   1.068   7.658   9.182
 6022SOL    HW219508   1.050   7.507   9.178
 6023SOL     OW19509   0.498   7.480   9.202
 6023SOL    HW119510   0.453   7.429   9.135
 6023SOL    HW219511   0.442   7.557   9.216
 6024SOL     OW19512   0.310   7.639   8.695
 6024SOL    HW119513   0.271   7.672   8.776
 6024SOL    HW219514   0.301   7.544   8.701
 6025SOL     OW19515   0.750   0.038   8.459
 6025SOL    HW119516   0.820   0.055   8.395
 6025SOL    HW219517   0.699   0.119   8.460
 6026SOL     OW19518   0.304   7.484   8.052
 6026SOL    HW119519   0.277   7.575   8.057
 6026SOL    HW219520   0.318   7.458   8.143
 6027SOL     OW19521   1.615   7.800   7.815
 6027SOL    HW119522   1.660   7.731   7.862
 6027SOL    HW219523   1.573   7.853   7.883
 6028SOL     OW19524   1.483   7.737   7.580
 6028SOL    HW119525   1.437   7.656   7.599
 6028SOL    HW219526   1.538   7.752   7.657
 6029SOL     OW19527   1.218   0.216   7.495
 6029SOL    HW119528   1.302   0.214   7.541
 6029SOL    HW219529   1.222   0.293   7.439
 6030SOL     OW19530   0.308   7.910   8.451
 6030SOL    HW119531   0.296   7.892   8.357
 6030SOL    HW219532   0.389   7.961   8.455
 6031SOL     OW19533   1.151   7.831   9.131
 6031SOL    HW119534   1.099   7.907   9.155
 6031SOL    HW219535   1.241   7.863   9.128
 6032SOL     OW19536   1.160   7.636   8.934
 6032SOL    HW119537   1.154   7.709   8.996
 6032SOL    HW219538   1.205   7.674   8.858
 6033SOL     OW19539   0.080   8.008   8.556
 6033SOL    HW119540   0.166   7.976   8.528
 6033SOL    HW219541   0.082   8.003   8.651
 6034SOL     OW19542   0.178   7.941   9.116
 6034SOL    HW119543   0.249   8.002   9.136
 6034SOL    HW219544   0.099   7.995   9.118
 6035SOL     OW19545   0.786   8.022   7.700
 6035SOL    HW119546   0.836   7.942   7.685
 6035SOL    HW219547   0.781   8.029   7.796
 6036SOL     OW19548   1.613   8.014   8.641
 6036SOL    HW119549   1.612   7.962   8.721
 6036SOL    HW219550   1.697   7.994   8.600
 6037SOL     OW19551   0.698   7.899   8.691
 6037SOL    HW119552   0.653   7.819   8.664
 6037SOL    HW219553   0.713   7.947   8.609
 6038SOL     OW19554   1.739   7.598   7.954
 6038SOL    HW119555   1.806   7.580   7.888
 6038SOL    HW219556   1.717   7.511   7.989
 6039SOL     OW19557   1.845   7.615   8.413
 6039SOL    HW119558   1.870   7.526   8.389
 6039SOL    HW219559   1.759   7.628   8.372
 6040SOL     OW19560   0.242   7.817   8.205
 6040SOL    HW119561   0.265   7.803   8.113
 6040SOL    HW219562   0.152   7.786   8.213
 6041SOL     OW19563   1.036   7.666   8.399
 6041SOL    HW119564   1.028   7.611   8.321
 6041SOL    HW219565   1.035   7.603   8.472
 6042SOL     OW19566   1.738   7.824   8.834
 6042SOL    HW119567   1.804   7.894   8.828
 6042SOL    HW219568   1.770   7.756   8.775
 6043SOL     OW19569   0.678   7.641   8.948
 6043SOL    HW119570   0.761   7.616   8.909
 6043SOL    HW219571   0.701   7.675   9.035
 6044SOL     OW19572   0.091   7.769   7.485
 6044SOL    HW119573   0.007   7.728   7.464
 6044SOL    HW219574   0.104   7.833   7.415
 6045SOL     OW19575   0.086   7.686   7.806
 6045SOL    HW119576   0.052   7.703   7.718
 6045SOL    HW219577   0.180   7.677   7.794
 6046SOL     OW19578   0.786   8.001   9.175
 6046SOL    HW119579   0.693   8.021   9.161
 6046SOL    HW219580   0.789   7.905   9.175
 6047SOL     OW19581   1.209   7.746   7.925
 6047SOL    HW119582   1.274   7.678   7.908
 6047SOL    HW219583   1.250   7.803   7.989
 6048SOL     OW19584   0.638   0.257   8.140
 6048SOL    HW119585   0.690   0.337   8.129
 6048SOL    HW219586   0.580   0.256   8.063
 6049SOL     OW19587   1.755   7.802   9.106
 6049SOL    HW119588   1.745   7.820   9.013
 6049SOL    HW219589   1.679   7.747   9.128
 6050SOL     OW19590   1.815   7.616   8.684
 6050SOL    HW119591   1.815   7.520   8.692
 6050SOL    HW219592   1.824   7.632   8.590
 6051SOL     OW19593   0.375   7.775   7.966
 6051SOL    HW119594   0.421   7.763   7.883
 6051SOL    HW219595   0.429   7.837   8.015
 6052SOL     OW19596   1.424   7.669   8.548
 6052SOL    HW119597   1.432   7.575   8.566
 6052SOL    HW219598   1.376   7.703   8.624
 6053SOL     OW19599   1.031   7.481   8.607
 6053SOL    HW119600   0.983   7.418   8.553
 6053SOL    HW219601   1.119   7.444   8.616
 6054SOL     OW19602   1.365   7.493   7.618
 6054SOL    HW119603   1.405   7.418   7.575
 6054SOL    HW219604   1.274   7.466   7.634
 6055SOL     OW19605   1.324   7.899   8.126
 6055SOL    HW119606   1.287   7.987   8.121
 6055SOL    HW219607   1.300   7.868   8.213
 6056SOL     OW19608   1.592   7.656   8.326
 6056SOL    HW119609   1.535   7.671   8.402
 6056SOL    HW219610   1.573   7.731   8.268
 6057SOL     OW19611   0.241   7.712  10.299
 6057SOL    HW119612   0.269   7.684  10.386
 6057SOL    HW219613   0.157   7.668  10.285
 6058SOL     OW19614   8.003   7.824   9.900
 6058SOL    HW119615   7.926   7.778   9.933
 6058SOL    HW219616   8.030   7.774   9.823
 6059SOL     OW19617   1.762   0.030   9.558
 6059SOL    HW119618   1.751   0.034   9.463
 6059SOL    HW219619   1.723  -0.054   9.583
 6060SOL     OW19620   0.448   7.841  10.855
 6060SOL    HW119621   0.523   7.797  10.815
 6060SOL    HW219622   0.373   7.785  10.834
 6061SOL     OW19623   1.597   7.896  10.030
 6061SOL    HW119624   1.509   7.899   9.993
 6061SOL    HW219625   1.590   7.945  10.112
 6062SOL     OW19626   1.587   7.573  10.773
 6062SOL    HW119627   1.628   7.647  10.728
 6062SOL    HW219628   1.559   7.611  10.857
 6063SOL     OW19629   0.104   0.081   9.870
 6063SOL    HW119630   0.069  -0.008   9.876
 6063SOL    HW219631   0.090   0.118   9.956
 6064SOL     OW19632   0.821   7.432   9.833
 6064SOL    HW119633   0.866   7.511   9.805
 6064SOL    HW219634   0.728   7.456   9.834
 6065SOL     OW19635   0.358   7.701  11.144
 6065SOL    HW119636   0.387   7.780  11.098
 6065SOL    HW219637   0.270   7.723  11.176
 6066SOL     OW19638   1.261   7.809  10.247
 6066SOL    HW119639   1.174   7.771  10.258
 6066SOL    HW219640   1.319   7.753  10.299
 6067SOL     OW19641   1.406   7.931  11.009
 6067SOL    HW119642   1.397   7.956  11.101
 6067SOL    HW219643   1.452   7.848  11.012
 6068SOL     OW19644   0.932   0.393  10.817
 6068SOL    HW119645   0.959   0.312  10.773
 6068SOL    HW219646   0.836   0.390  10.818
 6069SOL     OW19647   1.001   7.818  10.545
 6069SOL    HW119648   0.913   7.838  10.576
 6069SOL    HW219649   0.988   7.759  10.472
 6070SOL     OW19650   0.902   7.778   9.506
 6070SOL    HW119651   0.922   7.821   9.422
 6070SOL    HW219652   0.923   7.686   9.490
 6071SOL     OW19653   1.728   0.024  11.141
 6071SOL    HW119654   1.665   0.078  11.093
 6071SOL    HW219655   1.745  -0.050  11.083
 6072SOL     OW19656   0.559   7.629  10.211
 6072SOL    HW119657   0.561   7.652  10.304
 6072SOL    HW219658   0.554   7.714  10.166
 6073SOL     OW19659   0.213   7.699  10.805
 6073SOL    HW119660   0.152   7.772  10.817
 6073SOL    HW219661   0.171   7.625  10.849
 6074SOL     OW19662   1.402   7.546   9.752
 6074SOL    HW119663   1.393   7.521   9.660
 6074SOL    HW219664   1.495   7.537   9.771
 6075SOL     OW19665   1.507   7.670  11.038
 6075SOL    HW119666   1.509   7.689  11.132
 6075SOL    HW219667   1.451   7.592  11.031
 6076SOL     OW19668   0.651   7.560   9.409
 6076SOL    HW119669   0.704   7.484   9.432
 6076SOL    HW219670   0.596   7.530   9.338
 6077SOL     OW19671   0.779   7.729  11.066
 6077SOL    HW119672   0.857   7.674  11.060
 6077SOL    HW219673   0.726   7.688  11.135
 6078SOL     OW19674   1.371   0.021  10.751
 6078SOL    HW119675   1.379  -0.015  10.840
 6078SOL    HW219676   1.302   0.087  10.759
 6079SOL     OW19677   0.560   7.506   9.805
 6079SOL    HW119678   0.480   7.509   9.856
 6079SOL    HW219679   0.556   7.583   9.749
 6080SOL     OW19680   0.280   7.500   9.483
 6080SOL    HW119681   0.335   7.564   9.438
 6080SOL    HW219682   0.342   7.444   9.529
 6081SOL     OW19683   0.950   7.662   9.766
 6081SOL    HW119684   0.919   7.723   9.699
 6081SOL    HW219685   1.041   7.687   9.782
 6082SOL     OW19686   0.129  -0.026  10.751
 6082SOL    HW119687   0.189  -0.016  10.678
 6082SOL    HW219688   0.100   0.064  10.770
 6083SOL     OW19689   0.565   7.671  10.485
 6083SOL    HW119690   0.606   7.597  10.530
 6083SOL    HW219691   0.473   7.667  10.510
 6084SOL     OW19692   1.025   7.503  10.055
 6084SOL    HW119693   0.966   7.508   9.980
 6084SOL    HW219694   0.995   7.427  10.104
 6085SOL     OW19695   1.493   7.963  10.277
 6085SOL    HW119696   1.405   7.925  10.276
 6085SOL    HW219697   1.493   8.022  10.352
 6086SOL     OW19698   0.544   7.709   9.620
 6086SOL    HW119699   0.576   7.659   9.545
 6086SOL    HW219700   0.587   7.794   9.614
 6087SOL     OW19701   0.918   7.535  10.702
 6087SOL    HW119702   0.939   7.511  10.611
 6087SOL    HW219703   0.999   7.572  10.737
 6088SOL     OW19704   1.271   7.805  10.602
 6088SOL    HW119705   1.303   7.888  10.639
 6088SOL    HW219706   1.179   7.822  10.581
 6089SOL     OW19707   0.542   7.921  10.155
 6089SOL    HW119708   0.501   7.970  10.084
 6089SOL    HW219709   0.598   7.984  10.199
 6090SOL     OW19710   1.008   7.585  11.065
 6090SOL    HW119711   1.070   7.655  11.042
 6090SOL    HW219712   1.053   7.504  11.041
 6091SOL     OW19713   0.499   7.482  11.064
 6091SOL    HW119714   0.453   7.432  10.996
 6091SOL    HW219715   0.443   7.558  11.080
 6092SOL     OW19716   0.305   7.629  10.557
 6092SOL    HW119717   0.275   7.659  10.642
 6092SOL    HW219718   0.286   7.535  10.555
 6093SOL     OW19719   0.771   0.057  10.327
 6093SOL    HW119720   0.820   0.054  10.245
 6093SOL    HW219721   0.700   0.119  10.310
 6094SOL     OW19722   0.316   7.521   9.926
 6094SOL    HW119723   0.284   7.607   9.952
 6094SOL    HW219724   0.324   7.472  10.007
 6095SOL     OW19725   1.615   7.814   9.678
 6095SOL    HW119726   1.656   7.741   9.725
 6095SOL    HW219727   1.580   7.870   9.748
 6096SOL     OW19728   1.485   7.741   9.443
 6096SOL    HW119729   1.440   7.659   9.463
 6096SOL    HW219730   1.537   7.759   9.522
 6097SOL     OW19731   1.301   0.259   9.386
 6097SOL    HW119732   1.286   0.165   9.389
 6097SOL    HW219733   1.243   0.292   9.317
 6098SOL     OW19734   0.313   7.974  10.320
 6098SOL    HW119735   0.300   7.880  10.308
 6098SOL    HW219736   0.396   7.992  10.276
 6099SOL     OW19737   1.149   7.826  10.986
 6099SOL    HW119738   1.096   7.903  11.010
 6099SOL    HW219739   1.239   7.858  10.987
 6100SOL     OW19740   1.161   7.634  10.788
 6100SOL    HW119741   1.149   7.702  10.853
 6100SOL    HW219742   1.208   7.677  10.716
 6101SOL     OW19743   0.099   8.035  10.465
 6101SOL    HW119744   0.169   8.003  10.408
 6101SOL    HW219745   0.042   7.960  10.478
 6102SOL     OW19746   0.198   7.962  11.023
 6102SOL    HW119747   0.233   7.953  10.934
 6102SOL    HW219748   0.117   8.012  11.012
 6103SOL     OW19749   0.796   0.030   9.556
 6103SOL    HW119750   0.843  -0.054   9.560
 6103SOL    HW219751   0.746   0.033   9.637
 6104SOL     OW19752   1.640   8.027  10.532
 6104SOL    HW119753   1.615   7.945  10.576
 6104SOL    HW219754   1.702   7.999  10.465
 6105SOL     OW19755   0.732   7.888  10.544
 6105SOL    HW119756   0.667   7.820  10.527
 6105SOL    HW219757   0.729   7.944  10.467
 6106SOL     OW19758   1.734   7.603   9.811
 6106SOL    HW119759   1.804   7.586   9.748
 6106SOL    HW219760   1.713   7.517   9.848
 6107SOL     OW19761   1.849   7.617  10.275
 6107SOL    HW119762   1.874   7.528  10.252
 6107SOL    HW219763   1.763   7.629  10.235
 6108SOL     OW19764   0.250   7.767  10.022
 6108SOL    HW119765   0.160   7.795  10.008
 6108SOL    HW219766   0.257   7.757  10.117
 6109SOL     OW19767   1.029   7.668  10.285
 6109SOL    HW119768   1.024   7.629  10.198
 6109SOL    HW219769   1.021   7.593  10.345
 6110SOL     OW19770   1.744   7.817  10.706
 6110SOL    HW119771   1.813   7.883  10.701
 6110SOL    HW219772   1.771   7.749  10.645
 6111SOL     OW19773   0.682   7.642  10.809
 6111SOL    HW119774   0.764   7.617  10.768
 6111SOL    HW219775   0.707   7.675  10.895
 6112SOL     OW19776   0.099   7.782   9.338
 6112SOL    HW119777   0.009   7.750   9.331
 6112SOL    HW219778   0.105   7.851   9.272
 6113SOL     OW19779   0.086   7.677   9.680
 6113SOL    HW119780   0.047   7.687   9.593
 6113SOL    HW219781   0.169   7.631   9.664
 6114SOL     OW19782   0.780   8.008  11.038
 6114SOL    HW119783   0.685   8.022  11.030
 6114SOL    HW219784   0.790   7.913  11.038
 6115SOL     OW19785   1.212   7.745   9.786
 6115SOL    HW119786   1.278   7.677   9.771
 6115SOL    HW219787   1.252   7.803   9.851
 6116SOL     OW19788   0.628   0.254   9.991
 6116SOL    HW119789   0.605   0.337   9.947
 6116SOL    HW219790   0.558   0.194   9.966
 6117SOL     OW19791   1.741   7.804  10.980
 6117SOL    HW119792   1.744   7.814  10.885
 6117SOL    HW219793   1.667   7.745  10.996
 6118SOL     OW19794   1.808   7.612  10.546
 6118SOL    HW119795   1.811   7.517  10.550
 6118SOL    HW219796   1.822   7.632  10.453
 6119SOL     OW19797   0.386   7.863   9.802
 6119SOL    HW119798   0.419   7.790   9.751
 6119SOL    HW219799   0.344   7.823   9.878
 6120SOL     OW19800   1.423   7.669  10.418
 6120SOL    HW119801   1.434   7.578  10.444
 6120SOL    HW219802   1.378   7.711  10.491
 6121SOL     OW19803   1.004   7.449  10.450
 6121SOL    HW119804   0.950   7.384  10.406
 6121SOL    HW219805   1.092   7.412  10.450
 6122SOL     OW19806   1.366   7.494   9.481
 6122SOL    HW119807   1.404   7.420   9.434
 6122SOL    HW219808   1.275   7.467   9.498
 6123SOL     OW19809   1.322   7.899   9.990
 6123SOL    HW119810   1.281   7.985   9.984
 6123SOL    HW219811   1.298   7.867  10.077
 6124SOL     OW19812   1.591   7.653  10.193
 6124SOL    HW119813   1.536   7.677  10.267
 6124SOL    HW219814   1.585   7.727  10.133
 6125SOL     OW19815   0.237   7.714  12.160
 6125SOL    HW119816   0.279   7.679  12.238
 6125SOL    HW219817   0.146   7.687  12.167
 6126SOL     OW19818   8.016   7.835  11.753
 6126SOL    HW119819   7.928   7.822  11.787
 6126SOL    HW219820   8.024   7.771  11.682
 6127SOL     OW19821   1.750   0.031  11.417
 6127SOL    HW119822   1.746   0.032  11.322
 6127SOL    HW219823   1.711  -0.053  11.442
 6128SOL     OW19824   1.593   7.943  11.871
 6128SOL    HW119825   1.501   7.930  11.845
 6128SOL    HW219826   1.587   7.972  11.962
 6129SOL     OW19827   0.108   0.093  11.732
 6129SOL    HW119828   0.081   0.002  11.727
 6129SOL    HW219829   0.063   0.128  11.809
 6130SOL     OW19830   0.822   7.436  11.693
 6130SOL    HW119831   0.866   7.516  11.666
 6130SOL    HW219832   0.729   7.459  11.695
 6131SOL     OW19833   1.271   7.792  12.099
 6131SOL    HW119834   1.181   7.763  12.110
 6131SOL    HW219835   1.320   7.741  12.164
 6132SOL     OW19836   0.969   7.809  12.409
 6132SOL    HW119837   0.886   7.850  12.435
 6132SOL    HW219838   0.950   7.770  12.324
 6133SOL     OW19839   0.896   7.786  11.365
 6133SOL    HW119840   0.911   7.811  11.274
 6133SOL    HW219841   0.905   7.690  11.365
 6134SOL     OW19842   0.558   7.631  12.055
 6134SOL    HW119843   0.562   7.657  12.147
 6134SOL    HW219844   0.547   7.714  12.007
 6135SOL     OW19845   1.403   7.549  11.611
 6135SOL    HW119846   1.390   7.523  11.520
 6135SOL    HW219847   1.491   7.519  11.633
 6136SOL     OW19848   0.657   7.564  11.267
 6136SOL    HW119849   0.700   7.484  11.297
 6136SOL    HW219850   0.598   7.536  11.197
 6137SOL     OW19851   0.559   7.505  11.669
 6137SOL    HW119852   0.479   7.509  11.721
 6137SOL    HW219853   0.554   7.581  11.612
 6138SOL     OW19854   0.274   7.501  11.346
 6138SOL    HW119855   0.329   7.567  11.303
 6138SOL    HW219856   0.335   7.444  11.393
 6139SOL     OW19857   0.954   7.666  11.627
 6139SOL    HW119858   0.914   7.736  11.576
 6139SOL    HW219859   1.046   7.692  11.636
 6140SOL     OW19860   0.080   0.060   0.055
 6140SOL    HW119861   0.155   0.059   0.114
 6140SOL    HW219862   0.010   0.101   0.105
 6141SOL     OW19863   0.574   7.672  12.325
 6141SOL    HW119864   0.613   7.591  12.358
 6141SOL    HW219865   0.484   7.670  12.358
 6142SOL     OW19866   1.028   7.494  11.913
 6142SOL    HW119867   0.966   7.498  11.841
 6142SOL    HW219868   0.998   7.421  11.967
 6143SOL     OW19869   1.496   7.953  12.131
 6143SOL    HW119870   1.409   7.914  12.129
 6143SOL    HW219871   1.499   8.001  12.213
 6144SOL     OW19872   0.542   7.705  11.482
 6144SOL    HW119873   0.578   7.663  11.404
 6144SOL    HW219874   0.574   7.795  11.479
 6145SOL     OW19875   1.241   7.853  12.436
 6145SOL    HW119876   1.256   7.833  12.528
 6145SOL    HW219877   1.149   7.833  12.421
 6146SOL     OW19878   0.541   7.928  12.025
 6146SOL    HW119879   0.508   7.992  11.962
 6146SOL    HW219880   0.613   7.974  12.069
 6147SOL     OW19881   0.320   7.635  12.410
 6147SOL    HW119882   0.261   7.686  12.465
 6147SOL    HW219883   0.286   7.545  12.415
 6148SOL     OW19884   0.741   0.052  12.183
 6148SOL    HW119885   0.827   0.074  12.147
 6148SOL    HW219886   0.687   0.129  12.162
 6149SOL     OW19887   0.311   7.521  11.786
 6149SOL    HW119888   0.279   7.607  11.813
 6149SOL    HW219889   0.319   7.472  11.868
 6150SOL     OW19890   1.615   7.811  11.539
 6150SOL    HW119891   1.660   7.739  11.583
 6150SOL    HW219892   1.557   7.847  11.606
 6151SOL     OW19893   1.482   7.740  11.305
 6151SOL    HW119894   1.437   7.659  11.324
 6151SOL    HW219895   1.537   7.757  11.381
 6152SOL     OW19896   1.329   0.242  11.202
 6152SOL    HW119897   1.294   0.162  11.242
 6152SOL    HW219898   1.256   0.278  11.153
 6153SOL     OW19899   0.324   7.967  12.205
 6153SOL    HW119900   0.295   7.878  12.184
 6153SOL    HW219901   0.401   7.981  12.150
 6154SOL     OW19902   1.164   7.724   0.177
 6154SOL    HW119903   1.175   7.737   0.271
 6154SOL    HW219904   1.231   7.659   0.155
 6155SOL     OW19905   0.071   0.030  12.279
 6155SOL    HW119906   0.164   0.015  12.260
 6155SOL    HW219907   0.068   0.045  12.373
 6156SOL     OW19908   0.797   0.039  11.415
 6156SOL    HW119909   0.842  -0.045  11.414
 6156SOL    HW219910   0.740   0.035  11.492
 6157SOL     OW19911   1.641   0.036  12.370
 6157SOL    HW119912   1.645  -0.032  12.437
 6157SOL    HW219913   1.697   0.003  12.299
 6158SOL     OW19914   0.694   7.905  12.409
 6158SOL    HW119915   0.648   7.827  12.379
 6158SOL    HW219916   0.708   7.957  12.330
 6159SOL     OW19917   1.739   7.603  11.676
 6159SOL    HW119918   1.807   7.585  11.611
 6159SOL    HW219919   1.714   7.517  11.709
 6160SOL     OW19920   1.847   7.621  12.131
 6160SOL    HW119921   1.869   7.531  12.108
 6160SOL    HW219922   1.757   7.633  12.100
 6161SOL     OW19923   0.249   7.767  11.886
 6161SOL    HW119924   0.162   7.799  11.865
 6161SOL    HW219925   0.249   7.756  11.981
 6162SOL     OW19926   1.029   7.673  12.137
 6162SOL    HW119927   1.023   7.627  12.053
 6162SOL    HW219928   1.024   7.603  12.203
 6163SOL     OW19929   1.746   7.834   0.027
 6163SOL    HW119930   1.838   7.861   0.024
 6163SOL    HW219931   1.746   7.744  -0.008
 6164SOL     OW19932   0.112   7.789  11.215
 6164SOL    HW119933   0.031   7.751  11.180
 6164SOL    HW219934   0.133   7.861  11.155
 6165SOL     OW19935   0.088   7.668  11.538
 6165SOL    HW119936   0.053   7.690  11.451
 6165SOL    HW219937   0.169   7.620  11.520
 6166SOL     OW19938   1.220   7.757  11.634
 6166SOL    HW119939   1.282   7.684  11.627
 6166SOL    HW219940   1.253   7.810  11.706
 6167SOL     OW19941   0.644   0.250  11.792
 6167SOL    HW119942   0.599   0.333  11.779
 6167SOL    HW219943   0.579   0.195  11.837
 6168SOL     OW19944   1.823   7.599  12.406
 6168SOL    HW119945   1.820   7.504  12.396
 6168SOL    HW219946   1.833   7.632  12.317
 6169SOL     OW19947   0.386   7.859  11.669
 6169SOL    HW119948   0.410   7.781  11.620
 6169SOL    HW219949   0.340   7.825  11.746
 6170SOL     OW19950   1.428   7.689  12.302
 6170SOL    HW119951   1.469   7.632  12.367
 6170SOL    HW219952   1.375   7.749  12.354
 6171SOL     OW19953   1.016   7.453  12.303
 6171SOL    HW119954   0.961   7.394  12.251
 6171SOL    HW219955   1.102   7.411  12.305
 6172SOL     OW19956   1.366   7.494  11.340
 6172SOL    HW119957   1.404   7.419  11.295
 6172SOL    HW219958   1.275   7.468  11.358
 6173SOL     OW19959   1.316   7.904  11.852
 6173SOL    HW119960   1.252   7.976  11.851
 6173SOL    HW219961   1.300   7.859  11.935
 6174SOL     OW19962   1.582   7.654  12.071
 6174SOL    HW119963   1.531   7.667  12.151
 6174SOL    HW219964   1.560   7.729  12.016
 6175SOL     OW19965   2.122   0.611   0.027
 6175SOL    HW119966   2.089   0.661   0.102
 6175SOL    HW219967   2.046   0.597  -0.028
 6176SOL     OW19968   2.098   0.286   0.984
 6176SOL    HW119969   2.126   0.247   1.067
 6176SOL    HW219970   2.019   0.239   0.960
 6177SOL     OW19971   1.871   0.411   0.628
 6177SOL    HW119972   1.784   0.422   0.667
 6177SOL    HW219973   1.859   0.347   0.558
 6178SOL     OW19974   2.431   1.302   1.186
 6178SOL    HW119975   2.345   1.310   1.145
 6178SOL    HW219976   2.450   1.389   1.221
 6179SOL     OW19977   3.437   1.518   0.715
 6179SOL    HW119978   3.394   1.495   0.798
 6179SOL    HW219979   3.366   1.518   0.651
 6180SOL     OW19980   2.991   0.706   0.692
 6180SOL    HW119981   3.042   0.786   0.680
 6180SOL    HW219982   2.948   0.716   0.777
 6181SOL     OW19983   3.591   0.626   0.278
 6181SOL    HW119984   3.585   0.638   0.183
 6181SOL    HW219985   3.565   0.535   0.293
 6182SOL     OW19986   2.595   1.132   1.044
 6182SOL    HW119987   2.532   1.171   1.104
 6182SOL    HW219988   2.642   1.207   1.006
 6183SOL     OW19989   2.742   0.751   1.823
 6183SOL    HW119990   2.750   0.815   1.893
 6183SOL    HW219991   2.762   0.799   1.743
 6184SOL     OW19992   2.547   0.995   0.640
 6184SOL    HW119993   2.615   0.989   0.707
 6184SOL    HW219994   2.479   1.051   0.678
 6185SOL     OW19995   2.573   1.148   1.817
 6185SOL    HW119996   2.619   1.224   1.852
 6185SOL    HW219997   2.493   1.183   1.778
 6186SOL     OW19998   2.196   1.411   1.067
 6186SOL    HW119999   2.120   1.371   1.024
 6186SOL    HW220000   2.236   1.465   0.999
 6187SOL     OW20001   3.324   1.508   1.363
 6187SOL    HW120002   3.380   1.586   1.373
 6187SOL    HW220003   3.259   1.517   1.432
 6188SOL     OW20004   2.310   0.386   1.458
 6188SOL    HW120005   2.387   0.337   1.487
 6188SOL    HW220006   2.236   0.333   1.486
 6189SOL     OW20007   3.478   0.462   0.736
 6189SOL    HW120008   3.440   0.504   0.659
 6189SOL    HW220009   3.459   0.523   0.808
 6190SOL     OW20010   2.080   1.715   0.473
 6190SOL    HW120011   2.097   1.790   0.530
 6190SOL    HW220012   2.159   1.707   0.420
 6191SOL     OW20013   2.990   1.344   1.679
 6191SOL    HW120014   3.024   1.343   1.769
 6191SOL    HW220015   2.939   1.263   1.672
 6192SOL     OW20016   2.080   1.445   0.540
 6192SOL    HW120017   2.068   1.540   0.541
 6192SOL    HW220018   2.026   1.414   0.613
 6193SOL     OW20019   2.137   1.092   0.887
 6193SOL    HW120020   2.132   1.004   0.925
 6193SOL    HW220021   2.080   1.145   0.942
 6194SOL     OW20022   2.457   1.793   1.425
 6194SOL    HW120023   2.377   1.775   1.474
 6194SOL    HW220024   2.486   1.879   1.456
 6195SOL     OW20025   3.433   0.182   1.447
 6195SOL    HW120026   3.478   0.263   1.422
 6195SOL    HW220027   3.434   0.183   1.543
 6196SOL     OW20028   1.994   0.657   0.561
 6196SOL    HW120029   1.958   0.571   0.582
 6196SOL    HW220030   1.985   0.708   0.642
 6197SOL     OW20031   3.718   1.739   0.311
 6197SOL    HW120032   3.786   1.714   0.374
 6197SOL    HW220033   3.732   1.832   0.297
 6198SOL     OW20034   1.895   1.529   0.125
 6198SOL    HW120035   1.806   1.494   0.112
 6198SOL    HW220036   1.883   1.601   0.187
 6199SOL     OW20037   3.541   0.932   0.651
 6199SOL    HW120038   3.616   0.888   0.612
 6199SOL    HW220039   3.512   0.993   0.584
 6200SOL     OW20040   3.507   1.115   0.433
 6200SOL    HW120041   3.592   1.114   0.389
 6200SOL    HW220042   3.518   1.177   0.505
 6201SOL     OW20043   1.990   0.755   1.585
 6201SOL    HW120044   2.080   0.787   1.594
 6201SOL    HW220045   1.936   0.834   1.591
 6202SOL     OW20046   2.481   1.393   0.734
 6202SOL    HW120047   2.438   1.308   0.745
 6202SOL    HW220048   2.462   1.418   0.644
 6203SOL     OW20049   3.149   1.238   1.415
 6203SOL    HW120050   3.183   1.168   1.359
 6203SOL    HW220051   3.202   1.232   1.495
 6204SOL     OW20052   2.695   0.034   0.577
 6204SOL    HW120053   2.734   0.112   0.538
 6204SOL    HW220054   2.601   0.042   0.558
 6205SOL     OW20055   2.048   0.960   1.286
 6205SOL    HW120056   2.134   0.923   1.269
 6205SOL    HW220057   1.990   0.914   1.226
 6206SOL     OW20058   3.351   1.017   0.227
 6206SOL    HW120059   3.290   0.957   0.269
 6206SOL    HW220060   3.410   1.045   0.298
 6207SOL     OW20061   3.065   1.824   1.630
 6207SOL    HW120062   3.061   1.873   1.548
 6207SOL    HW220063   3.078   1.734   1.603
 6208SOL     OW20064   2.178   0.247   1.773
 6208SOL    HW120065   2.250   0.293   1.817
 6208SOL    HW220066   2.102   0.263   1.829
 6209SOL     OW20067   3.326   1.420   0.948
 6209SOL    HW120068   3.262   1.435   1.018
 6209SOL    HW220069   3.313   1.328   0.924
 6210SOL     OW20070   3.511   1.764   0.583
 6210SOL    HW120071   3.490   1.724   0.499
 6210SOL    HW220072   3.499   1.693   0.647
 6211SOL     OW20073   2.448   0.748   0.272
 6211SOL    HW120074   2.522   0.798   0.307
 6211SOL    HW220075   2.384   0.747   0.343
 6212SOL     OW20076   3.149   0.375   0.932
 6212SOL    HW120077   3.060   0.340   0.937
 6212SOL    HW220078   3.199   0.321   0.993
 6213SOL     OW20079   3.453   1.674   0.327
 6213SOL    HW120080   3.548   1.684   0.322
 6213SOL    HW220081   3.423   1.689   0.238
 6214SOL     OW20082   2.639   0.635   1.440
 6214SOL    HW120083   2.623   0.607   1.530
 6214SOL    HW220084   2.627   0.557   1.387
 6215SOL     OW20085   3.275   0.482   1.683
 6215SOL    HW120086   3.277   0.527   1.767
 6215SOL    HW220087   3.336   0.409   1.693
 6216SOL     OW20088   2.809   0.881   1.586
 6216SOL    HW120089   2.868   0.817   1.544
 6216SOL    HW220090   2.761   0.920   1.513
 6217SOL     OW20091   2.865   0.412   1.220
 6217SOL    HW120092   2.775   0.433   1.244
 6217SOL    HW220093   2.866   0.412   1.124
 6218SOL     OW20094   2.911   0.702   0.427
 6218SOL    HW120095   2.931   0.698   0.521
 6218SOL    HW220096   2.829   0.654   0.418
 6219SOL     OW20097   1.959   0.822   0.774
 6219SOL    HW120098   2.036   0.818   0.830
 6219SOL    HW220099   1.907   0.894   0.809
 6220SOL     OW20100   1.982   1.877   1.587
 6220SOL    HW120101   1.990   1.852   1.679
 6220SOL    HW220102   1.894   1.851   1.562
 6221SOL     OW20103   2.752   0.360   0.210
 6221SOL    HW120104   2.798   0.427   0.161
 6221SOL    HW220105   2.714   0.303   0.143
 6222SOL     OW20106   3.558   0.566   1.833
 6222SOL    HW120107   3.527   0.642   1.785
 6222SOL    HW220108   3.593   0.507   1.766
 6223SOL     OW20109   3.242   1.141   0.531
 6223SOL    HW120110   3.325   1.138   0.484
 6223SOL    HW220111   3.189   1.204   0.482
 6224SOL     OW20112   2.481   0.217   0.943
 6224SOL    HW120113   2.406   0.271   0.968
 6224SOL    HW220114   2.497   0.240   0.852
 6225SOL     OW20115   2.852   1.431   0.472
 6225SOL    HW120116   2.813   1.512   0.437
 6225SOL    HW220117   2.842   1.439   0.566
 6226SOL     OW20118   2.214   1.816   0.875
 6226SOL    HW120119   2.260   1.732   0.881
 6226SOL    HW220120   2.279   1.882   0.896
 6227SOL     OW20121   3.665   1.041   0.880
 6227SOL    HW120122   3.612   1.025   0.802
 6227SOL    HW220123   3.601   1.053   0.951
 6228SOL     OW20124   3.090   1.548   1.514
 6228SOL    HW120125   3.077   1.475   1.575
 6228SOL    HW220126   3.020   1.538   1.450
 6229SOL     OW20127   2.226   0.991   0.207
 6229SOL    HW120128   2.175   1.012   0.129
 6229SOL    HW220129   2.193   0.905   0.234
 6230SOL     OW20130   3.338   0.762   0.724
 6230SOL    HW120131   3.339   0.720   0.810
 6230SOL    HW220132   3.416   0.818   0.724
 6231SOL     OW20133   2.336   1.268   1.733
 6231SOL    HW120134   2.309   1.272   1.641
 6231SOL    HW220135   2.253   1.267   1.782
 6232SOL     OW20136   2.923   1.777   0.223
 6232SOL    HW120137   2.921   1.749   0.314
 6232SOL    HW220138   2.993   1.726   0.183
 6233SOL     OW20139   2.058   0.265   1.506
 6233SOL    HW120140   1.987   0.329   1.505
 6233SOL    HW220141   2.082   0.257   1.598
 6234SOL     OW20142   3.516   1.410   0.077
 6234SOL    HW120143   3.449   1.473   0.050
 6234SOL    HW220144   3.469   1.326   0.082
 6235SOL     OW20145   2.318   1.723   0.332
 6235SOL    HW120146   2.363   1.785   0.388
 6235SOL    HW220147   2.386   1.690   0.273
 6236SOL     OW20148   3.260   0.108   0.419
 6236SOL    HW120149   3.261   0.053   0.341
 6236SOL    HW220150   3.353   0.120   0.440
 6237SOL     OW20151   2.115   1.788   1.227
 6237SOL    HW120152   2.165   1.718   1.268
 6237SOL    HW220153   2.110   1.763   1.134
 6238SOL     OW20154   2.803   1.703   0.898
 6238SOL    HW120155   2.882   1.656   0.924
 6238SOL    HW220156   2.765   1.650   0.828
 6239SOL     OW20157   2.264   0.693   0.474
 6239SOL    HW120158   2.285   0.601   0.486
 6239SOL    HW220159   2.172   0.701   0.501
 6240SOL     OW20160   3.405   0.209   1.725
 6240SOL    HW120161   3.404   0.237   1.817
 6240SOL    HW220162   3.335   0.145   1.718
 6241SOL     OW20163   2.456   0.096   0.094
 6241SOL    HW120164   2.529   0.082   0.155
 6241SOL    HW220165   2.467   0.026   0.029
 6242SOL     OW20166   2.586   0.275   1.767
 6242SOL    HW120167   2.681   0.275   1.758
 6242SOL    HW220168   2.571   0.268   1.861
 6243SOL     OW20169   2.738   1.522   1.197
 6243SOL    HW120170   2.719   1.482   1.112
 6243SOL    HW220171   2.806   1.467   1.234
 6244SOL     OW20172   3.208   0.593   1.437
 6244SOL    HW120173   3.246   0.566   1.521
 6244SOL    HW220174   3.242   0.681   1.423
 6245SOL     OW20175   2.684   1.382   0.953
 6245SOL    HW120176   2.770   1.374   0.911
 6245SOL    HW220177   2.624   1.396   0.880
 6246SOL     OW20178   2.787   0.517   0.896
 6246SOL    HW120179   2.760   0.515   0.804
 6246SOL    HW220180   2.817   0.428   0.914
 6247SOL     OW20181   2.443   0.037   0.439
 6247SOL    HW120182   2.368  -0.001   0.485
 6247SOL    HW220183   2.415   0.125   0.414
 6248SOL     OW20184   3.318   1.220   0.048
 6248SOL    HW120185   3.332   1.141   0.100
 6248SOL    HW220186   3.228   1.246   0.067
 6249SOL     OW20187   2.184   0.036   0.211
 6249SOL    HW120188   2.266   0.074   0.180
 6249SOL    HW220189   2.207  -0.008   0.293
 6250SOL     OW20190   2.808   0.257   0.464
 6250SOL    HW120191   2.781   0.280   0.374
 6250SOL    HW220192   2.903   0.269   0.464
 6251SOL     OW20193   2.948   0.683   1.454
 6251SOL    HW120194   2.894   0.612   1.487
 6251SOL    HW220195   3.038   0.649   1.455
 6252SOL     OW20196   3.081   1.570   0.792
 6252SOL    HW120197   3.093   1.638   0.727
 6252SOL    HW220198   3.146   1.588   0.859
 6253SOL     OW20199   2.338   1.155   0.718
 6253SOL    HW120200   2.274   1.135   0.786
 6253SOL    HW220201   2.290   1.144   0.636
 6254SOL     OW20202   3.117   1.789   0.610
 6254SOL    HW120203   3.170   1.854   0.565
 6254SOL    HW220204   3.050   1.840   0.655
 6255SOL     OW20205   2.887   0.560   0.082
 6255SOL    HW120206   2.902   0.631   0.020
 6255SOL    HW220207   2.962   0.563   0.141
 6256SOL     OW20208   1.954   0.565   1.395
 6256SOL    HW120209   2.046   0.565   1.367
 6256SOL    HW220210   1.950   0.634   1.461
 6257SOL     OW20211   2.438   0.215   1.244
 6257SOL    HW120212   2.456   0.208   1.337
 6257SOL    HW220213   2.343   0.210   1.236
 6258SOL     OW20214   2.726   0.467   0.636
 6258SOL    HW120215   2.688   0.519   0.565
 6258SOL    HW220216   2.748   0.383   0.595
 6259SOL     OW20217   2.865   0.035   0.788
 6259SOL    HW120218   2.805   0.033   0.713
 6259SOL    HW220219   2.872  -0.056   0.816
 6260SOL     OW20220   3.305   1.159   0.862
 6260SOL    HW120221   3.236   1.092   0.860
 6260SOL    HW220222   3.334   1.166   0.771
 6261SOL     OW20223   3.328   0.611   0.958
 6261SOL    HW120224   3.270   0.534   0.965
 6261SOL    HW220225   3.383   0.605   1.036
 6262SOL     OW20226   3.697   0.830   0.432
 6262SOL    HW120227   3.750   0.767   0.481
 6262SOL    HW220228   3.653   0.778   0.365
 6263SOL     OW20229   2.350   1.323   0.164
 6263SOL    HW120230   2.276   1.325   0.224
 6263SOL    HW220231   2.325   1.384   0.094
 6264SOL     OW20232   3.540   1.265   0.651
 6264SOL    HW120233   3.634   1.259   0.666
 6264SOL    HW220234   3.518   1.355   0.674
 6265SOL     OW20235   3.254   0.555   0.075
 6265SOL    HW120236   3.205   0.548   0.157
 6265SOL    HW220237   3.327   0.495   0.085
 6266SOL     OW20238   2.372   0.270   0.301
 6266SOL    HW120239   2.410   0.224   0.226
 6266SOL    HW220240   2.357   0.359   0.270
 6267SOL     OW20241   3.605   1.242   1.549
 6267SOL    HW120242   3.694   1.207   1.540
 6267SOL    HW220243   3.618   1.330   1.584
 6268SOL     OW20244   2.917   1.347   1.323
 6268SOL    HW120245   2.841   1.320   1.375
 6268SOL    HW220246   2.992   1.310   1.370
 6269SOL     OW20247   3.467   1.631   1.647
 6269SOL    HW120248   3.468   1.667   1.559
 6269SOL    HW220249   3.548   1.579   1.652
 6270SOL     OW20250   2.986   1.199   1.097
 6270SOL    HW120251   2.941   1.248   1.166
 6270SOL    HW220252   2.966   1.246   1.017
 6271SOL     OW20253   3.483   1.097   1.077
 6271SOL    HW120254   3.477   1.159   1.149
 6271SOL    HW220255   3.409   1.119   1.019
 6272SOL     OW20256   2.761   0.125   1.367
 6272SOL    HW120257   2.801   0.063   1.306
 6272SOL    HW220258   2.833   0.157   1.421
 6273SOL     OW20259   2.837   1.119   1.712
 6273SOL    HW120260   2.748   1.132   1.744
 6273SOL    HW220261   2.834   1.035   1.667
 6274SOL     OW20262   2.561   1.054   0.367
 6274SOL    HW120263   2.549   1.040   0.461
 6274SOL    HW220264   2.640   1.005   0.345
 6275SOL     OW20265   2.284   0.824   1.250
 6275SOL    HW120266   2.348   0.839   1.319
 6275SOL    HW220267   2.251   0.735   1.266
 6276SOL     OW20268   3.127   0.372   1.292
 6276SOL    HW120269   3.162   0.450   1.336
 6276SOL    HW220270   3.039   0.398   1.265
 6277SOL     OW20271   1.939   1.574   1.359
 6277SOL    HW120272   1.913   1.651   1.308
 6277SOL    HW220273   2.034   1.571   1.352
 6278SOL     OW20274   2.203   1.115   0.478
 6278SOL    HW120275   2.184   1.192   0.424
 6278SOL    HW220276   2.221   1.045   0.415
 6279SOL     OW20277   2.402   0.531   0.852
 6279SOL    HW120278   2.421   0.589   0.778
 6279SOL    HW220279   2.468   0.556   0.918
 6280SOL     OW20280   3.104   1.350   0.393
 6280SOL    HW120281   3.160   1.420   0.427
 6280SOL    HW220282   3.017   1.370   0.428
 6281SOL     OW20283   3.155   1.463   1.157
 6281SOL    HW120284   3.217   1.476   1.229
 6281SOL    HW220285   3.094   1.397   1.189
 6282SOL     OW20286   3.416   0.606   0.507
 6282SOL    HW120287   3.371   0.671   0.561
 6282SOL    HW220288   3.460   0.658   0.440
 6283SOL     OW20289   2.207   1.531   1.308
 6283SOL    HW120290   2.198   1.483   1.225
 6283SOL    HW220291   2.302   1.542   1.318
 6284SOL     OW20292   2.300   0.732   1.620
 6284SOL    HW120293   2.348   0.783   1.554
 6284SOL    HW220294   2.364   0.667   1.650
 6285SOL     OW20295   3.472   0.779   1.691
 6285SOL    HW120296   3.387   0.822   1.687
 6285SOL    HW220297   3.525   0.823   1.624
 6286SOL     OW20298   2.886   0.107   1.749
 6286SOL    HW120299   2.954   0.150   1.801
 6286SOL    HW220300   2.906   0.130   1.658
 6287SOL     OW20301   2.308  -0.009   1.742
 6287SOL    HW120302   2.383  -0.016   1.683
 6287SOL    HW220303   2.286   0.084   1.741
 6288SOL     OW20304   2.446   0.877   1.033
 6288SOL    HW120305   2.486   0.964   1.036
 6288SOL    HW220306   2.392   0.873   1.111
 6289SOL     OW20307   3.199   0.859   1.009
 6289SOL    HW120308   3.109   0.837   0.983
 6289SOL    HW220309   3.247   0.776   1.002
 6290SOL     OW20310   3.075   0.532   0.282
 6290SOL    HW120311   3.085   0.455   0.337
 6290SOL    HW220312   3.028   0.595   0.337
 6291SOL     OW20313   2.164   0.196   1.239
 6291SOL    HW120314   2.119   0.222   1.319
 6291SOL    HW220315   2.144   0.103   1.229
 6292SOL     OW20316   1.914   1.314   1.270
 6292SOL    HW120317   1.941   1.258   1.343
 6292SOL    HW220318   1.915   1.403   1.307
 6293SOL     OW20319   2.568   0.626   1.047
 6293SOL    HW120320   2.650   0.621   0.998
 6293SOL    HW220321   2.540   0.717   1.038
 6294SOL     OW20322   3.606   0.960   1.862
 6294SOL    HW120323   3.558   0.892   1.814
 6294SOL    HW220324   3.549   0.981   1.936
 6295SOL     OW20325   2.252   0.101   0.650
 6295SOL    HW120326   2.196   0.175   0.673
 6295SOL    HW220327   2.192   0.033   0.618
 6296SOL     OW20328   3.481   0.381   0.366
 6296SOL    HW120329   3.495   0.303   0.421
 6296SOL    HW220330   3.448   0.447   0.426
 6297SOL     OW20331   2.893   0.761   0.958
 6297SOL    HW120332   2.880   0.776   1.052
 6297SOL    HW220333   2.862   0.672   0.944
 6298SOL     OW20334   2.849   1.578   1.716
 6298SOL    HW120335   2.825   1.615   1.632
 6298SOL    HW220336   2.880   1.490   1.696
 6299SOL     OW20337   3.708   1.497   1.602
 6299SOL    HW120338   3.735   1.527   1.516
 6299SOL    HW220339   3.785   1.512   1.658
 6300SOL     OW20340   2.214   0.917   1.809
 6300SOL    HW120341   2.289   0.942   1.864
 6300SOL    HW220342   2.249   0.850   1.750
 6301SOL     OW20343   3.360   0.270   0.146
 6301SOL    HW120344   3.413   0.190   0.145
 6301SOL    HW220345   3.396   0.322   0.217
 6302SOL     OW20346   3.136   0.808   0.058
 6302SOL    HW120347   3.190   0.730   0.046
 6302SOL    HW220348   3.174   0.873  -0.000
 6303SOL     OW20349   2.933   1.341   0.857
 6303SOL    HW120350   2.942   1.270   0.794
 6303SOL    HW220351   2.992   1.410   0.824
 6304SOL     OW20352   2.175   0.813   0.945
 6304SOL    HW120353   2.268   0.835   0.950
 6304SOL    HW220354   2.169   0.724   0.979
 6305SOL     OW20355   2.186   0.537   1.013
 6305SOL    HW120356   2.150   0.449   1.000
 6305SOL    HW220357   2.261   0.541   0.953
 6306SOL     OW20358   3.007   0.431   1.654
 6306SOL    HW120359   2.969   0.459   1.738
 6306SOL    HW220360   3.100   0.452   1.662
 6307SOL     OW20361   2.995   0.219   1.484
 6307SOL    HW120362   3.013   0.282   1.554
 6307SOL    HW220363   3.045   0.251   1.409
 6308SOL     OW20364   1.949   1.777   0.941
 6308SOL    HW120365   1.920   1.699   0.893
 6308SOL    HW220366   2.038   1.793   0.911
 6309SOL     OW20367   2.350   1.574   0.902
 6309SOL    HW120368   2.419   1.637   0.925
 6309SOL    HW220369   2.394   1.511   0.845
 6310SOL     OW20370   2.827   0.774   1.223
 6310SOL    HW120371   2.891   0.754   1.291
 6310SOL    HW220372   2.742   0.759   1.265
 6311SOL     OW20373   1.902   0.554   1.119
 6311SOL    HW120374   1.986   0.557   1.073
 6311SOL    HW220375   1.926   0.554   1.212
 6312SOL     OW20376   2.046   0.534   1.736
 6312SOL    HW120377   2.134   0.526   1.700
 6312SOL    HW220378   2.007   0.607   1.688
 6313SOL     OW20379   3.246   0.928   1.655
 6313SOL    HW120380   3.265   1.021   1.656
 6313SOL    HW220381   3.244   0.905   1.562
 6314SOL     OW20382   2.672   0.565   0.375
 6314SOL    HW120383   2.698   0.489   0.322
 6314SOL    HW220384   2.586   0.589   0.342
 6315SOL     OW20385   3.498   0.604   1.171
 6315SOL    HW120386   3.489   0.553   1.251
 6315SOL    HW220387   3.588   0.588   1.142
 6316SOL     OW20388   2.096   1.547   1.720
 6316SOL    HW120389   2.077   1.613   1.786
 6316SOL    HW220390   2.109   1.466   1.769
 6317SOL     OW20391   2.597   0.444   1.246
 6317SOL    HW120392   2.522   0.384   1.251
 6317SOL    HW220393   2.572   0.509   1.180
 6318SOL     OW20394   2.780   1.679   1.467
 6318SOL    HW120395   2.755   1.637   1.385
 6318SOL    HW220396   2.776   1.773   1.448
 6319SOL     OW20397   2.332   0.511   0.187
 6319SOL    HW120398   2.374   0.594   0.208
 6319SOL    HW220399   2.258   0.534   0.130
 6320SOL     OW20400   1.996   1.145   1.476
 6320SOL    HW120401   2.000   1.100   1.560
 6320SOL    HW220402   2.016   1.077   1.412
 6321SOL     OW20403   3.179   1.040   1.213
 6321SOL    HW120404   3.200   0.979   1.142
 6321SOL    HW220405   3.110   1.096   1.177
 6322SOL     OW20406   3.161   0.845   0.330
 6322SOL    HW120407   3.086   0.808   0.376
 6322SOL    HW220408   3.148   0.821   0.238
 6323SOL     OW20409   3.623   1.736   1.142
 6323SOL    HW120410   3.692   1.760   1.081
 6323SOL    HW220411   3.609   1.643   1.127
 6324SOL     OW20412   3.099   1.728   1.087
 6324SOL    HW120413   3.185   1.757   1.056
 6324SOL    HW220414   3.114   1.638   1.119
 6325SOL     OW20415   1.958   1.257   1.011
 6325SOL    HW120416   1.941   1.278   1.103
 6325SOL    HW220417   1.881   1.209   0.983
 6326SOL     OW20418   2.540   1.678   1.737
 6326SOL    HW120419   2.480   1.753   1.734
 6326SOL    HW220420   2.604   1.696   1.667
 6327SOL     OW20421   2.811   0.067   0.044
 6327SOL    HW120422   2.887   0.116   0.075
 6327SOL    HW220423   2.754   0.059   0.120
 6328SOL     OW20424   3.526   0.124   0.500
 6328SOL    HW120425   3.621   0.125   0.504
 6328SOL    HW220426   3.499   0.084   0.583
 6329SOL     OW20427   3.252   1.566   0.493
 6329SOL    HW120428   3.316   1.601   0.431
 6329SOL    HW220429   3.205   1.643   0.525
 6330SOL     OW20430   2.009   1.794   1.844
 6330SOL    HW120431   1.958   1.727   1.890
 6330SOL    HW220432   2.056   1.841   1.913
 6331SOL     OW20433   3.136   0.934   0.668
 6331SOL    HW120434   3.210   0.876   0.685
 6331SOL    HW220435   3.171   1.003   0.612
 6332SOL     OW20436   2.663   1.280   1.420
 6332SOL    HW120437   2.638   1.322   1.502
 6332SOL    HW220438   2.588   1.296   1.362
 6333SOL     OW20439   2.519   1.597   0.191
 6333SOL    HW120440   2.583   1.621   0.124
 6333SOL    HW220441   2.484   1.513   0.161
 6334SOL     OW20442   3.479   1.736   1.386
 6334SOL    HW120443   3.530   1.741   1.305
 6334SOL    HW220444   3.464   1.827   1.410
 6335SOL     OW20445   3.706   0.178   0.952
 6335SOL    HW120446   3.708   0.088   0.987
 6335SOL    HW220447   3.621   0.185   0.910
 6336SOL     OW20448   2.121   0.330   0.711
 6336SOL    HW120449   2.033   0.361   0.687
 6336SOL    HW220450   2.119   0.326   0.807
 6337SOL     OW20451   3.064   1.605   0.068
 6337SOL    HW120452   3.059   1.511   0.086
 6337SOL    HW220453   3.027   1.615  -0.019
 6338SOL     OW20454   2.689   1.011   1.374
 6338SOL    HW120455   2.735   1.010   1.290
 6338SOL    HW220456   2.683   1.104   1.397
 6339SOL     OW20457   2.774   0.909   0.291
 6339SOL    HW120458   2.834   0.938   0.223
 6339SOL    HW220459   2.823   0.845   0.341
 6340SOL     OW20460   3.324   1.579   0.001
 6340SOL    HW120461   3.239   1.604   0.036
 6340SOL    HW220462   3.378   1.658   0.008
 6341SOL     OW20463   2.228   1.303   1.488
 6341SOL    HW120464   2.214   1.382   1.435
 6341SOL    HW220465   2.148   1.252   1.477
 6342SOL     OW20466   3.467   1.285   1.282
 6342SOL    HW120467   3.524   1.265   1.356
 6342SOL    HW220468   3.409   1.354   1.313
 6343SOL     OW20469   2.924   1.114   0.707
 6343SOL    HW120470   2.854   1.064   0.748
 6343SOL    HW220471   2.992   1.049   0.688
 6344SOL     OW20472   2.878   0.260   0.951
 6344SOL    HW120473   2.871   0.209   0.871
 6344SOL    HW220474   2.881   0.195   1.021
 6345SOL     OW20475   2.454   1.478   0.478
 6345SOL    HW120476   2.504   1.450   0.401
 6345SOL    HW220477   2.388   1.538   0.443
 6346SOL     OW20478   3.585   0.417   1.385
 6346SOL    HW120479   3.654   0.483   1.395
 6346SOL    HW220480   3.620   0.354   1.323
 6347SOL     OW20481   2.120   1.321   0.310
 6347SOL    HW120482   2.051   1.356   0.255
 6347SOL    HW220483   2.110   1.367   0.393
 6348SOL     OW20484   1.976   1.025   1.720
 6348SOL    HW120485   1.902   1.004   1.777
 6348SOL    HW220486   2.053   0.990   1.765
 6349SOL     OW20487   2.516   0.209   1.504
 6349SOL    HW120488   2.593   0.159   1.476
 6349SOL    HW220489   2.534   0.232   1.595
 6350SOL     OW20490   3.285   0.857   1.392
 6350SOL    HW120491   3.236   0.919   1.338
 6350SOL    HW220492   3.375   0.863   1.360
 6351SOL     OW20493   1.951   0.237   0.293
 6351SOL    HW120494   1.881   0.177   0.271
 6351SOL    HW220495   2.030   0.182   0.298
 6352SOL     OW20496   3.053   1.333   0.118
 6352SOL    HW120497   2.958   1.326   0.110
 6352SOL    HW220498   3.069   1.327   0.212
 6353SOL     OW20499   2.476   0.846   1.436
 6353SOL    HW120500   2.535   0.920   1.424
 6353SOL    HW220501   2.533   0.770   1.441
 6354SOL     OW20502   3.352   1.788   0.986
 6354SOL    HW120503   3.375   1.862   0.930
 6354SOL    HW220504   3.434   1.766   1.032
 6355SOL     OW20505   2.553   0.580   1.698
 6355SOL    HW120506   2.609   0.633   1.755
 6355SOL    HW220507   2.578   0.489   1.717
 6356SOL     OW20508   3.329   1.192   1.634
 6356SOL    HW120509   3.315   1.207   1.727
 6356SOL    HW220510   3.421   1.214   1.619
 6357SOL     OW20511   2.226   1.743   1.565
 6357SOL    HW120512   2.144   1.790   1.552
 6357SOL    HW220513   2.200   1.660   1.606
 6358SOL     OW20514   3.524   0.882   1.252
 6358SOL    HW120515   3.521   0.798   1.206
 6358SOL    HW220516   3.515   0.947   1.183
 6359SOL     OW20517   3.080   0.311   0.441
 6359SOL    HW120518   3.143   0.238   0.439
 6359SOL    HW220519   3.100   0.358   0.523
 6360SOL     OW20520   2.458   0.729   0.667
 6360SOL    HW120521   2.493   0.817   0.661
 6360SOL    HW220522   2.387   0.726   0.602
 6361SOL     OW20523   3.620   0.369   1.653
 6361SOL    HW120524   3.603   0.390   1.561
 6361SOL    HW220525   3.551   0.307   1.677
 6362SOL     OW20526   3.599   0.935   1.511
 6362SOL    HW120527   3.595   1.030   1.525
 6362SOL    HW220528   3.586   0.924   1.417
 6363SOL     OW20529   2.778   1.371   0.059
 6363SOL    HW120530   2.726   1.352   0.138
 6363SOL    HW220531   2.763   1.464   0.042
 6364SOL     OW20532   2.525   1.779   0.928
 6364SOL    HW120533   2.506   1.872   0.917
 6364SOL    HW220534   2.621   1.774   0.929
 6365SOL     OW20535   2.732   0.973   0.850
 6365SOL    HW120536   2.784   0.903   0.890
 6365SOL    HW220537   2.690   1.017   0.924
 6366SOL     OW20538   2.927   0.986   0.072
 6366SOL    HW120539   2.967   1.062   0.028
 6366SOL    HW220540   3.000   0.924   0.082
 6367SOL     OW20541   3.704   1.547   0.838
 6367SOL    HW120542   3.622   1.540   0.790
 6367SOL    HW220543   3.690   1.498   0.919
 6368SOL     OW20544   2.098   1.302   1.859
 6368SOL    HW120545   2.022   1.246   1.841
 6368SOL    HW220546   2.097   1.314   1.954
 6369SOL     OW20547   1.946   1.228   0.677
 6369SOL    HW120548   1.948   1.185   0.763
 6369SOL    HW220549   2.019   1.189   0.629
 6370SOL     OW20550   2.547   1.415   1.627
 6370SOL    HW120551   2.472   1.369   1.666
 6370SOL    HW220552   2.548   1.500   1.671
 6371SOL     OW20553   3.694   0.236   1.228
 6371SOL    HW120554   3.656   0.150   1.246
 6371SOL    HW220555   3.705   0.238   1.133
 6372SOL     OW20556   2.303   0.430   0.529
 6372SOL    HW120557   2.305   0.364   0.460
 6372SOL    HW220558   2.239   0.398   0.592
 6373SOL     OW20559   3.566   1.475   1.081
 6373SOL    HW120560   3.482   1.458   1.040
 6373SOL    HW220561   3.572   1.411   1.152
 6374SOL     OW20562   2.202   0.567   1.291
 6374SOL    HW120563   2.251   0.505   1.345
 6374SOL    HW220564   2.215   0.536   1.202
 6375SOL     OW20565   2.696   1.572   0.683
 6375SOL    HW120566   2.678   1.627   0.607
 6375SOL    HW220567   2.619   1.516   0.691
 6376SOL     OW20568   3.294   0.232   1.112
 6376SOL    HW120569   3.359   0.172   1.150
 6376SOL    HW220570   3.251   0.272   1.188
 6377SOL     OW20571   2.866   0.041   1.120
 6377SOL    HW120572   2.843  -0.047   1.149
 6377SOL    HW220573   2.962   0.041   1.117
 6378SOL     OW20574   2.659   1.315   0.305
 6378SOL    HW120575   2.630   1.232   0.344
 6378SOL    HW220576   2.728   1.346   0.364
 6379SOL     OW20577   2.482   1.558   1.287
 6379SOL    HW120578   2.480   1.639   1.336
 6379SOL    HW220579   2.571   1.552   1.253
 6380SOL     OW20580   3.196  -0.006   0.117
 6380SOL    HW120581   3.283   0.035   0.121
 6380SOL    HW220582   3.135   0.065   0.134
 6381SOL     OW20583   3.128   0.456   0.666
 6381SOL    HW120584   3.087   0.542   0.675
 6381SOL    HW220585   3.147   0.429   0.756
 6382SOL     OW20586   3.461   0.210   0.845
 6382SOL    HW120587   3.393   0.209   0.912
 6382SOL    HW220588   3.455   0.298   0.807
 6383SOL     OW20589   1.884   1.083   0.337
 6383SOL    HW120590   1.977   1.108   0.338
 6383SOL    HW220591   1.882   0.996   0.377
 6384SOL     OW20592   2.716   1.646   0.386
 6384SOL    HW120593   2.646   1.640   0.322
 6384SOL    HW220594   2.707   1.734   0.423
 6385SOL     OW20595   2.073   0.630   1.999
 6385SOL    HW120596   1.986   0.620   2.039
 6385SOL    HW220597   2.060   0.608   1.907
 6386SOL     OW20598   2.080   0.301   2.856
 6386SOL    HW120599   2.110   0.258   2.937
 6386SOL    HW220600   1.994   0.262   2.838
 6387SOL     OW20601   1.872   0.402   2.503
 6387SOL    HW120602   1.784   0.422   2.536
 6387SOL    HW220603   1.872   0.307   2.491
 6388SOL     OW20604   2.427   1.301   3.046
 6388SOL    HW120605   2.343   1.314   3.002
 6388SOL    HW220606   2.450   1.388   3.080
 6389SOL     OW20607   3.457   1.508   2.585
 6389SOL    HW120608   3.406   1.492   2.665
 6389SOL    HW220609   3.392   1.531   2.519
 6390SOL     OW20610   2.988   0.698   2.553
 6390SOL    HW120611   3.039   0.778   2.538
 6390SOL    HW220612   2.946   0.712   2.638
 6391SOL     OW20613   3.663   0.588   2.080
 6391SOL    HW120614   3.626   0.587   1.992
 6391SOL    HW220615   3.615   0.521   2.128
 6392SOL     OW20616   2.591   1.129   2.906
 6392SOL    HW120617   2.530   1.171   2.967
 6392SOL    HW220618   2.638   1.202   2.866
 6393SOL     OW20619   2.740   0.753   3.685
 6393SOL    HW120620   2.743   0.817   3.756
 6393SOL    HW220621   2.762   0.803   3.606
 6394SOL     OW20622   2.544   0.989   2.507
 6394SOL    HW120623   2.613   0.985   2.574
 6394SOL    HW220624   2.478   1.047   2.544
 6395SOL     OW20625   2.573   1.145   3.681
 6395SOL    HW120626   2.621   1.221   3.716
 6395SOL    HW220627   2.495   1.182   3.642
 6396SOL     OW20628   2.195   1.415   2.927
 6396SOL    HW120629   2.120   1.380   2.879
 6396SOL    HW220630   2.241   1.469   2.863
 6397SOL     OW20631   3.326   1.508   3.225
 6397SOL    HW120632   3.382   1.585   3.234
 6397SOL    HW220633   3.260   1.518   3.294
 6398SOL     OW20634   2.311   0.381   3.317
 6398SOL    HW120635   2.391   0.329   3.328
 6398SOL    HW220636   2.242   0.327   3.355
 6399SOL     OW20637   3.474   0.458   2.593
 6399SOL    HW120638   3.408   0.485   2.529
 6399SOL    HW220639   3.477   0.530   2.657
 6400SOL     OW20640   2.083   1.719   2.330
 6400SOL    HW120641   2.105   1.791   2.389
 6400SOL    HW220642   2.161   1.707   2.276
 6401SOL     OW20643   3.000   1.345   3.559
 6401SOL    HW120644   3.048   1.337   3.641
 6401SOL    HW220645   2.948   1.264   3.553
 6402SOL     OW20646   2.082   1.444   2.387
 6402SOL    HW120647   2.074   1.540   2.392
 6402SOL    HW220648   2.037   1.412   2.465
 6403SOL     OW20649   2.120   1.093   2.745
 6403SOL    HW120650   2.127   1.006   2.784
 6403SOL    HW220651   2.071   1.145   2.809
 6404SOL     OW20652   2.435   1.808   3.260
 6404SOL    HW120653   2.369   1.784   3.325
 6404SOL    HW220654   2.482   1.882   3.299
 6405SOL     OW20655   2.433   0.992   2.007
 6405SOL    HW120656   2.486   1.031   1.937
 6405SOL    HW220657   2.475   1.022   2.088
 6406SOL     OW20658   3.494   0.139   3.327
 6406SOL    HW120659   3.506   0.226   3.289
 6406SOL    HW220660   3.457   0.157   3.414
 6407SOL     OW20661   1.978   0.663   2.423
 6407SOL    HW120662   1.951   0.574   2.446
 6407SOL    HW220663   1.972   0.713   2.505
 6408SOL     OW20664   3.706   1.749   2.182
 6408SOL    HW120665   3.768   1.722   2.250
 6408SOL    HW220666   3.722   1.842   2.171
 6409SOL     OW20667   1.902   1.588   1.981
 6409SOL    HW120668   1.885   1.496   2.001
 6409SOL    HW220669   1.877   1.635   2.060
 6410SOL     OW20670   3.541   0.895   2.489
 6410SOL    HW120671   3.635   0.883   2.499
 6410SOL    HW220672   3.532   0.960   2.419
 6411SOL     OW20673   3.521   1.101   2.295
 6411SOL    HW120674   3.607   1.102   2.254
 6411SOL    HW220675   3.528   1.164   2.367
 6412SOL     OW20676   2.000   0.756   3.445
 6412SOL    HW120677   2.093   0.778   3.451
 6412SOL    HW220678   1.955   0.838   3.466
 6413SOL     OW20679   2.467   1.394   2.593
 6413SOL    HW120680   2.429   1.307   2.603
 6413SOL    HW220681   2.454   1.416   2.501
 6414SOL     OW20682   3.146   1.230   3.281
 6414SOL    HW120683   3.182   1.165   3.221
 6414SOL    HW220684   3.206   1.228   3.356
 6415SOL     OW20685   2.695   0.032   2.400
 6415SOL    HW120686   2.743   0.109   2.373
 6415SOL    HW220687   2.609   0.065   2.426
 6416SOL     OW20688   2.048   0.963   3.137
 6416SOL    HW120689   2.136   0.927   3.126
 6416SOL    HW220690   1.991   0.903   3.089
 6417SOL     OW20691   3.403   0.998   2.066
 6417SOL    HW120692   3.335   0.939   2.099
 6417SOL    HW220693   3.442   1.035   2.145
 6418SOL     OW20694   3.026   1.809   3.475
 6418SOL    HW120695   3.054   1.878   3.415
 6418SOL    HW220696   3.069   1.730   3.442
 6419SOL     OW20697   2.182   0.250   3.636
 6419SOL    HW120698   2.252   0.296   3.681
 6419SOL    HW220699   2.105   0.263   3.691
 6420SOL     OW20700   3.327   1.418   2.814
 6420SOL    HW120701   3.261   1.434   2.882
 6420SOL    HW220702   3.311   1.328   2.786
 6421SOL     OW20703   3.514   1.760   2.431
 6421SOL    HW120704   3.449   1.712   2.379
 6421SOL    HW220705   3.529   1.704   2.507
 6422SOL     OW20706   2.458   0.714   2.136
 6422SOL    HW120707   2.469   0.802   2.098
 6422SOL    HW220708   2.393   0.726   2.205
 6423SOL     OW20709   3.153   0.372   2.794
 6423SOL    HW120710   3.062   0.341   2.798
 6423SOL    HW220711   3.199   0.317   2.858
 6424SOL     OW20712   3.421   1.765   2.128
 6424SOL    HW120713   3.512   1.754   2.158
 6424SOL    HW220714   3.407   1.692   2.068
 6425SOL     OW20715   2.650   0.629   3.307
 6425SOL    HW120716   2.624   0.602   3.395
 6425SOL    HW220717   2.621   0.558   3.250
 6426SOL     OW20718   3.273   0.484   3.542
 6426SOL    HW120719   3.278   0.528   3.627
 6426SOL    HW220720   3.328   0.406   3.552
 6427SOL     OW20721   2.808   0.885   3.449
 6427SOL    HW120722   2.869   0.824   3.408
 6427SOL    HW220723   2.762   0.926   3.375
 6428SOL     OW20724   2.853   0.405   3.098
 6428SOL    HW120725   2.764   0.435   3.114
 6428SOL    HW220726   2.853   0.374   3.008
 6429SOL     OW20727   2.914   0.696   2.284
 6429SOL    HW120728   2.934   0.696   2.377
 6429SOL    HW220729   2.830   0.652   2.277
 6430SOL     OW20730   1.946   0.830   2.640
 6430SOL    HW120731   2.029   0.821   2.687
 6430SOL    HW220732   1.902   0.904   2.682
 6431SOL     OW20733   1.985   1.911   3.472
 6431SOL    HW120734   1.994   1.874   3.560
 6431SOL    HW220735   1.915   1.859   3.431
 6432SOL     OW20736   2.752   0.345   2.058
 6432SOL    HW120737   2.804   0.397   1.996
 6432SOL    HW220738   2.767   0.254   2.032
 6433SOL     OW20739   3.558   0.563   3.693
 6433SOL    HW120740   3.526   0.641   3.647
 6433SOL    HW220741   3.592   0.506   3.623
 6434SOL     OW20742   3.251   1.142   2.416
 6434SOL    HW120743   3.331   1.138   2.364
 6434SOL    HW220744   3.198   1.209   2.373
 6435SOL     OW20745   2.385   0.252   2.757
 6435SOL    HW120746   2.386   0.246   2.852
 6435SOL    HW220747   2.393   0.346   2.739
 6436SOL     OW20748   2.829   1.458   2.340
 6436SOL    HW120749   2.833   1.536   2.285
 6436SOL    HW220750   2.916   1.418   2.331
 6437SOL     OW20751   2.214   1.818   2.743
 6437SOL    HW120752   2.261   1.735   2.747
 6437SOL    HW220753   2.281   1.885   2.757
 6438SOL     OW20754   3.653   1.035   2.733
 6438SOL    HW120755   3.599   1.066   2.660
 6438SOL    HW220756   3.600   1.049   2.811
 6439SOL     OW20757   3.091   1.539   3.375
 6439SOL    HW120758   3.080   1.470   3.440
 6439SOL    HW220759   3.014   1.530   3.318
 6440SOL     OW20760   2.172   0.964   2.121
 6440SOL    HW120761   2.257   0.983   2.080
 6440SOL    HW220762   2.149   0.878   2.088
 6441SOL     OW20763   3.336   0.744   2.580
 6441SOL    HW120764   3.339   0.714   2.670
 6441SOL    HW220765   3.413   0.800   2.570
 6442SOL     OW20766   2.334   1.265   3.601
 6442SOL    HW120767   2.309   1.270   3.509
 6442SOL    HW220768   2.251   1.266   3.649
 6443SOL     OW20769   2.956   1.809   2.017
 6443SOL    HW120770   2.894   1.780   2.084
 6443SOL    HW220771   2.998   1.728   1.988
 6444SOL     OW20772   2.053   0.262   3.372
 6444SOL    HW120773   1.987   0.332   3.377
 6444SOL    HW220774   2.081   0.250   3.463
 6445SOL     OW20775   3.491   1.378   1.940
 6445SOL    HW120776   3.449   1.464   1.935
 6445SOL    HW220777   3.418   1.316   1.931
 6446SOL     OW20778   2.326   1.730   2.187
 6446SOL    HW120779   2.370   1.790   2.247
 6446SOL    HW220780   2.394   1.702   2.126
 6447SOL     OW20781   3.290   0.132   2.268
 6447SOL    HW120782   3.318   0.100   2.182
 6447SOL    HW220783   3.372   0.150   2.314
 6448SOL     OW20784   2.111   1.790   3.104
 6448SOL    HW120785   2.171   1.735   3.154
 6448SOL    HW220786   2.135   1.775   3.012
 6449SOL     OW20787   2.804   1.703   2.765
 6449SOL    HW120788   2.889   1.661   2.777
 6449SOL    HW220789   2.761   1.651   2.696
 6450SOL     OW20790   2.257   0.695   2.330
 6450SOL    HW120791   2.272   0.602   2.348
 6450SOL    HW220792   2.164   0.709   2.348
 6451SOL     OW20793   3.393   0.226   3.582
 6451SOL    HW120794   3.401   0.248   3.675
 6451SOL    HW220795   3.328   0.155   3.579
 6452SOL     OW20796   2.421   0.111   1.975
 6452SOL    HW120797   2.501   0.080   2.017
 6452SOL    HW220798   2.410   0.053   1.899
 6453SOL     OW20799   2.599   0.259   3.627
 6453SOL    HW120800   2.679   0.296   3.589
 6453SOL    HW220801   2.605   0.280   3.720
 6454SOL     OW20802   2.731   1.512   3.058
 6454SOL    HW120803   2.718   1.476   2.970
 6454SOL    HW220804   2.806   1.465   3.092
 6455SOL     OW20805   3.207   0.594   3.297
 6455SOL    HW120806   3.246   0.568   3.380
 6455SOL    HW220807   3.241   0.683   3.282
 6456SOL     OW20808   2.683   1.375   2.811
 6456SOL    HW120809   2.772   1.368   2.775
 6456SOL    HW220810   2.629   1.399   2.736
 6457SOL     OW20811   2.784   0.514   2.753
 6457SOL    HW120812   2.749   0.503   2.664
 6457SOL    HW220813   2.822   0.429   2.775
 6458SOL     OW20814   2.399   0.023   2.291
 6458SOL    HW120815   2.340   0.020   2.367
 6458SOL    HW220816   2.409   0.117   2.273
 6459SOL     OW20817   3.286   1.196   1.909
 6459SOL    HW120818   3.322   1.125   1.962
 6459SOL    HW220819   3.212   1.229   1.960
 6460SOL     OW20820   2.154   0.038   2.078
 6460SOL    HW120821   2.236   0.076   2.048
 6460SOL    HW220822   2.179  -0.018   2.152
 6461SOL     OW20823   2.815   0.264   2.320
 6461SOL    HW120824   2.784   0.298   2.237
 6461SOL    HW220825   2.910   0.278   2.318
 6462SOL     OW20826   2.950   0.692   3.316
 6462SOL    HW120827   2.892   0.620   3.341
 6462SOL    HW220828   3.038   0.654   3.317
 6463SOL     OW20829   3.064   1.581   2.667
 6463SOL    HW120830   3.083   1.637   2.591
 6463SOL    HW220831   3.136   1.600   2.728
 6464SOL     OW20832   2.333   1.150   2.584
 6464SOL    HW120833   2.267   1.132   2.651
 6464SOL    HW220834   2.285   1.140   2.501
 6465SOL     OW20835   3.111   1.800   2.468
 6465SOL    HW120836   3.163   1.865   2.421
 6465SOL    HW220837   3.045   1.852   2.515
 6466SOL     OW20838   2.893   0.522   1.888
 6466SOL    HW120839   2.846   0.604   1.872
 6466SOL    HW220840   2.951   0.541   1.962
 6467SOL     OW20841   1.949   0.565   3.258
 6467SOL    HW120842   2.041   0.562   3.229
 6467SOL    HW220843   1.947   0.635   3.323
 6468SOL     OW20844   2.428   0.227   3.054
 6468SOL    HW120845   2.466   0.198   3.137
 6468SOL    HW220846   2.334   0.225   3.068
 6469SOL     OW20847   2.696   0.442   2.497
 6469SOL    HW120848   2.671   0.508   2.432
 6469SOL    HW220849   2.745   0.377   2.447
 6470SOL     OW20850   2.830   0.040   2.648
 6470SOL    HW120851   2.785   0.034   2.563
 6470SOL    HW220852   2.856  -0.050   2.668
 6471SOL     OW20853   3.302   1.158   2.720
 6471SOL    HW120854   3.229   1.096   2.729
 6471SOL    HW220855   3.313   1.169   2.625
 6472SOL     OW20856   3.324   0.612   2.824
 6472SOL    HW120857   3.270   0.533   2.828
 6472SOL    HW220858   3.382   0.605   2.899
 6473SOL     OW20859   3.713   0.805   2.237
 6473SOL    HW120860   3.767   0.760   2.303
 6473SOL    HW220861   3.692   0.737   2.173
 6474SOL     OW20862   2.354   1.424   2.009
 6474SOL    HW120863   2.278   1.398   2.061
 6474SOL    HW220864   2.355   1.363   1.935
 6475SOL     OW20865   3.553   1.254   2.513
 6475SOL    HW120866   3.648   1.258   2.524
 6475SOL    HW220867   3.523   1.342   2.536
 6476SOL     OW20868   3.256   0.573   1.939
 6476SOL    HW120869   3.193   0.558   2.010
 6476SOL    HW220870   3.341   0.572   1.983
 6477SOL     OW20871   2.376   0.284   2.179
 6477SOL    HW120872   2.396   0.224   2.107
 6477SOL    HW220873   2.354   0.367   2.136
 6478SOL     OW20874   3.606   1.243   3.412
 6478SOL    HW120875   3.694   1.208   3.400
 6478SOL    HW220876   3.619   1.331   3.446
 6479SOL     OW20877   2.923   1.346   3.183
 6479SOL    HW120878   2.846   1.321   3.234
 6479SOL    HW220879   2.996   1.307   3.230
 6480SOL     OW20880   3.462   1.617   3.511
 6480SOL    HW120881   3.465   1.667   3.429
 6480SOL    HW220882   3.548   1.574   3.516
 6481SOL     OW20883   2.978   1.188   2.959
 6481SOL    HW120884   2.944   1.244   3.028
 6481SOL    HW220885   2.967   1.238   2.879
 6482SOL     OW20886   3.484   1.099   2.938
 6482SOL    HW120887   3.478   1.163   3.009
 6482SOL    HW220888   3.412   1.122   2.879
 6483SOL     OW20889   2.779   0.123   3.247
 6483SOL    HW120890   2.804   0.108   3.156
 6483SOL    HW220891   2.862   0.145   3.290
 6484SOL     OW20892   2.845   1.119   3.584
 6484SOL    HW120893   2.754   1.136   3.611
 6484SOL    HW220894   2.839   1.039   3.532
 6485SOL     OW20895   2.571   1.061   2.236
 6485SOL    HW120896   2.558   1.041   2.329
 6485SOL    HW220897   2.645   1.007   2.210
 6486SOL     OW20898   2.283   0.824   3.116
 6486SOL    HW120899   2.351   0.836   3.183
 6486SOL    HW220900   2.250   0.735   3.132
 6487SOL     OW20901   3.124   0.379   3.149
 6487SOL    HW120902   3.160   0.457   3.192
 6487SOL    HW220903   3.034   0.404   3.127
 6488SOL     OW20904   1.948   1.574   3.223
 6488SOL    HW120905   1.936   1.651   3.167
 6488SOL    HW220906   2.042   1.558   3.221
 6489SOL     OW20907   2.181   1.126   2.353
 6489SOL    HW120908   2.200   1.202   2.299
 6489SOL    HW220909   2.184   1.052   2.292
 6490SOL     OW20910   2.413   0.519   2.713
 6490SOL    HW120911   2.421   0.577   2.638
 6490SOL    HW220912   2.474   0.554   2.778
 6491SOL     OW20913   3.153   1.463   3.023
 6491SOL    HW120914   3.217   1.477   3.092
 6491SOL    HW220915   3.084   1.411   3.065
 6492SOL     OW20916   3.435   0.633   2.344
 6492SOL    HW120917   3.382   0.671   2.414
 6492SOL    HW220918   3.490   0.706   2.313
 6493SOL     OW20919   2.210   1.518   3.176
 6493SOL    HW120920   2.200   1.478   3.089
 6493SOL    HW220921   2.304   1.535   3.184
 6494SOL     OW20922   2.298   0.734   3.478
 6494SOL    HW120923   2.348   0.784   3.414
 6494SOL    HW220924   2.358   0.668   3.510
 6495SOL     OW20925   3.469   0.777   3.553
 6495SOL    HW120926   3.384   0.821   3.549
 6495SOL    HW220927   3.522   0.822   3.487
 6496SOL     OW20928   2.902   0.083   3.605
 6496SOL    HW120929   2.965   0.135   3.656
 6496SOL    HW220930   2.896   0.129   3.521
 6497SOL     OW20931   2.285  -0.012   3.596
 6497SOL    HW120932   2.378  -0.016   3.575
 6497SOL    HW220933   2.268   0.081   3.612
 6498SOL     OW20934   2.443   0.881   2.894
 6498SOL    HW120935   2.487   0.966   2.896
 6498SOL    HW220936   2.391   0.878   2.974
 6499SOL     OW20937   3.199   0.859   2.870
 6499SOL    HW120938   3.110   0.838   2.841
 6499SOL    HW220939   3.247   0.776   2.862
 6500SOL     OW20940   3.054   0.524   2.120
 6500SOL    HW120941   3.067   0.450   2.179
 6500SOL    HW220942   3.017   0.593   2.175
 6501SOL     OW20943   2.158   0.200   3.104
 6501SOL    HW120944   2.120   0.232   3.186
 6501SOL    HW220945   2.153   0.105   3.111
 6502SOL     OW20946   1.906   1.316   3.130
 6502SOL    HW120947   1.936   1.257   3.199
 6502SOL    HW220948   1.915   1.403   3.167
 6503SOL     OW20949   2.568   0.632   2.903
 6503SOL    HW120950   2.652   0.627   2.857
 6503SOL    HW220951   2.540   0.723   2.895
 6504SOL     OW20952   3.604   0.958   3.725
 6504SOL    HW120953   3.554   0.892   3.677
 6504SOL    HW220954   3.548   0.983   3.798
 6505SOL     OW20955   2.230   0.065   2.521
 6505SOL    HW120956   2.213   0.154   2.551
 6505SOL    HW220957   2.235   0.012   2.601
 6506SOL     OW20958   3.488   0.406   2.206
 6506SOL    HW120959   3.509   0.335   2.266
 6506SOL    HW220960   3.462   0.479   2.262
 6507SOL     OW20961   2.894   0.756   2.819
 6507SOL    HW120962   2.881   0.772   2.913
 6507SOL    HW220963   2.862   0.667   2.805
 6508SOL     OW20964   2.833   1.561   3.587
 6508SOL    HW120965   2.825   1.607   3.503
 6508SOL    HW220966   2.884   1.482   3.566
 6509SOL     OW20967   3.711   1.494   3.466
 6509SOL    HW120968   3.734   1.530   3.380
 6509SOL    HW220969   3.786   1.515   3.522
 6510SOL     OW20970   2.213   0.921   3.669
 6510SOL    HW120971   2.287   0.946   3.724
 6510SOL    HW220972   2.249   0.854   3.609
 6511SOL     OW20973   3.404   0.265   1.987
 6511SOL    HW120974   3.439   0.181   2.017
 6511SOL    HW220975   3.426   0.327   2.057
 6512SOL     OW20976   3.138   0.820   1.882
 6512SOL    HW120977   3.186   0.738   1.892
 6512SOL    HW220978   3.176   0.861   1.805
 6513SOL     OW20979   2.937   1.338   2.726
 6513SOL    HW120980   2.943   1.271   2.658
 6513SOL    HW220981   2.986   1.413   2.691
 6514SOL     OW20982   2.174   0.816   2.802
 6514SOL    HW120983   2.266   0.840   2.806
 6514SOL    HW220984   2.170   0.727   2.838
 6515SOL     OW20985   2.194   0.541   2.874
 6515SOL    HW120986   2.154   0.455   2.862
 6515SOL    HW220987   2.269   0.541   2.815
 6516SOL     OW20988   3.008   0.434   3.515
 6516SOL    HW120989   2.971   0.462   3.599
 6516SOL    HW220990   3.101   0.457   3.521
 6517SOL     OW20991   3.027   0.216   3.346
 6517SOL    HW120992   3.030   0.280   3.417
 6517SOL    HW220993   3.063   0.263   3.270
 6518SOL     OW20994   1.864   1.315   2.054
 6518SOL    HW120995   1.777   1.332   2.020
 6518SOL    HW220996   1.859   1.226   2.089
 6519SOL     OW20997   1.942   1.788   2.796
 6519SOL    HW120998   1.918   1.706   2.751
 6519SOL    HW220999   2.034   1.801   2.775
 6520SOL     OW21000   2.349   1.576   2.764
 6520SOL    HW121001   2.419   1.637   2.788
 6520SOL    HW221002   2.391   1.513   2.705
 6521SOL     OW21003   2.828   0.774   3.083
 6521SOL    HW121004   2.893   0.759   3.151
 6521SOL    HW221005   2.744   0.760   3.127
 6522SOL     OW21006   1.900   0.559   2.981
 6522SOL    HW121007   1.982   0.548   2.933
 6522SOL    HW221008   1.926   0.555   3.073
 6523SOL     OW21009   2.043   0.533   3.595
 6523SOL    HW121010   2.132   0.523   3.562
 6523SOL    HW221011   2.008   0.608   3.548
 6524SOL     OW21012   3.244   0.928   3.516
 6524SOL    HW121013   3.267   1.021   3.517
 6524SOL    HW221014   3.243   0.905   3.423
 6525SOL     OW21015   2.677   0.564   2.234
 6525SOL    HW121016   2.681   0.493   2.170
 6525SOL    HW221017   2.605   0.619   2.203
 6526SOL     OW21018   3.500   0.600   3.030
 6526SOL    HW121019   3.492   0.552   3.113
 6526SOL    HW221020   3.590   0.585   3.002
 6527SOL     OW21021   2.089   1.550   3.584
 6527SOL    HW121022   2.077   1.608   3.658
 6527SOL    HW221023   2.109   1.465   3.623
 6528SOL     OW21024   2.583   0.456   3.108
 6528SOL    HW121025   2.520   0.386   3.092
 6528SOL    HW221026   2.567   0.519   3.038
 6529SOL     OW21027   2.777   1.674   3.336
 6529SOL    HW121028   2.755   1.647   3.247
 6529SOL    HW221029   2.791   1.769   3.329
 6530SOL     OW21030   2.317   0.503   2.028
 6530SOL    HW121031   2.377   0.572   2.057
 6530SOL    HW221032   2.231   0.546   2.026
 6531SOL     OW21033   1.991   1.143   3.332
 6531SOL    HW121034   1.997   1.096   3.415
 6531SOL    HW221035   2.014   1.077   3.266
 6532SOL     OW21036   3.177   1.037   3.075
 6532SOL    HW121037   3.200   0.977   3.004
 6532SOL    HW221038   3.107   1.091   3.040
 6533SOL     OW21039   3.193   0.845   2.158
 6533SOL    HW121040   3.121   0.844   2.222
 6533SOL    HW221041   3.149   0.843   2.073
 6534SOL     OW21042   3.605   1.735   2.990
 6534SOL    HW121043   3.681   1.763   2.938
 6534SOL    HW221044   3.603   1.640   2.981
 6535SOL     OW21045   3.103   1.728   2.948
 6535SOL    HW121046   3.189   1.759   2.920
 6535SOL    HW221047   3.118   1.639   2.980
 6536SOL     OW21048   1.944   1.274   2.865
 6536SOL    HW121049   1.929   1.288   2.959
 6536SOL    HW221050   1.879   1.209   2.839
 6537SOL     OW21051   2.547   1.668   3.603
 6537SOL    HW121052   2.500   1.751   3.597
 6537SOL    HW221053   2.634   1.687   3.569
 6538SOL     OW21054   3.557   0.172   2.350
 6538SOL    HW121055   3.635   0.158   2.297
 6538SOL    HW221056   3.569   0.114   2.426
 6539SOL     OW21057   3.280   1.587   2.390
 6539SOL    HW121058   3.236   1.520   2.339
 6539SOL    HW221059   3.213   1.654   2.405
 6540SOL     OW21060   2.014   1.809   3.715
 6540SOL    HW121061   1.965   1.740   3.759
 6540SOL    HW221062   2.067   1.848   3.785
 6541SOL     OW21063   3.135   0.922   2.520
 6541SOL    HW121064   3.210   0.866   2.539
 6541SOL    HW221065   3.173   1.000   2.479
 6542SOL     OW21066   2.669   1.279   3.284
 6542SOL    HW121067   2.641   1.320   3.365
 6542SOL    HW221068   2.603   1.305   3.220
 6543SOL     OW21069   2.524   1.634   2.015
 6543SOL    HW121070   2.541   1.648   1.921
 6543SOL    HW221071   2.473   1.554   2.018
 6544SOL     OW21072   3.478   1.735   3.246
 6544SOL    HW121073   3.526   1.744   3.164
 6544SOL    HW221074   3.466   1.825   3.276
 6545SOL     OW21075   3.721   0.154   2.794
 6545SOL    HW121076   3.709   0.074   2.846
 6545SOL    HW221077   3.632   0.178   2.766
 6546SOL     OW21078   2.124   0.311   2.583
 6546SOL    HW121079   2.047   0.364   2.561
 6546SOL    HW221080   2.126   0.310   2.679
 6547SOL     OW21081   3.070   1.601   1.881
 6547SOL    HW121082   3.066   1.515   1.922
 6547SOL    HW221083   2.997   1.602   1.820
 6548SOL     OW21084   2.689   1.011   3.233
 6548SOL    HW121085   2.737   1.011   3.150
 6548SOL    HW221086   2.683   1.103   3.257
 6549SOL     OW21087   2.769   0.900   2.151
 6549SOL    HW121088   2.826   0.934   2.081
 6549SOL    HW221089   2.825   0.840   2.200
 6550SOL     OW21090   3.352   1.619   1.897
 6550SOL    HW121091   3.257   1.614   1.884
 6550SOL    HW221092   3.387   1.627   1.808
 6551SOL     OW21093   2.223   1.300   3.359
 6551SOL    HW121094   2.219   1.374   3.299
 6551SOL    HW221095   2.144   1.250   3.340
 6552SOL     OW21096   3.468   1.286   3.142
 6552SOL    HW121097   3.528   1.270   3.214
 6552SOL    HW221098   3.411   1.356   3.173
 6553SOL     OW21099   2.926   1.109   2.576
 6553SOL    HW121100   2.854   1.058   2.614
 6553SOL    HW221101   2.989   1.043   2.547
 6554SOL     OW21102   2.888   0.261   2.809
 6554SOL    HW121103   2.872   0.207   2.732
 6554SOL    HW221104   2.895   0.198   2.882
 6555SOL     OW21105   2.447   1.465   2.333
 6555SOL    HW121106   2.506   1.425   2.270
 6555SOL    HW221107   2.396   1.527   2.281
 6556SOL     OW21108   3.583   0.415   3.244
 6556SOL    HW121109   3.652   0.481   3.255
 6556SOL    HW221110   3.618   0.354   3.179
 6557SOL     OW21111   2.120   1.346   2.141
 6557SOL    HW121112   2.026   1.339   2.121
 6557SOL    HW221113   2.122   1.385   2.229
 6558SOL     OW21114   1.972   1.016   3.573
 6558SOL    HW121115   1.899   1.001   3.634
 6558SOL    HW221116   2.050   0.989   3.622
 6559SOL     OW21117   2.526   0.209   3.337
 6559SOL    HW121118   2.606   0.164   3.307
 6559SOL    HW221119   2.544   0.230   3.428
 6560SOL     OW21120   1.937   0.327   1.888
 6560SOL    HW121121   1.842   0.330   1.877
 6560SOL    HW221122   1.968   0.405   1.841
 6561SOL     OW21123   3.285   0.856   3.253
 6561SOL    HW121124   3.236   0.919   3.199
 6561SOL    HW221125   3.375   0.865   3.224
 6562SOL     OW21126   1.903   0.139   2.139
 6562SOL    HW121127   1.907   0.223   2.092
 6562SOL    HW221128   1.990   0.102   2.128
 6563SOL     OW21129   3.014   1.340   1.954
 6563SOL    HW121130   2.923   1.310   1.964
 6563SOL    HW221131   3.046   1.346   2.044
 6564SOL     OW21132   2.481   0.840   3.297
 6564SOL    HW121133   2.538   0.916   3.283
 6564SOL    HW221134   2.542   0.767   3.305
 6565SOL     OW21135   3.357   1.787   2.849
 6565SOL    HW121136   3.378   1.865   2.797
 6565SOL    HW221137   3.436   1.771   2.900
 6566SOL     OW21138   2.555   0.582   3.560
 6566SOL    HW121139   2.610   0.639   3.614
 6566SOL    HW221140   2.574   0.494   3.594
 6567SOL     OW21141   3.335   1.189   3.487
 6567SOL    HW121142   3.322   1.207   3.580
 6567SOL    HW221143   3.425   1.213   3.470
 6568SOL     OW21144   2.219   1.747   3.425
 6568SOL    HW121145   2.138   1.798   3.426
 6568SOL    HW221146   2.195   1.664   3.467
 6569SOL     OW21147   3.524   0.883   3.111
 6569SOL    HW121148   3.520   0.801   3.062
 6569SOL    HW221149   3.515   0.951   3.045
 6570SOL     OW21150   3.084   0.318   2.306
 6570SOL    HW121151   3.153   0.252   2.297
 6570SOL    HW221152   3.109   0.366   2.385
 6571SOL     OW21153   2.446   0.726   2.534
 6571SOL    HW121154   2.487   0.812   2.528
 6571SOL    HW221155   2.382   0.725   2.463
 6572SOL     OW21156   3.618   0.367   3.510
 6572SOL    HW121157   3.602   0.389   3.418
 6572SOL    HW221158   3.541   0.316   3.536
 6573SOL     OW21159   3.594   0.934   3.374
 6573SOL    HW121160   3.597   1.028   3.390
 6573SOL    HW221161   3.585   0.926   3.279
 6574SOL     OW21162   2.709   1.363   1.913
 6574SOL    HW121163   2.684   1.370   2.005
 6574SOL    HW221164   2.732   1.453   1.889
 6575SOL     OW21165   2.525   1.780   2.798
 6575SOL    HW121166   2.514   1.873   2.779
 6575SOL    HW221167   2.619   1.767   2.799
 6576SOL     OW21168   2.730   0.967   2.715
 6576SOL    HW121169   2.786   0.900   2.755
 6576SOL    HW221170   2.692   1.014   2.789
 6577SOL     OW21171   2.917   0.968   1.937
 6577SOL    HW121172   2.911   1.038   1.871
 6577SOL    HW221173   2.998   0.922   1.915
 6578SOL     OW21174   3.706   1.541   2.702
 6578SOL    HW121175   3.626   1.534   2.650
 6578SOL    HW221176   3.683   1.506   2.788
 6579SOL     OW21177   2.095   1.303   3.722
 6579SOL    HW121178   2.016   1.251   3.711
 6579SOL    HW221179   2.100   1.319   3.816
 6580SOL     OW21180   1.958   1.215   2.527
 6580SOL    HW121181   1.991   1.179   2.610
 6580SOL    HW221182   2.023   1.187   2.462
 6581SOL     OW21183   2.542   1.412   3.485
 6581SOL    HW121184   2.469   1.371   3.532
 6581SOL    HW221185   2.549   1.499   3.522
 6582SOL     OW21186   3.689   0.238   3.079
 6582SOL    HW121187   3.664   0.147   3.090
 6582SOL    HW221188   3.704   0.248   2.985
 6583SOL     OW21189   2.284   0.436   2.392
 6583SOL    HW121190   2.322   0.370   2.334
 6583SOL    HW221191   2.238   0.386   2.459
 6584SOL     OW21192   3.573   1.466   2.935
 6584SOL    HW121193   3.485   1.454   2.900
 6584SOL    HW221194   3.576   1.409   3.012
 6585SOL     OW21195   2.198   0.565   3.154
 6585SOL    HW121196   2.249   0.503   3.207
 6585SOL    HW221197   2.217   0.539   3.064
 6586SOL     OW21198   2.693   1.566   2.560
 6586SOL    HW121199   2.745   1.530   2.488
 6586SOL    HW221200   2.608   1.524   2.552
 6587SOL     OW21201   3.286   0.224   2.979
 6587SOL    HW121202   3.350   0.166   3.020
 6587SOL    HW221203   3.245   0.270   3.052
 6588SOL     OW21204   2.909   0.067   2.996
 6588SOL    HW121205   2.873  -0.020   3.016
 6588SOL    HW221206   3.003   0.058   3.007
 6589SOL     OW21207   2.640   1.334   2.180
 6589SOL    HW121208   2.623   1.242   2.201
 6589SOL    HW221209   2.709   1.360   2.241
 6590SOL     OW21210   2.478   1.560   3.144
 6590SOL    HW121211   2.475   1.647   3.185
 6590SOL    HW221212   2.569   1.550   3.114
 6591SOL     OW21213   3.214   7.987   1.985
 6591SOL    HW121214   3.284   7.924   2.000
 6591SOL    HW221215   3.155   7.974   2.059
 6592SOL     OW21216   3.144   0.460   2.531
 6592SOL    HW121217   3.099   0.544   2.538
 6592SOL    HW221218   3.155   0.432   2.622
 6593SOL     OW21219   3.471   0.220   2.728
 6593SOL    HW121220   3.395   0.219   2.787
 6593SOL    HW221221   3.462   0.302   2.679
 6594SOL     OW21222   1.899   1.061   2.169
 6594SOL    HW121223   1.994   1.056   2.154
 6594SOL    HW221224   1.874   0.971   2.189
 6595SOL     OW21225   2.761   1.685   2.177
 6595SOL    HW121226   2.678   1.660   2.135
 6595SOL    HW221227   2.735   1.743   2.248
 6596SOL     OW21228   2.072   0.628   3.860
 6596SOL    HW121229   1.987   0.618   3.903
 6596SOL    HW221230   2.056   0.606   3.769
 6597SOL     OW21231   2.078   0.308   4.712
 6597SOL    HW121232   2.113   0.264   4.790
 6597SOL    HW221233   1.995   0.265   4.695
 6598SOL     OW21234   1.869   0.395   4.363
 6598SOL    HW121235   1.781   0.418   4.392
 6598SOL    HW221236   1.865   0.301   4.345
 6599SOL     OW21237   2.425   1.296   4.907
 6599SOL    HW121238   2.343   1.314   4.861
 6599SOL    HW221239   2.448   1.380   4.947
 6600SOL     OW21240   3.410   1.486   4.422
 6600SOL    HW121241   3.374   1.484   4.511
 6600SOL    HW221242   3.336   1.507   4.367
 6601SOL     OW21243   2.990   0.703   4.415
 6601SOL    HW121244   3.042   0.783   4.402
 6601SOL    HW221245   2.947   0.716   4.499
 6602SOL     OW21246   3.664   0.582   3.939
 6602SOL    HW121247   3.624   0.583   3.852
 6602SOL    HW221248   3.612   0.520   3.989
 6603SOL     OW21249   2.593   1.130   4.769
 6603SOL    HW121250   2.530   1.172   4.828
 6603SOL    HW221251   2.639   1.203   4.728
 6604SOL     OW21252   2.746   0.750   5.546
 6604SOL    HW121253   2.749   0.817   5.615
 6604SOL    HW221254   2.765   0.798   5.466
 6605SOL     OW21255   2.546   0.988   4.369
 6605SOL    HW121256   2.615   0.986   4.435
 6605SOL    HW221257   2.480   1.048   4.405
 6606SOL     OW21258   2.567   1.135   5.540
 6606SOL    HW121259   2.602   1.213   5.583
 6606SOL    HW221260   2.489   1.166   5.494
 6607SOL     OW21261   2.199   1.412   4.788
 6607SOL    HW121262   2.122   1.375   4.744
 6607SOL    HW221263   2.241   1.467   4.722
 6608SOL     OW21264   3.328   1.508   5.092
 6608SOL    HW121265   3.385   1.585   5.091
 6608SOL    HW221266   3.275   1.518   5.171
 6609SOL     OW21267   2.292   0.385   5.209
 6609SOL    HW121268   2.377   0.341   5.215
 6609SOL    HW221269   2.228   0.315   5.212
 6610SOL     OW21270   3.471   0.462   4.455
 6610SOL    HW121271   3.404   0.492   4.393
 6610SOL    HW221272   3.480   0.533   4.518
 6611SOL     OW21273   2.085   1.715   4.188
 6611SOL    HW121274   2.103   1.787   4.248
 6611SOL    HW221275   2.166   1.705   4.138
 6612SOL     OW21276   3.000   1.343   5.431
 6612SOL    HW121277   3.055   1.329   5.508
 6612SOL    HW221278   2.951   1.261   5.420
 6613SOL     OW21279   2.082   1.443   4.249
 6613SOL    HW121280   2.076   1.538   4.252
 6613SOL    HW221281   2.036   1.414   4.328
 6614SOL     OW21282   2.124   1.091   4.604
 6614SOL    HW121283   2.128   1.004   4.643
 6614SOL    HW221284   2.073   1.144   4.666
 6615SOL     OW21285   2.450   1.789   5.140
 6615SOL    HW121286   2.369   1.779   5.191
 6615SOL    HW221287   2.485   1.873   5.167
 6616SOL     OW21288   2.433   0.991   3.869
 6616SOL    HW121289   2.485   1.031   3.799
 6616SOL    HW221290   2.474   1.021   3.950
 6617SOL     OW21291   3.489   0.143   5.194
 6617SOL    HW121292   3.508   0.226   5.151
 6617SOL    HW221293   3.450   0.168   5.278
 6618SOL     OW21294   1.980   0.660   4.285
 6618SOL    HW121295   1.952   0.572   4.308
 6618SOL    HW221296   1.972   0.710   4.367
 6619SOL     OW21297   3.702   1.752   4.051
 6619SOL    HW121298   3.775   1.730   4.108
 6619SOL    HW221299   3.707   1.847   4.039
 6620SOL     OW21300   1.904   1.592   3.835
 6620SOL    HW121301   1.888   1.499   3.855
 6620SOL    HW221302   1.879   1.638   3.915
 6621SOL     OW21303   3.538   0.885   4.341
 6621SOL    HW121304   3.628   0.889   4.374
 6621SOL    HW221305   3.534   0.955   4.276
 6622SOL     OW21306   3.516   1.106   4.159
 6622SOL    HW121307   3.603   1.107   4.118
 6622SOL    HW221308   3.525   1.163   4.235
 6623SOL     OW21309   1.997   0.740   5.321
 6623SOL    HW121310   2.088   0.770   5.322
 6623SOL    HW221311   1.946   0.821   5.327
 6624SOL     OW21312   2.476   1.393   4.456
 6624SOL    HW121313   2.434   1.307   4.463
 6624SOL    HW221314   2.462   1.419   4.365
 6625SOL     OW21315   3.152   1.226   5.150
 6625SOL    HW121316   3.185   1.164   5.085
 6625SOL    HW221317   3.217   1.224   5.220
 6626SOL     OW21318   2.700   0.021   4.264
 6626SOL    HW121319   2.747   0.099   4.236
 6626SOL    HW221320   2.613   0.053   4.289
 6627SOL     OW21321   2.046   0.957   5.010
 6627SOL    HW121322   2.133   0.922   4.995
 6627SOL    HW221323   1.993   0.923   4.938
 6628SOL     OW21324   3.393   1.005   3.928
 6628SOL    HW121325   3.328   0.944   3.964
 6628SOL    HW221326   3.438   1.040   4.005
 6629SOL     OW21327   3.024   1.800   5.348
 6629SOL    HW121328   3.045   1.875   5.292
 6629SOL    HW221329   3.060   1.724   5.302
 6630SOL     OW21330   3.326   1.419   4.677
 6630SOL    HW121331   3.262   1.436   4.747
 6630SOL    HW221332   3.312   1.327   4.654
 6631SOL     OW21333   3.556   1.697   4.327
 6631SOL    HW121334   3.535   1.704   4.234
 6631SOL    HW221335   3.499   1.627   4.359
 6632SOL     OW21336   2.458   0.714   3.998
 6632SOL    HW121337   2.467   0.802   3.961
 6632SOL    HW221338   2.393   0.724   4.068
 6633SOL     OW21339   3.153   0.371   4.656
 6633SOL    HW121340   3.062   0.342   4.663
 6633SOL    HW221341   3.201   0.317   4.719
 6634SOL     OW21342   3.440   1.660   4.036
 6634SOL    HW121343   3.527   1.701   4.035
 6634SOL    HW221344   3.418   1.650   3.943
 6635SOL     OW21345   2.633   0.638   5.163
 6635SOL    HW121346   2.624   0.605   5.253
 6635SOL    HW221347   2.622   0.560   5.108
 6636SOL     OW21348   3.270   0.487   5.403
 6636SOL    HW121349   3.278   0.531   5.487
 6636SOL    HW221350   3.321   0.407   5.412
 6637SOL     OW21351   2.811   0.885   5.309
 6637SOL    HW121352   2.866   0.818   5.269
 6637SOL    HW221353   2.762   0.923   5.236
 6638SOL     OW21354   2.859   0.406   4.949
 6638SOL    HW121355   2.771   0.432   4.975
 6638SOL    HW221356   2.851   0.377   4.858
 6639SOL     OW21357   2.916   0.698   4.146
 6639SOL    HW121358   2.936   0.698   4.239
 6639SOL    HW221359   2.832   0.652   4.140
 6640SOL     OW21360   1.947   0.826   4.502
 6640SOL    HW121361   2.029   0.820   4.550
 6640SOL    HW221362   1.901   0.899   4.542
 6641SOL     OW21363   1.962   1.822   5.294
 6641SOL    HW121364   1.970   1.814   5.389
 6641SOL    HW221365   1.932   1.911   5.280
 6642SOL     OW21366   2.746   0.346   3.910
 6642SOL    HW121367   2.803   0.399   3.855
 6642SOL    HW221368   2.774   0.256   3.895
 6643SOL     OW21369   3.556   0.567   5.556
 6643SOL    HW121370   3.526   0.644   5.509
 6643SOL    HW221371   3.590   0.509   5.489
 6644SOL     OW21372   3.240   1.135   4.247
 6644SOL    HW121373   3.327   1.136   4.208
 6644SOL    HW221374   3.194   1.207   4.204
 6645SOL     OW21375   2.385   0.248   4.626
 6645SOL    HW121376   2.394   0.248   4.721
 6645SOL    HW221377   2.395   0.340   4.601
 6646SOL     OW21378   2.854   1.440   4.188
 6646SOL    HW121379   2.830   1.519   4.140
 6646SOL    HW221380   2.839   1.463   4.280
 6647SOL     OW21381   2.215   1.819   4.602
 6647SOL    HW121382   2.267   1.739   4.608
 6647SOL    HW221383   2.278   1.889   4.618
 6648SOL     OW21384   3.643   1.016   4.593
 6648SOL    HW121385   3.616   1.082   4.529
 6648SOL    HW221386   3.596   1.040   4.673
 6649SOL     OW21387   3.083   1.538   5.247
 6649SOL    HW121388   3.075   1.461   5.303
 6649SOL    HW221389   3.039   1.514   5.166
 6650SOL     OW21390   2.172   0.965   3.983
 6650SOL    HW121391   2.257   0.982   3.942
 6650SOL    HW221392   2.149   0.877   3.952
 6651SOL     OW21393   3.332   0.745   4.442
 6651SOL    HW121394   3.339   0.715   4.533
 6651SOL    HW221395   3.411   0.797   4.428
 6652SOL     OW21396   2.352   1.283   5.442
 6652SOL    HW121397   2.315   1.284   5.354
 6652SOL    HW221398   2.276   1.273   5.499
 6653SOL     OW21399   2.980   1.785   3.939
 6653SOL    HW121400   2.910   1.743   3.988
 6653SOL    HW221401   3.011   1.717   3.878
 6654SOL     OW21402   2.032   0.257   5.198
 6654SOL    HW121403   1.995   0.345   5.198
 6654SOL    HW221404   2.024   0.227   5.288
 6655SOL     OW21405   3.489   1.372   3.808
 6655SOL    HW121406   3.454   1.460   3.801
 6655SOL    HW221407   3.415   1.315   3.787
 6656SOL     OW21408   2.330   1.724   4.049
 6656SOL    HW121409   2.370   1.787   4.109
 6656SOL    HW221410   2.399   1.702   3.987
 6657SOL     OW21411   3.278   0.131   4.123
 6657SOL    HW121412   3.309   0.101   4.038
 6657SOL    HW221413   3.357   0.143   4.175
 6658SOL     OW21414   2.107   1.788   4.955
 6658SOL    HW121415   2.165   1.726   4.999
 6658SOL    HW221416   2.119   1.771   4.862
 6659SOL     OW21417   2.809   1.697   4.628
 6659SOL    HW121418   2.897   1.663   4.642
 6659SOL    HW221419   2.773   1.644   4.557
 6660SOL     OW21420   2.257   0.693   4.193
 6660SOL    HW121421   2.274   0.600   4.211
 6660SOL    HW221422   2.164   0.705   4.212
 6661SOL     OW21423   3.384   0.230   5.445
 6661SOL    HW121424   3.393   0.248   5.539
 6661SOL    HW221425   3.331   0.150   5.442
 6662SOL     OW21426   2.424   0.102   3.836
 6662SOL    HW121427   2.504   0.081   3.884
 6662SOL    HW221428   2.436   0.062   3.750
 6663SOL     OW21429   2.599   0.306   5.487
 6663SOL    HW121430   2.691   0.283   5.470
 6663SOL    HW221431   2.583   0.273   5.575
 6664SOL     OW21432   2.729   1.501   4.920
 6664SOL    HW121433   2.714   1.472   4.830
 6664SOL    HW221434   2.815   1.465   4.943
 6665SOL     OW21435   3.204   0.596   5.158
 6665SOL    HW121436   3.243   0.570   5.241
 6665SOL    HW221437   3.239   0.684   5.142
 6666SOL     OW21438   2.683   1.376   4.668
 6666SOL    HW121439   2.770   1.371   4.630
 6666SOL    HW221440   2.625   1.394   4.594
 6667SOL     OW21441   2.785   0.516   4.616
 6667SOL    HW121442   2.752   0.506   4.527
 6667SOL    HW221443   2.823   0.431   4.638
 6668SOL     OW21444   2.411   0.023   4.148
 6668SOL    HW121445   2.354   0.015   4.224
 6668SOL    HW221446   2.415   0.117   4.130
 6669SOL     OW21447   3.281   1.195   3.758
 6669SOL    HW121448   3.315   1.128   3.816
 6669SOL    HW221449   3.203   1.228   3.802
 6670SOL     OW21450   2.157   0.037   3.938
 6670SOL    HW121451   2.242   0.067   3.906
 6670SOL    HW221452   2.178  -0.018   4.014
 6671SOL     OW21453   2.812   0.258   4.182
 6671SOL    HW121454   2.778   0.297   4.102
 6671SOL    HW221455   2.906   0.276   4.180
 6672SOL     OW21456   2.944   0.682   5.184
 6672SOL    HW121457   2.891   0.604   5.203
 6672SOL    HW221458   3.034   0.649   5.179
 6673SOL     OW21459   3.078   1.580   4.518
 6673SOL    HW121460   3.092   1.644   4.448
 6673SOL    HW221461   3.137   1.609   4.589
 6674SOL     OW21462   2.335   1.153   4.444
 6674SOL    HW121463   2.271   1.134   4.512
 6674SOL    HW221464   2.287   1.142   4.362
 6675SOL     OW21465   3.121   1.793   4.337
 6675SOL    HW121466   3.173   1.853   4.284
 6675SOL    HW221467   3.062   1.851   4.386
 6676SOL     OW21468   2.892   0.524   3.749
 6676SOL    HW121469   2.847   0.607   3.733
 6676SOL    HW221470   2.951   0.542   3.822
 6677SOL     OW21471   1.956   0.553   5.126
 6677SOL    HW121472   2.046   0.558   5.093
 6677SOL    HW221473   1.951   0.623   5.192
 6678SOL     OW21474   2.433   0.227   4.911
 6678SOL    HW121475   2.471   0.185   4.988
 6678SOL    HW221476   2.339   0.224   4.926
 6679SOL     OW21477   2.703   0.448   4.359
 6679SOL    HW121478   2.679   0.510   4.290
 6679SOL    HW221479   2.743   0.375   4.313
 6680SOL     OW21480   2.823   0.039   4.519
 6680SOL    HW121481   2.782   0.033   4.432
 6680SOL    HW221482   2.860  -0.047   4.534
 6681SOL     OW21483   3.311   1.159   4.586
 6681SOL    HW121484   3.239   1.099   4.565
 6681SOL    HW221485   3.355   1.174   4.502
 6682SOL     OW21486   3.325   0.611   4.687
 6682SOL    HW121487   3.272   0.532   4.690
 6682SOL    HW221488   3.384   0.604   4.762
 6683SOL     OW21489   3.709   0.803   4.094
 6683SOL    HW121490   3.762   0.762   4.162
 6683SOL    HW221491   3.691   0.733   4.031
 6684SOL     OW21492   2.353   1.420   3.868
 6684SOL    HW121493   2.278   1.394   3.921
 6684SOL    HW221494   2.356   1.357   3.797
 6685SOL     OW21495   3.538   1.242   4.394
 6685SOL    HW121496   3.634   1.249   4.397
 6685SOL    HW221497   3.507   1.332   4.402
 6686SOL     OW21498   3.255   0.573   3.800
 6686SOL    HW121499   3.193   0.558   3.872
 6686SOL    HW221500   3.341   0.573   3.843
 6687SOL     OW21501   2.375   0.282   4.037
 6687SOL    HW121502   2.393   0.223   3.964
 6687SOL    HW221503   2.355   0.366   3.995
 6688SOL     OW21504   3.610   1.242   5.292
 6688SOL    HW121505   3.696   1.209   5.269
 6688SOL    HW221506   3.624   1.333   5.316
 6689SOL     OW21507   2.937   1.341   5.042
 6689SOL    HW121508   2.858   1.311   5.087
 6689SOL    HW221509   3.009   1.299   5.089
 6690SOL     OW21510   3.462   1.613   5.370
 6690SOL    HW121511   3.463   1.669   5.293
 6690SOL    HW221512   3.549   1.573   5.372
 6691SOL     OW21513   2.978   1.189   4.813
 6691SOL    HW121514   2.948   1.247   4.883
 6691SOL    HW221515   2.968   1.240   4.733
 6692SOL     OW21516   3.480   1.094   4.801
 6692SOL    HW121517   3.473   1.160   4.870
 6692SOL    HW221518   3.411   1.116   4.739
 6693SOL     OW21519   2.777   0.138   5.114
 6693SOL    HW121520   2.789   0.113   5.022
 6693SOL    HW221521   2.867   0.148   5.148
 6694SOL     OW21522   2.836   1.118   5.446
 6694SOL    HW121523   2.744   1.123   5.470
 6694SOL    HW221524   2.842   1.041   5.390
 6695SOL     OW21525   2.571   1.058   4.098
 6695SOL    HW121526   2.558   1.039   4.191
 6695SOL    HW221527   2.645   1.004   4.072
 6696SOL     OW21528   2.282   0.824   4.975
 6696SOL    HW121529   2.348   0.839   5.043
 6696SOL    HW221530   2.252   0.735   4.991
 6697SOL     OW21531   3.123   0.376   5.015
 6697SOL    HW121532   3.158   0.456   5.055
 6697SOL    HW221533   3.035   0.400   4.986
 6698SOL     OW21534   1.942   1.567   5.078
 6698SOL    HW121535   1.921   1.657   5.055
 6698SOL    HW221536   2.037   1.563   5.072
 6699SOL     OW21537   2.183   1.126   4.214
 6699SOL    HW121538   2.199   1.203   4.160
 6699SOL    HW221539   2.185   1.053   4.153
 6700SOL     OW21540   2.416   0.516   4.574
 6700SOL    HW121541   2.423   0.576   4.500
 6700SOL    HW221542   2.477   0.551   4.639
 6701SOL     OW21543   3.108   1.354   4.114
 6701SOL    HW121544   3.163   1.427   4.144
 6701SOL    HW221545   3.021   1.373   4.149
 6702SOL     OW21546   3.157   1.463   4.888
 6702SOL    HW121547   3.223   1.478   4.956
 6702SOL    HW221548   3.094   1.404   4.929
 6703SOL     OW21549   3.439   0.637   4.202
 6703SOL    HW121550   3.382   0.675   4.268
 6703SOL    HW221551   3.503   0.706   4.184
 6704SOL     OW21552   2.211   1.525   5.032
 6704SOL    HW121553   2.202   1.484   4.946
 6704SOL    HW221554   2.305   1.539   5.042
 6705SOL     OW21555   2.301   0.732   5.342
 6705SOL    HW121556   2.349   0.784   5.277
 6705SOL    HW221557   2.363   0.666   5.371
 6706SOL     OW21558   3.468   0.780   5.416
 6706SOL    HW121559   3.383   0.824   5.410
 6706SOL    HW221560   3.522   0.823   5.349
 6707SOL     OW21561   2.874   0.108   5.466
 6707SOL    HW121562   2.941   0.149   5.521
 6707SOL    HW221563   2.901   0.129   5.376
 6708SOL     OW21564   2.322   0.065   5.477
 6708SOL    HW121565   2.404   0.035   5.439
 6708SOL    HW221566   2.255   0.041   5.412
 6709SOL     OW21567   2.445   0.880   4.755
 6709SOL    HW121568   2.488   0.966   4.757
 6709SOL    HW221569   2.392   0.878   4.834
 6710SOL     OW21570   3.201   0.855   4.740
 6710SOL    HW121571   3.114   0.838   4.703
 6710SOL    HW221572   3.249   0.773   4.728
 6711SOL     OW21573   3.052   0.524   3.981
 6711SOL    HW121574   3.066   0.450   4.040
 6711SOL    HW221575   3.017   0.593   4.037
 6712SOL     OW21576   2.165   0.201   4.953
 6712SOL    HW121577   2.112   0.217   5.031
 6712SOL    HW221578   2.148   0.109   4.931
 6713SOL     OW21579   1.897   1.310   5.000
 6713SOL    HW121580   1.935   1.258   5.070
 6713SOL    HW221581   1.909   1.401   5.029
 6714SOL     OW21582   2.569   0.630   4.766
 6714SOL    HW121583   2.653   0.625   4.720
 6714SOL    HW221584   2.542   0.722   4.757
 6715SOL     OW21585   3.607   0.953   5.591
 6715SOL    HW121586   3.557   0.892   5.537
 6715SOL    HW221587   3.547   0.979   5.661
 6716SOL     OW21588   2.250   0.072   4.386
 6716SOL    HW121589   2.214   0.157   4.413
 6716SOL    HW221590   2.208   0.009   4.444
 6717SOL     OW21591   3.485   0.405   4.070
 6717SOL    HW121592   3.502   0.336   4.134
 6717SOL    HW221593   3.462   0.481   4.124
 6718SOL     OW21594   2.891   0.759   4.682
 6718SOL    HW121595   2.880   0.775   4.776
 6718SOL    HW221596   2.861   0.670   4.668
 6719SOL     OW21597   2.776   1.503   5.392
 6719SOL    HW121598   2.788   1.576   5.331
 6719SOL    HW221599   2.863   1.465   5.402
 6720SOL     OW21600   3.713   1.497   5.324
 6720SOL    HW121601   3.732   1.534   5.238
 6720SOL    HW221602   3.791   1.518   5.376
 6721SOL     OW21603   2.214   0.905   5.539
 6721SOL    HW121604   2.289   0.927   5.594
 6721SOL    HW221605   2.250   0.845   5.474
 6722SOL     OW21606   3.402   0.273   3.846
 6722SOL    HW121607   3.435   0.188   3.875
 6722SOL    HW221608   3.423   0.332   3.918
 6723SOL     OW21609   3.138   0.819   3.743
 6723SOL    HW121610   3.187   0.738   3.752
 6723SOL    HW221611   3.175   0.861   3.665
 6724SOL     OW21612   2.938   1.345   4.582
 6724SOL    HW121613   2.946   1.276   4.516
 6724SOL    HW221614   2.994   1.416   4.550
 6725SOL     OW21615   2.173   0.815   4.666
 6725SOL    HW121616   2.266   0.840   4.666
 6725SOL    HW221617   2.171   0.727   4.702
 6726SOL     OW21618   2.201   0.542   4.739
 6726SOL    HW121619   2.158   0.459   4.723
 6726SOL    HW221620   2.276   0.542   4.679
 6727SOL     OW21621   3.006   0.421   5.381
 6727SOL    HW121622   2.965   0.453   5.462
 6727SOL    HW221623   3.096   0.452   5.386
 6728SOL     OW21624   3.027   0.213   5.211
 6728SOL    HW121625   3.030   0.277   5.281
 6728SOL    HW221626   3.061   0.259   5.134
 6729SOL     OW21627   1.863   1.316   3.912
 6729SOL    HW121628   1.776   1.332   3.877
 6729SOL    HW221629   1.858   1.228   3.949
 6730SOL     OW21630   1.948   1.779   4.661
 6730SOL    HW121631   1.924   1.700   4.613
 6730SOL    HW221632   2.039   1.796   4.635
 6731SOL     OW21633   2.354   1.574   4.627
 6731SOL    HW121634   2.422   1.638   4.647
 6731SOL    HW221635   2.396   1.512   4.568
 6732SOL     OW21636   2.824   0.773   4.949
 6732SOL    HW121637   2.892   0.758   5.015
 6732SOL    HW221638   2.742   0.749   4.992
 6733SOL     OW21639   1.897   0.550   4.846
 6733SOL    HW121640   1.974   0.539   4.791
 6733SOL    HW221641   1.932   0.551   4.936
 6734SOL     OW21642   2.081   0.494   5.418
 6734SOL    HW121643   2.164   0.493   5.371
 6734SOL    HW221644   2.039   0.576   5.391
 6735SOL     OW21645   3.242   0.931   5.378
 6735SOL    HW121646   3.269   1.023   5.378
 6735SOL    HW221647   3.242   0.906   5.286
 6736SOL     OW21648   2.678   0.563   4.093
 6736SOL    HW121649   2.680   0.493   4.029
 6736SOL    HW221650   2.606   0.620   4.066
 6737SOL     OW21651   3.499   0.596   4.894
 6737SOL    HW121652   3.493   0.548   4.977
 6737SOL    HW221653   3.589   0.581   4.865
 6738SOL     OW21654   2.128   1.551   5.457
 6738SOL    HW121655   2.093   1.624   5.509
 6738SOL    HW221656   2.108   1.473   5.509
 6739SOL     OW21657   2.587   0.452   4.969
 6739SOL    HW121658   2.527   0.380   4.951
 6739SOL    HW221659   2.570   0.516   4.899
 6740SOL     OW21660   2.765   1.679   5.183
 6740SOL    HW121661   2.759   1.654   5.091
 6740SOL    HW221662   2.778   1.774   5.182
 6741SOL     OW21663   2.318   0.504   3.886
 6741SOL    HW121664   2.377   0.572   3.918
 6741SOL    HW221665   2.232   0.545   3.886
 6742SOL     OW21666   1.999   1.143   5.201
 6742SOL    HW121667   2.002   1.097   5.284
 6742SOL    HW221668   2.017   1.075   5.135
 6743SOL     OW21669   3.171   1.038   4.939
 6743SOL    HW121670   3.199   0.978   4.870
 6743SOL    HW221671   3.103   1.092   4.898
 6744SOL     OW21672   3.185   0.847   4.019
 6744SOL    HW121673   3.111   0.836   4.079
 6744SOL    HW221674   3.146   0.843   3.932
 6745SOL     OW21675   3.616   1.731   4.861
 6745SOL    HW121676   3.684   1.769   4.806
 6745SOL    HW221677   3.614   1.639   4.837
 6746SOL     OW21678   3.098   1.719   4.795
 6746SOL    HW121679   3.182   1.759   4.771
 6746SOL    HW221680   3.122   1.635   4.834
 6747SOL     OW21681   1.958   1.254   4.742
 6747SOL    HW121682   1.935   1.276   4.832
 6747SOL    HW221683   1.880   1.212   4.707
 6748SOL     OW21684   2.533   1.692   5.458
 6748SOL    HW121685   2.475   1.767   5.462
 6748SOL    HW221686   2.606   1.721   5.402
 6749SOL     OW21687   3.533   0.155   4.218
 6749SOL    HW121688   3.624   0.149   4.189
 6749SOL    HW221689   3.533   0.118   4.307
 6750SOL     OW21690   3.244   1.573   4.209
 6750SOL    HW121691   3.311   1.605   4.149
 6750SOL    HW221692   3.201   1.652   4.242
 6751SOL     OW21693   2.015   1.784   5.562
 6751SOL    HW121694   1.961   1.725   5.615
 6751SOL    HW221695   2.060   1.839   5.627
 6752SOL     OW21696   3.138   0.930   4.388
 6752SOL    HW121697   3.212   0.872   4.403
 6752SOL    HW221698   3.173   1.001   4.333
 6753SOL     OW21699   2.686   1.292   5.153
 6753SOL    HW121700   2.702   1.359   5.220
 6753SOL    HW221701   2.619   1.330   5.096
 6754SOL     OW21702   2.531   1.622   3.882
 6754SOL    HW121703   2.545   1.642   3.790
 6754SOL    HW221704   2.475   1.545   3.881
 6755SOL     OW21705   3.477   1.732   5.104
 6755SOL    HW121706   3.530   1.741   5.025
 6755SOL    HW221707   3.464   1.822   5.135
 6756SOL     OW21708   3.711   0.178   4.679
 6756SOL    HW121709   3.708   0.087   4.707
 6756SOL    HW221710   3.628   0.192   4.633
 6757SOL     OW21711   2.123   0.310   4.440
 6757SOL    HW121712   2.041   0.352   4.415
 6757SOL    HW221713   2.124   0.313   4.536
 6758SOL     OW21714   3.070   1.598   3.755
 6758SOL    HW121715   3.058   1.507   3.784
 6758SOL    HW221716   3.000   1.612   3.691
 6759SOL     OW21717   2.686   1.018   5.100
 6759SOL    HW121718   2.728   1.012   5.014
 6759SOL    HW221719   2.684   1.111   5.119
 6760SOL     OW21720   2.771   0.900   4.012
 6760SOL    HW121721   2.829   0.936   3.945
 6760SOL    HW221722   2.826   0.840   4.062
 6761SOL     OW21723   3.352   1.616   3.767
 6761SOL    HW121724   3.257   1.616   3.753
 6761SOL    HW221725   3.388   1.627   3.679
 6762SOL     OW21726   2.226   1.307   5.211
 6762SOL    HW121727   2.214   1.381   5.151
 6762SOL    HW221728   2.148   1.253   5.198
 6763SOL     OW21729   3.463   1.287   4.994
 6763SOL    HW121730   3.548   1.286   5.039
 6763SOL    HW221731   3.413   1.356   5.037
 6764SOL     OW21732   2.928   1.114   4.434
 6764SOL    HW121733   2.857   1.064   4.474
 6764SOL    HW221734   2.994   1.049   4.412
 6765SOL     OW21735   2.887   0.262   4.677
 6765SOL    HW121736   2.869   0.208   4.600
 6765SOL    HW221737   2.894   0.199   4.749
 6766SOL     OW21738   2.461   1.480   4.199
 6766SOL    HW121739   2.516   1.435   4.135
 6766SOL    HW221740   2.407   1.540   4.147
 6767SOL     OW21741   3.586   0.412   5.113
 6767SOL    HW121742   3.654   0.479   5.121
 6767SOL    HW221743   3.620   0.351   5.047
 6768SOL     OW21744   2.118   1.347   4.002
 6768SOL    HW121745   2.025   1.339   3.983
 6768SOL    HW221746   2.122   1.386   4.089
 6769SOL     OW21747   1.979   1.019   5.444
 6769SOL    HW121748   1.904   1.002   5.500
 6769SOL    HW221749   2.054   0.983   5.492
 6770SOL     OW21750   2.513   0.214   5.218
 6770SOL    HW121751   2.590   0.166   5.187
 6770SOL    HW221752   2.538   0.246   5.305
 6771SOL     OW21753   1.942   0.329   3.752
 6771SOL    HW121754   1.847   0.330   3.750
 6771SOL    HW221755   1.969   0.406   3.701
 6772SOL     OW21756   3.283   0.858   5.117
 6772SOL    HW121757   3.233   0.920   5.062
 6772SOL    HW221758   3.372   0.865   5.084
 6773SOL     OW21759   1.911   0.160   4.006
 6773SOL    HW121760   1.923   0.241   3.955
 6773SOL    HW221761   1.994   0.113   3.995
 6774SOL     OW21762   3.042   1.331   3.846
 6774SOL    HW121763   2.951   1.302   3.854
 6774SOL    HW221764   3.072   1.340   3.937
 6775SOL     OW21765   2.474   0.850   5.161
 6775SOL    HW121766   2.534   0.924   5.146
 6775SOL    HW221767   2.531   0.774   5.165
 6776SOL     OW21768   3.353   1.787   4.703
 6776SOL    HW121769   3.368   1.865   4.649
 6776SOL    HW221770   3.431   1.780   4.757
 6777SOL     OW21771   2.550   0.579   5.426
 6777SOL    HW121772   2.612   0.629   5.479
 6777SOL    HW221773   2.572   0.487   5.444
 6778SOL     OW21774   3.340   1.189   5.351
 6778SOL    HW121775   3.330   1.207   5.445
 6778SOL    HW221776   3.431   1.212   5.332
 6779SOL     OW21777   2.221   1.739   5.280
 6779SOL    HW121778   2.135   1.777   5.263
 6779SOL    HW221779   2.203   1.660   5.331
 6780SOL     OW21780   3.520   0.881   4.976
 6780SOL    HW121781   3.521   0.800   4.925
 6780SOL    HW221782   3.512   0.951   4.910
 6781SOL     OW21783   3.079   0.320   4.168
 6781SOL    HW121784   3.147   0.253   4.156
 6781SOL    HW221785   3.105   0.367   4.247
 6782SOL     OW21786   2.445   0.727   4.397
 6782SOL    HW121787   2.486   0.813   4.390
 6782SOL    HW221788   2.381   0.725   4.326
 6783SOL     OW21789   3.616   0.363   5.382
 6783SOL    HW121790   3.607   0.385   5.289
 6783SOL    HW221791   3.535   0.316   5.403
 6784SOL     OW21792   3.596   0.934   5.238
 6784SOL    HW121793   3.601   1.029   5.253
 6784SOL    HW221794   3.586   0.926   5.143
 6785SOL     OW21795   2.713   1.362   3.768
 6785SOL    HW121796   2.686   1.386   3.856
 6785SOL    HW221797   2.736   1.444   3.726
 6786SOL     OW21798   2.527   1.778   4.652
 6786SOL    HW121799   2.507   1.871   4.642
 6786SOL    HW221800   2.622   1.775   4.661
 6787SOL     OW21801   2.733   0.972   4.576
 6787SOL    HW121802   2.788   0.903   4.615
 6787SOL    HW221803   2.694   1.017   4.650
 6788SOL     OW21804   2.925   0.975   3.806
 6788SOL    HW121805   2.912   1.039   3.736
 6788SOL    HW221806   3.003   0.926   3.780
 6789SOL     OW21807   3.720   1.528   4.549
 6789SOL    HW121808   3.656   1.575   4.495
 6789SOL    HW221809   3.674   1.508   4.630
 6790SOL     OW21810   2.116   1.306   5.592
 6790SOL    HW121811   2.041   1.255   5.561
 6790SOL    HW221812   2.107   1.304   5.687
 6791SOL     OW21813   1.958   1.210   4.388
 6791SOL    HW121814   1.990   1.174   4.471
 6791SOL    HW221815   2.024   1.186   4.324
 6792SOL     OW21816   3.695   0.234   4.951
 6792SOL    HW121817   3.675   0.142   4.964
 6792SOL    HW221818   3.704   0.244   4.856
 6793SOL     OW21819   2.289   0.434   4.254
 6793SOL    HW121820   2.322   0.367   4.195
 6793SOL    HW221821   2.238   0.386   4.319
 6794SOL     OW21822   3.578   1.465   4.780
 6794SOL    HW121823   3.488   1.457   4.748
 6794SOL    HW221824   3.579   1.415   4.862
 6795SOL     OW21825   2.201   0.564   5.019
 6795SOL    HW121826   2.251   0.504   5.074
 6795SOL    HW221827   2.223   0.538   4.929
 6796SOL     OW21828   2.701   1.586   4.398
 6796SOL    HW121829   2.686   1.663   4.343
 6796SOL    HW221830   2.620   1.536   4.391
 6797SOL     OW21831   3.287   0.225   4.842
 6797SOL    HW121832   3.352   0.167   4.881
 6797SOL    HW221833   3.247   0.270   4.916
 6798SOL     OW21834   2.910   0.065   4.861
 6798SOL    HW121835   2.875  -0.021   4.884
 6798SOL    HW221836   3.005   0.053   4.866
 6799SOL     OW21837   2.639   1.331   4.045
 6799SOL    HW121838   2.619   1.239   4.062
 6799SOL    HW221839   2.717   1.348   4.097
 6800SOL     OW21840   2.487   1.542   5.032
 6800SOL    HW121841   2.482   1.631   5.069
 6800SOL    HW221842   2.572   1.539   4.988
 6801SOL     OW21843   3.222   7.994   3.842
 6801SOL    HW121844   3.308   7.959   3.865
 6801SOL    HW221845   3.165   7.968   3.915
 6802SOL     OW21846   3.142   0.460   4.393
 6802SOL    HW121847   3.100   0.546   4.400
 6802SOL    HW221848   3.154   0.432   4.483
 6803SOL     OW21849   3.467   0.215   4.571
 6803SOL    HW121850   3.395   0.211   4.633
 6803SOL    HW221851   3.459   0.302   4.531
 6804SOL     OW21852   1.900   1.062   4.029
 6804SOL    HW121853   1.995   1.057   4.015
 6804SOL    HW221854   1.874   0.973   4.050
 6805SOL     OW21855   2.752   1.660   4.057
 6805SOL    HW121856   2.677   1.651   3.999
 6805SOL    HW221857   2.729   1.732   4.116
 6806SOL     OW21858   2.066   0.615   5.717
 6806SOL    HW121859   1.981   0.608   5.761
 6806SOL    HW221860   2.045   0.646   5.629
 6807SOL     OW21861   2.083   0.296   6.572
 6807SOL    HW121862   2.112   0.256   6.654
 6807SOL    HW221863   1.995   0.260   6.558
 6808SOL     OW21864   1.870   0.391   6.223
 6808SOL    HW121865   1.782   0.415   6.253
 6808SOL    HW221866   1.865   0.296   6.209
 6809SOL     OW21867   2.431   1.294   6.775
 6809SOL    HW121868   2.345   1.296   6.732
 6809SOL    HW221869   2.447   1.385   6.801
 6810SOL     OW21870   3.434   1.509   6.296
 6810SOL    HW121871   3.392   1.494   6.380
 6810SOL    HW221872   3.362   1.521   6.234
 6811SOL     OW21873   2.992   0.702   6.276
 6811SOL    HW121874   3.043   0.781   6.261
 6811SOL    HW221875   2.950   0.716   6.361
 6812SOL     OW21876   3.662   0.586   5.802
 6812SOL    HW121877   3.623   0.587   5.715
 6812SOL    HW221878   3.611   0.521   5.850
 6813SOL     OW21879   2.601   1.134   6.631
 6813SOL    HW121880   2.538   1.172   6.690
 6813SOL    HW221881   2.646   1.209   6.591
 6814SOL     OW21882   2.748   0.765   7.409
 6814SOL    HW121883   2.770   0.834   7.472
 6814SOL    HW221884   2.760   0.805   7.323
 6815SOL     OW21885   2.547   0.988   6.229
 6815SOL    HW121886   2.616   0.986   6.296
 6815SOL    HW221887   2.480   1.046   6.266
 6816SOL     OW21888   2.567   1.150   7.410
 6816SOL    HW121889   2.613   1.229   7.439
 6816SOL    HW221890   2.489   1.183   7.364
 6817SOL     OW21891   2.195   1.411   6.651
 6817SOL    HW121892   2.165   1.335   6.602
 6817SOL    HW221893   2.241   1.465   6.586
 6818SOL     OW21894   3.324   1.509   6.952
 6818SOL    HW121895   3.381   1.586   6.960
 6818SOL    HW221896   3.258   1.521   7.020
 6819SOL     OW21897   2.309   0.381   7.070
 6819SOL    HW121898   2.394   0.336   7.068
 6819SOL    HW221899   2.245   0.310   7.067
 6820SOL     OW21900   3.471   0.467   6.314
 6820SOL    HW121901   3.409   0.492   6.246
 6820SOL    HW221902   3.470   0.540   6.376
 6821SOL     OW21903   2.083   1.714   6.053
 6821SOL    HW121904   2.100   1.786   6.113
 6821SOL    HW221905   2.162   1.706   6.000
 6822SOL     OW21906   2.993   1.345   7.281
 6822SOL    HW121907   3.020   1.334   7.372
 6822SOL    HW221908   2.940   1.268   7.263
 6823SOL     OW21909   2.084   1.443   6.116
 6823SOL    HW121910   2.076   1.539   6.115
 6823SOL    HW221911   2.042   1.416   6.198
 6824SOL     OW21912   2.444   1.799   6.990
 6824SOL    HW121913   2.372   1.781   7.050
 6824SOL    HW221914   2.484   1.879   7.024
 6825SOL     OW21915   2.434   0.980   5.732
 6825SOL    HW121916   2.486   1.019   5.662
 6825SOL    HW221917   2.474   1.012   5.813
 6826SOL     OW21918   3.518   0.120   7.078
 6826SOL    HW121919   3.509   0.194   7.017
 6826SOL    HW221920   3.465   0.144   7.154
 6827SOL     OW21921   1.977   0.662   6.142
 6827SOL    HW121922   1.951   0.574   6.169
 6827SOL    HW221923   1.963   0.716   6.220
 6828SOL     OW21924   3.709   1.751   5.915
 6828SOL    HW121925   3.782   1.730   5.973
 6828SOL    HW221926   3.721   1.843   5.894
 6829SOL     OW21927   1.902   1.584   5.704
 6829SOL    HW121928   1.885   1.493   5.728
 6829SOL    HW221929   1.878   1.635   5.782
 6830SOL     OW21930   3.539   0.898   6.213
 6830SOL    HW121931   3.633   0.887   6.225
 6830SOL    HW221932   3.532   0.962   6.142
 6831SOL     OW21933   3.516   1.105   6.018
 6831SOL    HW121934   3.603   1.105   5.978
 6831SOL    HW221935   3.524   1.166   6.092
 6832SOL     OW21936   1.985   0.756   7.173
 6832SOL    HW121937   2.074   0.791   7.170
 6832SOL    HW221938   1.929   0.833   7.166
 6833SOL     OW21939   2.479   1.397   6.313
 6833SOL    HW121940   2.438   1.311   6.324
 6833SOL    HW221941   2.461   1.420   6.222
 6834SOL     OW21942   3.148   1.231   7.007
 6834SOL    HW121943   3.191   1.174   6.943
 6834SOL    HW221944   3.207   1.231   7.082
 6835SOL     OW21945   2.693   0.037   6.133
 6835SOL    HW121946   2.743   0.112   6.099
 6835SOL    HW221947   2.608   0.074   6.157
 6836SOL     OW21948   2.047   0.968   6.854
 6836SOL    HW121949   2.128   0.919   6.847
 6836SOL    HW221950   2.034   1.005   6.766
 6837SOL     OW21951   3.393   1.004   5.789
 6837SOL    HW121952   3.328   0.944   5.825
 6837SOL    HW221953   3.438   1.039   5.866
 6838SOL     OW21954   3.027   1.813   7.211
 6838SOL    HW121955   3.046   1.882   7.147
 6838SOL    HW221956   3.065   1.734   7.173
 6839SOL     OW21957   2.167   0.240   7.354
 6839SOL    HW121958   2.236   0.301   7.380
 6839SOL    HW221959   2.094   0.259   7.412
 6840SOL     OW21960   3.328   1.418   6.537
 6840SOL    HW121961   3.265   1.435   6.607
 6840SOL    HW221962   3.315   1.326   6.515
 6841SOL     OW21963   3.522   1.754   6.164
 6841SOL    HW121964   3.504   1.721   6.076
 6841SOL    HW221965   3.501   1.681   6.222
 6842SOL     OW21966   2.452   0.700   5.852
 6842SOL    HW121967   2.465   0.787   5.816
 6842SOL    HW221968   2.389   0.712   5.923
 6843SOL     OW21969   3.158   0.366   6.520
 6843SOL    HW121970   3.066   0.340   6.520
 6843SOL    HW221971   3.199   0.311   6.587
 6844SOL     OW21972   3.447   1.664   5.899
 6844SOL    HW121973   3.537   1.696   5.893
 6844SOL    HW221974   3.419   1.652   5.808
 6845SOL     OW21975   2.649   0.624   7.033
 6845SOL    HW121976   2.618   0.597   7.119
 6845SOL    HW221977   2.615   0.558   6.973
 6846SOL     OW21978   3.277   0.493   7.266
 6846SOL    HW121979   3.273   0.536   7.351
 6846SOL    HW221980   3.368   0.462   7.259
 6847SOL     OW21981   2.797   0.880   7.168
 6847SOL    HW121982   2.861   0.820   7.129
 6847SOL    HW221983   2.760   0.928   7.094
 6848SOL     OW21984   2.853   0.414   6.822
 6848SOL    HW121985   2.764   0.443   6.841
 6848SOL    HW221986   2.849   0.382   6.732
 6849SOL     OW21987   2.916   0.699   6.008
 6849SOL    HW121988   2.936   0.698   6.101
 6849SOL    HW221989   2.832   0.653   6.002
 6850SOL     OW21990   1.930   0.818   6.359
 6850SOL    HW121991   2.010   0.808   6.410
 6850SOL    HW221992   1.888   0.896   6.396
 6851SOL     OW21993   1.976   1.875   7.173
 6851SOL    HW121994   1.979   1.856   7.267
 6851SOL    HW221995   1.899   1.829   7.142
 6852SOL     OW21996   2.750   0.347   5.781
 6852SOL    HW121997   2.799   0.400   5.718
 6852SOL    HW221998   2.770   0.257   5.755
 6853SOL     OW21999   3.556   0.573   7.420
 6853SOL    HW122000   3.528   0.650   7.370
 6853SOL    HW222001   3.593   0.514   7.354
 6854SOL     OW22002   3.242   1.137   6.113
 6854SOL    HW122003   3.328   1.137   6.071
 6854SOL    HW222004   3.195   1.209   6.071
 6855SOL     OW22005   2.403   0.254   6.478
 6855SOL    HW122006   2.395   0.252   6.574
 6855SOL    HW222007   2.405   0.347   6.456
 6856SOL     OW22008   2.852   1.438   6.049
 6856SOL    HW122009   2.830   1.520   6.004
 6856SOL    HW222010   2.836   1.456   6.142
 6857SOL     OW22011   2.214   1.817   6.469
 6857SOL    HW122012   2.264   1.736   6.472
 6857SOL    HW222013   2.279   1.886   6.481
 6858SOL     OW22014   3.657   1.034   6.461
 6858SOL    HW122015   3.603   1.071   6.391
 6858SOL    HW222016   3.603   1.043   6.540
 6859SOL     OW22017   3.090   1.542   7.104
 6859SOL    HW122018   3.078   1.470   7.166
 6859SOL    HW222019   3.018   1.532   7.042
 6860SOL     OW22020   2.174   0.972   5.848
 6860SOL    HW122021   2.259   0.985   5.806
 6860SOL    HW222022   2.148   0.883   5.824
 6861SOL     OW22023   3.336   0.747   6.303
 6861SOL    HW122024   3.338   0.721   6.395
 6861SOL    HW222025   3.413   0.804   6.293
 6862SOL     OW22026   2.332   1.261   7.322
 6862SOL    HW122027   2.305   1.269   7.230
 6862SOL    HW222028   2.250   1.270   7.371
 6863SOL     OW22029   2.979   1.783   5.808
 6863SOL    HW122030   2.908   1.740   5.856
 6863SOL    HW222031   3.010   1.717   5.747
 6864SOL     OW22032   2.040   0.257   7.083
 6864SOL    HW122033   2.000   0.341   7.063
 6864SOL    HW222034   2.066   0.263   7.175
 6865SOL     OW22035   3.491   1.368   5.680
 6865SOL    HW122036   3.458   1.457   5.666
 6865SOL    HW222037   3.419   1.312   5.651
 6866SOL     OW22038   2.332   1.728   5.922
 6866SOL    HW122039   2.365   1.795   5.982
 6866SOL    HW222040   2.403   1.714   5.860
 6867SOL     OW22041   3.283   0.130   5.993
 6867SOL    HW122042   3.307   0.105   5.904
 6867SOL    HW222043   3.367   0.143   6.038
 6868SOL     OW22044   2.114   1.782   6.811
 6868SOL    HW122045   2.175   1.721   6.853
 6868SOL    HW222046   2.123   1.764   6.717
 6869SOL     OW22047   2.806   1.701   6.488
 6869SOL    HW122048   2.892   1.665   6.510
 6869SOL    HW222049   2.774   1.645   6.417
 6870SOL     OW22050   2.254   0.696   6.049
 6870SOL    HW122051   2.266   0.604   6.072
 6870SOL    HW222052   2.163   0.714   6.072
 6871SOL     OW22053   3.400   0.208   7.314
 6871SOL    HW122054   3.401   0.237   7.405
 6871SOL    HW222055   3.309   0.180   7.298
 6872SOL     OW22056   2.453   0.161   5.691
 6872SOL    HW122057   2.521   0.107   5.732
 6872SOL    HW222058   2.426   0.109   5.615
 6873SOL     OW22059   2.628   0.234   7.380
 6873SOL    HW122060   2.670   0.284   7.310
 6873SOL    HW222061   2.591   0.301   7.438
 6874SOL     OW22062   2.731   1.511   6.783
 6874SOL    HW122063   2.718   1.477   6.694
 6874SOL    HW222064   2.806   1.463   6.816
 6875SOL     OW22065   3.203   0.596   7.018
 6875SOL    HW122066   3.241   0.574   7.103
 6875SOL    HW222067   3.234   0.684   7.000
 6876SOL     OW22068   2.684   1.380   6.532
 6876SOL    HW122069   2.772   1.374   6.494
 6876SOL    HW222070   2.627   1.398   6.457
 6877SOL     OW22071   2.787   0.513   6.477
 6877SOL    HW122072   2.750   0.503   6.390
 6877SOL    HW222073   2.827   0.429   6.497
 6878SOL     OW22074   2.401   0.026   6.009
 6878SOL    HW122075   2.339   0.002   6.077
 6878SOL    HW222076   2.421   0.118   6.025
 6879SOL     OW22077   3.283   1.195   5.621
 6879SOL    HW122078   3.319   1.126   5.677
 6879SOL    HW222079   3.207   1.228   5.668
 6880SOL     OW22080   2.180   0.078   5.811
 6880SOL    HW122081   2.259   0.082   5.864
 6880SOL    HW222082   2.148  -0.012   5.821
 6881SOL     OW22083   2.813   0.266   6.043
 6881SOL    HW122084   2.783   0.299   5.959
 6881SOL    HW222085   2.908   0.279   6.042
 6882SOL     OW22086   2.946   0.691   7.043
 6882SOL    HW122087   2.885   0.618   7.038
 6882SOL    HW222088   3.033   0.651   7.036
 6883SOL     OW22089   3.080   1.574   6.378
 6883SOL    HW122090   3.093   1.641   6.311
 6883SOL    HW222091   3.143   1.596   6.446
 6884SOL     OW22092   2.340   1.153   6.312
 6884SOL    HW122093   2.280   1.142   6.386
 6884SOL    HW222094   2.284   1.141   6.235
 6885SOL     OW22095   3.123   1.792   6.200
 6885SOL    HW122096   3.177   1.853   6.150
 6885SOL    HW222097   3.060   1.848   6.246
 6886SOL     OW22098   2.892   0.521   5.613
 6886SOL    HW122099   2.848   0.604   5.594
 6886SOL    HW222100   2.952   0.542   5.685
 6887SOL     OW22101   1.957   0.545   7.005
 6887SOL    HW122102   2.043   0.551   6.965
 6887SOL    HW222103   1.950   0.623   7.060
 6888SOL     OW22104   2.430   0.225   6.769
 6888SOL    HW122105   2.467   0.180   6.845
 6888SOL    HW222106   2.335   0.225   6.784
 6889SOL     OW22107   2.695   0.442   6.222
 6889SOL    HW122108   2.671   0.511   6.161
 6889SOL    HW222109   2.745   0.379   6.169
 6890SOL     OW22110   2.817   0.036   6.382
 6890SOL    HW122111   2.778   0.034   6.295
 6890SOL    HW222112   2.855  -0.051   6.393
 6891SOL     OW22113   3.306   1.157   6.444
 6891SOL    HW122114   3.233   1.095   6.436
 6891SOL    HW222115   3.335   1.170   6.354
 6892SOL     OW22116   3.322   0.611   6.548
 6892SOL    HW122117   3.269   0.531   6.550
 6892SOL    HW222118   3.382   0.602   6.622
 6893SOL     OW22119   3.705   0.802   5.964
 6893SOL    HW122120   3.764   0.760   6.026
 6893SOL    HW222121   3.689   0.736   5.897
 6894SOL     OW22122   2.348   1.439   5.699
 6894SOL    HW122123   2.330   1.406   5.787
 6894SOL    HW222124   2.267   1.422   5.650
 6895SOL     OW22125   3.539   1.252   6.244
 6895SOL    HW122126   3.634   1.253   6.251
 6895SOL    HW222127   3.513   1.343   6.260
 6896SOL     OW22128   3.256   0.574   5.662
 6896SOL    HW122129   3.195   0.558   5.734
 6896SOL    HW222130   3.343   0.573   5.702
 6897SOL     OW22131   2.377   0.291   5.914
 6897SOL    HW122132   2.432   0.248   5.848
 6897SOL    HW222133   2.366   0.381   5.881
 6898SOL     OW22134   3.612   1.239   7.161
 6898SOL    HW122135   3.651   1.231   7.075
 6898SOL    HW222136   3.640   1.325   7.193
 6899SOL     OW22137   2.922   1.342   6.907
 6899SOL    HW122138   2.845   1.317   6.958
 6899SOL    HW222139   2.996   1.304   6.955
 6900SOL     OW22140   3.471   1.621   7.244
 6900SOL    HW122141   3.464   1.666   7.159
 6900SOL    HW222142   3.554   1.574   7.239
 6901SOL     OW22143   2.972   1.187   6.681
 6901SOL    HW122144   2.943   1.244   6.752
 6901SOL    HW222145   2.964   1.241   6.602
 6902SOL     OW22146   3.471   1.080   6.656
 6902SOL    HW122147   3.463   1.145   6.726
 6902SOL    HW222148   3.403   1.105   6.592
 6903SOL     OW22149   2.783   0.131   6.982
 6903SOL    HW122150   2.796   0.107   6.890
 6903SOL    HW222151   2.870   0.150   7.015
 6904SOL     OW22152   2.823   1.132   7.275
 6904SOL    HW122153   2.741   1.139   7.322
 6904SOL    HW222154   2.828   1.041   7.247
 6905SOL     OW22155   2.573   1.060   5.958
 6905SOL    HW122156   2.559   1.042   6.050
 6905SOL    HW222157   2.647   1.004   5.933
 6906SOL     OW22158   2.277   0.818   6.835
 6906SOL    HW122159   2.349   0.831   6.897
 6906SOL    HW222160   2.245   0.729   6.854
 6907SOL     OW22161   3.123   0.381   6.871
 6907SOL    HW122162   3.159   0.460   6.910
 6907SOL    HW222163   3.034   0.406   6.845
 6908SOL     OW22164   1.943   1.572   6.944
 6908SOL    HW122165   1.922   1.646   6.888
 6908SOL    HW222166   2.038   1.563   6.936
 6909SOL     OW22167   2.184   1.129   6.081
 6909SOL    HW122168   2.192   1.208   6.028
 6909SOL    HW222169   2.187   1.057   6.018
 6910SOL     OW22170   2.420   0.521   6.431
 6910SOL    HW122171   2.426   0.581   6.358
 6910SOL    HW222172   2.479   0.557   6.497
 6911SOL     OW22173   3.111   1.357   5.982
 6911SOL    HW122174   3.166   1.429   6.013
 6911SOL    HW222175   3.024   1.376   6.015
 6912SOL     OW22176   3.154   1.463   6.747
 6912SOL    HW122177   3.220   1.476   6.815
 6912SOL    HW222178   3.088   1.407   6.789
 6913SOL     OW22179   3.439   0.636   6.067
 6913SOL    HW122180   3.385   0.678   6.134
 6913SOL    HW222181   3.499   0.705   6.038
 6914SOL     OW22182   2.209   1.518   6.897
 6914SOL    HW122183   2.196   1.478   6.811
 6914SOL    HW222184   2.303   1.534   6.903
 6915SOL     OW22185   2.292   0.742   7.196
 6915SOL    HW122186   2.343   0.792   7.132
 6915SOL    HW222187   2.349   0.670   7.221
 6916SOL     OW22188   3.465   0.773   7.264
 6916SOL    HW122189   3.382   0.821   7.260
 6916SOL    HW222190   3.522   0.820   7.203
 6917SOL     OW22191   2.894   0.060   7.325
 6917SOL    HW122192   2.947   0.126   7.369
 6917SOL    HW222193   2.848   0.107   7.256
 6918SOL     OW22194   2.307  -0.007   7.353
 6918SOL    HW122195   2.378  -0.020   7.290
 6918SOL    HW222196   2.275   0.081   7.335
 6919SOL     OW22197   2.475   0.875   6.636
 6919SOL    HW122198   2.503   0.966   6.623
 6919SOL    HW222199   2.398   0.883   6.694
 6920SOL     OW22200   3.195   0.858   6.586
 6920SOL    HW122201   3.106   0.835   6.561
 6920SOL    HW222202   3.243   0.775   6.583
 6921SOL     OW22203   3.055   0.525   5.845
 6921SOL    HW122204   3.068   0.450   5.903
 6921SOL    HW222205   3.018   0.593   5.901
 6922SOL     OW22206   2.163   0.196   6.819
 6922SOL    HW122207   2.106   0.209   6.894
 6922SOL    HW222208   2.150   0.105   6.793
 6923SOL     OW22209   1.866   1.316   6.878
 6923SOL    HW122210   1.915   1.258   6.936
 6923SOL    HW222211   1.894   1.404   6.902
 6924SOL     OW22212   2.573   0.624   6.631
 6924SOL    HW122213   2.656   0.622   6.585
 6924SOL    HW222214   2.546   0.716   6.631
 6925SOL     OW22215   3.605   0.942   7.466
 6925SOL    HW122216   3.553   0.912   7.391
 6925SOL    HW222217   3.540   0.966   7.532
 6926SOL     OW22218   2.234   0.063   6.244
 6926SOL    HW122219   2.212   0.152   6.272
 6926SOL    HW222220   2.201   0.008   6.315
 6927SOL     OW22221   3.484   0.406   5.931
 6927SOL    HW122222   3.500   0.336   5.994
 6927SOL    HW222223   3.460   0.482   5.985
 6928SOL     OW22224   2.898   0.756   6.539
 6928SOL    HW122225   2.885   0.772   6.632
 6928SOL    HW222226   2.863   0.668   6.525
 6929SOL     OW22227   2.828   1.560   7.303
 6929SOL    HW122228   2.824   1.606   7.219
 6929SOL    HW222229   2.885   1.484   7.285
 6930SOL     OW22230   3.718   1.497   7.198
 6930SOL    HW122231   3.730   1.526   7.107
 6930SOL    HW222232   3.801   1.519   7.241
 6931SOL     OW22233   2.210   0.904   7.407
 6931SOL    HW122234   2.289   0.939   7.448
 6931SOL    HW222235   2.243   0.849   7.336
 6932SOL     OW22236   3.400   0.267   5.711
 6932SOL    HW122237   3.438   0.184   5.739
 6932SOL    HW222238   3.422   0.328   5.781
 6933SOL     OW22239   3.138   0.821   5.606
 6933SOL    HW122240   3.186   0.739   5.614
 6933SOL    HW222241   3.175   0.863   5.528
 6934SOL     OW22242   2.937   1.343   6.445
 6934SOL    HW122243   2.946   1.274   6.379
 6934SOL    HW222244   2.993   1.413   6.413
 6935SOL     OW22245   2.152   0.796   6.513
 6935SOL    HW122246   2.165   0.891   6.518
 6935SOL    HW222247   2.219   0.759   6.569
 6936SOL     OW22248   2.232   0.511   6.629
 6936SOL    HW122249   2.176   0.439   6.599
 6936SOL    HW222250   2.290   0.528   6.555
 6937SOL     OW22251   3.018   0.407   7.261
 6937SOL    HW122252   2.972   0.457   7.327
 6937SOL    HW222253   3.106   0.446   7.257
 6938SOL     OW22254   3.032   0.217   7.067
 6938SOL    HW122255   3.035   0.276   7.142
 6938SOL    HW222256   3.063   0.270   6.993
 6939SOL     OW22257   1.867   1.314   5.774
 6939SOL    HW122258   1.780   1.330   5.740
 6939SOL    HW222259   1.862   1.225   5.811
 6940SOL     OW22260   1.946   1.777   6.527
 6940SOL    HW122261   1.923   1.695   6.483
 6940SOL    HW222262   2.036   1.793   6.500
 6941SOL     OW22263   2.353   1.573   6.490
 6941SOL    HW122264   2.422   1.636   6.511
 6941SOL    HW222265   2.396   1.511   6.430
 6942SOL     OW22266   2.834   0.774   6.802
 6942SOL    HW122267   2.897   0.765   6.874
 6942SOL    HW222268   2.750   0.786   6.845
 6943SOL     OW22269   1.901   0.543   6.706
 6943SOL    HW122270   1.965   0.563   6.638
 6943SOL    HW222271   1.948   0.555   6.788
 6944SOL     OW22272   2.059   0.536   7.316
 6944SOL    HW122273   2.141   0.522   7.268
 6944SOL    HW222274   2.019   0.611   7.273
 6945SOL     OW22275   3.245   0.931   7.240
 6945SOL    HW122276   3.267   1.024   7.240
 6945SOL    HW222277   3.238   0.908   7.148
 6946SOL     OW22278   2.680   0.563   5.956
 6946SOL    HW122279   2.689   0.494   5.890
 6946SOL    HW222280   2.606   0.616   5.925
 6947SOL     OW22281   3.498   0.579   6.751
 6947SOL    HW122282   3.491   0.546   6.840
 6947SOL    HW222283   3.589   0.564   6.726
 6948SOL     OW22284   2.091   1.545   7.309
 6948SOL    HW122285   2.101   1.605   7.382
 6948SOL    HW222286   2.107   1.458   7.346
 6949SOL     OW22287   2.574   0.453   6.839
 6949SOL    HW122288   2.518   0.380   6.814
 6949SOL    HW222289   2.564   0.516   6.768
 6950SOL     OW22290   2.779   1.677   7.055
 6950SOL    HW122291   2.755   1.644   6.968
 6950SOL    HW222292   2.785   1.772   7.044
 6951SOL     OW22293   2.303   0.490   5.740
 6951SOL    HW122294   2.369   0.556   5.762
 6951SOL    HW222295   2.220   0.539   5.738
 6952SOL     OW22296   1.986   1.140   7.058
 6952SOL    HW122297   2.000   1.097   7.142
 6952SOL    HW222298   2.007   1.074   6.993
 6953SOL     OW22299   3.165   1.028   6.800
 6953SOL    HW122300   3.195   0.977   6.725
 6953SOL    HW222301   3.098   1.086   6.764
 6954SOL     OW22302   3.185   0.848   5.882
 6954SOL    HW122303   3.111   0.833   5.940
 6954SOL    HW222304   3.149   0.841   5.794
 6955SOL     OW22305   3.641   1.735   6.742
 6955SOL    HW122306   3.701   1.765   6.674
 6955SOL    HW222307   3.621   1.645   6.719
 6956SOL     OW22308   3.093   1.721   6.662
 6956SOL    HW122309   3.177   1.757   6.634
 6956SOL    HW222310   3.115   1.635   6.698
 6957SOL     OW22311   1.869   1.313   6.603
 6957SOL    HW122312   1.875   1.303   6.698
 6957SOL    HW222313   1.935   1.254   6.568
 6958SOL     OW22314   2.548   1.668   7.330
 6958SOL    HW122315   2.503   1.751   7.315
 6958SOL    HW222316   2.634   1.680   7.290
 6959SOL     OW22317   3.550   0.170   6.074
 6959SOL    HW122318   3.618   0.155   6.008
 6959SOL    HW222319   3.584   0.129   6.153
 6960SOL     OW22320   3.253   1.572   6.076
 6960SOL    HW122321   3.316   1.606   6.012
 6960SOL    HW222322   3.207   1.650   6.108
 6961SOL     OW22323   1.986   1.808   7.436
 6961SOL    HW122324   1.952   1.732   7.482
 6961SOL    HW222325   2.042   1.852   7.500
 6962SOL     OW22326   3.137   0.928   6.244
 6962SOL    HW122327   3.212   0.872   6.263
 6962SOL    HW222328   3.173   1.000   6.193
 6963SOL     OW22329   2.665   1.277   7.003
 6963SOL    HW122330   2.637   1.319   7.084
 6963SOL    HW222331   2.601   1.306   6.938
 6964SOL     OW22332   2.533   1.631   5.759
 6964SOL    HW122333   2.543   1.681   5.678
 6964SOL    HW222334   2.473   1.560   5.738
 6965SOL     OW22335   3.477   1.734   6.978
 6965SOL    HW122336   3.536   1.738   6.903
 6965SOL    HW222337   3.461   1.825   7.002
 6966SOL     OW22338   3.714   0.166   6.533
 6966SOL    HW122339   3.735   0.110   6.459
 6966SOL    HW222340   3.625   0.198   6.516
 6967SOL     OW22341   2.123   0.308   6.303
 6967SOL    HW122342   2.041   0.352   6.277
 6967SOL    HW222343   2.121   0.311   6.399
 6968SOL     OW22344   3.077   1.608   5.619
 6968SOL    HW122345   3.060   1.514   5.625
 6968SOL    HW222346   3.047   1.632   5.531
 6969SOL     OW22347   2.690   1.011   6.949
 6969SOL    HW122348   2.726   1.020   6.861
 6969SOL    HW222349   2.682   1.101   6.981
 6970SOL     OW22350   2.771   0.899   5.871
 6970SOL    HW122351   2.830   0.935   5.805
 6970SOL    HW222352   2.826   0.839   5.922
 6971SOL     OW22353   3.362   1.609   5.631
 6971SOL    HW122354   3.267   1.621   5.622
 6971SOL    HW222355   3.396   1.623   5.543
 6972SOL     OW22356   2.216   1.303   7.084
 6972SOL    HW122357   2.218   1.376   7.022
 6972SOL    HW222358   2.138   1.253   7.058
 6973SOL     OW22359   3.432   1.274   6.846
 6973SOL    HW122360   3.520   1.257   6.881
 6973SOL    HW222361   3.401   1.349   6.897
 6974SOL     OW22362   2.928   1.114   6.293
 6974SOL    HW122363   2.857   1.065   6.335
 6974SOL    HW222364   2.994   1.047   6.272
 6975SOL     OW22365   2.894   0.262   6.532
 6975SOL    HW122366   2.873   0.207   6.457
 6975SOL    HW222367   2.895   0.202   6.606
 6976SOL     OW22368   2.458   1.481   6.053
 6976SOL    HW122369   2.519   1.454   5.985
 6976SOL    HW222370   2.410   1.555   6.016
 6977SOL     OW22371   3.598   0.391   6.971
 6977SOL    HW122372   3.663   0.462   6.978
 6977SOL    HW222373   3.635   0.331   6.907
 6978SOL     OW22374   2.121   1.341   5.872
 6978SOL    HW122375   2.028   1.338   5.849
 6978SOL    HW222376   2.123   1.383   5.958
 6979SOL     OW22377   1.981   1.032   7.316
 6979SOL    HW122378   1.905   1.005   7.368
 6979SOL    HW222379   2.055   0.988   7.357
 6980SOL     OW22380   2.525   0.200   7.067
 6980SOL    HW122381   2.604   0.161   7.028
 6980SOL    HW222382   2.523   0.166   7.156
 6981SOL     OW22383   2.007   0.314   5.610
 6981SOL    HW122384   1.916   0.288   5.599
 6981SOL    HW222385   2.019   0.387   5.549
 6982SOL     OW22386   3.278   0.855   6.978
 6982SOL    HW122387   3.228   0.917   6.925
 6982SOL    HW222388   3.368   0.862   6.944
 6983SOL     OW22389   1.912   0.173   5.890
 6983SOL    HW122390   1.915   0.261   5.852
 6983SOL    HW222391   2.002   0.141   5.882
 6984SOL     OW22392   3.048   1.327   5.715
 6984SOL    HW122393   2.970   1.275   5.735
 6984SOL    HW222394   3.084   1.350   5.800
 6985SOL     OW22395   2.481   0.838   7.015
 6985SOL    HW122396   2.534   0.916   6.999
 6985SOL    HW222397   2.545   0.767   7.023
 6986SOL     OW22398   3.345   1.788   6.561
 6986SOL    HW122399   3.362   1.866   6.508
 6986SOL    HW222400   3.424   1.776   6.613
 6987SOL     OW22401   2.579   0.570   7.295
 6987SOL    HW122402   2.616   0.642   7.346
 6987SOL    HW222403   2.650   0.507   7.286
 6988SOL     OW22404   3.340   1.188   7.214
 6988SOL    HW122405   3.328   1.212   7.307
 6988SOL    HW222406   3.430   1.212   7.195
 6989SOL     OW22407   2.226   1.747   7.152
 6989SOL    HW122408   2.142   1.792   7.139
 6989SOL    HW222409   2.201   1.660   7.182
 6990SOL     OW22410   3.516   0.876   6.847
 6990SOL    HW122411   3.537   0.803   6.789
 6990SOL    HW222412   3.518   0.953   6.790
 6991SOL     OW22413   3.082   0.319   6.032
 6991SOL    HW122414   3.149   0.252   6.022
 6991SOL    HW222415   3.107   0.367   6.111
 6992SOL     OW22416   2.455   0.722   6.246
 6992SOL    HW122417   2.492   0.810   6.245
 6992SOL    HW222418   2.383   0.726   6.183
 6993SOL     OW22419   3.615   0.369   7.248
 6993SOL    HW122420   3.617   0.379   7.153
 6993SOL    HW222421   3.545   0.305   7.264
 6994SOL     OW22422   3.614   0.936   7.109
 6994SOL    HW122423   3.621   1.030   7.128
 6994SOL    HW222424   3.600   0.931   7.015
 6995SOL     OW22425   2.656   1.379   5.621
 6995SOL    HW122426   2.662   1.373   5.716
 6995SOL    HW222427   2.734   1.428   5.595
 6996SOL     OW22428   2.527   1.778   6.512
 6996SOL    HW122429   2.509   1.871   6.501
 6996SOL    HW222430   2.622   1.773   6.519
 6997SOL     OW22431   2.735   0.973   6.436
 6997SOL    HW122432   2.788   0.905   6.477
 6997SOL    HW222433   2.696   1.020   6.510
 6998SOL     OW22434   2.927   0.980   5.667
 6998SOL    HW122435   2.912   1.037   5.592
 6998SOL    HW222436   3.004   0.928   5.643
 6999SOL     OW22437   3.703   1.540   6.420
 6999SOL    HW122438   3.621   1.543   6.371
 6999SOL    HW222439   3.678   1.509   6.507
 7000SOL     OW22440   2.089   1.295   7.438
 7000SOL    HW122441   2.026   1.229   7.409
 7000SOL    HW222442   2.079   1.297   7.533
 7001SOL     OW22443   1.958   1.213   6.262
 7001SOL    HW122444   1.995   1.185   6.345
 7001SOL    HW222445   2.021   1.184   6.196
 7002SOL     OW22446   2.536   1.412   7.203
 7002SOL    HW122447   2.467   1.370   7.253
 7002SOL    HW222448   2.548   1.497   7.245
 7003SOL     OW22449   3.704   0.192   6.813
 7003SOL    HW122450   3.621   0.144   6.811
 7003SOL    HW222451   3.720   0.216   6.721
 7004SOL     OW22452   2.278   0.440   6.121
 7004SOL    HW122453   2.321   0.369   6.073
 7004SOL    HW222454   2.232   0.396   6.192
 7005SOL     OW22455   3.589   1.475   6.666
 7005SOL    HW122456   3.499   1.448   6.647
 7005SOL    HW222457   3.618   1.415   6.735
 7006SOL     OW22458   2.196   0.558   6.890
 7006SOL    HW122459   2.253   0.502   6.943
 7006SOL    HW222460   2.218   0.536   6.799
 7007SOL     OW22461   2.701   1.581   6.261
 7007SOL    HW122462   2.681   1.658   6.208
 7007SOL    HW222463   2.619   1.531   6.263
 7008SOL     OW22464   3.274   0.210   6.712
 7008SOL    HW122465   3.344   0.165   6.759
 7008SOL    HW222466   3.232   0.264   6.779
 7009SOL     OW22467   2.895   0.070   6.721
 7009SOL    HW122468   2.843  -0.011   6.723
 7009SOL    HW222469   2.985   0.040   6.733
 7010SOL     OW22470   2.655   1.324   5.887
 7010SOL    HW122471   2.627   1.238   5.917
 7010SOL    HW222472   2.725   1.349   5.948
 7011SOL     OW22473   2.477   1.556   6.867
 7011SOL    HW122474   2.475   1.642   6.910
 7011SOL    HW222475   2.567   1.547   6.836
 7012SOL     OW22476   3.217   7.987   5.711
 7012SOL    HW122477   3.289   7.926   5.726
 7012SOL    HW222478   3.155   7.969   5.782
 7013SOL     OW22479   3.143   0.460   6.257
 7013SOL    HW122480   3.100   0.545   6.263
 7013SOL    HW222481   3.157   0.433   6.347
 7014SOL     OW22482   3.468   0.240   6.464
 7014SOL    HW122483   3.379   0.234   6.500
 7014SOL    HW222484   3.464   0.316   6.406
 7015SOL     OW22485   1.901   1.066   5.893
 7015SOL    HW122486   1.996   1.064   5.883
 7015SOL    HW222487   1.876   0.975   5.908
 7016SOL     OW22488   2.753   1.662   5.928
 7016SOL    HW122489   2.677   1.656   5.869
 7016SOL    HW222490   2.733   1.736   5.986
 7017SOL     OW22491   2.076   0.620   7.584
 7017SOL    HW122492   1.984   0.622   7.613
 7017SOL    HW222493   2.070   0.613   7.489
 7018SOL     OW22494   2.009   0.218   8.462
 7018SOL    HW122495   2.056   0.283   8.514
 7018SOL    HW222496   2.071   0.146   8.451
 7019SOL     OW22497   1.842   0.394   8.088
 7019SOL    HW122498   1.753   0.424   8.105
 7019SOL    HW222499   1.839   0.357   8.000
 7020SOL     OW22500   2.429   1.301   8.636
 7020SOL    HW122501   2.348   1.313   8.585
 7020SOL    HW222502   2.452   1.389   8.666
 7021SOL     OW22503   3.435   1.511   8.150
 7021SOL    HW122504   3.387   1.495   8.231
 7021SOL    HW222505   3.368   1.524   8.083
 7022SOL     OW22506   2.991   0.695   8.143
 7022SOL    HW122507   3.043   0.773   8.124
 7022SOL    HW222508   2.946   0.714   8.225
 7023SOL     OW22509   3.657   0.596   7.668
 7023SOL    HW122510   3.621   0.599   7.579
 7023SOL    HW222511   3.611   0.523   7.709
 7024SOL     OW22512   2.605   1.132   8.508
 7024SOL    HW122513   2.539   1.176   8.562
 7024SOL    HW222514   2.645   1.203   8.458
 7025SOL     OW22515   2.740   0.763   9.268
 7025SOL    HW122516   2.741   0.835   9.332
 7025SOL    HW222517   2.759   0.805   9.184
 7026SOL     OW22518   2.547   0.990   8.096
 7026SOL    HW122519   2.614   0.989   8.164
 7026SOL    HW222520   2.481   1.051   8.129
 7027SOL     OW22521   2.578   1.155   9.279
 7027SOL    HW122522   2.629   1.230   9.309
 7027SOL    HW222523   2.504   1.194   9.232
 7028SOL     OW22524   2.196   1.415   8.512
 7028SOL    HW122525   2.123   1.380   8.462
 7028SOL    HW222526   2.245   1.469   8.449
 7029SOL     OW22527   3.322   1.500   8.816
 7029SOL    HW122528   3.377   1.578   8.820
 7029SOL    HW222529   3.253   1.516   8.880
 7030SOL     OW22530   2.268   0.359   8.990
 7030SOL    HW122531   2.354   0.318   8.979
 7030SOL    HW222532   2.256   0.410   8.909
 7031SOL     OW22533   3.472   0.462   8.170
 7031SOL    HW122534   3.409   0.480   8.101
 7031SOL    HW222535   3.476   0.543   8.221
 7032SOL     OW22536   2.085   1.718   7.911
 7032SOL    HW122537   2.108   1.788   7.972
 7032SOL    HW222538   2.161   1.710   7.854
 7033SOL     OW22539   3.003   1.341   9.142
 7033SOL    HW122540   3.050   1.330   9.225
 7033SOL    HW222541   2.951   1.261   9.132
 7034SOL     OW22542   2.074   1.447   7.974
 7034SOL    HW122543   2.078   1.543   7.965
 7034SOL    HW222544   2.036   1.433   8.060
 7035SOL     OW22545   2.116   1.097   8.325
 7035SOL    HW122546   2.129   1.011   8.366
 7035SOL    HW222547   2.068   1.148   8.390
 7036SOL     OW22548   2.453   1.795   8.871
 7036SOL    HW122549   2.373   1.782   8.923
 7036SOL    HW222550   2.484   1.882   8.897
 7037SOL     OW22551   2.434   0.991   7.591
 7037SOL    HW122552   2.483   1.035   7.522
 7037SOL    HW222553   2.476   1.018   7.672
 7038SOL     OW22554   3.506   0.122   8.953
 7038SOL    HW122555   3.505   0.171   8.871
 7038SOL    HW222556   3.449   0.172   9.012
 7039SOL     OW22557   1.978   0.667   8.014
 7039SOL    HW122558   1.949   0.580   8.040
 7039SOL    HW222559   1.975   0.719   8.094
 7040SOL     OW22560   3.709   1.755   7.777
 7040SOL    HW122561   3.782   1.735   7.835
 7040SOL    HW222562   3.722   1.847   7.753
 7041SOL     OW22563   1.904   1.595   7.583
 7041SOL    HW122564   1.895   1.499   7.582
 7041SOL    HW222565   1.874   1.621   7.670
 7042SOL     OW22566   3.548   0.912   8.077
 7042SOL    HW122567   3.624   0.873   8.035
 7042SOL    HW222568   3.518   0.979   8.015
 7043SOL     OW22569   3.508   1.108   7.884
 7043SOL    HW122570   3.594   1.110   7.841
 7043SOL    HW222571   3.515   1.172   7.955
 7044SOL     OW22572   1.980   0.742   9.035
 7044SOL    HW122573   2.070   0.775   9.039
 7044SOL    HW222574   1.926   0.820   9.025
 7045SOL     OW22575   2.466   1.389   8.186
 7045SOL    HW122576   2.427   1.302   8.186
 7045SOL    HW222577   2.455   1.421   8.096
 7046SOL     OW22578   3.142   1.227   8.875
 7046SOL    HW122579   3.170   1.163   8.810
 7046SOL    HW222580   3.210   1.224   8.942
 7047SOL     OW22581   2.699   0.042   8.022
 7047SOL    HW122582   2.739   0.115   7.974
 7047SOL    HW222583   2.609   0.038   7.988
 7048SOL     OW22584   2.029   0.967   8.733
 7048SOL    HW122585   2.113   0.922   8.737
 7048SOL    HW222586   1.985   0.930   8.656
 7049SOL     OW22587   3.399   0.991   7.656
 7049SOL    HW122588   3.328   0.936   7.691
 7049SOL    HW222589   3.434   1.035   7.733
 7050SOL     OW22590   3.033   1.812   9.079
 7050SOL    HW122591   3.042   1.881   9.014
 7050SOL    HW222592   3.059   1.732   9.033
 7051SOL     OW22593   2.185   0.276   9.308
 7051SOL    HW122594   2.235   0.350   9.274
 7051SOL    HW222595   2.097   0.311   9.323
 7052SOL     OW22596   3.328   1.420   8.390
 7052SOL    HW122597   3.261   1.439   8.456
 7052SOL    HW222598   3.313   1.329   8.366
 7053SOL     OW22599   3.531   1.751   8.026
 7053SOL    HW122600   3.509   1.730   7.935
 7053SOL    HW222601   3.498   1.677   8.076
 7054SOL     OW22602   2.462   0.720   7.719
 7054SOL    HW122603   2.473   0.804   7.675
 7054SOL    HW222604   2.396   0.737   7.787
 7055SOL     OW22605   3.161   0.370   8.388
 7055SOL    HW122606   3.069   0.344   8.386
 7055SOL    HW222607   3.201   0.312   8.452
 7056SOL     OW22608   3.445   1.669   7.760
 7056SOL    HW122609   3.534   1.701   7.748
 7056SOL    HW222610   3.412   1.657   7.671
 7057SOL     OW22611   2.666   0.566   8.935
 7057SOL    HW122612   2.631   0.655   8.936
 7057SOL    HW222613   2.633   0.527   8.855
 7058SOL     OW22614   3.286   0.503   9.120
 7058SOL    HW122615   3.290   0.544   9.207
 7058SOL    HW222616   3.329   0.418   9.131
 7059SOL     OW22617   2.815   0.890   9.031
 7059SOL    HW122618   2.872   0.823   8.994
 7059SOL    HW222619   2.774   0.932   8.955
 7060SOL     OW22620   2.856   0.408   8.679
 7060SOL    HW122621   2.765   0.431   8.700
 7060SOL    HW222622   2.855   0.390   8.585
 7061SOL     OW22623   2.917   0.690   7.873
 7061SOL    HW122624   2.936   0.689   7.967
 7061SOL    HW222625   2.830   0.649   7.866
 7062SOL     OW22626   1.952   0.820   8.237
 7062SOL    HW122627   2.033   0.816   8.288
 7062SOL    HW222628   1.906   0.897   8.272
 7063SOL     OW22629   1.976   1.878   9.033
 7063SOL    HW122630   1.982   1.855   9.126
 7063SOL    HW222631   1.898   1.833   9.002
 7064SOL     OW22632   2.756   0.352   7.645
 7064SOL    HW122633   2.804   0.407   7.584
 7064SOL    HW222634   2.757   0.265   7.604
 7065SOL     OW22635   3.558   0.574   9.283
 7065SOL    HW122636   3.529   0.650   9.232
 7065SOL    HW222637   3.589   0.512   9.217
 7066SOL     OW22638   3.239   1.136   8.000
 7066SOL    HW122639   3.314   1.137   7.941
 7066SOL    HW222640   3.183   1.207   7.969
 7067SOL     OW22641   2.318   0.269   8.380
 7067SOL    HW122642   2.374   0.254   8.456
 7067SOL    HW222643   2.378   0.271   8.306
 7068SOL     OW22644   2.828   1.434   7.933
 7068SOL    HW122645   2.820   1.513   7.879
 7068SOL    HW222646   2.919   1.408   7.925
 7069SOL     OW22647   2.217   1.819   8.329
 7069SOL    HW122648   2.267   1.738   8.331
 7069SOL    HW222649   2.282   1.889   8.339
 7070SOL     OW22650   3.662   1.022   8.326
 7070SOL    HW122651   3.615   1.035   8.244
 7070SOL    HW222652   3.598   1.043   8.394
 7071SOL     OW22653   3.085   1.542   8.962
 7071SOL    HW122654   3.074   1.465   9.019
 7071SOL    HW222655   3.027   1.525   8.888
 7072SOL     OW22656   2.175   0.963   7.704
 7072SOL    HW122657   2.261   0.987   7.669
 7072SOL    HW222658   2.147   0.890   7.648
 7073SOL     OW22659   3.352   0.746   8.169
 7073SOL    HW122660   3.350   0.719   8.261
 7073SOL    HW222661   3.426   0.806   8.162
 7074SOL     OW22662   2.328   1.274   9.195
 7074SOL    HW122663   2.305   1.279   9.102
 7074SOL    HW222664   2.244   1.269   9.240
 7075SOL     OW22665   2.982   1.772   7.680
 7075SOL    HW122666   2.905   1.731   7.719
 7075SOL    HW222667   3.011   1.710   7.613
 7076SOL     OW22668   2.022   0.231   8.945
 7076SOL    HW122669   1.959   0.300   8.923
 7076SOL    HW222670   2.094   0.277   8.987
 7077SOL     OW22671   3.498   1.380   7.552
 7077SOL    HW122672   3.460   1.466   7.534
 7077SOL    HW222673   3.431   1.318   7.524
 7078SOL     OW22674   2.319   1.742   7.765
 7078SOL    HW122675   2.371   1.797   7.825
 7078SOL    HW222676   2.382   1.708   7.702
 7079SOL     OW22677   3.274   0.125   7.870
 7079SOL    HW122678   3.275   0.084   7.784
 7079SOL    HW222679   3.367   0.137   7.892
 7080SOL     OW22680   2.114   1.782   8.670
 7080SOL    HW122681   2.172   1.715   8.705
 7080SOL    HW222682   2.118   1.771   8.575
 7081SOL     OW22683   2.809   1.697   8.354
 7081SOL    HW122684   2.896   1.658   8.345
 7081SOL    HW222685   2.757   1.654   8.285
 7082SOL     OW22686   2.260   0.693   7.920
 7082SOL    HW122687   2.265   0.598   7.933
 7082SOL    HW222688   2.167   0.714   7.929
 7083SOL     OW22689   3.376   0.238   9.173
 7083SOL    HW122690   3.385   0.253   9.267
 7083SOL    HW222691   3.323   0.158   9.167
 7084SOL     OW22692   2.416   0.098   7.578
 7084SOL    HW122693   2.508   0.080   7.596
 7084SOL    HW222694   2.400   0.056   7.494
 7085SOL     OW22695   2.619   0.271   9.248
 7085SOL    HW122696   2.687   0.283   9.182
 7085SOL    HW222697   2.584   0.359   9.263
 7086SOL     OW22698   2.727   1.509   8.648
 7086SOL    HW122699   2.719   1.484   8.556
 7086SOL    HW222700   2.809   1.468   8.677
 7087SOL     OW22701   3.198   0.597   8.879
 7087SOL    HW122702   3.242   0.572   8.960
 7087SOL    HW222703   3.232   0.684   8.859
 7088SOL     OW22704   2.681   1.375   8.393
 7088SOL    HW122705   2.768   1.374   8.354
 7088SOL    HW222706   2.622   1.396   8.320
 7089SOL     OW22707   2.783   0.512   8.335
 7089SOL    HW122708   2.748   0.501   8.246
 7089SOL    HW222709   2.825   0.428   8.355
 7090SOL     OW22710   2.451   0.062   7.912
 7090SOL    HW122711   2.372   0.023   7.948
 7090SOL    HW222712   2.420   0.139   7.864
 7091SOL     OW22713   3.301   1.199   7.488
 7091SOL    HW122714   3.321   1.125   7.545
 7091SOL    HW222715   3.216   1.231   7.519
 7092SOL     OW22716   2.149   0.049   7.666
 7092SOL    HW122717   2.229   0.078   7.623
 7092SOL    HW222718   2.176  -0.024   7.722
 7093SOL     OW22719   2.809   0.262   7.903
 7093SOL    HW122720   2.782   0.293   7.816
 7093SOL    HW222721   2.904   0.275   7.904
 7094SOL     OW22722   2.939   0.685   8.907
 7094SOL    HW122723   2.881   0.609   8.914
 7094SOL    HW222724   3.027   0.647   8.898
 7095SOL     OW22725   3.066   1.599   8.256
 7095SOL    HW122726   3.079   1.651   8.176
 7095SOL    HW222727   3.143   1.619   8.310
 7096SOL     OW22728   2.332   1.148   8.167
 7096SOL    HW122729   2.262   1.132   8.230
 7096SOL    HW222730   2.290   1.140   8.082
 7097SOL     OW22731   3.123   1.801   8.065
 7097SOL    HW122732   3.178   1.856   8.009
 7097SOL    HW222733   3.056   1.860   8.099
 7098SOL     OW22734   2.890   0.532   7.472
 7098SOL    HW122735   2.846   0.615   7.453
 7098SOL    HW222736   2.951   0.553   7.544
 7099SOL     OW22737   1.954   0.552   8.842
 7099SOL    HW122738   2.046   0.536   8.820
 7099SOL    HW222739   1.956   0.625   8.904
 7100SOL     OW22740   2.439   0.228   8.634
 7100SOL    HW122741   2.480   0.181   8.706
 7100SOL    HW222742   2.345   0.224   8.653
 7101SOL     OW22743   2.689   0.436   8.081
 7101SOL    HW122744   2.665   0.506   8.021
 7101SOL    HW222745   2.739   0.374   8.028
 7102SOL     OW22746   2.819   0.036   8.260
 7102SOL    HW122747   2.775   0.041   8.175
 7102SOL    HW222748   2.864  -0.048   8.259
 7103SOL     OW22749   3.311   1.158   8.302
 7103SOL    HW122750   3.227   1.122   8.274
 7103SOL    HW222751   3.359   1.175   8.220
 7104SOL     OW22752   3.325   0.613   8.414
 7104SOL    HW122753   3.274   0.532   8.411
 7104SOL    HW222754   3.383   0.603   8.489
 7105SOL     OW22755   3.703   0.803   7.844
 7105SOL    HW122756   3.768   0.755   7.895
 7105SOL    HW222757   3.684   0.746   7.769
 7106SOL     OW22758   2.344   1.429   7.601
 7106SOL    HW122759   2.271   1.385   7.646
 7106SOL    HW222760   2.376   1.364   7.539
 7107SOL     OW22761   3.530   1.252   8.115
 7107SOL    HW122762   3.625   1.250   8.120
 7107SOL    HW222763   3.507   1.344   8.120
 7108SOL     OW22764   3.254   0.577   7.522
 7108SOL    HW122765   3.194   0.560   7.594
 7108SOL    HW222766   3.341   0.578   7.562
 7109SOL     OW22767   2.378   0.283   7.766
 7109SOL    HW122768   2.393   0.220   7.696
 7109SOL    HW222769   2.361   0.366   7.720
 7110SOL     OW22770   3.612   1.241   9.019
 7110SOL    HW122771   3.698   1.208   8.993
 7110SOL    HW222772   3.627   1.333   9.040
 7111SOL     OW22773   2.918   1.355   8.786
 7111SOL    HW122774   2.842   1.322   8.833
 7111SOL    HW222775   2.992   1.308   8.824
 7112SOL     OW22776   3.473   1.624   9.109
 7112SOL    HW122777   3.462   1.664   9.022
 7112SOL    HW222778   3.557   1.578   9.103
 7113SOL     OW22779   2.998   1.215   8.552
 7113SOL    HW122780   2.937   1.259   8.612
 7113SOL    HW222781   2.978   1.253   8.466
 7114SOL     OW22782   3.477   1.090   8.520
 7114SOL    HW122783   3.467   1.157   8.587
 7114SOL    HW222784   3.409   1.109   8.456
 7115SOL     OW22785   2.780   0.106   8.844
 7115SOL    HW122786   2.791   0.089   8.750
 7115SOL    HW222787   2.867   0.133   8.874
 7116SOL     OW22788   2.846   1.116   9.177
 7116SOL    HW122789   2.754   1.133   9.197
 7116SOL    HW222790   2.844   1.040   9.119
 7117SOL     OW22791   2.564   1.042   7.823
 7117SOL    HW122792   2.557   1.030   7.918
 7117SOL    HW222793   2.643   0.994   7.799
 7118SOL     OW22794   3.123   0.375   8.738
 7118SOL    HW122795   3.158   0.456   8.774
 7118SOL    HW222796   3.035   0.398   8.708
 7119SOL     OW22797   1.942   1.570   8.802
 7119SOL    HW122798   1.918   1.643   8.745
 7119SOL    HW222799   2.038   1.566   8.796
 7120SOL     OW22800   2.188   1.123   7.934
 7120SOL    HW122801   2.201   1.199   7.878
 7120SOL    HW222802   2.190   1.048   7.874
 7121SOL     OW22803   2.375   0.571   8.314
 7121SOL    HW122804   2.402   0.622   8.238
 7121SOL    HW222805   2.448   0.580   8.375
 7122SOL     OW22806   3.100   1.349   7.892
 7122SOL    HW122807   3.155   1.428   7.895
 7122SOL    HW222808   3.081   1.336   7.800
 7123SOL     OW22809   3.158   1.461   8.599
 7123SOL    HW122810   3.215   1.467   8.676
 7123SOL    HW222811   3.106   1.382   8.613
 7124SOL     OW22812   3.435   0.629   7.927
 7124SOL    HW122813   3.387   0.674   7.997
 7124SOL    HW222814   3.479   0.698   7.879
 7125SOL     OW22815   2.211   1.523   8.757
 7125SOL    HW122816   2.201   1.481   8.672
 7125SOL    HW222817   2.305   1.539   8.765
 7126SOL     OW22818   2.267   0.743   9.049
 7126SOL    HW122819   2.269   0.767   8.956
 7126SOL    HW222820   2.353   0.706   9.066
 7127SOL     OW22821   3.475   0.787   9.140
 7127SOL    HW122822   3.388   0.827   9.130
 7127SOL    HW222823   3.527   0.826   9.070
 7128SOL     OW22824   2.883   0.064   9.181
 7128SOL    HW122825   2.933   0.121   9.240
 7128SOL    HW222826   2.873   0.116   9.101
 7129SOL     OW22827   2.296   0.037   9.172
 7129SOL    HW122828   2.370  -0.019   9.151
 7129SOL    HW222829   2.314   0.119   9.125
 7130SOL     OW22830   2.462   0.875   8.490
 7130SOL    HW122831   2.493   0.966   8.493
 7130SOL    HW222832   2.409   0.866   8.570
 7131SOL     OW22833   3.202   0.853   8.476
 7131SOL    HW122834   3.129   0.855   8.415
 7131SOL    HW222835   3.246   0.770   8.458
 7132SOL     OW22836   3.056   0.522   7.705
 7132SOL    HW122837   3.066   0.446   7.763
 7132SOL    HW222838   3.021   0.591   7.760
 7133SOL     OW22839   2.178   0.193   8.699
 7133SOL    HW122840   2.128   0.220   8.776
 7133SOL    HW222841   2.146   0.106   8.678
 7134SOL     OW22842   1.875   1.313   8.729
 7134SOL    HW122843   1.924   1.258   8.791
 7134SOL    HW222844   1.900   1.403   8.752
 7135SOL     OW22845   2.577   0.627   8.492
 7135SOL    HW122846   2.653   0.619   8.435
 7135SOL    HW222847   2.550   0.719   8.484
 7136SOL     OW22848   3.609   0.952   9.319
 7136SOL    HW122849   3.564   0.892   9.260
 7136SOL    HW222850   3.543   0.978   9.383
 7137SOL     OW22851   2.248   0.068   8.125
 7137SOL    HW122852   2.195   0.146   8.144
 7137SOL    HW222853   2.186  -0.005   8.129
 7138SOL     OW22854   3.487   0.402   7.790
 7138SOL    HW122855   3.499   0.330   7.853
 7138SOL    HW222856   3.461   0.476   7.844
 7139SOL     OW22857   2.887   0.756   8.398
 7139SOL    HW122858   2.882   0.770   8.493
 7139SOL    HW222859   2.856   0.667   8.386
 7140SOL     OW22860   2.836   1.556   9.169
 7140SOL    HW122861   2.820   1.606   9.089
 7140SOL    HW222862   2.891   1.483   9.142
 7141SOL     OW22863   3.714   1.499   9.048
 7141SOL    HW122864   3.732   1.531   8.959
 7141SOL    HW222865   3.795   1.516   9.096
 7142SOL     OW22866   2.208   0.908   9.265
 7142SOL    HW122867   2.291   0.935   9.305
 7142SOL    HW222868   2.234   0.849   9.194
 7143SOL     OW22869   3.388   0.257   7.579
 7143SOL    HW122870   3.415   0.172   7.612
 7143SOL    HW222871   3.420   0.320   7.643
 7144SOL     OW22872   3.144   0.830   7.473
 7144SOL    HW122873   3.190   0.746   7.475
 7144SOL    HW222874   3.176   0.874   7.394
 7145SOL     OW22875   2.941   1.348   8.316
 7145SOL    HW122876   2.944   1.279   8.250
 7145SOL    HW222877   2.987   1.422   8.275
 7146SOL     OW22878   2.177   0.828   8.406
 7146SOL    HW122879   2.265   0.831   8.367
 7146SOL    HW222880   2.192   0.797   8.495
 7147SOL     OW22881   2.171   0.479   8.473
 7147SOL    HW122882   2.217   0.399   8.447
 7147SOL    HW222883   2.217   0.549   8.427
 7148SOL     OW22884   3.037   0.395   9.141
 7148SOL    HW122885   2.976   0.446   9.194
 7148SOL    HW222886   3.113   0.453   9.130
 7149SOL     OW22887   3.019   0.220   8.935
 7149SOL    HW122888   3.031   0.276   9.011
 7149SOL    HW222889   3.055   0.270   8.862
 7150SOL     OW22890   1.862   1.318   7.645
 7150SOL    HW122891   1.775   1.338   7.611
 7150SOL    HW222892   1.857   1.228   7.676
 7151SOL     OW22893   1.952   1.780   8.391
 7151SOL    HW122894   1.924   1.703   8.341
 7151SOL    HW222895   2.041   1.797   8.361
 7152SOL     OW22896   2.355   1.576   8.356
 7152SOL    HW122897   2.425   1.638   8.379
 7152SOL    HW222898   2.396   1.516   8.293
 7153SOL     OW22899   2.837   0.776   8.664
 7153SOL    HW122900   2.894   0.758   8.740
 7153SOL    HW222901   2.751   0.791   8.703
 7154SOL     OW22902   1.908   0.539   8.561
 7154SOL    HW122903   1.991   0.532   8.514
 7154SOL    HW222904   1.933   0.548   8.653
 7155SOL     OW22905   2.064   0.518   9.172
 7155SOL    HW122906   2.142   0.499   9.120
 7155SOL    HW222907   2.022   0.592   9.128
 7156SOL     OW22908   3.243   0.930   9.102
 7156SOL    HW122909   3.268   1.023   9.098
 7156SOL    HW222910   3.239   0.903   9.010
 7157SOL     OW22911   2.674   0.565   7.825
 7157SOL    HW122912   2.684   0.498   7.758
 7157SOL    HW222913   2.607   0.624   7.790
 7158SOL     OW22914   3.498   0.595   8.625
 7158SOL    HW122915   3.491   0.545   8.706
 7158SOL    HW222916   3.586   0.578   8.593
 7159SOL     OW22917   2.092   1.546   9.168
 7159SOL    HW122918   2.079   1.610   9.238
 7159SOL    HW222919   2.104   1.463   9.213
 7160SOL     OW22920   2.583   0.459   8.702
 7160SOL    HW122921   2.523   0.389   8.678
 7160SOL    HW222922   2.572   0.524   8.633
 7161SOL     OW22923   2.766   1.681   8.930
 7161SOL    HW122924   2.754   1.638   8.845
 7161SOL    HW222925   2.772   1.774   8.909
 7162SOL     OW22926   2.321   0.504   7.626
 7162SOL    HW122927   2.379   0.576   7.647
 7162SOL    HW222928   2.235   0.544   7.617
 7163SOL     OW22929   1.992   1.150   8.925
 7163SOL    HW122930   2.003   1.105   9.009
 7163SOL    HW222931   2.008   1.082   8.860
 7164SOL     OW22932   3.171   1.040   8.669
 7164SOL    HW122933   3.193   0.977   8.600
 7164SOL    HW222934   3.110   1.101   8.627
 7165SOL     OW22935   3.186   0.840   7.747
 7165SOL    HW122936   3.105   0.843   7.798
 7165SOL    HW222937   3.156   0.844   7.656
 7166SOL     OW22938   3.642   1.726   8.610
 7166SOL    HW122939   3.703   1.759   8.545
 7166SOL    HW222940   3.615   1.641   8.577
 7167SOL     OW22941   3.106   1.733   8.560
 7167SOL    HW122942   3.185   1.762   8.515
 7167SOL    HW222943   3.119   1.638   8.572
 7168SOL     OW22944   1.941   1.267   8.461
 7168SOL    HW122945   1.914   1.278   8.552
 7168SOL    HW222946   1.880   1.202   8.425
 7169SOL     OW22947   2.547   1.675   9.190
 7169SOL    HW122948   2.487   1.748   9.178
 7169SOL    HW222949   2.617   1.691   9.127
 7170SOL     OW22950   3.546   0.165   7.929
 7170SOL    HW122951   3.602   0.151   7.852
 7170SOL    HW222952   3.599   0.135   8.003
 7171SOL     OW22953   3.260   1.577   7.944
 7171SOL    HW122954   3.317   1.606   7.873
 7171SOL    HW222955   3.208   1.654   7.966
 7172SOL     OW22956   1.996   1.797   9.291
 7172SOL    HW122957   1.951   1.727   9.338
 7172SOL    HW222958   2.047   1.842   9.359
 7173SOL     OW22959   3.142   0.914   8.112
 7173SOL    HW122960   3.220   0.859   8.124
 7173SOL    HW222961   3.174   0.992   8.067
 7174SOL     OW22962   2.665   1.276   8.877
 7174SOL    HW122963   2.634   1.319   8.957
 7174SOL    HW222964   2.609   1.311   8.808
 7175SOL     OW22965   2.526   1.632   7.614
 7175SOL    HW122966   2.551   1.644   7.522
 7175SOL    HW222967   2.478   1.549   7.614
 7176SOL     OW22968   3.477   1.725   8.840
 7176SOL    HW122969   3.533   1.729   8.762
 7176SOL    HW222970   3.463   1.816   8.865
 7177SOL     OW22971   3.711   0.178   8.405
 7177SOL    HW122972   3.714   0.084   8.387
 7177SOL    HW222973   3.626   0.207   8.371
 7178SOL     OW22974   2.112   0.309   8.193
 7178SOL    HW122975   2.106   0.391   8.144
 7178SOL    HW222976   2.183   0.324   8.255
 7179SOL     OW22977   3.072   1.598   7.488
 7179SOL    HW122978   3.057   1.509   7.519
 7179SOL    HW222979   3.010   1.610   7.417
 7180SOL     OW22980   2.695   1.012   8.814
 7180SOL    HW122981   2.715   1.021   8.721
 7180SOL    HW222982   2.682   1.102   8.844
 7181SOL     OW22983   2.775   0.898   7.750
 7181SOL    HW122984   2.824   0.934   7.676
 7181SOL    HW222985   2.835   0.835   7.790
 7182SOL     OW22986   3.356   1.619   7.497
 7182SOL    HW122987   3.262   1.613   7.484
 7182SOL    HW222988   3.392   1.630   7.408
 7183SOL     OW22989   2.224   1.309   8.950
 7183SOL    HW122990   2.225   1.381   8.886
 7183SOL    HW222991   2.148   1.257   8.926
 7184SOL     OW22992   3.464   1.285   8.713
 7184SOL    HW122993   3.547   1.285   8.760
 7184SOL    HW222994   3.411   1.351   8.758
 7185SOL     OW22995   2.933   1.113   8.180
 7185SOL    HW122996   2.856   1.063   8.205
 7185SOL    HW222997   2.983   1.053   8.124
 7186SOL     OW22998   2.896   0.267   8.400
 7186SOL    HW122999   2.876   0.211   8.324
 7186SOL    HW223000   2.898   0.207   8.474
 7187SOL     OW23001   2.447   1.480   7.932
 7187SOL    HW123002   2.506   1.425   7.880
 7187SOL    HW223003   2.406   1.538   7.868
 7188SOL     OW23004   3.591   0.412   8.841
 7188SOL    HW123005   3.662   0.476   8.845
 7188SOL    HW223006   3.622   0.347   8.777
 7189SOL     OW23007   2.117   1.329   7.736
 7189SOL    HW123008   2.025   1.332   7.710
 7189SOL    HW223009   2.120   1.376   7.819
 7190SOL     OW23010   1.982   1.045   9.186
 7190SOL    HW123011   1.905   1.013   9.231
 7190SOL    HW223012   2.054   0.993   9.221
 7191SOL     OW23013   2.516   0.202   8.949
 7191SOL    HW123014   2.585   0.153   8.905
 7191SOL    HW223015   2.558   0.239   9.027
 7192SOL     OW23016   1.938   0.336   7.471
 7192SOL    HW123017   1.860   0.330   7.415
 7192SOL    HW223018   1.981   0.417   7.444
 7193SOL     OW23019   3.282   0.857   8.840
 7193SOL    HW123020   3.231   0.918   8.788
 7193SOL    HW223021   3.371   0.862   8.804
 7194SOL     OW23022   1.944   0.190   7.787
 7194SOL    HW123023   1.922   0.254   7.719
 7194SOL    HW223024   2.015   0.138   7.749
 7195SOL     OW23025   2.537   0.800   8.905
 7195SOL    HW123026   2.579   0.884   8.886
 7195SOL    HW223027   2.459   0.799   8.848
 7196SOL     OW23028   3.341   1.786   8.421
 7196SOL    HW123029   3.348   1.857   8.358
 7196SOL    HW223030   3.429   1.780   8.460
 7197SOL     OW23031   2.578   0.543   9.204
 7197SOL    HW123032   2.619   0.619   9.245
 7197SOL    HW223033   2.610   0.544   9.114
 7198SOL     OW23034   3.341   1.186   9.073
 7198SOL    HW123035   3.331   1.208   9.165
 7198SOL    HW223036   3.432   1.210   9.052
 7199SOL     OW23037   2.224   1.747   9.017
 7199SOL    HW123038   2.143   1.795   8.999
 7199SOL    HW223039   2.196   1.662   9.050
 7200SOL     OW23040   3.520   0.880   8.701
 7200SOL    HW123041   3.517   0.798   8.653
 7200SOL    HW223042   3.509   0.948   8.634
 7201SOL     OW23043   3.078   0.317   7.900
 7201SOL    HW123044   3.145   0.249   7.889
 7201SOL    HW223045   3.106   0.367   7.976
 7202SOL     OW23046   2.450   0.734   8.114
 7202SOL    HW123047   2.491   0.820   8.104
 7202SOL    HW223048   2.388   0.728   8.041
 7203SOL     OW23049   3.615   0.365   9.113
 7203SOL    HW123050   3.611   0.383   9.019
 7203SOL    HW223051   3.534   0.318   9.131
 7204SOL     OW23052   3.614   0.930   8.957
 7204SOL    HW123053   3.605   1.025   8.972
 7204SOL    HW223054   3.593   0.918   8.865
 7205SOL     OW23055   2.690   1.381   7.478
 7205SOL    HW123056   2.756   1.373   7.547
 7205SOL    HW223057   2.727   1.447   7.418
 7206SOL     OW23058   2.526   1.783   8.399
 7206SOL    HW123059   2.509   1.872   8.368
 7206SOL    HW223060   2.619   1.769   8.382
 7207SOL     OW23061   2.729   0.970   8.303
 7207SOL    HW123062   2.783   0.899   8.338
 7207SOL    HW223063   2.693   1.013   8.381
 7208SOL     OW23064   2.915   0.973   7.533
 7208SOL    HW123065   2.929   1.068   7.527
 7208SOL    HW223066   2.996   0.934   7.502
 7209SOL     OW23067   3.706   1.546   8.285
 7209SOL    HW123068   3.634   1.552   8.223
 7209SOL    HW223069   3.666   1.513   8.365
 7210SOL     OW23070   2.074   1.290   9.295
 7210SOL    HW123071   2.035   1.216   9.250
 7210SOL    HW223072   2.021   1.303   9.374
 7211SOL     OW23073   1.953   1.210   8.115
 7211SOL    HW123074   2.001   1.170   8.189
 7211SOL    HW223075   2.013   1.201   8.041
 7212SOL     OW23076   2.551   1.406   9.089
 7212SOL    HW123077   2.466   1.375   9.120
 7212SOL    HW223078   2.555   1.497   9.117
 7213SOL     OW23079   3.689   0.223   8.679
 7213SOL    HW123080   3.627   0.151   8.676
 7213SOL    HW223081   3.713   0.238   8.587
 7214SOL     OW23082   2.262   0.423   7.972
 7214SOL    HW123083   2.302   0.381   7.896
 7214SOL    HW223084   2.277   0.362   8.044
 7215SOL     OW23085   3.564   1.478   8.516
 7215SOL    HW123086   3.480   1.466   8.471
 7215SOL    HW223087   3.562   1.413   8.587
 7216SOL     OW23088   2.205   0.498   8.756
 7216SOL    HW123089   2.239   0.587   8.756
 7216SOL    HW223090   2.201   0.474   8.663
 7217SOL     OW23091   2.670   1.603   8.146
 7217SOL    HW123092   2.703   1.642   8.065
 7217SOL    HW223093   2.618   1.528   8.118
 7218SOL     OW23094   3.275   0.207   8.576
 7218SOL    HW123095   3.349   0.166   8.619
 7218SOL    HW223096   3.232   0.259   8.644
 7219SOL     OW23097   2.895   0.069   8.583
 7219SOL    HW123098   2.842  -0.009   8.572
 7219SOL    HW223099   2.985   0.037   8.595
 7220SOL     OW23100   2.614   1.321   7.798
 7220SOL    HW123101   2.615   1.226   7.792
 7220SOL    HW223102   2.699   1.344   7.835
 7221SOL     OW23103   2.480   1.557   8.742
 7221SOL    HW123104   2.481   1.642   8.785
 7221SOL    HW223105   2.568   1.549   8.704
 7222SOL     OW23106   3.242   7.995   7.620
 7222SOL    HW123107   3.264   7.903   7.606
 7222SOL    HW223108   3.150   8.003   7.595
 7223SOL     OW23109   3.147   0.460   8.122
 7223SOL    HW123110   3.100   0.543   8.126
 7223SOL    HW223111   3.160   0.435   8.213
 7224SOL     OW23112   3.465   0.237   8.321
 7224SOL    HW123113   3.375   0.229   8.352
 7224SOL    HW223114   3.464   0.312   8.262
 7225SOL     OW23115   1.898   1.065   7.761
 7225SOL    HW123116   1.992   1.064   7.745
 7225SOL    HW223117   1.875   0.973   7.777
 7226SOL     OW23118   2.749   1.663   7.792
 7226SOL    HW123119   2.676   1.650   7.731
 7226SOL    HW223120   2.724   1.740   7.843
 7227SOL     OW23121   2.078   0.625   9.438
 7227SOL    HW123122   1.988   0.621   9.468
 7227SOL    HW223123   2.073   0.607   9.344
 7228SOL     OW23124   2.072   0.317  10.304
 7228SOL    HW123125   2.147   0.258  10.293
 7228SOL    HW223126   1.996   0.261  10.285
 7229SOL     OW23127   1.872   0.405   9.928
 7229SOL    HW123128   1.783   0.407   9.963
 7229SOL    HW223129   1.866   0.348   9.851
 7230SOL     OW23130   2.430   1.302  10.501
 7230SOL    HW123131   2.349   1.309  10.451
 7230SOL    HW223132   2.449   1.391  10.529
 7231SOL     OW23133   3.443   1.512  10.011
 7231SOL    HW123134   3.395   1.491  10.091
 7231SOL    HW223135   3.376   1.520   9.943
 7232SOL     OW23136   2.996   0.704  10.005
 7232SOL    HW123137   3.044   0.785   9.990
 7232SOL    HW223138   2.948   0.719  10.087
 7233SOL     OW23139   3.643   0.600   9.534
 7233SOL    HW123140   3.614   0.599   9.443
 7233SOL    HW223141   3.603   0.522   9.573
 7234SOL     OW23142   2.604   1.136  10.366
 7234SOL    HW123143   2.539   1.177  10.423
 7234SOL    HW223144   2.642   1.209  10.317
 7235SOL     OW23145   2.741   0.753  11.130
 7235SOL    HW123146   2.729   0.823  11.194
 7235SOL    HW223147   2.762   0.798  11.049
 7236SOL     OW23148   2.548   0.994   9.954
 7236SOL    HW123149   2.614   0.990  10.023
 7236SOL    HW223150   2.480   1.052   9.989
 7237SOL     OW23151   2.577   1.150  11.136
 7237SOL    HW123152   2.627   1.226  11.167
 7237SOL    HW223153   2.499   1.188  11.095
 7238SOL     OW23154   2.196   1.411  10.375
 7238SOL    HW123155   2.122   1.372  10.328
 7238SOL    HW223156   2.240   1.465  10.309
 7239SOL     OW23157   3.327   1.495  10.675
 7239SOL    HW123158   3.382   1.573  10.672
 7239SOL    HW223159   3.269   1.509  10.750
 7240SOL     OW23160   2.291   0.361  10.777
 7240SOL    HW123161   2.383   0.340  10.798
 7240SOL    HW223162   2.258   0.281  10.735
 7241SOL     OW23163   3.469   0.461  10.032
 7241SOL    HW123164   3.405   0.481   9.964
 7241SOL    HW223165   3.488   0.546  10.073
 7242SOL     OW23166   2.085   1.716   9.772
 7242SOL    HW123167   2.108   1.789   9.829
 7242SOL    HW223168   2.159   1.709   9.711
 7243SOL     OW23169   3.023   1.319  11.016
 7243SOL    HW123170   3.070   1.283  11.091
 7243SOL    HW223171   2.957   1.253  10.996
 7244SOL     OW23172   2.091   1.451   9.848
 7244SOL    HW123173   2.081   1.545   9.838
 7244SOL    HW223174   2.033   1.428   9.921
 7245SOL     OW23175   2.126   1.094  10.195
 7245SOL    HW123176   2.128   1.005  10.230
 7245SOL    HW223177   2.069   1.142  10.255
 7246SOL     OW23178   2.468   1.787  10.756
 7246SOL    HW123179   2.380   1.775  10.793
 7246SOL    HW223180   2.488   1.879  10.771
 7247SOL     OW23181   2.437   0.989   9.454
 7247SOL    HW123182   2.485   1.035   9.385
 7247SOL    HW223183   2.478   1.019   9.536
 7248SOL     OW23184   3.499   0.122  10.814
 7248SOL    HW123185   3.505   0.153  10.723
 7248SOL    HW223186   3.443   0.187  10.857
 7249SOL     OW23187   1.987   0.658   9.874
 7249SOL    HW123188   1.953   0.571   9.891
 7249SOL    HW223189   1.976   0.705   9.956
 7250SOL     OW23190   3.707   1.754   9.646
 7250SOL    HW123191   3.784   1.733   9.698
 7250SOL    HW223192   3.723   1.844   9.616
 7251SOL     OW23193   1.904   1.589   9.434
 7251SOL    HW123194   1.888   1.497   9.454
 7251SOL    HW223195   1.877   1.635   9.514
 7252SOL     OW23196   3.554   0.917   9.955
 7252SOL    HW123197   3.632   0.872   9.922
 7252SOL    HW223198   3.527   0.974   9.883
 7253SOL     OW23199   3.510   1.103   9.747
 7253SOL    HW123200   3.595   1.101   9.703
 7253SOL    HW223201   3.521   1.166   9.818
 7254SOL     OW23202   1.982   0.761  10.894
 7254SOL    HW123203   2.068   0.802  10.894
 7254SOL    HW223204   1.921   0.832  10.878
 7255SOL     OW23205   2.468   1.390  10.054
 7255SOL    HW123206   2.427   1.304  10.052
 7255SOL    HW223207   2.461   1.423   9.964
 7256SOL     OW23208   3.143   1.234  10.740
 7256SOL    HW123209   3.166   1.170  10.673
 7256SOL    HW223210   3.212   1.225  10.807
 7257SOL     OW23211   2.700   0.042   9.885
 7257SOL    HW123212   2.739   0.117   9.840
 7257SOL    HW223213   2.608   0.042   9.857
 7258SOL     OW23214   2.042   0.958  10.599
 7258SOL    HW123215   2.130   0.922  10.584
 7258SOL    HW223216   1.991   0.930  10.523
 7259SOL     OW23217   3.391   1.003   9.513
 7259SOL    HW123218   3.324   0.944   9.547
 7259SOL    HW223219   3.435   1.037   9.591
 7260SOL     OW23220   3.056   1.806  10.951
 7260SOL    HW123221   3.056   1.881  10.892
 7260SOL    HW223222   3.068   1.730  10.894
 7261SOL     OW23223   2.164   0.245  11.076
 7261SOL    HW123224   2.231   0.305  11.107
 7261SOL    HW223225   2.086   0.266  11.127
 7262SOL     OW23226   3.329   1.423  10.248
 7262SOL    HW123227   3.262   1.438  10.315
 7262SOL    HW223228   3.317   1.332  10.223
 7263SOL     OW23229   3.517   1.763   9.888
 7263SOL    HW123230   3.505   1.736   9.797
 7263SOL    HW223231   3.501   1.683   9.939
 7264SOL     OW23232   2.460   0.721   9.584
 7264SOL    HW123233   2.462   0.805   9.536
 7264SOL    HW223234   2.393   0.733   9.651
 7265SOL     OW23235   3.157   0.376  10.248
 7265SOL    HW123236   3.066   0.346  10.250
 7265SOL    HW223237   3.203   0.319  10.309
 7266SOL     OW23238   3.443   1.668   9.622
 7266SOL    HW123239   3.535   1.695   9.613
 7266SOL    HW223240   3.412   1.656   9.532
 7267SOL     OW23241   2.639   0.639  10.751
 7267SOL    HW123242   2.624   0.605  10.840
 7267SOL    HW223243   2.622   0.565  10.694
 7268SOL     OW23244   3.278   0.501  10.982
 7268SOL    HW123245   3.285   0.542  11.069
 7268SOL    HW223246   3.323   0.417  10.992
 7269SOL     OW23247   2.808   0.881  10.895
 7269SOL    HW123248   2.861   0.811  10.856
 7269SOL    HW223249   2.760   0.919  10.821
 7270SOL     OW23250   2.860   0.411  10.536
 7270SOL    HW123251   2.769   0.429  10.558
 7270SOL    HW223252   2.857   0.380  10.445
 7271SOL     OW23253   2.919   0.695   9.734
 7271SOL    HW123254   2.937   0.691   9.828
 7271SOL    HW223255   2.834   0.653   9.724
 7272SOL     OW23256   1.948   0.812  10.097
 7272SOL    HW123257   2.030   0.811  10.145
 7272SOL    HW223258   1.902   0.890  10.128
 7273SOL     OW23259   1.980   1.877  10.895
 7273SOL    HW123260   1.986   1.854  10.988
 7273SOL    HW223261   1.900   1.835  10.865
 7274SOL     OW23262   2.754   0.356   9.512
 7274SOL    HW123263   2.802   0.408   9.448
 7274SOL    HW223264   2.727   0.278   9.464
 7275SOL     OW23265   3.557   0.575  11.146
 7275SOL    HW123266   3.529   0.650  11.093
 7275SOL    HW223267   3.587   0.511  11.081
 7276SOL     OW23268   3.240   1.139   9.841
 7276SOL    HW123269   3.322   1.130   9.791
 7276SOL    HW223270   3.190   1.204   9.792
 7277SOL     OW23271   2.327   0.233  10.249
 7277SOL    HW123272   2.382   0.257  10.324
 7277SOL    HW223273   2.382   0.248  10.173
 7278SOL     OW23274   2.863   1.449   9.778
 7278SOL    HW123275   2.831   1.521   9.723
 7278SOL    HW223276   2.833   1.472   9.866
 7279SOL     OW23277   2.216   1.819  10.190
 7279SOL    HW123278   2.265   1.736  10.193
 7279SOL    HW223279   2.283   1.886  10.201
 7280SOL     OW23280   3.661   1.041  10.200
 7280SOL    HW123281   3.620   1.036  10.114
 7280SOL    HW223282   3.588   1.045  10.262
 7281SOL     OW23283   3.096   1.530  10.846
 7281SOL    HW123284   3.088   1.437  10.867
 7281SOL    HW223285   3.047   1.540  10.764
 7282SOL     OW23286   2.174   0.962   9.565
 7282SOL    HW123287   2.258   0.986   9.527
 7282SOL    HW223288   2.145   0.887   9.513
 7283SOL     OW23289   3.343   0.761  10.037
 7283SOL    HW123290   3.346   0.721  10.124
 7283SOL    HW223291   3.423   0.813  10.031
 7284SOL     OW23292   2.334   1.275  11.051
 7284SOL    HW123293   2.309   1.281  10.959
 7284SOL    HW223294   2.252   1.268  11.098
 7285SOL     OW23295   2.986   1.769   9.545
 7285SOL    HW123296   2.906   1.730   9.580
 7285SOL    HW223297   3.012   1.711   9.473
 7286SOL     OW23298   1.995   0.262  10.845
 7286SOL    HW123299   2.014   0.337  10.788
 7286SOL    HW223300   2.066   0.262  10.909
 7287SOL     OW23301   3.485   1.381   9.414
 7287SOL    HW123302   3.451   1.468   9.392
 7287SOL    HW223303   3.419   1.320   9.381
 7288SOL     OW23304   2.329   1.732   9.630
 7288SOL    HW123305   2.376   1.792   9.687
 7288SOL    HW223306   2.395   1.701   9.568
 7289SOL     OW23307   3.281   0.126   9.725
 7289SOL    HW123308   3.287   0.093   9.636
 7289SOL    HW223309   3.372   0.138   9.753
 7290SOL     OW23310   2.118   1.787  10.531
 7290SOL    HW123311   2.168   1.711  10.562
 7290SOL    HW223312   2.106   1.771  10.438
 7291SOL     OW23313   2.809   1.694  10.202
 7291SOL    HW123314   2.897   1.656  10.202
 7291SOL    HW223315   2.763   1.647  10.132
 7292SOL     OW23316   2.263   0.685   9.787
 7292SOL    HW123317   2.280   0.591   9.799
 7292SOL    HW223318   2.168   0.694   9.799
 7293SOL     OW23319   3.372   0.243  11.035
 7293SOL    HW123320   3.384   0.256  11.129
 7293SOL    HW223321   3.342   0.153  11.027
 7294SOL     OW23322   2.462   0.090   9.420
 7294SOL    HW123323   2.538   0.070   9.474
 7294SOL    HW223324   2.497   0.097   9.331
 7295SOL     OW23325   2.609   0.270  11.080
 7295SOL    HW123326   2.702   0.292  11.079
 7295SOL    HW223327   2.587   0.267  11.174
 7296SOL     OW23328   2.731   1.519  10.510
 7296SOL    HW123329   2.720   1.489  10.419
 7296SOL    HW223330   2.808   1.472  10.541
 7297SOL     OW23331   3.200   0.602  10.741
 7297SOL    HW123332   3.241   0.574  10.823
 7297SOL    HW223333   3.236   0.688  10.724
 7298SOL     OW23334   2.679   1.383  10.257
 7298SOL    HW123335   2.765   1.377  10.215
 7298SOL    HW223336   2.618   1.396  10.184
 7299SOL     OW23337   2.782   0.519  10.199
 7299SOL    HW123338   2.753   0.510  10.109
 7299SOL    HW223339   2.822   0.435  10.221
 7300SOL     OW23340   2.454   0.048   9.761
 7300SOL    HW123341   2.379   0.000   9.798
 7300SOL    HW223342   2.415   0.124   9.719
 7301SOL     OW23343   3.288   1.202   9.345
 7301SOL    HW123344   3.316   1.129   9.399
 7301SOL    HW223345   3.204   1.228   9.381
 7302SOL     OW23346   2.811   0.265   9.769
 7302SOL    HW123347   2.784   0.289   9.681
 7302SOL    HW223348   2.906   0.275   9.769
 7303SOL     OW23349   2.940   0.678  10.772
 7303SOL    HW123350   2.886   0.600  10.776
 7303SOL    HW223351   3.029   0.645  10.761
 7304SOL     OW23352   3.068   1.593  10.114
 7304SOL    HW123353   3.082   1.649  10.038
 7304SOL    HW223354   3.148   1.601  10.166
 7305SOL     OW23355   2.334   1.151  10.030
 7305SOL    HW123356   2.266   1.132  10.094
 7305SOL    HW223357   2.291   1.143   9.945
 7306SOL     OW23358   3.122   1.795   9.926
 7306SOL    HW123359   3.178   1.848   9.870
 7306SOL    HW223360   3.056   1.855   9.959
 7307SOL     OW23361   2.892   0.533   9.334
 7307SOL    HW123362   2.845   0.614   9.314
 7307SOL    HW223363   2.952   0.556   9.405
 7308SOL     OW23364   1.976   0.549  10.725
 7308SOL    HW123365   2.062   0.558  10.685
 7308SOL    HW223366   1.966   0.626  10.781
 7309SOL     OW23367   2.433   0.232  10.510
 7309SOL    HW123368   2.478   0.165  10.562
 7309SOL    HW223369   2.340   0.218  10.528
 7310SOL     OW23370   2.710   0.459   9.941
 7310SOL    HW123371   2.683   0.518   9.871
 7310SOL    HW223372   2.749   0.384   9.895
 7311SOL     OW23373   2.815   0.033  10.125
 7311SOL    HW123374   2.771   0.040  10.040
 7311SOL    HW223375   2.865  -0.049  10.119
 7312SOL     OW23376   3.313   1.162  10.160
 7312SOL    HW123377   3.238   1.111  10.128
 7312SOL    HW223378   3.368   1.175  10.082
 7313SOL     OW23379   3.326   0.618  10.279
 7313SOL    HW123380   3.277   0.536  10.270
 7313SOL    HW223381   3.385   0.604  10.352
 7314SOL     OW23382   3.694   0.806   9.705
 7314SOL    HW123383   3.760   0.759   9.757
 7314SOL    HW223384   3.676   0.747   9.631
 7315SOL     OW23385   2.351   1.420   9.454
 7315SOL    HW123386   2.277   1.387   9.506
 7315SOL    HW223387   2.350   1.367   9.374
 7316SOL     OW23388   3.538   1.250   9.977
 7316SOL    HW123389   3.633   1.246   9.981
 7316SOL    HW223390   3.518   1.344   9.977
 7317SOL     OW23391   3.258   0.577   9.383
 7317SOL    HW123392   3.196   0.555   9.452
 7317SOL    HW223393   3.344   0.562   9.422
 7318SOL     OW23394   2.355   0.259   9.609
 7318SOL    HW123395   2.415   0.222   9.544
 7318SOL    HW223396   2.335   0.346   9.576
 7319SOL     OW23397   3.612   1.246  10.891
 7319SOL    HW123398   3.695   1.209  10.861
 7319SOL    HW223399   3.631   1.339  10.907
 7320SOL     OW23400   2.915   1.362  10.654
 7320SOL    HW123401   2.838   1.323  10.695
 7320SOL    HW223402   2.988   1.311  10.687
 7321SOL     OW23403   3.475   1.620  10.962
 7321SOL    HW123404   3.466   1.661  10.876
 7321SOL    HW223405   3.560   1.576  10.959
 7322SOL     OW23406   3.003   1.227  10.413
 7322SOL    HW123407   2.929   1.256  10.466
 7322SOL    HW223408   2.981   1.256  10.324
 7323SOL     OW23409   3.465   1.080  10.386
 7323SOL    HW123410   3.454   1.144  10.456
 7323SOL    HW223411   3.398   1.103  10.321
 7324SOL     OW23412   2.787   0.118  10.716
 7324SOL    HW123413   2.787   0.093  10.624
 7324SOL    HW223414   2.878   0.142  10.735
 7325SOL     OW23415   2.840   1.112  11.031
 7325SOL    HW123416   2.749   1.126  11.056
 7325SOL    HW223417   2.838   1.034  10.975
 7326SOL     OW23418   2.572   1.058   9.684
 7326SOL    HW123419   2.559   1.036   9.776
 7326SOL    HW223420   2.649   1.007   9.658
 7327SOL     OW23421   2.281   0.830  10.565
 7327SOL    HW123422   2.349   0.842  10.631
 7327SOL    HW223423   2.254   0.739  10.574
 7328SOL     OW23424   3.123   0.379  10.606
 7328SOL    HW123425   3.157   0.462  10.639
 7328SOL    HW223426   3.037   0.401  10.571
 7329SOL     OW23427   1.940   1.571  10.667
 7329SOL    HW123428   1.908   1.639  10.608
 7329SOL    HW223429   2.035   1.571  10.656
 7330SOL     OW23430   2.191   1.125   9.796
 7330SOL    HW123431   2.193   1.199   9.735
 7330SOL    HW223432   2.192   1.047   9.740
 7331SOL     OW23433   2.409   0.542  10.170
 7331SOL    HW123434   2.421   0.601  10.095
 7331SOL    HW223435   2.484   0.560  10.227
 7332SOL     OW23436   3.108   1.350   9.704
 7332SOL    HW123437   3.166   1.421   9.730
 7332SOL    HW223438   3.021   1.376   9.735
 7333SOL     OW23439   3.158   1.461  10.457
 7333SOL    HW123440   3.214   1.458  10.534
 7333SOL    HW223441   3.106   1.380  10.462
 7334SOL     OW23442   3.437   0.629   9.795
 7334SOL    HW123443   3.382   0.685   9.849
 7334SOL    HW223444   3.493   0.690   9.746
 7335SOL     OW23445   2.209   1.529  10.614
 7335SOL    HW123446   2.199   1.483  10.531
 7335SOL    HW223447   2.304   1.542  10.623
 7336SOL     OW23448   2.295   0.739  10.927
 7336SOL    HW123449   2.345   0.788  10.862
 7336SOL    HW223450   2.352   0.666  10.951
 7337SOL     OW23451   3.478   0.790  11.000
 7337SOL    HW123452   3.392   0.828  10.989
 7337SOL    HW223453   3.531   0.826  10.928
 7338SOL     OW23454   2.871   0.077  11.035
 7338SOL    HW123455   2.932   0.147  11.057
 7338SOL    HW223456   2.846   0.095  10.944
 7339SOL     OW23457   2.315   0.004  11.091
 7339SOL    HW123458   2.373  -0.018  11.019
 7339SOL    HW223459   2.275   0.088  11.065
 7340SOL     OW23460   2.458   0.875  10.349
 7340SOL    HW123461   2.491   0.965  10.346
 7340SOL    HW223462   2.392   0.876  10.418
 7341SOL     OW23463   3.200   0.856  10.342
 7341SOL    HW123464   3.127   0.853  10.281
 7341SOL    HW223465   3.249   0.775  10.326
 7342SOL     OW23466   3.060   0.526   9.568
 7342SOL    HW123467   3.066   0.446   9.620
 7342SOL    HW223468   3.020   0.590   9.626
 7343SOL     OW23469   2.166   0.179  10.567
 7343SOL    HW123470   2.081   0.220  10.550
 7343SOL    HW223471   2.173   0.109  10.501
 7344SOL     OW23472   1.891   1.310  10.589
 7344SOL    HW123473   1.934   1.257  10.655
 7344SOL    HW223474   1.907   1.400  10.616
 7345SOL     OW23475   2.586   0.630  10.367
 7345SOL    HW123476   2.659   0.619  10.306
 7345SOL    HW223477   2.554   0.719  10.350
 7346SOL     OW23478   3.608   0.961  11.175
 7346SOL    HW123479   3.567   0.895  11.119
 7346SOL    HW223480   3.546   0.974  11.247
 7347SOL     OW23481   2.270   0.073   9.989
 7347SOL    HW123482   2.210   0.148   9.997
 7347SOL    HW223483   2.219   0.007   9.943
 7348SOL     OW23484   3.488   0.399   9.658
 7348SOL    HW123485   3.503   0.326   9.718
 7348SOL    HW223486   3.461   0.471   9.714
 7349SOL     OW23487   2.885   0.763  10.265
 7349SOL    HW123488   2.879   0.776  10.360
 7349SOL    HW223489   2.857   0.673  10.251
 7350SOL     OW23490   2.850   1.564  11.028
 7350SOL    HW123491   2.827   1.619  10.953
 7350SOL    HW223492   2.826   1.476  11.001
 7351SOL     OW23493   3.722   1.506  10.910
 7351SOL    HW123494   3.740   1.528  10.819
 7351SOL    HW223495   3.806   1.518  10.955
 7352SOL     OW23496   2.212   0.912  11.124
 7352SOL    HW123497   2.292   0.934  11.172
 7352SOL    HW223498   2.240   0.847  11.059
 7353SOL     OW23499   3.390   0.262   9.441
 7353SOL    HW123500   3.426   0.177   9.464
 7353SOL    HW223501   3.421   0.321   9.509
 7354SOL     OW23502   3.150   0.827   9.337
 7354SOL    HW123503   3.192   0.742   9.339
 7354SOL    HW223504   3.181   0.867   9.255
 7355SOL     OW23505   2.935   1.346  10.172
 7355SOL    HW123506   2.940   1.275  10.109
 7355SOL    HW223507   2.987   1.417  10.132
 7356SOL     OW23508   2.174   0.817  10.255
 7356SOL    HW123509   2.266   0.832  10.232
 7356SOL    HW223510   2.172   0.728  10.291
 7357SOL     OW23511   2.202   0.546  10.334
 7357SOL    HW123512   2.156   0.464  10.318
 7357SOL    HW223513   2.276   0.545  10.273
 7358SOL     OW23514   3.039   0.375  11.019
 7358SOL    HW123515   2.974   0.432  11.060
 7358SOL    HW223516   3.113   0.433  11.000
 7359SOL     OW23517   3.027   0.218  10.798
 7359SOL    HW123518   3.039   0.272  10.876
 7359SOL    HW223519   3.064   0.271  10.727
 7360SOL     OW23520   1.876   1.314   9.503
 7360SOL    HW123521   1.787   1.333   9.472
 7360SOL    HW223522   1.870   1.226   9.540
 7361SOL     OW23523   1.955   1.778  10.259
 7361SOL    HW123524   1.923   1.703  10.208
 7361SOL    HW223525   2.042   1.795  10.225
 7362SOL     OW23526   2.354   1.577  10.219
 7362SOL    HW123527   2.425   1.638  10.241
 7362SOL    HW223528   2.393   1.515  10.159
 7363SOL     OW23529   2.829   0.781  10.535
 7363SOL    HW123530   2.890   0.763  10.607
 7363SOL    HW223531   2.746   0.744  10.563
 7364SOL     OW23532   1.893   0.541  10.435
 7364SOL    HW123533   1.949   0.505  10.366
 7364SOL    HW223534   1.950   0.547  10.511
 7365SOL     OW23535   2.046   0.538  11.041
 7365SOL    HW123536   2.126   0.518  10.991
 7365SOL    HW223537   2.010   0.616  10.998
 7366SOL     OW23538   3.246   0.934  10.964
 7366SOL    HW123539   3.268   1.026  10.958
 7366SOL    HW223540   3.241   0.904  10.873
 7367SOL     OW23541   2.678   0.572   9.683
 7367SOL    HW123542   2.689   0.501   9.621
 7367SOL    HW223543   2.606   0.624   9.648
 7368SOL     OW23544   3.501   0.600  10.492
 7368SOL    HW123545   3.494   0.541  10.567
 7368SOL    HW223546   3.589   0.584  10.457
 7369SOL     OW23547   2.097   1.547  11.031
 7369SOL    HW123548   2.076   1.611  11.099
 7369SOL    HW223549   2.105   1.464  11.077
 7370SOL     OW23550   2.588   0.451  10.567
 7370SOL    HW123551   2.529   0.378  10.547
 7370SOL    HW223552   2.575   0.512  10.495
 7371SOL     OW23553   2.778   1.685  10.789
 7371SOL    HW123554   2.762   1.637  10.708
 7371SOL    HW223555   2.773   1.777  10.765
 7372SOL     OW23556   2.314   0.500   9.503
 7372SOL    HW123557   2.377   0.571   9.518
 7372SOL    HW223558   2.231   0.545   9.485
 7373SOL     OW23559   1.999   1.147  10.788
 7373SOL    HW123560   2.004   1.103  10.873
 7373SOL    HW223561   2.015   1.077  10.725
 7374SOL     OW23562   3.167   1.045  10.533
 7374SOL    HW123563   3.189   0.980  10.467
 7374SOL    HW223564   3.110   1.107  10.489
 7375SOL     OW23565   3.180   0.850   9.612
 7375SOL    HW123566   3.101   0.822   9.658
 7375SOL    HW223567   3.157   0.843   9.519
 7376SOL     OW23568   3.655   1.735  10.482
 7376SOL    HW123569   3.713   1.761  10.411
 7376SOL    HW223570   3.615   1.653  10.453
 7377SOL     OW23571   3.108   1.734  10.429
 7377SOL    HW123572   3.185   1.763  10.381
 7377SOL    HW223573   3.118   1.639  10.437
 7378SOL     OW23574   1.946   1.263  10.322
 7378SOL    HW123575   1.919   1.276  10.413
 7378SOL    HW223576   1.880   1.203  10.286
 7379SOL     OW23577   2.542   1.683  11.042
 7379SOL    HW123578   2.475   1.751  11.047
 7379SOL    HW223579   2.589   1.701  10.960
 7380SOL     OW23580   3.553   0.165   9.797
 7380SOL    HW123581   3.608   0.146   9.720
 7380SOL    HW223582   3.602   0.129   9.871
 7381SOL     OW23583   3.260   1.568   9.804
 7381SOL    HW123584   3.318   1.598   9.735
 7381SOL    HW223585   3.207   1.644   9.826
 7382SOL     OW23586   2.002   1.795  11.152
 7382SOL    HW123587   1.953   1.727  11.198
 7382SOL    HW223588   2.049   1.842  11.221
 7383SOL     OW23589   3.140   0.936   9.986
 7383SOL    HW123590   3.214   0.876   9.997
 7383SOL    HW223591   3.172   1.002   9.925
 7384SOL     OW23592   2.662   1.281  10.734
 7384SOL    HW123593   2.632   1.323  10.815
 7384SOL    HW223594   2.596   1.305  10.669
 7385SOL     OW23595   2.532   1.622   9.465
 7385SOL    HW123596   2.545   1.641   9.372
 7385SOL    HW223597   2.473   1.546   9.465
 7386SOL     OW23598   3.479   1.725  10.704
 7386SOL    HW123599   3.537   1.728  10.627
 7386SOL    HW223600   3.463   1.817  10.725
 7387SOL     OW23601   3.719   0.166  10.251
 7387SOL    HW123602   3.741   0.113  10.174
 7387SOL    HW223603   3.629   0.195  10.235
 7388SOL     OW23604   2.105   0.290  10.013
 7388SOL    HW123605   2.025   0.336   9.987
 7388SOL    HW223606   2.123   0.321  10.101
 7389SOL     OW23607   3.071   1.603   9.343
 7389SOL    HW123608   3.058   1.510   9.358
 7389SOL    HW223609   3.014   1.624   9.269
 7390SOL     OW23610   2.686   1.011  10.686
 7390SOL    HW123611   2.722   1.001  10.598
 7390SOL    HW223612   2.681   1.106  10.699
 7391SOL     OW23613   2.784   0.912   9.613
 7391SOL    HW123614   2.837   0.942   9.539
 7391SOL    HW223615   2.835   0.842   9.652
 7392SOL     OW23616   3.353   1.627   9.357
 7392SOL    HW123617   3.260   1.621   9.339
 7392SOL    HW223618   3.394   1.635   9.271
 7393SOL     OW23619   2.228   1.310  10.806
 7393SOL    HW123620   2.221   1.382  10.744
 7393SOL    HW223621   2.152   1.255  10.789
 7394SOL     OW23622   3.458   1.268  10.584
 7394SOL    HW123623   3.548   1.278  10.614
 7394SOL    HW223624   3.411   1.341  10.623
 7395SOL     OW23625   2.928   1.116  10.032
 7395SOL    HW123626   2.853   1.064  10.061
 7395SOL    HW223627   2.991   1.052  10.000
 7396SOL     OW23628   2.891   0.270  10.266
 7396SOL    HW123629   2.869   0.219  10.188
 7396SOL    HW223630   2.896   0.206  10.336
 7397SOL     OW23631   2.471   1.496   9.803
 7397SOL    HW123632   2.521   1.440   9.743
 7397SOL    HW223633   2.403   1.535   9.748
 7398SOL     OW23634   3.592   0.408  10.698
 7398SOL    HW123635   3.667   0.468  10.706
 7398SOL    HW223636   3.620   0.342  10.635
 7399SOL     OW23637   2.134   1.334   9.612
 7399SOL    HW123638   2.045   1.335   9.577
 7399SOL    HW223639   2.127   1.382   9.695
 7400SOL     OW23640   1.984   1.048  11.049
 7400SOL    HW123641   1.906   1.016  11.095
 7400SOL    HW223642   2.056   0.995  11.084
 7401SOL     OW23643   2.537   0.228  10.813
 7401SOL    HW123644   2.598   0.161  10.780
 7401SOL    HW223645   2.546   0.222  10.909
 7402SOL     OW23646   1.925   0.348   9.351
 7402SOL    HW123647   1.836   0.325   9.324
 7402SOL    HW223648   1.952   0.415   9.288
 7403SOL     OW23649   3.284   0.863  10.704
 7403SOL    HW123650   3.232   0.922  10.650
 7403SOL    HW223651   3.371   0.863  10.664
 7404SOL     OW23652   1.941   0.241   9.632
 7404SOL    HW123653   1.941   0.296   9.554
 7404SOL    HW223654   1.890   0.163   9.607
 7405SOL     OW23655   3.041   1.328   9.427
 7405SOL    HW123656   2.947   1.312   9.425
 7405SOL    HW223657   3.063   1.331   9.520
 7406SOL     OW23658   2.475   0.848  10.750
 7406SOL    HW123659   2.534   0.922  10.733
 7406SOL    HW223660   2.533   0.772  10.751
 7407SOL     OW23661   3.340   1.793  10.292
 7407SOL    HW123662   3.357   1.863  10.229
 7407SOL    HW223663   3.426   1.751  10.304
 7408SOL     OW23664   2.560   0.572  11.008
 7408SOL    HW123665   2.615   0.629  11.061
 7408SOL    HW223666   2.593   0.484  11.025
 7409SOL     OW23667   3.340   1.194  10.943
 7409SOL    HW123668   3.335   1.205  11.038
 7409SOL    HW223669   3.431   1.213  10.921
 7410SOL     OW23670   2.225   1.744  10.877
 7410SOL    HW123671   2.144   1.792  10.858
 7410SOL    HW223672   2.196   1.661  10.914
 7411SOL     OW23673   3.522   0.875  10.567
 7411SOL    HW123674   3.520   0.789  10.523
 7411SOL    HW223675   3.508   0.938  10.496
 7412SOL     OW23676   3.081   0.317   9.762
 7412SOL    HW123677   3.148   0.250   9.750
 7412SOL    HW223678   3.111   0.367   9.838
 7413SOL     OW23679   2.441   0.740   9.989
 7413SOL    HW123680   2.485   0.823   9.970
 7413SOL    HW223681   2.381   0.728   9.914
 7414SOL     OW23682   3.612   0.368  10.977
 7414SOL    HW123683   3.615   0.380  10.882
 7414SOL    HW223684   3.532   0.319  10.993
 7415SOL     OW23685   3.623   0.931  10.816
 7415SOL    HW123686   3.603   1.024  10.828
 7415SOL    HW223687   3.599   0.912  10.725
 7416SOL     OW23688   2.736   1.373   9.361
 7416SOL    HW123689   2.687   1.421   9.428
 7416SOL    HW223690   2.756   1.438   9.295
 7417SOL     OW23691   2.531   1.781  10.256
 7417SOL    HW123692   2.511   1.870  10.229
 7417SOL    HW223693   2.625   1.771  10.240
 7418SOL     OW23694   2.729   0.974  10.165
 7418SOL    HW123695   2.780   0.901  10.199
 7418SOL    HW223696   2.692   1.015  10.243
 7419SOL     OW23697   2.930   0.977   9.398
 7419SOL    HW123698   2.912   1.037   9.326
 7419SOL    HW223699   3.009   0.929   9.371
 7420SOL     OW23700   3.713   1.552  10.150
 7420SOL    HW123701   3.637   1.545  10.092
 7420SOL    HW223702   3.724   1.464  10.186
 7421SOL     OW23703   2.081   1.292  11.158
 7421SOL    HW123704   2.040   1.218  11.114
 7421SOL    HW223705   2.028   1.306  11.236
 7422SOL     OW23706   1.954   1.222   9.976
 7422SOL    HW123707   1.989   1.177  10.052
 7422SOL    HW223708   2.014   1.202   9.905
 7423SOL     OW23709   2.560   1.413  10.956
 7423SOL    HW123710   2.477   1.371  10.982
 7423SOL    HW223711   2.548   1.505  10.980
 7424SOL     OW23712   3.690   0.220  10.532
 7424SOL    HW123713   3.638   0.140  10.535
 7424SOL    HW223714   3.714   0.230  10.440
 7425SOL     OW23715   2.293   0.417   9.840
 7425SOL    HW123716   2.305   0.360   9.764
 7425SOL    HW223717   2.229   0.372   9.895
 7426SOL     OW23718   3.540   1.501  10.414
 7426SOL    HW123719   3.471   1.480  10.350
 7426SOL    HW223720   3.559   1.418  10.456
 7427SOL     OW23721   2.212   0.567  10.603
 7427SOL    HW123722   2.260   0.497  10.648
 7427SOL    HW223723   2.222   0.548  10.510
 7428SOL     OW23724   2.692   1.596   9.975
 7428SOL    HW123725   2.691   1.673   9.918
 7428SOL    HW223726   2.616   1.544   9.946
 7429SOL     OW23727   3.274   0.218  10.437
 7429SOL    HW123728   3.348   0.172  10.476
 7429SOL    HW223729   3.235   0.266  10.510
 7430SOL     OW23730   2.896   0.072  10.448
 7430SOL    HW123731   2.836  -0.001  10.433
 7430SOL    HW223732   2.982   0.031  10.452
 7431SOL     OW23733   2.626   1.331   9.654
 7431SOL    HW123734   2.605   1.238   9.651
 7431SOL    HW223735   2.718   1.334   9.680
 7432SOL     OW23736   2.482   1.557  10.607
 7432SOL    HW123737   2.484   1.639  10.656
 7432SOL    HW223738   2.568   1.551  10.566
 7433SOL     OW23739   3.247   7.992   9.448
 7433SOL    HW123740   3.275   7.901   9.458
 7433SOL    HW223741   3.153   7.991   9.464
 7434SOL     OW23742   3.150   0.465   9.983
 7434SOL    HW123743   3.101   0.548   9.987
 7434SOL    HW223744   3.159   0.438  10.074
 7435SOL     OW23745   3.472   0.239  10.188
 7435SOL    HW123746   3.384   0.206  10.206
 7435SOL    HW223747   3.459   0.313  10.130
 7436SOL     OW23748   1.902   1.063   9.626
 7436SOL    HW123749   1.995   1.057   9.603
 7436SOL    HW223750   1.876   0.973   9.646
 7437SOL     OW23751   2.746   1.661   9.647
 7437SOL    HW123752   2.672   1.647   9.587
 7437SOL    HW223753   2.720   1.737   9.699
 7438SOL     OW23754   2.072   0.622  11.306
 7438SOL    HW123755   1.984   0.613  11.343
 7438SOL    HW223756   2.061   0.603  11.213
 7439SOL     OW23757   2.091   0.297  12.156
 7439SOL    HW123758   2.121   0.254  12.236
 7439SOL    HW223759   2.009   0.252  12.134
 7440SOL     OW23760   1.875   0.394  11.799
 7440SOL    HW123761   1.788   0.407  11.836
 7440SOL    HW223762   1.859   0.351  11.715
 7441SOL     OW23763   2.404   1.252  12.353
 7441SOL    HW123764   2.325   1.280  12.307
 7441SOL    HW223765   2.440   1.333  12.389
 7442SOL     OW23766   3.442   1.516  11.885
 7442SOL    HW123767   3.400   1.493  11.968
 7442SOL    HW223768   3.370   1.520  11.822
 7443SOL     OW23769   2.994   0.701  11.864
 7443SOL    HW123770   3.042   0.782  11.852
 7443SOL    HW223771   2.947   0.713  11.947
 7444SOL     OW23772   3.646   0.598  11.397
 7444SOL    HW123773   3.616   0.595  11.307
 7444SOL    HW223774   3.608   0.520  11.438
 7445SOL     OW23775   2.606   1.121  12.237
 7445SOL    HW123776   2.529   1.159  12.279
 7445SOL    HW223777   2.643   1.193  12.186
 7446SOL     OW23778   2.547   0.990  11.816
 7446SOL    HW123779   2.614   0.988  11.884
 7446SOL    HW223780   2.480   1.049  11.850
 7447SOL     OW23781   2.203   1.408  12.234
 7447SOL    HW123782   2.123   1.373  12.195
 7447SOL    HW223783   2.240   1.465  12.166
 7448SOL     OW23784   3.469   0.435  11.905
 7448SOL    HW123785   3.403   0.465  11.843
 7448SOL    HW223786   3.479   0.509  11.966
 7449SOL     OW23787   2.083   1.716  11.637
 7449SOL    HW123788   2.104   1.791  11.693
 7449SOL    HW223789   2.156   1.709  11.577
 7450SOL     OW23790   2.091   1.449  11.713
 7450SOL    HW123791   2.076   1.544  11.708
 7450SOL    HW223792   2.033   1.419  11.783
 7451SOL     OW23793   2.132   1.095  12.056
 7451SOL    HW123794   2.129   1.006  12.093
 7451SOL    HW223795   2.076   1.146  12.114
 7452SOL     OW23796   2.436   0.987  11.318
 7452SOL    HW123797   2.486   1.030  11.248
 7452SOL    HW223798   2.477   1.019  11.398
 7453SOL     OW23799   1.983   0.662  11.735
 7453SOL    HW123800   1.958   0.572  11.759
 7453SOL    HW223801   1.973   0.712  11.817
 7454SOL     OW23802   3.708   1.752  11.503
 7454SOL    HW123803   3.780   1.731  11.561
 7454SOL    HW223804   3.722   1.844  11.480
 7455SOL     OW23805   1.906   1.586  11.292
 7455SOL    HW123806   1.887   1.495  11.312
 7455SOL    HW223807   1.879   1.635  11.369
 7456SOL     OW23808   3.552   0.917  11.823
 7456SOL    HW123809   3.638   0.877  11.811
 7456SOL    HW223810   3.537   0.965  11.741
 7457SOL     OW23811   3.516   1.102  11.604
 7457SOL    HW123812   3.603   1.101  11.564
 7457SOL    HW223813   3.524   1.165  11.676
 7458SOL     OW23814   2.047   0.768   0.235
 7458SOL    HW123815   2.018   0.722   0.314
 7458SOL    HW223816   1.968   0.810   0.201
 7459SOL     OW23817   2.475   1.397  11.898
 7459SOL    HW123818   2.431   1.312  11.906
 7459SOL    HW223819   2.459   1.424  11.808
 7460SOL     OW23820   2.693   0.053  11.712
 7460SOL    HW123821   2.745   0.127  11.680
 7460SOL    HW223822   2.614   0.093  11.750
 7461SOL     OW23823   2.087   0.993  12.473
 7461SOL    HW123824   2.144   0.930  12.428
 7461SOL    HW223825   2.000   0.952  12.471
 7462SOL     OW23826   3.400   0.997  11.375
 7462SOL    HW123827   3.330   0.940  11.407
 7462SOL    HW223828   3.442   1.029  11.455
 7463SOL     OW23829   3.334   1.415  12.117
 7463SOL    HW123830   3.266   1.431  12.183
 7463SOL    HW223831   3.318   1.325  12.089
 7464SOL     OW23832   3.512   1.764  11.751
 7464SOL    HW123833   3.496   1.722  11.666
 7464SOL    HW223834   3.503   1.694  11.815
 7465SOL     OW23835   2.457   0.719  11.448
 7465SOL    HW123836   2.458   0.804  11.403
 7465SOL    HW223837   2.392   0.728  11.517
 7466SOL     OW23838   3.151   0.377  12.110
 7466SOL    HW123839   3.061   0.343  12.110
 7466SOL    HW223840   3.196   0.324  12.176
 7467SOL     OW23841   3.451   1.658  11.492
 7467SOL    HW123842   3.538   1.697  11.486
 7467SOL    HW223843   3.448   1.593  11.422
 7468SOL     OW23844   2.855   0.370  12.370
 7468SOL    HW123845   2.806   0.423  12.432
 7468SOL    HW223846   2.797   0.361  12.294
 7469SOL     OW23847   2.916   0.697  11.595
 7469SOL    HW123848   2.935   0.693  11.688
 7469SOL    HW223849   2.832   0.654  11.585
 7470SOL     OW23850   1.944   0.826  11.953
 7470SOL    HW123851   2.026   0.820  12.002
 7470SOL    HW223852   1.898   0.900  11.992
 7471SOL     OW23853   2.761   0.344  11.365
 7471SOL    HW123854   2.807   0.404  11.307
 7471SOL    HW223855   2.794   0.257  11.341
 7472SOL     OW23856   3.244   1.140  11.706
 7472SOL    HW123857   3.326   1.130  11.656
 7472SOL    HW223858   3.193   1.204  11.655
 7473SOL     OW23859   2.409   0.257  12.068
 7473SOL    HW123860   2.397   0.252  12.163
 7473SOL    HW223861   2.404   0.351  12.048
 7474SOL     OW23862   2.857   1.446  11.639
 7474SOL    HW123863   2.828   1.522  11.588
 7474SOL    HW223864   2.833   1.467  11.729
 7475SOL     OW23865   2.217   1.818  12.042
 7475SOL    HW123866   2.262   1.734  12.051
 7475SOL    HW223867   2.284   1.883  12.062
 7476SOL     OW23868   3.661   1.054  12.051
 7476SOL    HW123869   3.609   1.034  11.974
 7476SOL    HW223870   3.597   1.060  12.122
 7477SOL     OW23871   2.171   0.963  11.429
 7477SOL    HW123872   2.255   0.984  11.388
 7477SOL    HW223873   2.143   0.882  11.385
 7478SOL     OW23874   3.342   0.755  11.891
 7478SOL    HW123875   3.342   0.713  11.977
 7478SOL    HW223876   3.421   0.809  11.890
 7479SOL     OW23877   2.980   1.746  11.349
 7479SOL    HW123878   2.928   1.707  11.419
 7479SOL    HW223879   2.916   1.792  11.295
 7480SOL     OW23880   3.475   1.392  11.276
 7480SOL    HW123881   3.441   1.461  11.218
 7480SOL    HW223882   3.418   1.317  11.260
 7481SOL     OW23883   2.326   1.736  11.489
 7481SOL    HW123884   2.371   1.792  11.552
 7481SOL    HW223885   2.395   1.703  11.432
 7482SOL     OW23886   3.280   0.122  11.594
 7482SOL    HW123887   3.280   0.083  11.507
 7482SOL    HW223888   3.373   0.127  11.618
 7483SOL     OW23889   2.121   1.767  12.401
 7483SOL    HW123890   2.072   1.717  12.466
 7483SOL    HW223891   2.077   1.747  12.318
 7484SOL     OW23892   2.809   1.693  12.070
 7484SOL    HW123893   2.891   1.646  12.080
 7484SOL    HW223894   2.762   1.646  12.001
 7485SOL     OW23895   2.261   0.692  11.647
 7485SOL    HW123896   2.277   0.599  11.662
 7485SOL    HW223897   2.167   0.703  11.660
 7486SOL     OW23898   2.453   0.122  11.293
 7486SOL    HW123899   2.529   0.076  11.328
 7486SOL    HW223900   2.425   0.069  11.218
 7487SOL     OW23901   2.670   1.348  12.103
 7487SOL    HW123902   2.759   1.361  12.071
 7487SOL    HW223903   2.613   1.374  12.030
 7488SOL     OW23904   2.784   0.510  12.058
 7488SOL    HW123905   2.748   0.500  11.970
 7488SOL    HW223906   2.827   0.427  12.076
 7489SOL     OW23907   2.386   0.033  11.617
 7489SOL    HW123908   2.417   0.075  11.697
 7489SOL    HW223909   2.381   0.104  11.553
 7490SOL     OW23910   3.289   1.195  11.220
 7490SOL    HW123911   3.328   1.118  11.261
 7490SOL    HW223912   3.209   1.211  11.270
 7491SOL     OW23913   2.172   0.032  11.397
 7491SOL    HW123914   2.238   0.097  11.372
 7491SOL    HW223915   2.168  -0.028  11.323
 7492SOL     OW23916   2.818   0.273  11.626
 7492SOL    HW123917   2.791   0.300  11.539
 7492SOL    HW223918   2.914   0.284  11.626
 7493SOL     OW23919   3.077   1.582  11.971
 7493SOL    HW123920   3.090   1.643  11.898
 7493SOL    HW223921   3.152   1.597  12.028
 7494SOL     OW23922   2.338   1.156  11.890
 7494SOL    HW123923   2.272   1.136  11.957
 7494SOL    HW223924   2.291   1.146  11.807
 7495SOL     OW23925   3.121   1.792  11.783
 7495SOL    HW123926   3.173   1.855  11.734
 7495SOL    HW223927   3.053   1.844  11.825
 7496SOL     OW23928   2.886   0.525  11.198
 7496SOL    HW123929   2.843   0.608  11.176
 7496SOL    HW223930   2.950   0.548  11.266
 7497SOL     OW23931   2.418   0.239  12.351
 7497SOL    HW123932   2.455   0.197  12.428
 7497SOL    HW223933   2.323   0.236  12.364
 7498SOL     OW23934   2.697   0.446  11.802
 7498SOL    HW123935   2.669   0.510  11.736
 7498SOL    HW223936   2.746   0.381  11.754
 7499SOL     OW23937   2.846   8.029  11.938
 7499SOL    HW123938   2.794   8.033  11.857
 7499SOL    HW223939   2.848   7.936  11.960
 7500SOL     OW23940   3.300   1.157  12.026
 7500SOL    HW123941   3.234   1.089  12.019
 7500SOL    HW223942   3.333   1.168  11.937
 7501SOL     OW23943   3.323   0.613  12.130
 7501SOL    HW123944   3.269   0.535  12.135
 7501SOL    HW223945   3.386   0.604  12.202
 7502SOL     OW23946   3.695   0.809  11.559
 7502SOL    HW123947   3.756   0.764  11.617
 7502SOL    HW223948   3.676   0.745  11.490
 7503SOL     OW23949   2.353   1.424  11.321
 7503SOL    HW123950   2.279   1.394  11.373
 7503SOL    HW223951   2.347   1.372  11.240
 7504SOL     OW23952   3.544   1.263  11.817
 7504SOL    HW123953   3.638   1.258  11.832
 7504SOL    HW223954   3.521   1.353  11.839
 7505SOL     OW23955   3.258   0.578  11.244
 7505SOL    HW123956   3.196   0.555  11.313
 7505SOL    HW223957   3.344   0.557  11.281
 7506SOL     OW23958   2.372   0.281  11.487
 7506SOL    HW123959   2.414   0.231  11.416
 7506SOL    HW223960   2.348   0.364  11.447
 7507SOL     OW23961   2.966   1.239  12.289
 7507SOL    HW123962   2.885   1.264  12.333
 7507SOL    HW223963   2.955   1.269  12.199
 7508SOL     OW23964   3.469   1.095  12.245
 7508SOL    HW123965   3.440   1.134  12.327
 7508SOL    HW223966   3.401   1.117  12.182
 7509SOL     OW23967   2.575   1.063  11.545
 7509SOL    HW123968   2.560   1.039  11.636
 7509SOL    HW223969   2.651   1.010  11.519
 7510SOL     OW23970   2.306   0.796  12.435
 7510SOL    HW123971   2.382   0.770  12.486
 7510SOL    HW223972   2.241   0.728  12.452
 7511SOL     OW23973   3.120   0.355  12.432
 7511SOL    HW123974   3.151   0.439  12.468
 7511SOL    HW223975   3.029   0.372  12.409
 7512SOL     OW23976   2.191   1.127  11.658
 7512SOL    HW123977   2.190   1.201  11.597
 7512SOL    HW223978   2.190   1.049  11.602
 7513SOL     OW23979   2.410   0.528  12.035
 7513SOL    HW123980   2.420   0.586  11.960
 7513SOL    HW223981   2.473   0.559  12.100
 7514SOL     OW23982   3.109   1.356  11.562
 7514SOL    HW123983   3.163   1.425  11.600
 7514SOL    HW223984   3.021   1.373  11.597
 7515SOL     OW23985   3.152   1.447  12.317
 7515SOL    HW123986   3.211   1.449  12.392
 7515SOL    HW223987   3.098   1.370  12.330
 7516SOL     OW23988   3.436   0.623  11.662
 7516SOL    HW123989   3.387   0.671  11.728
 7516SOL    HW223990   3.488   0.690  11.617
 7517SOL     OW23991   2.283   1.510  12.475
 7517SOL    HW123992   2.241   1.471  12.398
 7517SOL    HW223993   2.275   1.604  12.462
 7518SOL     OW23994   2.450   0.876  12.205
 7518SOL    HW123995   2.484   0.965  12.208
 7518SOL    HW223996   2.393   0.869  12.282
 7519SOL     OW23997   3.193   0.860  12.169
 7519SOL    HW123998   3.110   0.833  12.130
 7519SOL    HW223999   3.247   0.780  12.167
 7520SOL     OW24000   3.057   0.529  11.426
 7520SOL    HW124001   3.069   0.448  11.477
 7520SOL    HW224002   3.017   0.590  11.488
 7521SOL     OW24003   2.153   0.205  12.409
 7521SOL    HW124004   2.107   0.256  12.476
 7521SOL    HW224005   2.123   0.115  12.424
 7522SOL     OW24006   1.937   1.326  12.441
 7522SOL    HW124007   1.942   1.252  12.501
 7522SOL    HW224008   1.928   1.403  12.498
 7523SOL     OW24009   2.581   0.634  12.221
 7523SOL    HW124010   2.656   0.624  12.162
 7523SOL    HW224011   2.549   0.723  12.204
 7524SOL     OW24012   2.232   0.047  11.865
 7524SOL    HW124013   2.207   0.139  11.854
 7524SOL    HW224014   2.177   0.015  11.936
 7525SOL     OW24015   3.489   0.394  11.526
 7525SOL    HW124016   3.505   0.325  11.590
 7525SOL    HW224017   3.462   0.469  11.578
 7526SOL     OW24018   2.889   0.754  12.129
 7526SOL    HW124019   2.884   0.764  12.224
 7526SOL    HW224020   2.860   0.664  12.113
 7527SOL     OW24021   3.399   0.262  11.302
 7527SOL    HW124022   3.419   0.172  11.328
 7527SOL    HW224023   3.431   0.316  11.375
 7528SOL     OW24024   3.147   0.827  11.195
 7528SOL    HW124025   3.190   0.741  11.201
 7528SOL    HW224026   3.180   0.864  11.113
 7529SOL     OW24027   2.934   1.347  12.033
 7529SOL    HW124028   2.942   1.274  11.971
 7529SOL    HW224029   2.991   1.415  11.997
 7530SOL     OW24030   2.171   0.822  12.116
 7530SOL    HW124031   2.265   0.834  12.105
 7530SOL    HW224032   2.161   0.731  12.144
 7531SOL     OW24033   2.171   0.551  12.163
 7531SOL    HW124034   2.142   0.459  12.160
 7531SOL    HW224035   2.255   0.551  12.118
 7532SOL     OW24036   3.028   0.205   0.147
 7532SOL    HW124037   3.036   0.255   0.228
 7532SOL    HW224038   3.069   0.260   0.080
 7533SOL     OW24039   1.879   1.311  11.361
 7533SOL    HW124040   1.790   1.330  11.330
 7533SOL    HW224041   1.872   1.224  11.400
 7534SOL     OW24042   1.957   1.779  12.119
 7534SOL    HW124043   1.926   1.703  12.070
 7534SOL    HW224044   2.045   1.795  12.086
 7535SOL     OW24045   2.355   1.579  12.073
 7535SOL    HW124046   2.425   1.640  12.098
 7535SOL    HW224047   2.397   1.517  12.014
 7536SOL     OW24048   2.841   0.780  12.400
 7536SOL    HW124049   2.876   0.854  12.450
 7536SOL    HW224050   2.753   0.767  12.437
 7537SOL     OW24051   1.931   0.557  12.316
 7537SOL    HW124052   2.005   0.562  12.255
 7537SOL    HW224053   1.918   0.463  12.329
 7538SOL     OW24054   2.677   0.568  11.542
 7538SOL    HW124055   2.682   0.496  11.479
 7538SOL    HW224056   2.604   0.622  11.511
 7539SOL     OW24057   3.513   0.603  12.325
 7539SOL    HW124058   3.511   0.556  12.408
 7539SOL    HW224059   3.605   0.598  12.297
 7540SOL     OW24060   2.587   0.455  12.426
 7540SOL    HW124061   2.515   0.395  12.406
 7540SOL    HW224062   2.580   0.525  12.361
 7541SOL     OW24063   2.747   1.655   0.039
 7541SOL    HW124064   2.760   1.714  -0.036
 7541SOL    HW224065   2.798   1.694   0.110
 7542SOL     OW24066   2.316   0.503  11.348
 7542SOL    HW124067   2.374   0.575  11.372
 7542SOL    HW224068   2.230   0.544  11.339
 7543SOL     OW24069   3.135   1.030  12.374
 7543SOL    HW124070   3.166   0.978  12.299
 7543SOL    HW224071   3.089   1.104  12.334
 7544SOL     OW24072   3.182   0.856  11.470
 7544SOL    HW124073   3.108   0.823  11.522
 7544SOL    HW224074   3.154   0.844  11.379
 7545SOL     OW24075   3.614   1.750  12.302
 7545SOL    HW124076   3.685   1.769  12.241
 7545SOL    HW224077   3.601   1.656  12.296
 7546SOL     OW24078   3.109   1.718  12.275
 7546SOL    HW124079   3.188   1.755  12.236
 7546SOL    HW224080   3.128   1.624  12.282
 7547SOL     OW24081   1.960   1.266  12.180
 7547SOL    HW124082   1.948   1.291  12.272
 7547SOL    HW224083   1.881   1.218  12.157
 7548SOL     OW24084   3.555   0.142  11.655
 7548SOL    HW124085   3.599   0.139  11.570
 7548SOL    HW224086   3.624   0.125  11.719
 7549SOL     OW24087   3.254   1.570  11.670
 7549SOL    HW124088   3.314   1.605  11.604
 7549SOL    HW224089   3.205   1.646  11.700
 7550SOL     OW24090   3.139   0.932  11.843
 7550SOL    HW124091   3.213   0.872  11.855
 7550SOL    HW224092   3.174   1.001  11.787
 7551SOL     OW24093   2.531   1.630  11.321
 7551SOL    HW124094   2.542   1.646  11.228
 7551SOL    HW224095   2.475   1.552  11.326
 7552SOL     OW24096   3.486   1.789   0.042
 7552SOL    HW124097   3.537   1.777  -0.038
 7552SOL    HW224098   3.520   1.871   0.080
 7553SOL     OW24099   3.691   0.181  12.130
 7553SOL    HW124100   3.722   0.092  12.111
 7553SOL    HW224101   3.608   0.187  12.084
 7554SOL     OW24102   2.125   0.300  11.878
 7554SOL    HW124103   2.041   0.338  11.853
 7554SOL    HW224104   2.128   0.309  11.974
 7555SOL     OW24105   2.621   1.054   0.030
 7555SOL    HW124106   2.630   1.068  -0.064
 7555SOL    HW224107   2.711   1.048   0.063
 7556SOL     OW24108   2.783   0.913  11.465
 7556SOL    HW124109   2.841   0.947  11.396
 7556SOL    HW224110   2.834   0.844  11.508
 7557SOL     OW24111   3.294   1.618  11.162
 7557SOL    HW124112   3.314   1.694  11.216
 7557SOL    HW224113   3.357   1.622  11.090
 7558SOL     OW24114   2.929   1.116  11.889
 7558SOL    HW124115   2.855   1.065  11.923
 7558SOL    HW224116   2.993   1.050  11.862
 7559SOL     OW24117   2.894   0.253  12.096
 7559SOL    HW124118   2.879   0.192  12.023
 7559SOL    HW224119   2.907   0.196  12.172
 7560SOL     OW24120   2.468   1.492  11.644
 7560SOL    HW124121   2.517   1.439  11.581
 7560SOL    HW224122   2.392   1.524  11.595
 7561SOL     OW24123   3.599   0.451   0.044
 7561SOL    HW124124   3.681   0.456   0.093
 7561SOL    HW224125   3.606   0.370  -0.007
 7562SOL     OW24126   2.134   1.340  11.475
 7562SOL    HW124127   2.045   1.336  11.440
 7562SOL    HW224128   2.125   1.384  11.559
 7563SOL     OW24129   1.877   0.329  11.120
 7563SOL    HW124130   1.847   0.327  11.211
 7563SOL    HW224131   1.921   0.413  11.111
 7564SOL     OW24132   1.949   0.218  11.450
 7564SOL    HW124133   1.877   0.156  11.439
 7564SOL    HW224134   2.027   0.163  11.451
 7565SOL     OW24135   3.038   1.386  11.290
 7565SOL    HW124136   2.948   1.355  11.288
 7565SOL    HW224137   3.065   1.375  11.382
 7566SOL     OW24138   3.351   1.786  12.154
 7566SOL    HW124139   3.372   1.861  12.099
 7566SOL    HW224140   3.432   1.767  12.201
 7567SOL     OW24141   3.529   0.872  12.410
 7567SOL    HW124142   3.515   0.787  12.368
 7567SOL    HW224143   3.512   0.936  12.341
 7568SOL     OW24144   3.086   0.321  11.623
 7568SOL    HW124145   3.150   0.250  11.613
 7568SOL    HW224146   3.115   0.369  11.701
 7569SOL     OW24147   2.442   0.732  11.854
 7569SOL    HW124148   2.484   0.816  11.838
 7569SOL    HW224149   2.380   0.722  11.781
 7570SOL     OW24150   3.688   0.884   0.128
 7570SOL    HW124151   3.675   0.968   0.171
 7570SOL    HW224152   3.623   0.884   0.057
 7571SOL     OW24153   2.734   1.366  11.233
 7571SOL    HW124154   2.691   1.370  11.319
 7571SOL    HW224155   2.722   1.453  11.196
 7572SOL     OW24156   2.527   1.789  12.115
 7572SOL    HW124157   2.508   1.879  12.088
 7572SOL    HW224158   2.622   1.782  12.110
 7573SOL     OW24159   2.734   0.971  12.026
 7573SOL    HW124160   2.784   0.897  12.061
 7573SOL    HW224161   2.694   1.012  12.103
 7574SOL     OW24162   2.939   0.991  11.259
 7574SOL    HW124163   2.914   1.040  11.181
 7574SOL    HW224164   3.012   0.936  11.230
 7575SOL     OW24165   3.710   1.552  12.013
 7575SOL    HW124166   3.625   1.540  11.970
 7575SOL    HW224167   3.712   1.485  12.082
 7576SOL     OW24168   1.949   1.219  11.836
 7576SOL    HW124169   1.976   1.182  11.920
 7576SOL    HW224170   2.017   1.191  11.775
 7577SOL     OW24171   3.684   0.234  12.403
 7577SOL    HW124172   3.729   0.158  12.437
 7577SOL    HW224173   3.684   0.223  12.308
 7578SOL     OW24174   2.297   0.432  11.706
 7578SOL    HW124175   2.323   0.368  11.639
 7578SOL    HW224176   2.241   0.383  11.766
 7579SOL     OW24177   3.570   1.487  12.274
 7579SOL    HW124178   3.490   1.451  12.236
 7579SOL    HW224179   3.591   1.428  12.346
 7580SOL     OW24180   2.692   1.586  11.847
 7580SOL    HW124181   2.669   1.654  11.785
 7580SOL    HW224182   2.617   1.526  11.846
 7581SOL     OW24183   3.314   0.228  12.286
 7581SOL    HW124184   3.374   0.173  12.336
 7581SOL    HW224185   3.257   0.267  12.353
 7582SOL     OW24186   2.912   0.057  12.285
 7582SOL    HW124187   2.853   0.074  12.358
 7582SOL    HW224188   2.988   0.014  12.325
 7583SOL     OW24189   2.639   1.331  11.493
 7583SOL    HW124190   2.612   1.240  11.505
 7583SOL    HW224191   2.718   1.340  11.546
 7584SOL     OW24192   3.249   8.001  11.318
 7584SOL    HW124193   3.282   7.912  11.323
 7584SOL    HW224194   3.154   7.993  11.330
 7585SOL     OW24195   3.154   0.464  11.847
 7585SOL    HW124196   3.104   0.546  11.850
 7585SOL    HW224197   3.156   0.434  11.938
 7586SOL     OW24198   3.433   0.193  12.035
 7586SOL    HW124199   3.398   0.226  12.118
 7586SOL    HW224200   3.439   0.271  11.979
 7587SOL     OW24201   1.901   1.060  11.485
 7587SOL    HW124202   1.994   1.051  11.465
 7587SOL    HW224203   1.872   0.970  11.503
 7588SOL     OW24204   2.754   1.665  11.505
 7588SOL    HW124205   2.676   1.648  11.451
 7588SOL    HW224206   2.727   1.735  11.564
 7589SOL     OW24207   2.086   2.428   0.037
 7589SOL    HW124208   2.072   2.483   0.114
 7589SOL    HW224209   2.092   2.489  -0.036
 7590SOL     OW24210   2.090   2.143   0.990
 7590SOL    HW124211   2.115   2.111   1.076
 7590SOL    HW224212   1.999   2.115   0.980
 7591SOL     OW24213   1.854   2.254   0.636
 7591SOL    HW124214   1.779   2.286   0.685
 7591SOL    HW224215   1.824   2.171   0.598
 7592SOL     OW24216   2.431   3.163   1.187
 7592SOL    HW124217   2.345   3.170   1.147
 7592SOL    HW224218   2.449   3.251   1.220
 7593SOL     OW24219   3.436   3.382   0.717
 7593SOL    HW124220   3.394   3.357   0.799
 7593SOL    HW224221   3.365   3.381   0.652
 7594SOL     OW24222   2.993   2.564   0.691
 7594SOL    HW124223   3.043   2.645   0.681
 7594SOL    HW224224   2.948   2.574   0.775
 7595SOL     OW24225   3.607   2.471   0.266
 7595SOL    HW124226   3.589   2.479   0.172
 7595SOL    HW224227   3.567   2.389   0.291
 7596SOL     OW24228   2.596   2.994   1.045
 7596SOL    HW124229   2.533   3.033   1.106
 7596SOL    HW224230   2.642   3.068   1.007
 7597SOL     OW24231   2.740   2.623   1.827
 7597SOL    HW124232   2.745   2.688   1.897
 7597SOL    HW224233   2.761   2.672   1.747
 7598SOL     OW24234   2.545   2.851   0.646
 7598SOL    HW124235   2.613   2.847   0.713
 7598SOL    HW224236   2.479   2.909   0.682
 7599SOL     OW24237   2.574   3.009   1.818
 7599SOL    HW124238   2.621   3.085   1.853
 7599SOL    HW224239   2.495   3.046   1.779
 7600SOL     OW24240   2.196   3.272   1.067
 7600SOL    HW124241   2.120   3.233   1.024
 7600SOL    HW224242   2.236   3.326   0.999
 7601SOL     OW24243   3.322   3.370   1.362
 7601SOL    HW124244   3.378   3.446   1.376
 7601SOL    HW224245   3.254   3.378   1.429
 7602SOL     OW24246   2.321   2.245   1.465
 7602SOL    HW124247   2.395   2.187   1.484
 7602SOL    HW224248   2.244   2.195   1.492
 7603SOL     OW24249   3.467   2.304   0.752
 7603SOL    HW124250   3.413   2.335   0.680
 7603SOL    HW224251   3.454   2.368   0.822
 7604SOL     OW24252   2.078   3.579   0.473
 7604SOL    HW124253   2.098   3.653   0.530
 7604SOL    HW224254   2.157   3.568   0.420
 7605SOL     OW24255   3.000   3.208   1.696
 7605SOL    HW124256   3.045   3.201   1.780
 7605SOL    HW224257   2.948   3.128   1.689
 7606SOL     OW24258   2.078   3.305   0.536
 7606SOL    HW124259   2.066   3.400   0.543
 7606SOL    HW224260   2.027   3.269   0.609
 7607SOL     OW24261   2.135   2.955   0.891
 7607SOL    HW124262   2.128   2.867   0.929
 7607SOL    HW224263   2.074   3.008   0.942
 7608SOL     OW24264   2.454   3.658   1.417
 7608SOL    HW124265   2.376   3.638   1.470
 7608SOL    HW224266   2.484   3.742   1.451
 7609SOL     OW24267   2.447   2.827   0.151
 7609SOL    HW124268   2.515   2.845   0.086
 7609SOL    HW224269   2.477   2.872   0.230
 7610SOL     OW24270   3.450   1.998   1.457
 7610SOL    HW124271   3.490   2.073   1.414
 7610SOL    HW224272   3.425   2.030   1.543
 7611SOL     OW24273   1.965   2.522   0.565
 7611SOL    HW124274   1.934   2.436   0.592
 7611SOL    HW224275   1.958   2.575   0.645
 7612SOL     OW24276   3.718   3.600   0.311
 7612SOL    HW124277   3.785   3.575   0.375
 7612SOL    HW224278   3.732   3.694   0.297
 7613SOL     OW24279   1.895   3.373   0.141
 7613SOL    HW124280   1.805   3.344   0.124
 7613SOL    HW224281   1.885   3.454   0.191
 7614SOL     OW24282   3.539   2.794   0.650
 7614SOL    HW124283   3.614   2.749   0.610
 7614SOL    HW224284   3.510   2.856   0.584
 7615SOL     OW24285   3.506   2.978   0.433
 7615SOL    HW124286   3.591   2.976   0.389
 7615SOL    HW224287   3.517   3.041   0.504
 7616SOL     OW24288   1.983   2.608   1.583
 7616SOL    HW124289   2.071   2.646   1.585
 7616SOL    HW224290   1.924   2.683   1.579
 7617SOL     OW24291   2.482   3.254   0.733
 7617SOL    HW124292   2.439   3.170   0.744
 7617SOL    HW224293   2.465   3.278   0.642
 7618SOL     OW24294   3.147   3.097   1.415
 7618SOL    HW124295   3.180   3.027   1.358
 7618SOL    HW224296   3.203   3.093   1.493
 7619SOL     OW24297   2.686   1.878   0.524
 7619SOL    HW124298   2.724   1.962   0.499
 7619SOL    HW224299   2.592   1.894   0.529
 7620SOL     OW24300   2.049   2.821   1.292
 7620SOL    HW124301   2.133   2.782   1.270
 7620SOL    HW224302   1.987   2.782   1.231
 7621SOL     OW24303   3.357   2.875   0.226
 7621SOL    HW124304   3.295   2.815   0.267
 7621SOL    HW224305   3.412   2.906   0.298
 7622SOL     OW24306   3.034   3.679   1.623
 7622SOL    HW124307   3.050   3.742   1.552
 7622SOL    HW224308   3.066   3.596   1.590
 7623SOL     OW24309   2.213   2.116   1.836
 7623SOL    HW124310   2.247   2.198   1.871
 7623SOL    HW224311   2.118   2.121   1.850
 7624SOL     OW24312   3.327   3.281   0.950
 7624SOL    HW124313   3.262   3.296   1.019
 7624SOL    HW224314   3.314   3.189   0.924
 7625SOL     OW24315   3.510   3.627   0.583
 7625SOL    HW124316   3.489   3.587   0.499
 7625SOL    HW224317   3.498   3.557   0.647
 7626SOL     OW24318   2.438   2.569   0.271
 7626SOL    HW124319   2.457   2.657   0.238
 7626SOL    HW224320   2.379   2.583   0.346
 7627SOL     OW24321   3.144   2.233   0.935
 7627SOL    HW124322   3.055   2.200   0.945
 7627SOL    HW224323   3.196   2.179   0.994
 7628SOL     OW24324   3.453   3.537   0.327
 7628SOL    HW124325   3.548   3.547   0.322
 7628SOL    HW224326   3.422   3.549   0.237
 7629SOL     OW24327   2.653   2.478   1.443
 7629SOL    HW124328   2.629   2.454   1.533
 7629SOL    HW224329   2.620   2.407   1.389
 7630SOL     OW24330   3.248   2.323   1.683
 7630SOL    HW124331   3.254   2.376   1.763
 7630SOL    HW224332   3.318   2.258   1.692
 7631SOL     OW24333   2.807   2.748   1.588
 7631SOL    HW124334   2.866   2.685   1.548
 7631SOL    HW224335   2.761   2.788   1.514
 7632SOL     OW24336   2.859   2.266   1.229
 7632SOL    HW124337   2.770   2.285   1.257
 7632SOL    HW224338   2.850   2.230   1.141
 7633SOL     OW24339   2.916   2.566   0.425
 7633SOL    HW124340   2.935   2.563   0.519
 7633SOL    HW224341   2.831   2.524   0.416
 7634SOL     OW24342   1.951   2.700   0.767
 7634SOL    HW124343   2.029   2.689   0.823
 7634SOL    HW224344   1.900   2.768   0.812
 7635SOL     OW24345   1.984   3.737   1.585
 7635SOL    HW124346   1.991   3.712   1.678
 7635SOL    HW224347   1.893   3.718   1.563
 7636SOL     OW24348   2.749   2.221   0.219
 7636SOL    HW124349   2.782   2.286   0.156
 7636SOL    HW224350   2.744   2.140   0.169
 7637SOL     OW24351   3.549   2.418   1.830
 7637SOL    HW124352   3.520   2.496   1.783
 7637SOL    HW224353   3.590   2.364   1.762
 7638SOL     OW24354   3.242   3.002   0.534
 7638SOL    HW124355   3.325   3.001   0.487
 7638SOL    HW224356   3.189   3.066   0.487
 7639SOL     OW24357   2.414   2.036   0.903
 7639SOL    HW124358   2.416   2.062   0.995
 7639SOL    HW224359   2.412   2.118   0.855
 7640SOL     OW24360   2.854   3.294   0.472
 7640SOL    HW124361   2.816   3.373   0.434
 7640SOL    HW224362   2.839   3.304   0.567
 7641SOL     OW24363   2.214   3.676   0.871
 7641SOL    HW124364   2.258   3.591   0.878
 7641SOL    HW224365   2.280   3.740   0.897
 7642SOL     OW24366   3.665   2.904   0.878
 7642SOL    HW124367   3.610   2.887   0.801
 7642SOL    HW224368   3.602   2.917   0.949
 7643SOL     OW24369   3.089   3.407   1.513
 7643SOL    HW124370   3.079   3.335   1.576
 7643SOL    HW224371   3.006   3.409   1.466
 7644SOL     OW24372   2.185   2.849   0.255
 7644SOL    HW124373   2.269   2.855   0.209
 7644SOL    HW224374   2.150   2.763   0.230
 7645SOL     OW24375   3.342   2.614   0.720
 7645SOL    HW124376   3.341   2.576   0.808
 7645SOL    HW224377   3.417   2.674   0.721
 7646SOL     OW24378   2.335   3.127   1.732
 7646SOL    HW124379   2.308   3.132   1.641
 7646SOL    HW224380   2.253   3.129   1.781
 7647SOL     OW24381   2.927   3.641   0.224
 7647SOL    HW124382   2.905   3.600   0.307
 7647SOL    HW224383   2.996   3.586   0.187
 7648SOL     OW24384   2.067   2.133   1.501
 7648SOL    HW124385   1.990   2.190   1.501
 7648SOL    HW224386   2.037   2.052   1.540
 7649SOL     OW24387   3.518   3.272   0.071
 7649SOL    HW124388   3.451   3.335   0.048
 7649SOL    HW224389   3.472   3.188   0.079
 7650SOL     OW24390   2.315   3.589   0.331
 7650SOL    HW124391   2.361   3.649   0.389
 7650SOL    HW224392   2.384   3.554   0.273
 7651SOL     OW24393   3.266   1.961   0.449
 7651SOL    HW124394   3.264   1.927   0.360
 7651SOL    HW224395   3.360   1.969   0.469
 7652SOL     OW24396   2.120   3.653   1.229
 7652SOL    HW124397   2.169   3.586   1.277
 7652SOL    HW224398   2.113   3.619   1.140
 7653SOL     OW24399   2.800   3.566   0.896
 7653SOL    HW124400   2.876   3.516   0.928
 7653SOL    HW224401   2.764   3.511   0.826
 7654SOL     OW24402   2.234   2.552   0.470
 7654SOL    HW124403   2.258   2.460   0.484
 7654SOL    HW224404   2.153   2.563   0.520
 7655SOL     OW24405   3.402   2.075   1.728
 7655SOL    HW124406   3.404   2.110   1.817
 7655SOL    HW224407   3.379   1.983   1.739
 7656SOL     OW24408   2.492   1.986   0.114
 7656SOL    HW124409   2.586   1.966   0.117
 7656SOL    HW224410   2.481   2.040   0.036
 7657SOL     OW24411   2.615   2.139   1.768
 7657SOL    HW124412   2.678   2.142   1.841
 7657SOL    HW224413   2.532   2.117   1.810
 7658SOL     OW24414   2.738   3.385   1.193
 7658SOL    HW124415   2.717   3.343   1.109
 7658SOL    HW224416   2.805   3.329   1.232
 7659SOL     OW24417   3.196   2.451   1.438
 7659SOL    HW124418   3.228   2.420   1.523
 7659SOL    HW224419   3.236   2.538   1.427
 7660SOL     OW24420   2.684   3.244   0.952
 7660SOL    HW124421   2.770   3.235   0.910
 7660SOL    HW224422   2.623   3.255   0.879
 7661SOL     OW24423   2.793   2.370   0.899
 7661SOL    HW124424   2.765   2.361   0.807
 7661SOL    HW224425   2.822   2.282   0.923
 7662SOL     OW24426   2.414   1.916   0.501
 7662SOL    HW124427   2.336   1.918   0.557
 7662SOL    HW224428   2.407   1.995   0.447
 7663SOL     OW24429   3.320   3.082   0.052
 7663SOL    HW124430   3.334   3.003   0.103
 7663SOL    HW224431   3.230   3.107   0.071
 7664SOL     OW24432   2.173   1.939   0.203
 7664SOL    HW124433   2.250   1.995   0.211
 7664SOL    HW224434   2.204   1.853   0.232
 7665SOL     OW24435   2.809   2.114   0.463
 7665SOL    HW124436   2.783   2.153   0.379
 7665SOL    HW224437   2.903   2.127   0.467
 7666SOL     OW24438   2.943   2.556   1.450
 7666SOL    HW124439   2.879   2.484   1.458
 7666SOL    HW224440   3.028   2.512   1.450
 7667SOL     OW24441   3.083   3.429   0.791
 7667SOL    HW124442   3.095   3.499   0.726
 7667SOL    HW224443   3.145   3.451   0.861
 7668SOL     OW24444   2.338   3.017   0.723
 7668SOL    HW124445   2.275   2.998   0.792
 7668SOL    HW224446   2.288   3.008   0.641
 7669SOL     OW24447   3.118   3.650   0.611
 7669SOL    HW124448   3.169   3.716   0.564
 7669SOL    HW224449   3.049   3.700   0.655
 7670SOL     OW24450   2.887   2.407   0.062
 7670SOL    HW124451   2.874   2.491   0.018
 7670SOL    HW224452   2.952   2.425   0.130
 7671SOL     OW24453   1.950   2.412   1.394
 7671SOL    HW124454   2.042   2.416   1.367
 7671SOL    HW224455   1.941   2.483   1.457
 7672SOL     OW24456   2.418   2.086   1.175
 7672SOL    HW124457   2.460   2.021   1.232
 7672SOL    HW224458   2.326   2.086   1.201
 7673SOL     OW24459   2.725   2.319   0.639
 7673SOL    HW124460   2.685   2.378   0.574
 7673SOL    HW224461   2.750   2.241   0.589
 7674SOL     OW24462   2.886   1.912   0.741
 7674SOL    HW124463   2.821   1.911   0.671
 7674SOL    HW224464   2.860   1.842   0.801
 7675SOL     OW24465   3.302   3.020   0.862
 7675SOL    HW124466   3.233   2.954   0.866
 7675SOL    HW224467   3.323   3.026   0.769
 7676SOL     OW24468   3.328   2.470   0.960
 7676SOL    HW124469   3.266   2.397   0.970
 7676SOL    HW224470   3.384   2.465   1.036
 7677SOL     OW24471   3.690   2.686   0.428
 7677SOL    HW124472   3.743   2.624   0.478
 7677SOL    HW224473   3.653   2.634   0.357
 7678SOL     OW24474   2.350   3.257   0.169
 7678SOL    HW124475   2.285   3.213   0.224
 7678SOL    HW224476   2.298   3.306   0.105
 7679SOL     OW24477   3.541   3.131   0.647
 7679SOL    HW124478   3.635   3.125   0.664
 7679SOL    HW224479   3.517   3.219   0.673
 7680SOL     OW24480   3.258   2.409   0.082
 7680SOL    HW124481   3.204   2.408   0.161
 7680SOL    HW224482   3.316   2.333   0.091
 7681SOL     OW24483   2.385   2.118   0.324
 7681SOL    HW124484   2.440   2.074   0.259
 7681SOL    HW224485   2.361   2.201   0.283
 7682SOL     OW24486   3.604   3.107   1.549
 7682SOL    HW124487   3.692   3.068   1.546
 7682SOL    HW224488   3.617   3.194   1.584
 7683SOL     OW24489   2.916   3.206   1.319
 7683SOL    HW124490   2.839   3.181   1.371
 7683SOL    HW224491   2.990   3.171   1.367
 7684SOL     OW24492   3.464   3.491   1.654
 7684SOL    HW124493   3.465   3.526   1.565
 7684SOL    HW224494   3.545   3.440   1.660
 7685SOL     OW24495   2.986   3.057   1.095
 7685SOL    HW124496   2.943   3.106   1.165
 7685SOL    HW224497   2.966   3.106   1.016
 7686SOL     OW24498   3.485   2.961   1.076
 7686SOL    HW124499   3.479   3.022   1.149
 7686SOL    HW224500   3.410   2.983   1.020
 7687SOL     OW24501   2.785   1.951   1.387
 7687SOL    HW124502   2.808   1.936   1.295
 7687SOL    HW224503   2.861   1.996   1.423
 7688SOL     OW24504   2.844   2.984   1.719
 7688SOL    HW124505   2.754   3.000   1.747
 7688SOL    HW224506   2.839   2.902   1.669
 7689SOL     OW24507   2.572   2.922   0.377
 7689SOL    HW124508   2.559   2.902   0.469
 7689SOL    HW224509   2.650   2.873   0.352
 7690SOL     OW24510   2.285   2.682   1.250
 7690SOL    HW124511   2.351   2.695   1.317
 7690SOL    HW224512   2.250   2.594   1.266
 7691SOL     OW24513   3.126   2.236   1.285
 7691SOL    HW124514   3.157   2.314   1.331
 7691SOL    HW224515   3.035   2.257   1.262
 7692SOL     OW24516   1.940   3.438   1.362
 7692SOL    HW124517   1.915   3.518   1.316
 7692SOL    HW224518   2.035   3.434   1.354
 7693SOL     OW24519   2.184   2.991   0.494
 7693SOL    HW124520   2.173   3.072   0.444
 7693SOL    HW224521   2.194   2.923   0.427
 7694SOL     OW24522   2.405   2.384   0.852
 7694SOL    HW124523   2.419   2.444   0.779
 7694SOL    HW224524   2.469   2.411   0.918
 7695SOL     OW24525   3.105   3.211   0.394
 7695SOL    HW124526   3.161   3.281   0.429
 7695SOL    HW224527   3.018   3.230   0.429
 7696SOL     OW24528   3.153   3.326   1.157
 7696SOL    HW124529   3.215   3.338   1.229
 7696SOL    HW224530   3.087   3.266   1.192
 7697SOL     OW24531   3.417   2.464   0.501
 7697SOL    HW124532   3.375   2.518   0.568
 7697SOL    HW224533   3.459   2.527   0.442
 7698SOL     OW24534   2.207   3.392   1.309
 7698SOL    HW124535   2.196   3.344   1.226
 7698SOL    HW224536   2.302   3.403   1.317
 7699SOL     OW24537   2.284   2.613   1.608
 7699SOL    HW124538   2.345   2.656   1.548
 7699SOL    HW224539   2.325   2.529   1.628
 7700SOL     OW24540   3.467   2.635   1.690
 7700SOL    HW124541   3.382   2.680   1.688
 7700SOL    HW224542   3.520   2.680   1.625
 7701SOL     OW24543   2.359   1.898   1.747
 7701SOL    HW124544   2.308   1.847   1.685
 7701SOL    HW224545   2.305   1.975   1.766
 7702SOL     OW24546   2.446   2.737   1.031
 7702SOL    HW124547   2.484   2.825   1.035
 7702SOL    HW224548   2.391   2.732   1.109
 7703SOL     OW24549   3.200   2.721   1.005
 7703SOL    HW124550   3.110   2.699   0.982
 7703SOL    HW224551   3.247   2.638   1.000
 7704SOL     OW24552   3.067   2.388   0.280
 7704SOL    HW124553   3.083   2.316   0.341
 7704SOL    HW224554   3.024   2.455   0.332
 7705SOL     OW24555   2.156   2.057   1.245
 7705SOL    HW124556   2.120   2.091   1.327
 7705SOL    HW224557   2.136   1.964   1.247
 7706SOL     OW24558   1.927   3.179   1.271
 7706SOL    HW124559   1.946   3.122   1.346
 7706SOL    HW224560   1.920   3.267   1.309
 7707SOL     OW24561   2.571   2.487   1.044
 7707SOL    HW124562   2.654   2.481   0.997
 7707SOL    HW224563   2.544   2.578   1.034
 7708SOL     OW24564   3.599   2.826   1.856
 7708SOL    HW124565   3.552   2.753   1.815
 7708SOL    HW224566   3.547   2.847   1.934
 7709SOL     OW24567   2.169   1.922   0.629
 7709SOL    HW124568   2.144   2.013   0.648
 7709SOL    HW224569   2.178   1.881   0.714
 7710SOL     OW24570   3.480   2.237   0.363
 7710SOL    HW124571   3.510   2.169   0.424
 7710SOL    HW224572   3.447   2.306   0.420
 7711SOL     OW24573   2.895   2.617   0.955
 7711SOL    HW124574   2.881   2.636   1.048
 7711SOL    HW224575   2.866   2.527   0.944
 7712SOL     OW24576   2.838   3.429   1.725
 7712SOL    HW124577   2.828   3.470   1.639
 7712SOL    HW224578   2.883   3.346   1.706
 7713SOL     OW24579   3.706   3.361   1.604
 7713SOL    HW124580   3.736   3.390   1.518
 7713SOL    HW224581   3.782   3.373   1.661
 7714SOL     OW24582   2.210   2.768   1.825
 7714SOL    HW124583   2.292   2.800   1.865
 7714SOL    HW224584   2.239   2.713   1.752
 7715SOL     OW24585   3.369   2.140   0.132
 7715SOL    HW124586   3.322   2.061   0.159
 7715SOL    HW224587   3.412   2.170   0.212
 7716SOL     OW24588   3.146   2.667   0.055
 7716SOL    HW124589   3.201   2.589   0.045
 7716SOL    HW224590   3.186   2.732  -0.004
 7717SOL     OW24591   2.933   3.203   0.857
 7717SOL    HW124592   2.942   3.131   0.794
 7717SOL    HW224593   2.992   3.271   0.823
 7718SOL     OW24594   2.171   2.670   0.938
 7718SOL    HW124595   2.264   2.693   0.943
 7718SOL    HW224596   2.166   2.582   0.973
 7719SOL     OW24597   2.187   2.392   1.013
 7719SOL    HW124598   2.150   2.305   1.002
 7719SOL    HW224599   2.263   2.394   0.955
 7720SOL     OW24600   3.017   2.185   1.741
 7720SOL    HW124601   2.959   2.249   1.783
 7720SOL    HW224602   3.096   2.234   1.720
 7721SOL     OW24603   3.015   2.067   1.478
 7721SOL    HW124604   3.012   2.124   1.555
 7721SOL    HW224605   3.062   2.118   1.412
 7722SOL     OW24606   1.948   3.638   0.938
 7722SOL    HW124607   1.918   3.560   0.892
 7722SOL    HW224608   2.038   3.651   0.909
 7723SOL     OW24609   2.349   3.435   0.900
 7723SOL    HW124610   2.418   3.498   0.923
 7723SOL    HW224611   2.393   3.371   0.844
 7724SOL     OW24612   2.828   2.645   1.216
 7724SOL    HW124613   2.891   2.631   1.287
 7724SOL    HW224614   2.744   2.620   1.254
 7725SOL     OW24615   1.906   2.394   1.118
 7725SOL    HW124616   1.991   2.407   1.075
 7725SOL    HW224617   1.924   2.404   1.211
 7726SOL     OW24618   2.053   2.391   1.737
 7726SOL    HW124619   2.109   2.346   1.673
 7726SOL    HW224620   2.018   2.467   1.690
 7727SOL     OW24621   3.243   2.790   1.654
 7727SOL    HW124622   3.266   2.883   1.654
 7727SOL    HW224623   3.243   2.765   1.562
 7728SOL     OW24624   2.675   2.440   0.377
 7728SOL    HW124625   2.685   2.363   0.322
 7728SOL    HW224626   2.597   2.484   0.343
 7729SOL     OW24627   3.502   2.460   1.168
 7729SOL    HW124628   3.494   2.410   1.249
 7729SOL    HW224629   3.592   2.445   1.139
 7730SOL     OW24630   2.098   3.410   1.720
 7730SOL    HW124631   2.078   3.478   1.784
 7730SOL    HW224632   2.109   3.330   1.771
 7731SOL     OW24633   2.582   2.303   1.246
 7731SOL    HW124634   2.520   2.233   1.225
 7731SOL    HW224635   2.569   2.368   1.177
 7732SOL     OW24636   2.795   3.532   1.466
 7732SOL    HW124637   2.756   3.499   1.384
 7732SOL    HW224638   2.789   3.627   1.458
 7733SOL     OW24639   2.316   2.335   0.183
 7733SOL    HW124640   2.365   2.415   0.206
 7733SOL    HW224641   2.242   2.367   0.131
 7734SOL     OW24642   1.994   3.007   1.481
 7734SOL    HW124643   1.998   2.963   1.565
 7734SOL    HW224644   2.014   2.939   1.416
 7735SOL     OW24645   3.180   2.900   1.212
 7735SOL    HW124646   3.201   2.839   1.141
 7735SOL    HW224647   3.111   2.956   1.176
 7736SOL     OW24648   3.166   2.704   0.327
 7736SOL    HW124649   3.089   2.672   0.374
 7736SOL    HW224650   3.151   2.680   0.236
 7737SOL     OW24651   3.621   3.601   1.140
 7737SOL    HW124652   3.692   3.623   1.079
 7737SOL    HW224653   3.606   3.508   1.128
 7738SOL     OW24654   3.099   3.590   1.084
 7738SOL    HW124655   3.186   3.618   1.055
 7738SOL    HW224656   3.112   3.501   1.118
 7739SOL     OW24657   1.952   3.117   1.013
 7739SOL    HW124658   1.945   3.140   1.106
 7739SOL    HW224659   1.865   3.085   0.990
 7740SOL     OW24660   2.541   3.534   1.745
 7740SOL    HW124661   2.485   3.611   1.734
 7740SOL    HW224662   2.623   3.557   1.701
 7741SOL     OW24663   2.763   1.967   0.099
 7741SOL    HW124664   2.810   1.984   0.017
 7741SOL    HW224665   2.826   1.919   0.153
 7742SOL     OW24666   3.581   2.017   0.502
 7742SOL    HW124667   3.651   1.994   0.441
 7742SOL    HW224668   3.563   1.936   0.549
 7743SOL     OW24669   3.253   3.428   0.494
 7743SOL    HW124670   3.316   3.463   0.431
 7743SOL    HW224671   3.205   3.504   0.526
 7744SOL     OW24672   2.014   3.657   1.842
 7744SOL    HW124673   1.962   3.592   1.890
 7744SOL    HW224674   2.060   3.706   1.910
 7745SOL     OW24675   3.138   2.791   0.666
 7745SOL    HW124676   3.213   2.733   0.681
 7745SOL    HW224677   3.173   2.862   0.612
 7746SOL     OW24678   2.662   3.142   1.419
 7746SOL    HW124679   2.637   3.184   1.501
 7746SOL    HW224680   2.588   3.158   1.360
 7747SOL     OW24681   2.522   3.472   0.194
 7747SOL    HW124682   2.587   3.479   0.124
 7747SOL    HW224683   2.481   3.386   0.180
 7748SOL     OW24684   3.480   3.595   1.388
 7748SOL    HW124685   3.530   3.601   1.307
 7748SOL    HW224686   3.467   3.687   1.414
 7749SOL     OW24687   3.705   2.030   0.960
 7749SOL    HW124688   3.734   1.941   0.940
 7749SOL    HW224689   3.616   2.036   0.924
 7750SOL     OW24690   2.112   2.174   0.713
 7750SOL    HW124691   2.026   2.212   0.693
 7750SOL    HW224692   2.115   2.169   0.808
 7751SOL     OW24693   3.065   3.465   0.071
 7751SOL    HW124694   3.059   3.371   0.088
 7751SOL    HW224695   3.026   3.476  -0.016
 7752SOL     OW24696   2.687   2.872   1.374
 7752SOL    HW124697   2.732   2.871   1.289
 7752SOL    HW224698   2.680   2.965   1.396
 7753SOL     OW24699   2.785   2.781   0.292
 7753SOL    HW124700   2.846   2.810   0.223
 7753SOL    HW224701   2.834   2.715   0.340
 7754SOL     OW24702   3.325   3.441   0.003
 7754SOL    HW124703   3.239   3.465   0.037
 7754SOL    HW224704   3.377   3.521   0.010
 7755SOL     OW24705   2.227   3.164   1.489
 7755SOL    HW124706   2.213   3.243   1.436
 7755SOL    HW224707   2.146   3.113   1.477
 7756SOL     OW24708   3.469   3.147   1.284
 7756SOL    HW124709   3.523   3.127   1.360
 7756SOL    HW224710   3.410   3.216   1.314
 7757SOL     OW24711   2.928   2.974   0.710
 7757SOL    HW124712   2.856   2.925   0.750
 7757SOL    HW224713   2.994   2.908   0.689
 7758SOL     OW24714   2.890   2.106   0.963
 7758SOL    HW124715   2.890   2.058   0.880
 7758SOL    HW224716   2.884   2.038   1.030
 7759SOL     OW24717   2.461   3.337   0.475
 7759SOL    HW124718   2.505   3.294   0.402
 7759SOL    HW224719   2.391   3.387   0.435
 7760SOL     OW24720   3.587   2.258   1.374
 7760SOL    HW124721   3.661   2.320   1.380
 7760SOL    HW224722   3.619   2.189   1.316
 7761SOL     OW24723   2.105   3.197   0.295
 7761SOL    HW124724   2.045   3.246   0.240
 7761SOL    HW224725   2.097   3.236   0.382
 7762SOL     OW24726   1.979   2.892   1.729
 7762SOL    HW124727   1.903   2.865   1.780
 7762SOL    HW224728   2.053   2.849   1.773
 7763SOL     OW24729   2.548   2.049   1.503
 7763SOL    HW124730   2.631   2.028   1.460
 7763SOL    HW224731   2.573   2.081   1.590
 7764SOL     OW24732   3.283   2.715   1.392
 7764SOL    HW124733   3.237   2.778   1.337
 7764SOL    HW224734   3.375   2.722   1.364
 7765SOL     OW24735   1.926   2.004   0.307
 7765SOL    HW124736   1.928   2.100   0.315
 7765SOL    HW224737   2.013   1.981   0.274
 7766SOL     OW24738   3.052   3.193   0.120
 7766SOL    HW124739   2.957   3.187   0.111
 7766SOL    HW224740   3.068   3.187   0.214
 7767SOL     OW24741   2.485   2.694   1.433
 7767SOL    HW124742   2.542   2.770   1.421
 7767SOL    HW224743   2.545   2.620   1.441
 7768SOL     OW24744   3.353   3.652   0.990
 7768SOL    HW124745   3.378   3.723   0.931
 7768SOL    HW224746   3.435   3.628   1.034
 7769SOL     OW24747   2.588   2.426   1.700
 7769SOL    HW124748   2.630   2.492   1.756
 7769SOL    HW224749   2.611   2.343   1.741
 7770SOL     OW24750   3.332   3.053   1.626
 7770SOL    HW124751   3.318   3.067   1.720
 7770SOL    HW224752   3.424   3.073   1.611
 7771SOL     OW24753   2.226   3.604   1.562
 7771SOL    HW124754   2.144   3.651   1.551
 7771SOL    HW224755   2.201   3.521   1.604
 7772SOL     OW24756   3.525   2.743   1.248
 7772SOL    HW124757   3.521   2.659   1.201
 7772SOL    HW224758   3.515   2.809   1.180
 7773SOL     OW24759   3.084   2.173   0.453
 7773SOL    HW124760   3.146   2.101   0.453
 7773SOL    HW224761   3.104   2.223   0.532
 7774SOL     OW24762   2.445   2.587   0.665
 7774SOL    HW124763   2.486   2.674   0.661
 7774SOL    HW224764   2.375   2.591   0.599
 7775SOL     OW24765   3.621   2.224   1.644
 7775SOL    HW124766   3.601   2.241   1.552
 7775SOL    HW224767   3.551   2.166   1.674
 7776SOL     OW24768   3.588   2.793   1.510
 7776SOL    HW124769   3.597   2.887   1.527
 7776SOL    HW224770   3.581   2.786   1.415
 7777SOL     OW24771   2.779   3.229   0.059
 7777SOL    HW124772   2.724   3.211   0.135
 7777SOL    HW224773   2.764   3.322   0.040
 7778SOL     OW24774   2.524   3.640   0.927
 7778SOL    HW124775   2.507   3.734   0.917
 7778SOL    HW224776   2.619   3.633   0.928
 7779SOL     OW24777   2.734   2.834   0.852
 7779SOL    HW124778   2.785   2.764   0.891
 7779SOL    HW224779   2.692   2.878   0.927
 7780SOL     OW24780   2.946   2.853   0.076
 7780SOL    HW124781   2.986   2.929   0.035
 7780SOL    HW224782   3.017   2.789   0.083
 7781SOL     OW24783   3.703   3.410   0.839
 7781SOL    HW124784   3.619   3.402   0.792
 7781SOL    HW224785   3.690   3.359   0.919
 7782SOL     OW24786   2.098   3.164   1.857
 7782SOL    HW124787   2.025   3.108   1.830
 7782SOL    HW224788   2.083   3.177   1.951
 7783SOL     OW24789   1.953   3.079   0.671
 7783SOL    HW124790   1.945   3.033   0.754
 7783SOL    HW224791   2.033   3.043   0.632
 7784SOL     OW24792   2.545   3.276   1.626
 7784SOL    HW124793   2.470   3.231   1.666
 7784SOL    HW224794   2.547   3.362   1.667
 7785SOL     OW24795   3.662   2.044   1.230
 7785SOL    HW124796   3.690   1.955   1.251
 7785SOL    HW224797   3.678   2.054   1.136
 7786SOL     OW24798   2.277   2.295   0.522
 7786SOL    HW124799   2.320   2.223   0.475
 7786SOL    HW224800   2.233   2.252   0.595
 7787SOL     OW24801   3.566   3.339   1.084
 7787SOL    HW124802   3.482   3.320   1.043
 7787SOL    HW224803   3.573   3.276   1.155
 7788SOL     OW24804   2.203   2.423   1.294
 7788SOL    HW124805   2.256   2.364   1.347
 7788SOL    HW224806   2.217   2.394   1.204
 7789SOL     OW24807   2.696   3.432   0.681
 7789SOL    HW124808   2.675   3.487   0.606
 7789SOL    HW224809   2.620   3.375   0.692
 7790SOL     OW24810   3.293   2.096   1.120
 7790SOL    HW124811   3.334   2.026   1.172
 7790SOL    HW224812   3.240   2.145   1.183
 7791SOL     OW24813   2.872   1.879   1.129
 7791SOL    HW124814   2.817   1.814   1.085
 7791SOL    HW224815   2.959   1.839   1.129
 7792SOL     OW24816   2.654   3.182   0.304
 7792SOL    HW124817   2.619   3.096   0.328
 7792SOL    HW224818   2.723   3.199   0.368
 7793SOL     OW24819   2.482   3.420   1.284
 7793SOL    HW124820   2.479   3.503   1.332
 7793SOL    HW224821   2.571   3.414   1.251
 7794SOL     OW24822   3.232   1.895   0.184
 7794SOL    HW124823   3.240   1.852   0.099
 7794SOL    HW224824   3.149   1.943   0.178
 7795SOL     OW24825   3.139   2.321   0.672
 7795SOL    HW124826   3.094   2.405   0.679
 7795SOL    HW224827   3.147   2.290   0.763
 7796SOL     OW24828   3.442   2.052   0.886
 7796SOL    HW124829   3.389   2.078   0.962
 7796SOL    HW224830   3.443   2.130   0.830
 7797SOL     OW24831   1.899   2.925   0.269
 7797SOL    HW124832   1.989   2.956   0.257
 7797SOL    HW224833   1.903   2.870   0.347
 7798SOL     OW24834   2.727   3.513   0.380
 7798SOL    HW124835   2.651   3.501   0.323
 7798SOL    HW224836   2.712   3.598   0.423
 7799SOL     OW24837   2.065   2.480   2.003
 7799SOL    HW124838   1.974   2.461   2.028
 7799SOL    HW224839   2.066   2.467   1.908
 7800SOL     OW24840   2.085   2.140   2.856
 7800SOL    HW124841   2.117   2.110   2.940
 7800SOL    HW224842   1.994   2.111   2.853
 7801SOL     OW24843   1.848   2.283   2.500
 7801SOL    HW124844   1.768   2.282   2.553
 7801SOL    HW224845   1.843   2.202   2.450
 7802SOL     OW24846   2.419   3.150   3.031
 7802SOL    HW124847   2.336   3.184   2.999
 7802SOL    HW224848   2.453   3.218   3.089
 7803SOL     OW24849   3.421   3.360   2.548
 7803SOL    HW124850   3.380   3.346   2.633
 7803SOL    HW224851   3.348   3.366   2.487
 7804SOL     OW24852   2.984   2.566   2.552
 7804SOL    HW124853   3.039   2.642   2.538
 7804SOL    HW224854   2.947   2.579   2.639
 7805SOL     OW24855   3.663   2.442   2.075
 7805SOL    HW124856   3.620   2.439   1.989
 7805SOL    HW224857   3.611   2.384   2.130
 7806SOL     OW24858   2.591   2.990   2.897
 7806SOL    HW124859   2.527   3.029   2.957
 7806SOL    HW224860   2.643   3.064   2.866
 7807SOL     OW24861   2.724   2.627   3.684
 7807SOL    HW124862   2.734   2.688   3.757
 7807SOL    HW224863   2.755   2.675   3.608
 7808SOL     OW24864   2.546   2.854   2.511
 7808SOL    HW124865   2.617   2.852   2.575
 7808SOL    HW224866   2.481   2.913   2.549
 7809SOL     OW24867   2.565   2.995   3.676
 7809SOL    HW124868   2.605   3.073   3.715
 7809SOL    HW224869   2.483   3.027   3.638
 7810SOL     OW24870   2.196   3.280   2.925
 7810SOL    HW124871   2.120   3.251   2.874
 7810SOL    HW224872   2.245   3.336   2.864
 7811SOL     OW24873   3.345   3.337   3.216
 7811SOL    HW124874   3.410   3.391   3.260
 7811SOL    HW224875   3.279   3.319   3.283
 7812SOL     OW24876   2.286   2.167   3.337
 7812SOL    HW124877   2.378   2.160   3.312
 7812SOL    HW224878   2.288   2.177   3.433
 7813SOL     OW24879   3.469   2.305   2.619
 7813SOL    HW124880   3.401   2.342   2.562
 7813SOL    HW224881   3.475   2.366   2.692
 7814SOL     OW24882   2.086   3.576   2.330
 7814SOL    HW124883   2.103   3.649   2.389
 7814SOL    HW224884   2.164   3.570   2.275
 7815SOL     OW24885   2.982   3.230   3.560
 7815SOL    HW124886   3.018   3.232   3.649
 7815SOL    HW224887   2.935   3.147   3.555
 7816SOL     OW24888   2.075   3.308   2.396
 7816SOL    HW124889   2.075   3.404   2.389
 7816SOL    HW224890   2.035   3.291   2.481
 7817SOL     OW24891   2.108   2.953   2.740
 7817SOL    HW124892   2.131   2.874   2.788
 7817SOL    HW224893   2.059   3.006   2.803
 7818SOL     OW24894   2.442   3.680   3.256
 7818SOL    HW124895   2.377   3.649   3.320
 7818SOL    HW224896   2.488   3.751   3.301
 7819SOL     OW24897   2.440   2.853   2.008
 7819SOL    HW124898   2.490   2.896   1.938
 7819SOL    HW224899   2.482   2.883   2.089
 7820SOL     OW24900   3.450   1.994   3.325
 7820SOL    HW124901   3.489   2.071   3.283
 7820SOL    HW224902   3.438   2.021   3.416
 7821SOL     OW24903   3.707   3.606   2.187
 7821SOL    HW124904   3.774   3.578   2.249
 7821SOL    HW224905   3.720   3.700   2.177
 7822SOL     OW24906   1.905   3.451   1.978
 7822SOL    HW124907   1.886   3.360   1.998
 7822SOL    HW224908   1.880   3.500   2.056
 7823SOL     OW24909   3.541   2.739   2.478
 7823SOL    HW124910   3.609   2.758   2.543
 7823SOL    HW224911   3.548   2.810   2.414
 7824SOL     OW24912   3.523   2.982   2.302
 7824SOL    HW124913   3.606   2.967   2.258
 7824SOL    HW224914   3.542   3.050   2.367
 7825SOL     OW24915   1.991   2.614   3.437
 7825SOL    HW124916   2.084   2.636   3.444
 7825SOL    HW224917   1.946   2.691   3.472
 7826SOL     OW24918   2.480   3.255   2.592
 7826SOL    HW124919   2.438   3.170   2.604
 7826SOL    HW224920   2.461   3.279   2.501
 7827SOL     OW24921   3.128   3.063   3.269
 7827SOL    HW124922   3.176   3.004   3.212
 7827SOL    HW224923   3.183   3.071   3.347
 7828SOL     OW24924   2.691   1.885   2.356
 7828SOL    HW124925   2.723   1.972   2.332
 7828SOL    HW224926   2.597   1.896   2.370
 7829SOL     OW24927   2.051   2.825   3.141
 7829SOL    HW124928   2.139   2.789   3.130
 7829SOL    HW224929   1.993   2.762   3.096
 7830SOL     OW24930   3.398   2.872   2.066
 7830SOL    HW124931   3.332   2.811   2.100
 7830SOL    HW224932   3.443   2.904   2.144
 7831SOL     OW24933   2.218   2.128   3.662
 7831SOL    HW124934   2.289   2.186   3.691
 7831SOL    HW224935   2.158   2.124   3.736
 7832SOL     OW24936   3.276   3.292   2.773
 7832SOL    HW124937   3.247   3.309   2.863
 7832SOL    HW224938   3.299   3.199   2.774
 7833SOL     OW24939   3.513   3.613   2.441
 7833SOL    HW124940   3.496   3.570   2.357
 7833SOL    HW224941   3.504   3.543   2.506
 7834SOL     OW24942   2.466   2.573   2.119
 7834SOL    HW124943   2.478   2.659   2.079
 7834SOL    HW224944   2.401   2.586   2.187
 7835SOL     OW24945   3.141   2.222   2.793
 7835SOL    HW124946   3.052   2.190   2.809
 7835SOL    HW224947   3.195   2.173   2.855
 7836SOL     OW24948   3.440   3.536   2.171
 7836SOL    HW124949   3.533   3.559   2.169
 7836SOL    HW224950   3.419   3.517   2.079
 7837SOL     OW24951   2.641   2.464   3.300
 7837SOL    HW124952   2.622   2.452   3.393
 7837SOL    HW224953   2.582   2.403   3.256
 7838SOL     OW24954   3.252   2.329   3.545
 7838SOL    HW124955   3.255   2.381   3.626
 7838SOL    HW224956   3.321   2.264   3.556
 7839SOL     OW24957   2.806   2.734   3.444
 7839SOL    HW124958   2.873   2.682   3.400
 7839SOL    HW224959   2.770   2.790   3.375
 7840SOL     OW24960   2.865   2.281   3.103
 7840SOL    HW124961   2.815   2.349   3.148
 7840SOL    HW224962   2.814   2.261   3.024
 7841SOL     OW24963   2.914   2.556   2.285
 7841SOL    HW124964   2.937   2.560   2.378
 7841SOL    HW224965   2.831   2.507   2.284
 7842SOL     OW24966   1.952   2.670   2.639
 7842SOL    HW124967   2.035   2.671   2.687
 7842SOL    HW224968   1.906   2.748   2.669
 7843SOL     OW24969   1.964   3.675   3.435
 7843SOL    HW124970   1.978   3.664   3.529
 7843SOL    HW224971   1.902   3.748   3.428
 7844SOL     OW24972   2.771   2.168   1.992
 7844SOL    HW124973   2.818   2.249   1.972
 7844SOL    HW224974   2.798   2.147   2.082
 7845SOL     OW24975   3.550   2.412   3.688
 7845SOL    HW124976   3.518   2.489   3.641
 7845SOL    HW224977   3.598   2.362   3.622
 7846SOL     OW24978   3.252   3.006   2.406
 7846SOL    HW124979   3.334   3.000   2.359
 7846SOL    HW224980   3.201   3.071   2.358
 7847SOL     OW24981   2.407   2.039   2.755
 7847SOL    HW124982   2.421   2.057   2.848
 7847SOL    HW224983   2.418   2.124   2.712
 7848SOL     OW24984   2.854   3.301   2.323
 7848SOL    HW124985   2.835   3.383   2.278
 7848SOL    HW224986   2.837   3.319   2.415
 7849SOL     OW24987   2.218   3.679   2.733
 7849SOL    HW124988   2.266   3.597   2.743
 7849SOL    HW224989   2.282   3.747   2.756
 7850SOL     OW24990   3.645   2.863   2.727
 7850SOL    HW124991   3.658   2.956   2.704
 7850SOL    HW224992   3.596   2.866   2.809
 7851SOL     OW24993   3.069   3.344   3.326
 7851SOL    HW124994   3.057   3.309   3.414
 7851SOL    HW224995   2.987   3.327   3.281
 7852SOL     OW24996   2.175   2.821   2.114
 7852SOL    HW124997   2.265   2.845   2.090
 7852SOL    HW224998   2.148   2.760   2.045
 7853SOL     OW24999   3.332   2.594   2.573
 7853SOL    HW125000   3.334   2.570   2.666
 7853SOL    HW225001   3.410   2.648   2.561
 7854SOL     OW25002   2.330   3.084   3.578
 7854SOL    HW125003   2.288   3.103   3.494
 7854SOL    HW225004   2.270   3.117   3.644
 7855SOL     OW25005   2.986   3.654   2.073
 7855SOL    HW125006   2.918   3.615   2.126
 7855SOL    HW225007   3.014   3.583   2.014
 7856SOL     OW25008   3.483   3.239   1.936
 7856SOL    HW125009   3.443   3.326   1.934
 7856SOL    HW225010   3.410   3.179   1.922
 7857SOL     OW25011   2.326   3.591   2.185
 7857SOL    HW125012   2.368   3.651   2.247
 7857SOL    HW225013   2.397   3.563   2.127
 7858SOL     OW25014   3.283   1.964   2.291
 7858SOL    HW125015   3.318   1.892   2.239
 7858SOL    HW225016   3.360   2.000   2.336
 7859SOL     OW25017   2.123   3.662   3.110
 7859SOL    HW125018   2.175   3.623   3.180
 7859SOL    HW225019   2.143   3.608   3.033
 7860SOL     OW25020   2.804   3.564   2.758
 7860SOL    HW125021   2.881   3.536   2.807
 7860SOL    HW225022   2.790   3.495   2.693
 7861SOL     OW25023   2.281   2.570   2.319
 7861SOL    HW125024   2.267   2.477   2.336
 7861SOL    HW225025   2.228   2.615   2.385
 7862SOL     OW25026   3.401   2.088   3.588
 7862SOL    HW125027   3.422   2.111   3.678
 7862SOL    HW225028   3.324   2.031   3.595
 7863SOL     OW25029   2.470   1.966   1.988
 7863SOL    HW125030   2.546   1.912   2.008
 7863SOL    HW225031   2.436   1.932   1.906
 7864SOL     OW25032   2.622   2.130   3.620
 7864SOL    HW125033   2.700   2.078   3.602
 7864SOL    HW225034   2.635   2.163   3.709
 7865SOL     OW25035   2.741   3.380   3.051
 7865SOL    HW125036   2.717   3.340   2.967
 7865SOL    HW225037   2.800   3.317   3.091
 7866SOL     OW25038   3.210   2.453   3.300
 7866SOL    HW125039   3.240   2.423   3.385
 7866SOL    HW225040   3.250   2.540   3.289
 7867SOL     OW25041   2.683   3.240   2.810
 7867SOL    HW125042   2.770   3.229   2.771
 7867SOL    HW225043   2.624   3.254   2.735
 7868SOL     OW25044   2.788   2.362   2.776
 7868SOL    HW125045   2.761   2.357   2.685
 7868SOL    HW225046   2.826   2.277   2.795
 7869SOL     OW25047   2.415   1.929   2.353
 7869SOL    HW125048   2.340   1.926   2.413
 7869SOL    HW225049   2.404   2.011   2.305
 7870SOL     OW25050   3.279   3.058   1.897
 7870SOL    HW125051   3.316   2.990   1.954
 7870SOL    HW225052   3.199   3.086   1.942
 7871SOL     OW25053   2.156   1.908   2.051
 7871SOL    HW125054   2.218   1.971   2.015
 7871SOL    HW225055   2.210   1.844   2.097
 7872SOL     OW25056   2.805   2.141   2.288
 7872SOL    HW125057   2.784   2.234   2.283
 7872SOL    HW225058   2.899   2.138   2.306
 7873SOL     OW25059   2.951   2.539   3.303
 7873SOL    HW125060   2.912   2.476   3.362
 7873SOL    HW225061   3.045   2.519   3.304
 7874SOL     OW25062   3.071   3.413   2.632
 7874SOL    HW125063   3.098   3.494   2.590
 7874SOL    HW225064   3.147   3.388   2.685
 7875SOL     OW25065   2.330   3.015   2.582
 7875SOL    HW125066   2.266   2.999   2.652
 7875SOL    HW225067   2.281   3.002   2.501
 7876SOL     OW25068   3.125   3.653   2.470
 7876SOL    HW125069   3.178   3.721   2.428
 7876SOL    HW225070   3.059   3.701   2.519
 7877SOL     OW25071   2.891   2.393   1.890
 7877SOL    HW125072   2.849   2.476   1.869
 7877SOL    HW225073   2.955   2.415   1.957
 7878SOL     OW25074   1.932   2.429   3.244
 7878SOL    HW125075   2.025   2.413   3.228
 7878SOL    HW225076   1.930   2.502   3.306
 7879SOL     OW25077   2.436   2.065   3.025
 7879SOL    HW125078   2.482   2.004   3.082
 7879SOL    HW225079   2.345   2.062   3.053
 7880SOL     OW25080   2.715   2.314   2.516
 7880SOL    HW125081   2.672   2.365   2.448
 7880SOL    HW225082   2.734   2.229   2.474
 7881SOL     OW25083   2.870   1.912   2.598
 7881SOL    HW125084   2.813   1.892   2.524
 7881SOL    HW225085   2.852   1.842   2.661
 7882SOL     OW25086   3.306   3.012   2.707
 7882SOL    HW125087   3.268   2.930   2.740
 7882SOL    HW225088   3.281   3.015   2.615
 7883SOL     OW25089   3.323   2.473   2.827
 7883SOL    HW125090   3.265   2.398   2.841
 7883SOL    HW225091   3.384   2.470   2.901
 7884SOL     OW25092   3.715   2.672   2.218
 7884SOL    HW125093   3.761   2.633   2.292
 7884SOL    HW225094   3.693   2.599   2.161
 7885SOL     OW25095   2.351   3.284   2.014
 7885SOL    HW125096   2.275   3.259   2.066
 7885SOL    HW225097   2.347   3.229   1.936
 7886SOL     OW25098   3.253   2.438   1.931
 7886SOL    HW125099   3.198   2.416   2.006
 7886SOL    HW225100   3.342   2.426   1.962
 7887SOL     OW25101   2.382   2.141   2.181
 7887SOL    HW125102   2.421   2.083   2.116
 7887SOL    HW225103   2.357   2.219   2.132
 7888SOL     OW25104   3.588   3.063   3.451
 7888SOL    HW125105   3.682   3.047   3.448
 7888SOL    HW225106   3.575   3.122   3.525
 7889SOL     OW25107   2.906   3.177   3.164
 7889SOL    HW125108   2.830   3.159   3.220
 7889SOL    HW225109   2.980   3.139   3.211
 7890SOL     OW25110   2.971   3.030   2.941
 7890SOL    HW125111   2.942   3.084   3.015
 7890SOL    HW225112   2.964   3.088   2.865
 7891SOL     OW25113   3.466   2.925   2.935
 7891SOL    HW125114   3.473   2.986   3.008
 7891SOL    HW225115   3.435   2.979   2.862
 7892SOL     OW25116   2.788   1.950   3.248
 7892SOL    HW125117   2.814   1.935   3.157
 7892SOL    HW225118   2.864   1.993   3.288
 7893SOL     OW25119   2.811   3.010   3.531
 7893SOL    HW125120   2.741   3.012   3.596
 7893SOL    HW225121   2.845   2.921   3.536
 7894SOL     OW25122   2.573   2.921   2.239
 7894SOL    HW125123   2.562   2.904   2.333
 7894SOL    HW225124   2.648   2.866   2.214
 7895SOL     OW25125   2.278   2.671   3.117
 7895SOL    HW125126   2.349   2.688   3.178
 7895SOL    HW225127   2.247   2.584   3.140
 7896SOL     OW25128   3.133   2.239   3.145
 7896SOL    HW125129   3.166   2.315   3.193
 7896SOL    HW225130   3.042   2.260   3.126
 7897SOL     OW25131   1.948   3.442   3.208
 7897SOL    HW125132   1.941   3.537   3.220
 7897SOL    HW225133   2.042   3.426   3.204
 7898SOL     OW25134   2.181   2.983   2.347
 7898SOL    HW125135   2.199   3.063   2.298
 7898SOL    HW225136   2.188   2.913   2.281
 7899SOL     OW25137   2.402   2.391   2.716
 7899SOL    HW125138   2.422   2.452   2.645
 7899SOL    HW225139   2.465   2.413   2.785
 7900SOL     OW25140   3.107   3.211   2.251
 7900SOL    HW125141   3.161   3.285   2.280
 7900SOL    HW225142   3.021   3.228   2.289
 7901SOL     OW25143   3.154   3.324   3.022
 7901SOL    HW125144   3.224   3.322   3.087
 7901SOL    HW225145   3.082   3.275   3.063
 7902SOL     OW25146   3.443   2.490   2.339
 7902SOL    HW125147   3.384   2.520   2.409
 7902SOL    HW225148   3.508   2.560   2.332
 7903SOL     OW25149   2.210   3.378   3.176
 7903SOL    HW125150   2.204   3.338   3.090
 7903SOL    HW225151   2.304   3.396   3.187
 7904SOL     OW25152   2.316   2.566   3.475
 7904SOL    HW125153   2.357   2.624   3.411
 7904SOL    HW225154   2.390   2.524   3.520
 7905SOL     OW25155   3.458   2.620   3.545
 7905SOL    HW125156   3.373   2.665   3.546
 7905SOL    HW225157   3.512   2.673   3.486
 7906SOL     OW25158   2.851   1.993   3.591
 7906SOL    HW125159   2.910   2.068   3.591
 7906SOL    HW225160   2.907   1.919   3.568
 7907SOL     OW25161   2.372   1.890   3.605
 7907SOL    HW125162   2.318   1.839   3.544
 7907SOL    HW225163   2.321   1.970   3.620
 7908SOL     OW25164   2.439   2.747   2.891
 7908SOL    HW125165   2.488   2.828   2.892
 7908SOL    HW225166   2.395   2.744   2.976
 7909SOL     OW25167   3.207   2.735   2.826
 7909SOL    HW125168   3.115   2.714   2.843
 7909SOL    HW225169   3.255   2.654   2.845
 7910SOL     OW25170   3.054   2.383   2.121
 7910SOL    HW125171   3.073   2.311   2.181
 7910SOL    HW225172   3.020   2.452   2.178
 7911SOL     OW25173   2.172   2.061   3.106
 7911SOL    HW125174   2.195   2.099   3.191
 7911SOL    HW225175   2.146   1.971   3.126
 7912SOL     OW25176   1.903   3.182   3.138
 7912SOL    HW125177   1.929   3.126   3.212
 7912SOL    HW225178   1.914   3.271   3.171
 7913SOL     OW25179   2.568   2.478   2.914
 7913SOL    HW125180   2.655   2.461   2.877
 7913SOL    HW225181   2.558   2.573   2.909
 7914SOL     OW25182   3.591   2.838   3.718
 7914SOL    HW125183   3.534   2.765   3.696
 7914SOL    HW225184   3.567   2.861   3.808
 7915SOL     OW25185   2.174   1.920   2.492
 7915SOL    HW125186   2.149   2.011   2.512
 7915SOL    HW225187   2.184   1.879   2.577
 7916SOL     OW25188   3.487   2.254   2.214
 7916SOL    HW125189   3.514   2.190   2.279
 7916SOL    HW225190   3.465   2.332   2.265
 7917SOL     OW25191   2.890   2.615   2.817
 7917SOL    HW125192   2.880   2.634   2.910
 7917SOL    HW225193   2.864   2.523   2.809
 7918SOL     OW25194   2.771   3.409   3.551
 7918SOL    HW125195   2.783   3.448   3.464
 7918SOL    HW225196   2.848   3.352   3.561
 7919SOL     OW25197   2.209   2.746   3.682
 7919SOL    HW125198   2.268   2.799   3.735
 7919SOL    HW225199   2.266   2.706   3.616
 7920SOL     OW25200   3.388   2.139   1.987
 7920SOL    HW125201   3.328   2.074   2.025
 7920SOL    HW225202   3.427   2.183   2.063
 7921SOL     OW25203   3.131   2.681   1.879
 7921SOL    HW125204   3.181   2.600   1.891
 7921SOL    HW225205   3.171   2.722   1.803
 7922SOL     OW25206   2.927   3.193   2.710
 7922SOL    HW125207   2.939   3.124   2.644
 7922SOL    HW225208   2.980   3.266   2.679
 7923SOL     OW25209   2.183   2.673   2.795
 7923SOL    HW125210   2.273   2.702   2.809
 7923SOL    HW225211   2.179   2.587   2.837
 7924SOL     OW25212   2.179   2.393   2.870
 7924SOL    HW125213   2.149   2.303   2.862
 7924SOL    HW225214   2.257   2.398   2.815
 7925SOL     OW25215   2.995   2.235   3.554
 7925SOL    HW125216   2.953   2.291   3.620
 7925SOL    HW225217   3.085   2.267   3.550
 7926SOL     OW25218   3.025   2.063   3.336
 7926SOL    HW125219   3.014   2.124   3.408
 7926SOL    HW225220   3.074   2.113   3.270
 7927SOL     OW25221   1.866   3.180   2.049
 7927SOL    HW125222   1.779   3.199   2.014
 7927SOL    HW225223   1.858   3.092   2.087
 7928SOL     OW25224   1.949   3.643   2.785
 7928SOL    HW125225   1.929   3.560   2.741
 7928SOL    HW225226   2.043   3.656   2.769
 7929SOL     OW25227   2.352   3.436   2.762
 7929SOL    HW125228   2.421   3.498   2.787
 7929SOL    HW225229   2.397   3.371   2.707
 7930SOL     OW25230   2.826   2.635   3.080
 7930SOL    HW125231   2.887   2.604   3.147
 7930SOL    HW225232   2.751   2.668   3.129
 7931SOL     OW25233   1.906   2.415   2.971
 7931SOL    HW125234   1.992   2.416   2.929
 7931SOL    HW225235   1.925   2.422   3.065
 7932SOL     OW25236   2.083   2.368   3.508
 7932SOL    HW125237   2.172   2.403   3.521
 7932SOL    HW225238   2.029   2.445   3.492
 7933SOL     OW25239   3.235   2.778   3.519
 7933SOL    HW125240   3.242   2.869   3.546
 7933SOL    HW225241   3.246   2.779   3.424
 7934SOL     OW25242   2.676   2.402   2.220
 7934SOL    HW125243   2.655   2.343   2.148
 7934SOL    HW225244   2.620   2.478   2.207
 7935SOL     OW25245   3.504   2.457   3.025
 7935SOL    HW125246   3.496   2.409   3.108
 7935SOL    HW225247   3.595   2.441   2.998
 7936SOL     OW25248   2.105   3.409   3.588
 7936SOL    HW125249   2.087   3.471   3.658
 7936SOL    HW225250   2.114   3.325   3.632
 7937SOL     OW25251   2.480   2.322   3.124
 7937SOL    HW125252   2.482   2.236   3.083
 7937SOL    HW225253   2.511   2.382   3.056
 7938SOL     OW25254   2.811   3.535   3.312
 7938SOL    HW125255   2.793   3.522   3.219
 7938SOL    HW225256   2.885   3.594   3.315
 7939SOL     OW25257   2.314   2.357   2.028
 7939SOL    HW125258   2.377   2.426   2.048
 7939SOL    HW225259   2.229   2.400   2.031
 7940SOL     OW25260   1.977   2.999   3.337
 7940SOL    HW125261   1.991   2.955   3.420
 7940SOL    HW225262   2.011   2.938   3.271
 7941SOL     OW25263   3.179   2.885   3.063
 7941SOL    HW125264   3.228   2.856   2.986
 7941SOL    HW225265   3.105   2.934   3.027
 7942SOL     OW25266   3.188   2.721   2.157
 7942SOL    HW125267   3.123   2.704   2.225
 7942SOL    HW225268   3.140   2.707   2.075
 7943SOL     OW25269   3.066   3.580   2.942
 7943SOL    HW125270   3.140   3.638   2.956
 7943SOL    HW225271   3.097   3.494   2.969
 7944SOL     OW25272   1.942   3.112   2.882
 7944SOL    HW125273   1.949   3.131   2.975
 7944SOL    HW225274   1.850   3.128   2.861
 7945SOL     OW25275   2.526   3.517   3.599
 7945SOL    HW125276   2.511   3.611   3.589
 7945SOL    HW225277   2.619   3.505   3.584
 7946SOL     OW25278   3.575   2.021   2.357
 7946SOL    HW125279   3.648   2.009   2.296
 7946SOL    HW225280   3.561   1.935   2.396
 7947SOL     OW25281   3.240   3.433   2.336
 7947SOL    HW125282   3.307   3.473   2.281
 7947SOL    HW225283   3.198   3.507   2.379
 7948SOL     OW25284   2.010   3.669   3.704
 7948SOL    HW125285   1.964   3.601   3.752
 7948SOL    HW225286   2.064   3.713   3.770
 7949SOL     OW25287   3.137   2.782   2.507
 7949SOL    HW125288   3.210   2.728   2.537
 7949SOL    HW225289   3.179   2.859   2.468
 7950SOL     OW25290   2.684   3.128   3.316
 7950SOL    HW125291   2.725   3.104   3.399
 7950SOL    HW225292   2.612   3.187   3.341
 7951SOL     OW25293   2.527   3.491   2.019
 7951SOL    HW125294   2.541   3.505   1.926
 7951SOL    HW225295   2.474   3.412   2.024
 7952SOL     OW25296   3.704   2.029   2.822
 7952SOL    HW125297   3.733   1.940   2.801
 7952SOL    HW225298   3.615   2.034   2.786
 7953SOL     OW25299   2.109   2.170   2.580
 7953SOL    HW125300   2.026   2.216   2.570
 7953SOL    HW225301   2.120   2.162   2.675
 7954SOL     OW25302   3.070   3.459   1.894
 7954SOL    HW125303   3.058   3.370   1.927
 7954SOL    HW225304   2.998   3.471   1.832
 7955SOL     OW25305   2.694   2.870   3.222
 7955SOL    HW125306   2.751   2.887   3.147
 7955SOL    HW225307   2.676   2.957   3.258
 7956SOL     OW25308   2.770   2.757   2.149
 7956SOL    HW125309   2.827   2.797   2.083
 7956SOL    HW225310   2.828   2.701   2.201
 7957SOL     OW25311   3.348   3.492   1.906
 7957SOL    HW125312   3.254   3.482   1.892
 7957SOL    HW225313   3.385   3.498   1.818
 7958SOL     OW25314   2.212   3.151   3.347
 7958SOL    HW125315   2.213   3.236   3.303
 7958SOL    HW225316   2.121   3.122   3.342
 7959SOL     OW25317   3.481   3.110   3.127
 7959SOL    HW125318   3.571   3.124   3.156
 7959SOL    HW225319   3.434   3.188   3.158
 7960SOL     OW25320   2.925   2.964   2.556
 7960SOL    HW125321   2.859   2.918   2.607
 7960SOL    HW225322   2.994   2.900   2.542
 7961SOL     OW25323   2.884   2.103   2.817
 7961SOL    HW125324   2.883   2.049   2.738
 7961SOL    HW225325   2.882   2.040   2.889
 7962SOL     OW25326   2.451   3.333   2.332
 7962SOL    HW125327   2.509   3.292   2.269
 7962SOL    HW225328   2.396   3.392   2.280
 7963SOL     OW25329   3.576   2.263   3.226
 7963SOL    HW125330   3.651   2.321   3.239
 7963SOL    HW225331   3.609   2.192   3.171
 7964SOL     OW25332   2.118   3.207   2.152
 7964SOL    HW125333   2.026   3.206   2.126
 7964SOL    HW225334   2.118   3.247   2.239
 7965SOL     OW25335   1.970   2.853   3.573
 7965SOL    HW125336   1.899   2.851   3.637
 7965SOL    HW225337   2.049   2.842   3.625
 7966SOL     OW25338   2.550   2.045   3.357
 7966SOL    HW125339   2.637   2.023   3.323
 7966SOL    HW225340   2.567   2.075   3.446
 7967SOL     OW25341   1.942   2.185   1.886
 7967SOL    HW125342   1.862   2.168   1.836
 7967SOL    HW225343   1.977   2.266   1.849
 7968SOL     OW25344   3.291   2.714   3.250
 7968SOL    HW125345   3.250   2.775   3.189
 7968SOL    HW225346   3.385   2.730   3.240
 7969SOL     OW25347   1.920   2.016   2.152
 7969SOL    HW125348   1.907   2.087   2.089
 7969SOL    HW225349   2.008   1.983   2.134
 7970SOL     OW25350   3.038   3.195   1.985
 7970SOL    HW125351   2.947   3.166   1.991
 7970SOL    HW225352   3.068   3.200   2.075
 7971SOL     OW25353   2.485   2.692   3.288
 7971SOL    HW125354   2.537   2.772   3.282
 7971SOL    HW225355   2.550   2.621   3.296
 7972SOL     OW25356   2.559   2.442   3.564
 7972SOL    HW125357   2.608   2.510   3.611
 7972SOL    HW225358   2.589   2.360   3.602
 7973SOL     OW25359   3.304   3.058   3.479
 7973SOL    HW125360   3.291   3.061   3.573
 7973SOL    HW225361   3.399   3.060   3.467
 7974SOL     OW25362   2.226   3.599   3.413
 7974SOL    HW125363   2.136   3.630   3.413
 7974SOL    HW225364   2.224   3.517   3.462
 7975SOL     OW25365   3.549   2.730   3.107
 7975SOL    HW125366   3.531   2.645   3.067
 7975SOL    HW225367   3.522   2.794   3.041
 7976SOL     OW25368   3.080   2.175   2.310
 7976SOL    HW125369   3.148   2.107   2.304
 7976SOL    HW225370   3.101   2.224   2.389
 7977SOL     OW25371   2.465   2.585   2.529
 7977SOL    HW125372   2.501   2.674   2.539
 7977SOL    HW225373   2.423   2.586   2.443
 7978SOL     OW25374   3.628   2.226   3.492
 7978SOL    HW125375   3.590   2.245   3.406
 7978SOL    HW225376   3.562   2.172   3.535
 7979SOL     OW25377   3.571   2.792   3.373
 7979SOL    HW125378   3.579   2.885   3.395
 7979SOL    HW225379   3.588   2.789   3.279
 7980SOL     OW25380   2.717   3.222   1.909
 7980SOL    HW125381   2.689   3.238   1.999
 7980SOL    HW225382   2.736   3.310   1.874
 7981SOL     OW25383   2.530   3.639   2.780
 7981SOL    HW125384   2.516   3.734   2.780
 7981SOL    HW225385   2.625   3.628   2.788
 7982SOL     OW25386   2.737   2.831   2.712
 7982SOL    HW125387   2.790   2.763   2.753
 7982SOL    HW225388   2.698   2.879   2.786
 7983SOL     OW25389   2.922   2.840   1.944
 7983SOL    HW125390   2.911   2.903   1.873
 7983SOL    HW225391   2.999   2.789   1.919
 7984SOL     OW25392   2.085   3.166   3.719
 7984SOL    HW125393   2.000   3.161   3.764
 7984SOL    HW225394   2.149   3.179   3.789
 7985SOL     OW25395   1.958   3.062   2.530
 7985SOL    HW125396   2.002   3.030   2.609
 7985SOL    HW225397   2.022   3.051   2.460
 7986SOL     OW25398   2.496   3.278   3.448
 7986SOL    HW125399   2.446   3.221   3.507
 7986SOL    HW225400   2.512   3.357   3.499
 7987SOL     OW25401   3.656   2.046   3.091
 7987SOL    HW125402   3.705   1.969   3.121
 7987SOL    HW225403   3.676   2.052   2.998
 7988SOL     OW25404   2.251   2.308   2.378
 7988SOL    HW125405   2.299   2.244   2.327
 7988SOL    HW225406   2.219   2.260   2.454
 7989SOL     OW25407   2.189   2.404   3.157
 7989SOL    HW125408   2.256   2.356   3.205
 7989SOL    HW225409   2.211   2.393   3.065
 7990SOL     OW25410   2.702   3.427   2.530
 7990SOL    HW125411   2.671   3.509   2.491
 7990SOL    HW225412   2.622   3.377   2.548
 7991SOL     OW25413   3.299   2.097   2.983
 7991SOL    HW125414   3.354   2.042   3.039
 7991SOL    HW225415   3.245   2.147   3.044
 7992SOL     OW25416   2.873   1.877   2.988
 7992SOL    HW125417   2.825   1.812   2.936
 7992SOL    HW225418   2.962   1.842   2.993
 7993SOL     OW25419   2.642   3.194   2.179
 7993SOL    HW125420   2.621   3.103   2.200
 7993SOL    HW225421   2.718   3.214   2.234
 7994SOL     OW25422   2.479   3.427   3.137
 7994SOL    HW125423   2.479   3.511   3.182
 7994SOL    HW225424   2.571   3.411   3.116
 7995SOL     OW25425   3.210   1.905   1.969
 7995SOL    HW125426   3.287   1.852   1.990
 7995SOL    HW225427   3.144   1.879   2.034
 7996SOL     OW25428   3.134   2.317   2.534
 7996SOL    HW125429   3.098   2.405   2.544
 7996SOL    HW225430   3.144   2.284   2.623
 7997SOL     OW25431   3.440   2.051   2.746
 7997SOL    HW125432   3.391   2.077   2.824
 7997SOL    HW225433   3.445   2.131   2.694
 7998SOL     OW25434   1.895   2.930   2.173
 7998SOL    HW125435   1.990   2.935   2.165
 7998SOL    HW225436   1.877   2.837   2.188
 7999SOL     OW25437   2.758   3.527   2.190
 7999SOL    HW125438   2.679   3.513   2.139
 7999SOL    HW225439   2.733   3.594   2.254
 8000SOL     OW25440   2.055   2.448   3.830
 8000SOL    HW125441   1.983   2.465   3.890
 8000SOL    HW225442   2.082   2.534   3.798
 8001SOL     OW25443   2.089   2.143   4.718
 8001SOL    HW125444   2.116   2.114   4.805
 8001SOL    HW225445   1.998   2.114   4.710
 8002SOL     OW25446   1.855   2.246   4.362
 8002SOL    HW125447   1.779   2.282   4.408
 8002SOL    HW225448   1.824   2.163   4.326
 8003SOL     OW25449   2.412   3.152   4.903
 8003SOL    HW125450   2.335   3.183   4.856
 8003SOL    HW225451   2.448   3.230   4.945
 8004SOL     OW25452   3.433   3.373   4.454
 8004SOL    HW125453   3.385   3.401   4.532
 8004SOL    HW225454   3.367   3.375   4.384
 8005SOL     OW25455   2.986   2.568   4.417
 8005SOL    HW125456   3.042   2.643   4.399
 8005SOL    HW225457   2.947   2.587   4.502
 8006SOL     OW25458   3.664   2.416   3.934
 8006SOL    HW125459   3.620   2.420   3.850
 8006SOL    HW225460   3.605   2.367   3.991
 8007SOL     OW25461   2.579   2.987   4.762
 8007SOL    HW125462   2.521   3.031   4.823
 8007SOL    HW225463   2.627   3.057   4.718
 8008SOL     OW25464   2.735   2.638   5.539
 8008SOL    HW125465   2.766   2.700   5.605
 8008SOL    HW225466   2.753   2.680   5.455
 8009SOL     OW25467   2.543   2.843   4.375
 8009SOL    HW125468   2.615   2.844   4.437
 8009SOL    HW225469   2.480   2.907   4.410
 8010SOL     OW25470   2.569   3.008   5.543
 8010SOL    HW125471   2.616   3.086   5.574
 8010SOL    HW225472   2.490   3.042   5.501
 8011SOL     OW25473   2.197   3.284   4.784
 8011SOL    HW125474   2.127   3.257   4.725
 8011SOL    HW225475   2.251   3.342   4.732
 8012SOL     OW25476   2.311   2.252   5.210
 8012SOL    HW125477   2.399   2.214   5.211
 8012SOL    HW225478   2.254   2.179   5.233
 8013SOL     OW25479   3.473   2.302   4.476
 8013SOL    HW125480   3.411   2.354   4.424
 8013SOL    HW225481   3.511   2.364   4.538
 8014SOL     OW25482   2.088   3.576   4.189
 8014SOL    HW125483   2.105   3.648   4.251
 8014SOL    HW225484   2.168   3.569   4.138
 8015SOL     OW25485   2.995   3.214   5.437
 8015SOL    HW125486   3.048   3.197   5.515
 8015SOL    HW225487   2.950   3.131   5.420
 8016SOL     OW25488   2.051   3.312   4.261
 8016SOL    HW125489   2.068   3.406   4.247
 8016SOL    HW225490   2.026   3.306   4.353
 8017SOL     OW25491   2.106   2.952   4.597
 8017SOL    HW125492   2.130   2.870   4.641
 8017SOL    HW225493   2.060   3.003   4.663
 8018SOL     OW25494   2.439   3.674   5.127
 8018SOL    HW125495   2.369   3.650   5.187
 8018SOL    HW225496   2.478   3.753   5.165
 8019SOL     OW25497   2.430   2.851   3.868
 8019SOL    HW125498   2.480   2.894   3.799
 8019SOL    HW225499   2.474   2.878   3.949
 8020SOL     OW25500   3.447   1.986   5.192
 8020SOL    HW125501   3.492   2.062   5.156
 8020SOL    HW225502   3.433   2.008   5.284
 8021SOL     OW25503   1.971   2.525   4.284
 8021SOL    HW125504   1.950   2.436   4.313
 8021SOL    HW225505   1.965   2.579   4.363
 8022SOL     OW25506   3.710   3.696   4.146
 8022SOL    HW125507   3.671   3.651   4.221
 8022SOL    HW225508   3.801   3.711   4.171
 8023SOL     OW25509   1.910   3.457   3.839
 8023SOL    HW125510   1.890   3.365   3.856
 8023SOL    HW225511   1.885   3.502   3.920
 8024SOL     OW25512   3.547   2.773   4.310
 8024SOL    HW125513   3.585   2.800   4.393
 8024SOL    HW225514   3.561   2.847   4.251
 8025SOL     OW25515   2.004   2.611   5.305
 8025SOL    HW125516   2.098   2.631   5.300
 8025SOL    HW225517   1.964   2.694   5.331
 8026SOL     OW25518   2.454   3.267   4.438
 8026SOL    HW125519   2.433   3.176   4.458
 8026SOL    HW225520   2.438   3.275   4.344
 8027SOL     OW25521   3.083   3.027   5.168
 8027SOL    HW125522   3.119   2.972   5.099
 8027SOL    HW225523   3.154   3.087   5.191
 8028SOL     OW25524   2.683   1.861   4.236
 8028SOL    HW125525   2.727   1.942   4.211
 8028SOL    HW225526   2.590   1.884   4.242
 8029SOL     OW25527   2.043   2.814   5.005
 8029SOL    HW125528   2.133   2.782   5.002
 8029SOL    HW225529   2.008   2.796   4.918
 8030SOL     OW25530   3.408   2.882   3.943
 8030SOL    HW125531   3.397   2.823   4.018
 8030SOL    HW225532   3.463   2.953   3.977
 8031SOL     OW25533   2.205   2.111   5.539
 8031SOL    HW125534   2.253   2.189   5.568
 8031SOL    HW225535   2.115   2.127   5.567
 8032SOL     OW25536   3.328   3.267   4.708
 8032SOL    HW125537   3.249   3.278   4.762
 8032SOL    HW225538   3.315   3.184   4.662
 8033SOL     OW25539   3.539   3.603   4.332
 8033SOL    HW125540   3.494   3.568   4.255
 8033SOL    HW225541   3.513   3.544   4.403
 8034SOL     OW25542   2.452   2.561   3.983
 8034SOL    HW125543   2.486   2.645   3.953
 8034SOL    HW225544   2.394   2.584   4.056
 8035SOL     OW25545   3.148   2.228   4.661
 8035SOL    HW125546   3.059   2.195   4.672
 8035SOL    HW225547   3.201   2.177   4.723
 8036SOL     OW25548   3.443   3.561   4.078
 8036SOL    HW125549   3.530   3.591   4.050
 8036SOL    HW225550   3.396   3.545   3.996
 8037SOL     OW25551   2.657   2.456   5.170
 8037SOL    HW125552   2.622   2.445   5.258
 8037SOL    HW225553   2.598   2.405   5.114
 8038SOL     OW25554   3.256   2.324   5.409
 8038SOL    HW125555   3.248   2.371   5.492
 8038SOL    HW225556   3.350   2.318   5.393
 8039SOL     OW25557   2.799   2.751   5.298
 8039SOL    HW125558   2.866   2.691   5.266
 8039SOL    HW225559   2.773   2.802   5.221
 8040SOL     OW25560   2.852   2.275   4.960
 8040SOL    HW125561   2.797   2.342   5.003
 8040SOL    HW225562   2.833   2.285   4.867
 8041SOL     OW25563   2.873   2.569   4.162
 8041SOL    HW125564   2.917   2.571   4.248
 8041SOL    HW225565   2.816   2.493   4.167
 8042SOL     OW25566   1.948   2.677   4.506
 8042SOL    HW125567   2.031   2.683   4.554
 8042SOL    HW225568   1.896   2.749   4.540
 8043SOL     OW25569   1.963   3.684   5.298
 8043SOL    HW125570   1.966   3.677   5.393
 8043SOL    HW225571   1.961   3.778   5.281
 8044SOL     OW25572   2.739   2.202   3.864
 8044SOL    HW125573   2.791   2.272   3.825
 8044SOL    HW225574   2.803   2.146   3.907
 8045SOL     OW25575   3.538   2.430   5.553
 8045SOL    HW125576   3.519   2.507   5.500
 8045SOL    HW225577   3.590   2.374   5.495
 8046SOL     OW25578   3.275   2.974   4.245
 8046SOL    HW125579   3.364   3.008   4.250
 8046SOL    HW225580   3.223   3.049   4.215
 8047SOL     OW25581   2.407   2.032   4.623
 8047SOL    HW125582   2.411   2.056   4.716
 8047SOL    HW225583   2.421   2.114   4.577
 8048SOL     OW25584   2.850   3.288   4.185
 8048SOL    HW125585   2.828   3.379   4.165
 8048SOL    HW225586   2.887   3.291   4.273
 8049SOL     OW25587   2.221   3.682   4.595
 8049SOL    HW125588   2.272   3.603   4.609
 8049SOL    HW225589   2.282   3.754   4.612
 8050SOL     OW25590   3.622   2.865   4.564
 8050SOL    HW125591   3.653   2.946   4.525
 8050SOL    HW225592   3.595   2.889   4.653
 8051SOL     OW25593   2.180   2.838   3.990
 8051SOL    HW125594   2.261   2.864   3.946
 8051SOL    HW225595   2.188   2.743   4.003
 8052SOL     OW25596   3.352   2.608   4.439
 8052SOL    HW125597   3.360   2.580   4.530
 8052SOL    HW225598   3.426   2.668   4.426
 8053SOL     OW25599   2.329   3.121   5.468
 8053SOL    HW125600   2.304   3.126   5.376
 8053SOL    HW225601   2.246   3.128   5.516
 8054SOL     OW25602   2.890   3.616   3.954
 8054SOL    HW125603   2.953   3.555   3.993
 8054SOL    HW225604   2.944   3.685   3.916
 8055SOL     OW25605   2.047   2.131   5.236
 8055SOL    HW125606   2.008   2.217   5.218
 8055SOL    HW225607   2.060   2.130   5.331
 8056SOL     OW25608   2.320   3.594   4.044
 8056SOL    HW125609   2.372   3.651   4.100
 8056SOL    HW225610   2.384   3.553   3.985
 8057SOL     OW25611   3.256   1.961   4.168
 8057SOL    HW125612   3.256   1.949   4.073
 8057SOL    HW225613   3.349   1.970   4.190
 8058SOL     OW25614   2.061   3.658   4.956
 8058SOL    HW125615   2.150   3.660   4.993
 8058SOL    HW225616   2.074   3.670   4.862
 8059SOL     OW25617   2.786   3.530   4.665
 8059SOL    HW125618   2.874   3.549   4.699
 8059SOL    HW225619   2.801   3.496   4.577
 8060SOL     OW25620   2.238   2.562   4.170
 8060SOL    HW125621   2.254   2.469   4.190
 8060SOL    HW225622   2.153   2.580   4.210
 8061SOL     OW25623   3.399   2.071   5.449
 8061SOL    HW125624   3.415   2.083   5.543
 8061SOL    HW225625   3.311   2.105   5.435
 8062SOL     OW25626   2.488   1.963   3.848
 8062SOL    HW125627   2.584   1.972   3.844
 8062SOL    HW225628   2.463   1.934   3.761
 8063SOL     OW25629   2.618   2.101   5.490
 8063SOL    HW125630   2.702   2.058   5.478
 8063SOL    HW225631   2.631   2.157   5.567
 8064SOL     OW25632   2.728   3.373   4.933
 8064SOL    HW125633   2.743   3.401   4.842
 8064SOL    HW225634   2.806   3.322   4.955
 8065SOL     OW25635   3.197   2.446   5.154
 8065SOL    HW125636   3.235   2.428   5.240
 8065SOL    HW225637   3.234   2.531   5.130
 8066SOL     OW25638   2.681   3.210   4.645
 8066SOL    HW125639   2.776   3.207   4.628
 8066SOL    HW225640   2.649   3.280   4.588
 8067SOL     OW25641   2.788   2.352   4.644
 8067SOL    HW125642   2.755   2.351   4.554
 8067SOL    HW225643   2.830   2.266   4.655
 8068SOL     OW25644   2.411   1.920   4.219
 8068SOL    HW125645   2.336   1.924   4.279
 8068SOL    HW225646   2.403   2.000   4.166
 8069SOL     OW25647   3.229   2.980   3.744
 8069SOL    HW125648   3.286   2.946   3.813
 8069SOL    HW225649   3.168   3.038   3.790
 8070SOL     OW25650   2.172   1.919   3.919
 8070SOL    HW125651   2.238   1.987   3.931
 8070SOL    HW225652   2.212   1.839   3.955
 8071SOL     OW25653   2.800   2.106   4.171
 8071SOL    HW125654   2.767   2.189   4.137
 8071SOL    HW225655   2.895   2.119   4.176
 8072SOL     OW25656   2.947   2.553   5.184
 8072SOL    HW125657   2.890   2.478   5.196
 8072SOL    HW225658   3.036   2.517   5.179
 8073SOL     OW25659   3.056   3.414   4.487
 8073SOL    HW125660   3.098   3.475   4.426
 8073SOL    HW225661   3.071   3.453   4.573
 8074SOL     OW25662   2.333   3.010   4.445
 8074SOL    HW125663   2.267   2.996   4.514
 8074SOL    HW225664   2.284   3.003   4.363
 8075SOL     OW25665   3.120   3.637   4.305
 8075SOL    HW125666   3.162   3.713   4.264
 8075SOL    HW225667   3.049   3.673   4.357
 8076SOL     OW25668   2.888   2.399   3.753
 8076SOL    HW125669   2.854   2.487   3.738
 8076SOL    HW225670   2.951   2.408   3.824
 8077SOL     OW25671   1.952   2.409   5.127
 8077SOL    HW125672   2.042   2.412   5.094
 8077SOL    HW225673   1.945   2.485   5.185
 8078SOL     OW25674   2.413   2.075   4.893
 8078SOL    HW125675   2.465   2.036   4.963
 8078SOL    HW225676   2.324   2.077   4.928
 8079SOL     OW25677   2.706   2.304   4.384
 8079SOL    HW125678   2.669   2.362   4.317
 8079SOL    HW225679   2.761   2.243   4.335
 8080SOL     OW25680   2.887   1.913   4.474
 8080SOL    HW125681   2.828   1.914   4.399
 8080SOL    HW225682   2.857   1.839   4.527
 8081SOL     OW25683   3.321   3.013   4.592
 8081SOL    HW125684   3.254   2.993   4.527
 8081SOL    HW225685   3.397   3.042   4.541
 8082SOL     OW25686   3.325   2.472   4.685
 8082SOL    HW125687   3.269   2.394   4.689
 8082SOL    HW225688   3.386   2.462   4.758
 8083SOL     OW25689   3.770   2.649   4.039
 8083SOL    HW125690   3.783   2.642   4.134
 8083SOL    HW225691   3.720   2.571   4.016
 8084SOL     OW25692   2.321   3.233   3.844
 8084SOL    HW125693   2.285   3.224   3.932
 8084SOL    HW225694   2.369   3.316   3.846
 8085SOL     OW25695   3.515   3.111   4.438
 8085SOL    HW125696   3.598   3.101   4.390
 8085SOL    HW225697   3.493   3.204   4.428
 8086SOL     OW25698   3.255   2.440   3.793
 8086SOL    HW125699   3.200   2.420   3.869
 8086SOL    HW225700   3.344   2.431   3.825
 8087SOL     OW25701   2.368   2.117   4.033
 8087SOL    HW125702   2.427   2.072   3.973
 8087SOL    HW225703   2.356   2.204   3.994
 8088SOL     OW25704   2.912   3.193   5.043
 8088SOL    HW125705   2.835   3.175   5.097
 8088SOL    HW225706   2.984   3.151   5.090
 8089SOL     OW25707   2.923   3.029   4.812
 8089SOL    HW125708   2.923   3.091   4.886
 8089SOL    HW225709   2.940   3.083   4.735
 8090SOL     OW25710   3.497   2.962   4.811
 8090SOL    HW125711   3.524   3.044   4.850
 8090SOL    HW225712   3.426   2.986   4.751
 8091SOL     OW25713   2.785   1.950   5.115
 8091SOL    HW125714   2.806   1.942   5.022
 8091SOL    HW225715   2.861   1.994   5.153
 8092SOL     OW25716   2.841   2.984   5.448
 8092SOL    HW125717   2.748   2.994   5.467
 8092SOL    HW225718   2.845   2.909   5.388
 8093SOL     OW25719   2.567   2.907   4.100
 8093SOL    HW125720   2.562   2.893   4.195
 8093SOL    HW225721   2.642   2.854   4.073
 8094SOL     OW25722   2.282   2.683   4.988
 8094SOL    HW125723   2.359   2.693   5.045
 8094SOL    HW225724   2.253   2.593   5.004
 8095SOL     OW25725   3.120   2.224   5.014
 8095SOL    HW125726   3.156   2.303   5.053
 8095SOL    HW225727   3.031   2.248   4.989
 8096SOL     OW25728   1.952   3.429   5.073
 8096SOL    HW125729   1.952   3.519   5.041
 8096SOL    HW225730   2.045   3.406   5.079
 8097SOL     OW25731   2.185   2.998   4.215
 8097SOL    HW125732   2.208   3.080   4.172
 8097SOL    HW225733   2.186   2.933   4.145
 8098SOL     OW25734   2.403   2.388   4.573
 8098SOL    HW125735   2.418   2.447   4.499
 8098SOL    HW225736   2.468   2.416   4.639
 8099SOL     OW25737   3.123   3.182   4.162
 8099SOL    HW125738   3.180   3.257   4.180
 8099SOL    HW225739   3.038   3.221   4.139
 8100SOL     OW25740   3.121   3.278   4.882
 8100SOL    HW125741   3.187   3.262   4.949
 8100SOL    HW225742   3.037   3.269   4.927
 8101SOL     OW25743   3.450   2.517   4.194
 8101SOL    HW125744   3.394   2.543   4.267
 8101SOL    HW225745   3.517   2.586   4.190
 8102SOL     OW25746   2.212   3.355   5.046
 8102SOL    HW125747   2.201   3.333   4.954
 8102SOL    HW225748   2.302   3.386   5.053
 8103SOL     OW25749   2.299   2.600   5.330
 8103SOL    HW125750   2.351   2.652   5.269
 8103SOL    HW225751   2.360   2.535   5.364
 8104SOL     OW25752   3.465   2.631   5.388
 8104SOL    HW125753   3.380   2.674   5.380
 8104SOL    HW225754   3.525   2.685   5.336
 8105SOL     OW25755   2.861   1.991   5.474
 8105SOL    HW125756   2.915   2.069   5.462
 8105SOL    HW225757   2.916   1.919   5.442
 8106SOL     OW25758   2.349   1.890   5.473
 8106SOL    HW125759   2.298   1.848   5.405
 8106SOL    HW225760   2.303   1.972   5.491
 8107SOL     OW25761   2.437   2.747   4.753
 8107SOL    HW125762   2.489   2.827   4.745
 8107SOL    HW225763   2.396   2.753   4.839
 8108SOL     OW25764   3.187   2.701   4.755
 8108SOL    HW125765   3.159   2.733   4.669
 8108SOL    HW225766   3.243   2.626   4.736
 8109SOL     OW25767   3.048   2.387   3.979
 8109SOL    HW125768   3.065   2.325   4.050
 8109SOL    HW225769   3.062   2.473   4.019
 8110SOL     OW25770   2.149   2.057   4.978
 8110SOL    HW125771   2.113   2.089   5.061
 8110SOL    HW225772   2.130   1.963   4.980
 8111SOL     OW25773   1.873   3.180   5.010
 8111SOL    HW125774   1.917   3.123   5.073
 8111SOL    HW225775   1.901   3.268   5.033
 8112SOL     OW25776   2.564   2.492   4.768
 8112SOL    HW125777   2.655   2.486   4.738
 8112SOL    HW225778   2.543   2.585   4.761
 8113SOL     OW25779   3.587   2.815   5.600
 8113SOL    HW125780   3.531   2.786   5.528
 8113SOL    HW225781   3.526   2.831   5.672
 8114SOL     OW25782   2.166   1.918   4.352
 8114SOL    HW125783   2.145   2.010   4.371
 8114SOL    HW225784   2.178   1.878   4.439
 8115SOL     OW25785   3.475   2.271   4.081
 8115SOL    HW125786   3.533   2.230   4.145
 8115SOL    HW225787   3.452   2.356   4.120
 8116SOL     OW25788   2.878   2.611   4.670
 8116SOL    HW125789   2.889   2.633   4.763
 8116SOL    HW225790   2.861   2.517   4.670
 8117SOL     OW25791   2.828   3.431   5.413
 8117SOL    HW125792   2.818   3.462   5.323
 8117SOL    HW225793   2.885   3.354   5.406
 8118SOL     OW25794   3.801   3.477   5.292
 8118SOL    HW125795   3.741   3.443   5.226
 8118SOL    HW225796   3.857   3.402   5.315
 8119SOL     OW25797   2.212   2.762   5.546
 8119SOL    HW125798   2.286   2.804   5.590
 8119SOL    HW225799   2.251   2.713   5.474
 8120SOL     OW25800   3.398   2.132   3.853
 8120SOL    HW125801   3.334   2.069   3.887
 8120SOL    HW225802   3.430   2.177   3.930
 8121SOL     OW25803   3.120   2.675   3.742
 8121SOL    HW125804   3.172   2.597   3.760
 8121SOL    HW225805   3.164   2.717   3.667
 8122SOL     OW25806   2.941   3.183   4.575
 8122SOL    HW125807   2.946   3.123   4.501
 8122SOL    HW225808   2.988   3.261   4.547
 8123SOL     OW25809   2.176   2.681   4.669
 8123SOL    HW125810   2.267   2.707   4.678
 8123SOL    HW225811   2.174   2.590   4.701
 8124SOL     OW25812   2.184   2.397   4.732
 8124SOL    HW125813   2.153   2.306   4.723
 8124SOL    HW225814   2.262   2.401   4.676
 8125SOL     OW25815   2.998   2.229   5.424
 8125SOL    HW125816   2.953   2.292   5.481
 8125SOL    HW225817   3.086   2.264   5.414
 8126SOL     OW25818   3.024   2.053   5.210
 8126SOL    HW125819   3.014   2.119   5.278
 8126SOL    HW225820   3.069   2.098   5.139
 8127SOL     OW25821   1.863   3.180   3.896
 8127SOL    HW125822   1.773   3.197   3.867
 8127SOL    HW225823   1.858   3.096   3.941
 8128SOL     OW25824   1.955   3.623   4.663
 8128SOL    HW125825   1.944   3.546   4.607
 8128SOL    HW225826   2.040   3.659   4.639
 8129SOL     OW25827   2.357   3.439   4.630
 8129SOL    HW125828   2.426   3.500   4.655
 8129SOL    HW225829   2.399   3.381   4.566
 8130SOL     OW25830   2.830   2.626   4.942
 8130SOL    HW125831   2.898   2.613   5.008
 8130SOL    HW225832   2.767   2.684   4.983
 8131SOL     OW25833   1.909   2.406   4.845
 8131SOL    HW125834   1.989   2.418   4.794
 8131SOL    HW225835   1.937   2.414   4.936
 8132SOL     OW25836   2.068   2.382   5.432
 8132SOL    HW125837   2.157   2.382   5.397
 8132SOL    HW225838   2.027   2.460   5.394
 8133SOL     OW25839   3.220   2.751   5.362
 8133SOL    HW125840   3.244   2.843   5.367
 8133SOL    HW225841   3.221   2.731   5.268
 8134SOL     OW25842   2.665   2.380   4.093
 8134SOL    HW125843   2.680   2.347   4.005
 8134SOL    HW225844   2.609   2.457   4.081
 8135SOL     OW25845   3.499   2.430   4.886
 8135SOL    HW125846   3.499   2.421   4.981
 8135SOL    HW225847   3.590   2.417   4.861
 8136SOL     OW25848   2.089   3.401   5.451
 8136SOL    HW125849   2.090   3.471   5.516
 8136SOL    HW225850   2.110   3.322   5.500
 8137SOL     OW25851   2.514   2.325   4.976
 8137SOL    HW125852   2.492   2.244   4.930
 8137SOL    HW225853   2.533   2.388   4.907
 8138SOL     OW25854   2.786   3.545   5.157
 8138SOL    HW125855   2.759   3.499   5.077
 8138SOL    HW225856   2.841   3.616   5.126
 8139SOL     OW25857   2.317   2.341   3.879
 8139SOL    HW125858   2.376   2.410   3.908
 8139SOL    HW225859   2.230   2.381   3.880
 8140SOL     OW25860   1.977   2.996   5.194
 8140SOL    HW125861   1.992   2.953   5.278
 8140SOL    HW225862   2.004   2.932   5.129
 8141SOL     OW25863   3.161   2.892   4.944
 8141SOL    HW125864   3.179   2.827   4.876
 8141SOL    HW225865   3.123   2.965   4.897
 8142SOL     OW25866   3.145   2.648   4.029
 8142SOL    HW125867   3.152   2.712   4.099
 8142SOL    HW225868   3.151   2.699   3.948
 8143SOL     OW25869   3.585   3.591   4.815
 8143SOL    HW125870   3.660   3.621   4.764
 8143SOL    HW225871   3.595   3.496   4.820
 8144SOL     OW25872   3.062   3.512   4.739
 8144SOL    HW125873   3.103   3.594   4.768
 8144SOL    HW225874   3.103   3.444   4.793
 8145SOL     OW25875   1.945   3.099   4.755
 8145SOL    HW125876   1.944   3.130   4.846
 8145SOL    HW225877   1.856   3.116   4.723
 8146SOL     OW25878   2.552   3.530   5.468
 8146SOL    HW125879   2.508   3.612   5.446
 8146SOL    HW225880   2.639   3.539   5.429
 8147SOL     OW25881   3.521   1.959   4.219
 8147SOL    HW125882   3.571   2.038   4.235
 8147SOL    HW225883   3.557   1.894   4.280
 8148SOL     OW25884   3.259   3.411   4.233
 8148SOL    HW125885   3.331   3.436   4.176
 8148SOL    HW225886   3.209   3.492   4.247
 8149SOL     OW25887   1.991   3.669   5.570
 8149SOL    HW125888   1.948   3.597   5.616
 8149SOL    HW225889   2.049   3.708   5.636
 8150SOL     OW25890   3.148   2.782   4.380
 8150SOL    HW125891   3.222   2.725   4.400
 8150SOL    HW225892   3.186   2.855   4.331
 8151SOL     OW25893   2.661   3.138   5.147
 8151SOL    HW125894   2.624   3.177   5.226
 8151SOL    HW225895   2.635   3.198   5.077
 8152SOL     OW25896   2.476   3.456   3.864
 8152SOL    HW125897   2.501   3.478   3.774
 8152SOL    HW225898   2.550   3.405   3.897
 8153SOL     OW25899   3.625   3.640   5.078
 8153SOL    HW125900   3.583   3.618   4.995
 8153SOL    HW225901   3.570   3.710   5.114
 8154SOL     OW25902   3.693   2.026   4.698
 8154SOL    HW125903   3.735   1.952   4.654
 8154SOL    HW225904   3.613   2.042   4.647
 8155SOL     OW25905   2.115   2.169   4.439
 8155SOL    HW125906   2.031   2.211   4.421
 8155SOL    HW225907   2.122   2.169   4.534
 8156SOL     OW25908   2.703   2.878   5.069
 8156SOL    HW125909   2.753   2.897   4.990
 8156SOL    HW225910   2.683   2.963   5.106
 8157SOL     OW25911   2.756   2.743   3.987
 8157SOL    HW125912   2.820   2.787   3.932
 8157SOL    HW225913   2.808   2.692   4.049
 8158SOL     OW25914   2.217   3.146   5.227
 8158SOL    HW125915   2.227   3.220   5.167
 8158SOL    HW225916   2.134   3.106   5.201
 8159SOL     OW25917   2.914   2.958   4.407
 8159SOL    HW125918   2.853   2.913   4.464
 8159SOL    HW225919   2.988   2.898   4.398
 8160SOL     OW25920   2.896   2.102   4.683
 8160SOL    HW125921   2.901   2.046   4.606
 8160SOL    HW225922   2.886   2.042   4.756
 8161SOL     OW25923   2.439   3.316   4.170
 8161SOL    HW125924   2.514   3.279   4.123
 8161SOL    HW225925   2.447   3.411   4.157
 8162SOL     OW25926   3.586   2.236   5.127
 8162SOL    HW125927   3.651   2.306   5.124
 8162SOL    HW225928   3.611   2.176   5.058
 8163SOL     OW25929   2.112   3.206   4.022
 8163SOL    HW125930   2.024   3.211   3.984
 8163SOL    HW225931   2.103   3.249   4.107
 8164SOL     OW25932   1.973   2.859   5.435
 8164SOL    HW125933   1.901   2.854   5.497
 8164SOL    HW225934   2.051   2.842   5.487
 8165SOL     OW25935   2.539   2.040   5.224
 8165SOL    HW125936   2.626   2.030   5.186
 8165SOL    HW225937   2.554   2.066   5.315
 8166SOL     OW25938   1.949   2.206   3.752
 8166SOL    HW125939   1.869   2.200   3.804
 8166SOL    HW225940   1.989   2.289   3.778
 8167SOL     OW25941   3.281   2.700   5.100
 8167SOL    HW125942   3.232   2.769   5.055
 8167SOL    HW225943   3.372   2.715   5.075
 8168SOL     OW25944   1.931   2.013   4.037
 8168SOL    HW125945   1.944   2.107   4.053
 8168SOL    HW225946   2.015   1.982   4.004
 8169SOL     OW25947   3.015   3.150   3.835
 8169SOL    HW125948   2.928   3.143   3.875
 8169SOL    HW225949   3.056   3.225   3.878
 8170SOL     OW25950   2.498   2.693   5.151
 8170SOL    HW125951   2.549   2.773   5.136
 8170SOL    HW225952   2.564   2.624   5.160
 8171SOL     OW25953   3.384   3.619   4.622
 8171SOL    HW125954   3.391   3.712   4.597
 8171SOL    HW225955   3.437   3.611   4.701
 8172SOL     OW25956   2.571   2.444   5.431
 8172SOL    HW125957   2.612   2.520   5.471
 8172SOL    HW225958   2.618   2.369   5.469
 8173SOL     OW25959   3.316   2.998   5.355
 8173SOL    HW125960   3.289   3.015   5.445
 8173SOL    HW225961   3.341   3.084   5.321
 8174SOL     OW25962   2.226   3.598   5.287
 8174SOL    HW125963   2.135   3.627   5.275
 8174SOL    HW225964   2.218   3.508   5.318
 8175SOL     OW25965   3.525   2.751   4.982
 8175SOL    HW125966   3.550   2.684   4.919
 8175SOL    HW225967   3.514   2.830   4.930
 8176SOL     OW25968   3.067   2.171   4.180
 8176SOL    HW125969   3.137   2.106   4.175
 8176SOL    HW225970   3.088   2.225   4.256
 8177SOL     OW25971   2.443   2.582   4.378
 8177SOL    HW125972   2.490   2.665   4.389
 8177SOL    HW225973   2.376   2.600   4.313
 8178SOL     OW25974   3.634   2.213   5.401
 8178SOL    HW125975   3.630   2.227   5.307
 8178SOL    HW225976   3.560   2.155   5.420
 8179SOL     OW25977   3.618   2.804   5.245
 8179SOL    HW125978   3.681   2.876   5.251
 8179SOL    HW225979   3.594   2.800   5.153
 8180SOL     OW25980   2.694   3.212   3.765
 8180SOL    HW125981   2.688   3.219   3.861
 8180SOL    HW225982   2.733   3.295   3.738
 8181SOL     OW25983   2.532   3.639   4.669
 8181SOL    HW125984   2.537   3.733   4.651
 8181SOL    HW225985   2.624   3.612   4.677
 8182SOL     OW25986   2.733   2.828   4.575
 8182SOL    HW125987   2.787   2.760   4.615
 8182SOL    HW225988   2.706   2.883   4.649
 8183SOL     OW25989   2.917   2.848   3.789
 8183SOL    HW125990   2.958   2.934   3.793
 8183SOL    HW225991   2.989   2.787   3.772
 8184SOL     OW25992   3.692   3.402   4.585
 8184SOL    HW125993   3.626   3.388   4.517
 8184SOL    HW225994   3.653   3.367   4.664
 8185SOL     OW25995   2.093   3.158   5.595
 8185SOL    HW125996   2.001   3.132   5.588
 8185SOL    HW225997   2.107   3.171   5.689
 8186SOL     OW25998   1.947   3.047   4.389
 8186SOL    HW125999   1.999   3.014   4.463
 8186SOL    HW226000   2.010   3.056   4.318
 8187SOL     OW26001   2.530   3.274   5.343
 8187SOL    HW126002   2.463   3.233   5.398
 8187SOL    HW226003   2.548   3.358   5.385
 8188SOL     OW26004   3.650   2.034   4.963
 8188SOL    HW126005   3.701   1.956   4.985
 8188SOL    HW226006   3.664   2.047   4.869
 8189SOL     OW26007   2.257   2.298   4.231
 8189SOL    HW126008   2.320   2.234   4.198
 8189SOL    HW226009   2.228   2.262   4.315
 8190SOL     OW26010   3.569   3.312   4.824
 8190SOL    HW126011   3.479   3.304   4.790
 8190SOL    HW226012   3.558   3.319   4.919
 8191SOL     OW26013   2.196   2.417   5.018
 8191SOL    HW126014   2.257   2.368   5.073
 8191SOL    HW226015   2.225   2.399   4.929
 8192SOL     OW26016   2.690   3.421   4.411
 8192SOL    HW126017   2.690   3.475   4.332
 8192SOL    HW226018   2.606   3.375   4.408
 8193SOL     OW26019   3.296   2.091   4.850
 8193SOL    HW126020   3.371   2.062   4.902
 8193SOL    HW226021   3.239   2.135   4.913
 8194SOL     OW26022   2.869   1.870   4.853
 8194SOL    HW126023   2.827   1.811   4.790
 8194SOL    HW226024   2.960   1.841   4.856
 8195SOL     OW26025   2.649   3.188   4.035
 8195SOL    HW126026   2.629   3.099   4.065
 8195SOL    HW226027   2.722   3.216   4.091
 8196SOL     OW26028   2.474   3.420   5.014
 8196SOL    HW126029   2.473   3.509   5.050
 8196SOL    HW226030   2.563   3.409   4.980
 8197SOL     OW26031   3.217   1.919   3.897
 8197SOL    HW126032   3.258   1.842   3.856
 8197SOL    HW226033   3.127   1.892   3.915
 8198SOL     OW26034   3.118   2.318   4.399
 8198SOL    HW126035   3.086   2.408   4.407
 8198SOL    HW226036   3.141   2.292   4.488
 8199SOL     OW26037   3.430   2.051   4.600
 8199SOL    HW126038   3.383   2.082   4.678
 8199SOL    HW226039   3.439   2.128   4.545
 8200SOL     OW26040   1.895   2.931   4.027
 8200SOL    HW126041   1.990   2.939   4.021
 8200SOL    HW226042   1.879   2.838   4.042
 8201SOL     OW26043   2.684   3.516   4.105
 8201SOL    HW126044   2.745   3.538   4.034
 8201SOL    HW226045   2.684   3.593   4.161
 8202SOL     OW26046   2.074   2.447   5.714
 8202SOL    HW126047   1.998   2.489   5.753
 8202SOL    HW226048   2.072   2.476   5.622
 8203SOL     OW26049   2.085   2.149   6.577
 8203SOL    HW126050   2.117   2.113   6.660
 8203SOL    HW226051   1.995   2.116   6.570
 8204SOL     OW26052   1.863   2.246   6.228
 8204SOL    HW126053   1.782   2.272   6.272
 8204SOL    HW226054   1.838   2.172   6.173
 8205SOL     OW26055   2.408   3.141   6.758
 8205SOL    HW126056   2.336   3.191   6.719
 8205SOL    HW226057   2.457   3.206   6.809
 8206SOL     OW26058   2.987   2.565   6.280
 8206SOL    HW126059   3.041   2.642   6.262
 8206SOL    HW226060   2.946   2.583   6.364
 8207SOL     OW26061   3.650   2.433   5.800
 8207SOL    HW126062   3.613   2.443   5.713
 8207SOL    HW226063   3.595   2.368   5.843
 8208SOL     OW26064   2.588   2.988   6.621
 8208SOL    HW126065   2.525   3.029   6.680
 8208SOL    HW226066   2.641   3.060   6.588
 8209SOL     OW26067   2.734   2.639   7.401
 8209SOL    HW126068   2.773   2.700   7.463
 8209SOL    HW226069   2.748   2.678   7.315
 8210SOL     OW26070   2.542   2.846   6.236
 8210SOL    HW126071   2.614   2.844   6.300
 8210SOL    HW226072   2.481   2.910   6.271
 8211SOL     OW26073   2.564   3.010   7.409
 8211SOL    HW126074   2.613   3.087   7.437
 8211SOL    HW226075   2.488   3.046   7.362
 8212SOL     OW26076   2.192   3.289   6.651
 8212SOL    HW126077   2.123   3.252   6.596
 8212SOL    HW226078   2.245   3.342   6.591
 8213SOL     OW26079   2.297   2.246   7.151
 8213SOL    HW126080   2.380   2.221   7.111
 8213SOL    HW226081   2.231   2.200   7.099
 8214SOL     OW26082   3.469   2.307   6.337
 8214SOL    HW126083   3.422   2.347   6.264
 8214SOL    HW226084   3.468   2.374   6.405
 8215SOL     OW26085   2.089   3.575   6.051
 8215SOL    HW126086   2.107   3.646   6.112
 8215SOL    HW226087   2.169   3.568   5.998
 8216SOL     OW26088   2.997   3.200   7.284
 8216SOL    HW126089   3.057   3.198   7.359
 8216SOL    HW226090   2.957   3.113   7.284
 8217SOL     OW26091   2.065   3.309   6.116
 8217SOL    HW126092   2.075   3.403   6.102
 8217SOL    HW226093   2.041   3.301   6.209
 8218SOL     OW26094   2.113   2.955   6.457
 8218SOL    HW126095   2.131   2.872   6.501
 8218SOL    HW226096   2.073   3.010   6.524
 8219SOL     OW26097   2.437   3.677   6.965
 8219SOL    HW126098   2.382   3.665   7.042
 8219SOL    HW226099   2.518   3.714   6.999
 8220SOL     OW26100   2.434   2.856   5.730
 8220SOL    HW126101   2.486   2.897   5.661
 8220SOL    HW226102   2.477   2.881   5.811
 8221SOL     OW26103   3.452   1.993   7.050
 8221SOL    HW126104   3.494   2.072   7.015
 8221SOL    HW226105   3.437   2.013   7.142
 8222SOL     OW26106   1.971   2.525   6.149
 8222SOL    HW126107   1.956   2.435   6.175
 8222SOL    HW226108   1.968   2.575   6.231
 8223SOL     OW26109   1.892   3.457   5.709
 8223SOL    HW126110   1.884   3.364   5.730
 8223SOL    HW226111   1.876   3.501   5.792
 8224SOL     OW26112   3.537   2.755   6.202
 8224SOL    HW126113   3.632   2.748   6.208
 8224SOL    HW226114   3.522   2.831   6.145
 8225SOL     OW26115   3.497   2.986   6.042
 8225SOL    HW126116   3.586   2.974   6.010
 8225SOL    HW226117   3.503   3.056   6.107
 8226SOL     OW26118   2.008   2.601   7.175
 8226SOL    HW126119   2.101   2.623   7.170
 8226SOL    HW226120   1.965   2.685   7.195
 8227SOL     OW26121   2.475   3.259   6.314
 8227SOL    HW126122   2.437   3.171   6.323
 8227SOL    HW226123   2.458   3.282   6.223
 8228SOL     OW26124   3.122   3.017   7.054
 8228SOL    HW126125   3.154   3.029   6.965
 8228SOL    HW226126   3.188   3.059   7.109
 8229SOL     OW26127   2.682   1.862   6.103
 8229SOL    HW126128   2.726   1.944   6.078
 8229SOL    HW226129   2.589   1.886   6.108
 8230SOL     OW26130   2.039   2.813   6.862
 8230SOL    HW126131   2.129   2.780   6.863
 8230SOL    HW226132   2.009   2.796   6.773
 8231SOL     OW26133   3.394   2.861   5.805
 8231SOL    HW126134   3.338   2.795   5.845
 8231SOL    HW226135   3.433   2.908   5.879
 8232SOL     OW26136   2.982   3.671   7.181
 8232SOL    HW126137   3.036   3.735   7.136
 8232SOL    HW226138   3.023   3.586   7.162
 8233SOL     OW26139   2.230   2.146   7.410
 8233SOL    HW126140   2.302   2.193   7.368
 8233SOL    HW226141   2.152   2.173   7.361
 8234SOL     OW26142   2.456   2.568   5.854
 8234SOL    HW126143   2.481   2.653   5.817
 8234SOL    HW226144   2.393   2.589   5.922
 8235SOL     OW26145   3.148   2.230   6.527
 8235SOL    HW126146   3.058   2.197   6.534
 8235SOL    HW226147   3.198   2.175   6.587
 8236SOL     OW26148   2.642   2.460   7.031
 8236SOL    HW126149   2.616   2.446   7.122
 8236SOL    HW226150   2.583   2.404   6.980
 8237SOL     OW26151   3.251   2.316   7.269
 8237SOL    HW126152   3.248   2.369   7.348
 8237SOL    HW226153   3.343   2.319   7.242
 8238SOL     OW26154   2.793   2.744   7.157
 8238SOL    HW126155   2.860   2.683   7.126
 8238SOL    HW226156   2.771   2.796   7.080
 8239SOL     OW26157   2.857   2.280   6.822
 8239SOL    HW126158   2.805   2.357   6.845
 8239SOL    HW226159   2.838   2.266   6.729
 8240SOL     OW26160   2.906   2.552   6.014
 8240SOL    HW126161   2.932   2.557   6.106
 8240SOL    HW226162   2.824   2.503   6.016
 8241SOL     OW26163   1.944   2.685   6.371
 8241SOL    HW126164   2.030   2.685   6.414
 8241SOL    HW226165   1.898   2.759   6.410
 8242SOL     OW26166   1.965   3.676   7.158
 8242SOL    HW126167   1.965   3.672   7.254
 8242SOL    HW226168   1.941   3.767   7.138
 8243SOL     OW26169   2.746   2.199   5.731
 8243SOL    HW126170   2.789   2.275   5.692
 8243SOL    HW226171   2.817   2.137   5.747
 8244SOL     OW26172   3.550   2.452   7.431
 8244SOL    HW126173   3.533   2.543   7.406
 8244SOL    HW226174   3.587   2.412   7.353
 8245SOL     OW26175   3.221   2.974   6.077
 8245SOL    HW126176   3.315   2.986   6.064
 8245SOL    HW226177   3.182   3.058   6.054
 8246SOL     OW26178   2.407   2.032   6.483
 8246SOL    HW126179   2.417   2.059   6.575
 8246SOL    HW226180   2.417   2.114   6.433
 8247SOL     OW26181   2.856   3.292   6.056
 8247SOL    HW126182   2.824   3.370   6.012
 8247SOL    HW226183   2.850   3.313   6.149
 8248SOL     OW26184   2.215   3.683   6.471
 8248SOL    HW126185   2.270   3.604   6.473
 8248SOL    HW226186   2.277   3.755   6.480
 8249SOL     OW26187   3.625   2.888   6.479
 8249SOL    HW126188   3.654   2.922   6.395
 8249SOL    HW226189   3.616   2.965   6.535
 8250SOL     OW26190   3.064   3.419   7.113
 8250SOL    HW126191   3.072   3.336   7.159
 8250SOL    HW226192   3.131   3.417   7.045
 8251SOL     OW26193   2.179   2.833   5.842
 8251SOL    HW126194   2.266   2.857   5.810
 8251SOL    HW226195   2.154   2.756   5.791
 8252SOL     OW26196   3.339   2.604   6.302
 8252SOL    HW126197   3.348   2.578   6.393
 8252SOL    HW226198   3.415   2.660   6.285
 8253SOL     OW26199   2.323   3.122   7.335
 8253SOL    HW126200   2.303   3.130   7.242
 8253SOL    HW226201   2.238   3.126   7.379
 8254SOL     OW26202   2.936   3.663   5.812
 8254SOL    HW126203   2.885   3.606   5.870
 8254SOL    HW226204   2.985   3.602   5.756
 8255SOL     OW26205   2.061   2.122   7.069
 8255SOL    HW126206   1.998   2.192   7.091
 8255SOL    HW226207   2.024   2.043   7.109
 8256SOL     OW26208   2.328   3.586   5.909
 8256SOL    HW126209   2.369   3.650   5.967
 8256SOL    HW226210   2.396   3.562   5.847
 8257SOL     OW26211   3.268   1.965   6.040
 8257SOL    HW126212   3.261   1.949   5.946
 8257SOL    HW226213   3.359   1.991   6.054
 8258SOL     OW26214   2.120   3.645   6.814
 8258SOL    HW126215   2.189   3.608   6.869
 8258SOL    HW226216   2.150   3.630   6.724
 8259SOL     OW26217   2.786   3.555   6.502
 8259SOL    HW126218   2.860   3.503   6.532
 8259SOL    HW226219   2.759   3.515   6.420
 8260SOL     OW26220   2.253   2.560   6.050
 8260SOL    HW126221   2.263   2.466   6.065
 8260SOL    HW226222   2.162   2.578   6.071
 8261SOL     OW26223   3.405   2.069   7.311
 8261SOL    HW126224   3.417   2.084   7.405
 8261SOL    HW226225   3.312   2.089   7.296
 8262SOL     OW26226   2.484   1.951   5.713
 8262SOL    HW126227   2.571   1.991   5.699
 8262SOL    HW226228   2.449   1.940   5.625
 8263SOL     OW26229   2.620   2.112   7.347
 8263SOL    HW126230   2.704   2.066   7.339
 8263SOL    HW226231   2.625   2.156   7.432
 8264SOL     OW26232   2.712   3.311   6.795
 8264SOL    HW126233   2.714   3.293   6.701
 8264SOL    HW226234   2.803   3.298   6.823
 8265SOL     OW26235   3.204   2.459   7.016
 8265SOL    HW126236   3.246   2.441   7.100
 8265SOL    HW226237   3.233   2.547   6.992
 8266SOL     OW26238   2.693   3.226   6.520
 8266SOL    HW126239   2.781   3.226   6.482
 8266SOL    HW226240   2.635   3.252   6.449
 8267SOL     OW26241   2.785   2.357   6.498
 8267SOL    HW126242   2.756   2.355   6.406
 8267SOL    HW226243   2.826   2.271   6.512
 8268SOL     OW26244   2.412   1.924   6.089
 8268SOL    HW126245   2.335   1.928   6.146
 8268SOL    HW226246   2.406   2.003   6.035
 8269SOL     OW26247   3.240   3.002   5.615
 8269SOL    HW126248   3.292   2.962   5.684
 8269SOL    HW226249   3.178   3.059   5.661
 8270SOL     OW26250   2.157   1.905   5.773
 8270SOL    HW126251   2.214   1.977   5.745
 8270SOL    HW226252   2.216   1.846   5.820
 8271SOL     OW26253   2.801   2.105   6.041
 8271SOL    HW126254   2.769   2.171   5.980
 8271SOL    HW226255   2.896   2.119   6.046
 8272SOL     OW26256   2.947   2.546   7.050
 8272SOL    HW126257   2.901   2.462   7.054
 8272SOL    HW226258   3.040   2.521   7.045
 8273SOL     OW26259   2.333   3.016   6.304
 8273SOL    HW126260   2.266   2.998   6.370
 8273SOL    HW226261   2.288   3.004   6.221
 8274SOL     OW26262   2.880   2.403   5.613
 8274SOL    HW126263   2.848   2.490   5.591
 8274SOL    HW226264   2.948   2.417   5.678
 8275SOL     OW26265   1.961   2.410   6.984
 8275SOL    HW126266   2.052   2.406   6.956
 8275SOL    HW226267   1.958   2.485   7.044
 8276SOL     OW26268   2.423   2.074   6.755
 8276SOL    HW126269   2.468   2.014   6.814
 8276SOL    HW226270   2.331   2.070   6.781
 8277SOL     OW26271   2.712   2.307   6.236
 8277SOL    HW126272   2.676   2.367   6.170
 8277SOL    HW226273   2.752   2.236   6.184
 8278SOL     OW26274   2.889   1.916   6.336
 8278SOL    HW126275   2.828   1.919   6.262
 8278SOL    HW226276   2.858   1.842   6.389
 8279SOL     OW26277   3.252   3.062   6.403
 8279SOL    HW126278   3.264   2.968   6.417
 8279SOL    HW226279   3.337   3.093   6.370
 8280SOL     OW26280   3.326   2.468   6.549
 8280SOL    HW126281   3.268   2.392   6.557
 8280SOL    HW226282   3.383   2.462   6.626
 8281SOL     OW26283   3.707   2.647   5.962
 8281SOL    HW126284   3.767   2.604   6.023
 8281SOL    HW226285   3.690   2.580   5.895
 8282SOL     OW26286   2.350   3.288   5.731
 8282SOL    HW126287   2.279   3.251   5.784
 8282SOL    HW226288   2.368   3.220   5.666
 8283SOL     OW26289   3.533   3.154   6.261
 8283SOL    HW126290   3.618   3.112   6.276
 8283SOL    HW226291   3.550   3.247   6.273
 8284SOL     OW26292   3.250   2.435   5.653
 8284SOL    HW126293   3.204   2.419   5.735
 8284SOL    HW226294   3.343   2.439   5.678
 8285SOL     OW26295   2.377   2.120   5.904
 8285SOL    HW126296   2.424   2.067   5.840
 8285SOL    HW226297   2.360   2.203   5.860
 8286SOL     OW26298   2.950   3.213   6.895
 8286SOL    HW126299   2.947   3.176   6.984
 8286SOL    HW226300   3.038   3.248   6.887
 8287SOL     OW26301   3.462   3.462   7.221
 8287SOL    HW126302   3.438   3.507   7.140
 8287SOL    HW226303   3.542   3.414   7.199
 8288SOL     OW26304   2.945   3.037   6.688
 8288SOL    HW126305   2.946   3.098   6.761
 8288SOL    HW226306   2.963   3.091   6.611
 8289SOL     OW26307   2.782   1.952   6.975
 8289SOL    HW126308   2.804   1.938   6.883
 8289SOL    HW226309   2.859   1.995   7.012
 8290SOL     OW26310   2.841   2.970   7.317
 8290SOL    HW126311   2.749   2.994   7.322
 8290SOL    HW226312   2.844   2.902   7.249
 8291SOL     OW26313   2.565   2.910   5.964
 8291SOL    HW126314   2.557   2.895   6.058
 8291SOL    HW226315   2.642   2.859   5.938
 8292SOL     OW26316   2.278   2.683   6.856
 8292SOL    HW126317   2.356   2.697   6.910
 8292SOL    HW226318   2.257   2.591   6.866
 8293SOL     OW26319   3.125   2.233   6.877
 8293SOL    HW126320   3.161   2.312   6.917
 8293SOL    HW226321   3.036   2.257   6.853
 8294SOL     OW26322   1.950   3.428   6.932
 8294SOL    HW126323   1.945   3.520   6.907
 8294SOL    HW226324   2.044   3.409   6.936
 8295SOL     OW26325   2.186   2.989   6.073
 8295SOL    HW126326   2.211   3.065   6.022
 8295SOL    HW226327   2.189   2.916   6.011
 8296SOL     OW26328   2.402   2.390   6.444
 8296SOL    HW126329   2.415   2.449   6.370
 8296SOL    HW226330   2.469   2.415   6.507
 8297SOL     OW26331   3.115   3.216   5.991
 8297SOL    HW126332   3.166   3.295   6.013
 8297SOL    HW226333   3.026   3.237   6.019
 8298SOL     OW26334   3.455   2.483   6.072
 8298SOL    HW126335   3.397   2.531   6.130
 8298SOL    HW226336   3.518   2.548   6.041
 8299SOL     OW26337   2.214   3.366   6.908
 8299SOL    HW126338   2.200   3.338   6.818
 8299SOL    HW226339   2.306   3.389   6.912
 8300SOL     OW26340   2.294   2.607   7.194
 8300SOL    HW126341   2.349   2.659   7.135
 8300SOL    HW226342   2.350   2.534   7.220
 8301SOL     OW26343   3.425   2.586   7.206
 8301SOL    HW126344   3.363   2.652   7.234
 8301SOL    HW226345   3.500   2.636   7.173
 8302SOL     OW26346   2.862   1.995   7.345
 8302SOL    HW126347   2.916   2.072   7.326
 8302SOL    HW226348   2.913   1.921   7.312
 8303SOL     OW26349   2.346   1.890   7.352
 8303SOL    HW126350   2.308   1.839   7.281
 8303SOL    HW226351   2.318   1.979   7.336
 8304SOL     OW26352   2.441   2.746   6.619
 8304SOL    HW126353   2.493   2.826   6.607
 8304SOL    HW226354   2.398   2.758   6.704
 8305SOL     OW26355   3.208   2.719   6.593
 8305SOL    HW126356   3.131   2.712   6.537
 8305SOL    HW226357   3.252   2.634   6.585
 8306SOL     OW26358   3.048   2.379   5.845
 8306SOL    HW126359   3.066   2.311   5.910
 8306SOL    HW226360   3.027   2.457   5.897
 8307SOL     OW26361   2.158   2.050   6.824
 8307SOL    HW126362   2.124   2.085   6.906
 8307SOL    HW226363   2.139   1.956   6.828
 8308SOL     OW26364   1.867   3.178   6.865
 8308SOL    HW126365   1.913   3.121   6.927
 8308SOL    HW226366   1.897   3.266   6.887
 8309SOL     OW26367   2.569   2.486   6.640
 8309SOL    HW126368   2.655   2.474   6.599
 8309SOL    HW226369   2.550   2.580   6.628
 8310SOL     OW26370   3.532   2.741   7.456
 8310SOL    HW126371   3.575   2.799   7.393
 8310SOL    HW226372   3.496   2.800   7.522
 8311SOL     OW26373   2.166   1.914   6.217
 8311SOL    HW126374   2.145   2.006   6.234
 8311SOL    HW226375   2.177   1.876   6.304
 8312SOL     OW26376   3.472   2.245   5.943
 8312SOL    HW126377   3.508   2.186   6.008
 8312SOL    HW226378   3.457   2.327   5.991
 8313SOL     OW26379   2.886   2.610   6.538
 8313SOL    HW126380   2.885   2.628   6.632
 8313SOL    HW226381   2.861   2.518   6.530
 8314SOL     OW26382   2.797   3.388   7.273
 8314SOL    HW126383   2.805   3.439   7.192
 8314SOL    HW226384   2.877   3.335   7.275
 8315SOL     OW26385   2.211   2.751   7.422
 8315SOL    HW126386   2.289   2.794   7.458
 8315SOL    HW226387   2.243   2.707   7.343
 8316SOL     OW26388   3.397   2.117   5.713
 8316SOL    HW126389   3.326   2.064   5.750
 8316SOL    HW226390   3.428   2.170   5.787
 8317SOL     OW26391   3.134   2.680   5.611
 8317SOL    HW126392   3.182   2.598   5.617
 8317SOL    HW226393   3.163   2.719   5.528
 8318SOL     OW26394   2.949   3.199   6.421
 8318SOL    HW126395   2.936   3.123   6.365
 8318SOL    HW226396   3.044   3.213   6.422
 8319SOL     OW26397   2.175   2.683   6.534
 8319SOL    HW126398   2.268   2.708   6.539
 8319SOL    HW226399   2.174   2.591   6.561
 8320SOL     OW26400   2.182   2.399   6.599
 8320SOL    HW126401   2.149   2.310   6.586
 8320SOL    HW226402   2.260   2.404   6.544
 8321SOL     OW26403   2.993   2.232   7.283
 8321SOL    HW126404   2.952   2.296   7.341
 8321SOL    HW226405   3.083   2.262   7.273
 8322SOL     OW26406   3.020   2.059   7.065
 8322SOL    HW126407   3.011   2.123   7.135
 8322SOL    HW226408   3.068   2.105   6.996
 8323SOL     OW26409   1.860   3.182   5.781
 8323SOL    HW126410   1.772   3.199   5.749
 8323SOL    HW226411   1.856   3.093   5.816
 8324SOL     OW26412   1.948   3.644   6.517
 8324SOL    HW126413   1.928   3.564   6.469
 8324SOL    HW226414   2.041   3.660   6.501
 8325SOL     OW26415   2.353   3.436   6.489
 8325SOL    HW126416   2.420   3.500   6.513
 8325SOL    HW226417   2.398   3.375   6.429
 8326SOL     OW26418   2.835   2.624   6.806
 8326SOL    HW126419   2.902   2.614   6.874
 8326SOL    HW226420   2.769   2.681   6.846
 8327SOL     OW26421   1.904   2.407   6.707
 8327SOL    HW126422   1.981   2.415   6.651
 8327SOL    HW226423   1.938   2.414   6.796
 8328SOL     OW26424   2.079   2.365   7.293
 8328SOL    HW126425   2.158   2.349   7.242
 8328SOL    HW226426   2.041   2.444   7.255
 8329SOL     OW26427   3.250   2.800   7.239
 8329SOL    HW126428   3.283   2.890   7.246
 8329SOL    HW226429   3.231   2.789   7.146
 8330SOL     OW26430   2.668   2.404   5.956
 8330SOL    HW126431   2.680   2.359   5.872
 8330SOL    HW226432   2.604   2.472   5.938
 8331SOL     OW26433   3.499   2.446   6.756
 8331SOL    HW126434   3.495   2.420   6.848
 8331SOL    HW226435   3.589   2.427   6.729
 8332SOL     OW26436   2.083   3.401   7.315
 8332SOL    HW126437   2.112   3.470   7.374
 8332SOL    HW226438   2.110   3.320   7.359
 8333SOL     OW26439   2.478   2.332   6.848
 8333SOL    HW126440   2.478   2.245   6.808
 8333SOL    HW226441   2.513   2.390   6.779
 8334SOL     OW26442   2.758   3.561   7.060
 8334SOL    HW126443   2.778   3.559   6.967
 8334SOL    HW226444   2.827   3.616   7.098
 8335SOL     OW26445   2.324   2.342   5.758
 8335SOL    HW126446   2.381   2.415   5.783
 8335SOL    HW226447   2.237   2.380   5.753
 8336SOL     OW26448   1.972   2.994   7.052
 8336SOL    HW126449   1.996   2.953   7.136
 8336SOL    HW226450   1.999   2.930   6.987
 8337SOL     OW26451   3.178   2.905   6.790
 8337SOL    HW126452   3.201   2.847   6.717
 8337SOL    HW226453   3.109   2.962   6.756
 8338SOL     OW26454   3.187   2.684   5.885
 8338SOL    HW126455   3.126   2.735   5.938
 8338SOL    HW226456   3.157   2.698   5.795
 8339SOL     OW26457   1.950   3.117   6.605
 8339SOL    HW126458   1.922   3.141   6.693
 8339SOL    HW226459   1.880   3.059   6.573
 8340SOL     OW26460   2.559   3.533   7.331
 8340SOL    HW126461   2.533   3.620   7.300
 8340SOL    HW226462   2.646   3.519   7.296
 8341SOL     OW26463   3.581   2.023   6.086
 8341SOL    HW126464   3.650   2.011   6.021
 8341SOL    HW226465   3.572   1.937   6.127
 8342SOL     OW26466   3.250   3.452   6.051
 8342SOL    HW126467   3.319   3.478   5.990
 8342SOL    HW226468   3.237   3.528   6.107
 8343SOL     OW26469   1.980   3.674   7.432
 8343SOL    HW126470   1.943   3.596   7.474
 8343SOL    HW226471   2.042   3.708   7.495
 8344SOL     OW26472   3.137   2.785   6.249
 8344SOL    HW126473   3.215   2.731   6.261
 8344SOL    HW226474   3.166   2.856   6.191
 8345SOL     OW26475   2.649   3.122   7.008
 8345SOL    HW126476   2.607   3.172   7.078
 8345SOL    HW226477   2.684   3.189   6.948
 8346SOL     OW26478   2.526   3.491   5.742
 8346SOL    HW126479   2.547   3.507   5.650
 8346SOL    HW226480   2.474   3.411   5.741
 8347SOL     OW26481   3.701   2.029   6.548
 8347SOL    HW126482   3.729   1.942   6.520
 8347SOL    HW226483   3.615   2.041   6.507
 8348SOL     OW26484   2.118   2.166   6.301
 8348SOL    HW126485   2.034   2.207   6.279
 8348SOL    HW226486   2.122   2.168   6.396
 8349SOL     OW26487   3.014   3.450   5.644
 8349SOL    HW126488   3.105   3.443   5.615
 8349SOL    HW226489   2.965   3.463   5.563
 8350SOL     OW26490   2.705   2.872   6.927
 8350SOL    HW126491   2.761   2.895   6.853
 8350SOL    HW226492   2.679   2.957   6.964
 8351SOL     OW26493   2.765   2.752   5.881
 8351SOL    HW126494   2.818   2.788   5.810
 8351SOL    HW226495   2.825   2.695   5.929
 8352SOL     OW26496   2.210   3.157   7.094
 8352SOL    HW126497   2.230   3.229   7.035
 8352SOL    HW226498   2.135   3.113   7.053
 8353SOL     OW26499   2.913   2.966   6.287
 8353SOL    HW126500   2.851   2.909   6.333
 8353SOL    HW226501   2.990   2.912   6.273
 8354SOL     OW26502   2.893   2.105   6.548
 8354SOL    HW126503   2.898   2.052   6.468
 8354SOL    HW226504   2.885   2.040   6.619
 8355SOL     OW26505   2.445   3.333   6.056
 8355SOL    HW126506   2.508   3.287   6.001
 8355SOL    HW226507   2.409   3.402   5.999
 8356SOL     OW26508   3.595   2.238   6.985
 8356SOL    HW126509   3.661   2.307   6.981
 8356SOL    HW226510   3.620   2.176   6.917
 8357SOL     OW26511   2.117   3.204   5.871
 8357SOL    HW126512   2.024   3.203   5.849
 8357SOL    HW226513   2.121   3.244   5.958
 8358SOL     OW26514   1.976   2.857   7.298
 8358SOL    HW126515   1.904   2.852   7.361
 8358SOL    HW226516   2.055   2.841   7.351
 8359SOL     OW26517   2.540   2.042   7.088
 8359SOL    HW126518   2.625   2.028   7.046
 8359SOL    HW226519   2.562   2.073   7.176
 8360SOL     OW26520   1.945   2.181   5.604
 8360SOL    HW126521   1.873   2.183   5.541
 8360SOL    HW226522   1.982   2.269   5.600
 8361SOL     OW26523   3.269   2.717   6.966
 8361SOL    HW126524   3.226   2.789   6.919
 8361SOL    HW226525   3.362   2.727   6.944
 8362SOL     OW26526   1.919   2.011   5.879
 8362SOL    HW126527   1.906   2.089   5.824
 8362SOL    HW226528   2.008   1.982   5.858
 8363SOL     OW26529   3.053   3.172   5.726
 8363SOL    HW126530   3.018   3.260   5.709
 8363SOL    HW226531   3.080   3.175   5.818
 8364SOL     OW26532   2.495   2.697   7.016
 8364SOL    HW126533   2.547   2.776   6.999
 8364SOL    HW226534   2.559   2.627   7.024
 8365SOL     OW26535   2.572   2.439   7.297
 8365SOL    HW126536   2.613   2.516   7.337
 8365SOL    HW226537   2.628   2.366   7.324
 8366SOL     OW26538   3.354   3.061   7.216
 8366SOL    HW126539   3.341   3.077   7.309
 8366SOL    HW226540   3.427   3.117   7.192
 8367SOL     OW26541   2.233   3.605   7.150
 8367SOL    HW126542   2.141   3.629   7.142
 8367SOL    HW226543   2.232   3.511   7.166
 8368SOL     OW26544   3.522   2.733   6.846
 8368SOL    HW126545   3.523   2.653   6.793
 8368SOL    HW226546   3.549   2.802   6.785
 8369SOL     OW26547   3.068   2.169   6.045
 8369SOL    HW126548   3.138   2.104   6.042
 8369SOL    HW226549   3.090   2.225   6.120
 8370SOL     OW26550   2.441   2.586   6.256
 8370SOL    HW126551   2.485   2.671   6.254
 8370SOL    HW226552   2.380   2.590   6.182
 8371SOL     OW26553   3.640   2.208   7.258
 8371SOL    HW126554   3.628   2.229   7.166
 8371SOL    HW226555   3.562   2.157   7.281
 8372SOL     OW26556   3.610   2.762   7.112
 8372SOL    HW126557   3.660   2.842   7.131
 8372SOL    HW226558   3.583   2.772   7.021
 8373SOL     OW26559   2.682   3.240   5.616
 8373SOL    HW126560   2.696   3.261   5.709
 8373SOL    HW226561   2.737   3.303   5.569
 8374SOL     OW26562   2.521   3.643   6.520
 8374SOL    HW126563   2.515   3.738   6.507
 8374SOL    HW226564   2.614   3.625   6.528
 8375SOL     OW26565   2.730   2.822   6.439
 8375SOL    HW126566   2.787   2.757   6.479
 8375SOL    HW226567   2.700   2.876   6.512
 8376SOL     OW26568   2.909   2.823   5.666
 8376SOL    HW126569   2.906   2.902   5.613
 8376SOL    HW226570   2.995   2.783   5.646
 8377SOL     OW26571   2.085   3.152   7.455
 8377SOL    HW126572   1.992   3.133   7.444
 8377SOL    HW226573   2.096   3.165   7.549
 8378SOL     OW26574   1.946   3.055   6.250
 8378SOL    HW126575   1.998   3.021   6.323
 8378SOL    HW226576   2.008   3.061   6.178
 8379SOL     OW26577   2.519   3.270   7.197
 8379SOL    HW126578   2.460   3.245   7.267
 8379SOL    HW226579   2.562   3.350   7.229
 8380SOL     OW26580   3.652   2.037   6.816
 8380SOL    HW126581   3.680   1.946   6.827
 8380SOL    HW226582   3.673   2.057   6.725
 8381SOL     OW26583   2.267   2.297   6.101
 8381SOL    HW126584   2.314   2.230   6.052
 8381SOL    HW226585   2.233   2.250   6.178
 8382SOL     OW26586   2.210   2.408   6.873
 8382SOL    HW126587   2.299   2.379   6.894
 8382SOL    HW226588   2.205   2.405   6.778
 8383SOL     OW26589   2.695   3.451   6.261
 8383SOL    HW126590   2.681   3.507   6.185
 8383SOL    HW226591   2.618   3.393   6.262
 8384SOL     OW26592   3.295   2.092   6.714
 8384SOL    HW126593   3.361   2.050   6.769
 8384SOL    HW226594   3.240   2.140   6.775
 8385SOL     OW26595   2.868   1.875   6.717
 8385SOL    HW126596   2.820   1.813   6.662
 8385SOL    HW226597   2.957   1.841   6.718
 8386SOL     OW26598   2.634   3.188   5.919
 8386SOL    HW126599   2.621   3.093   5.927
 8386SOL    HW226600   2.718   3.205   5.961
 8387SOL     OW26601   2.473   3.419   6.867
 8387SOL    HW126602   2.480   3.510   6.895
 8387SOL    HW226603   2.562   3.392   6.847
 8388SOL     OW26604   3.212   1.921   5.775
 8388SOL    HW126605   3.239   1.875   5.695
 8388SOL    HW226606   3.124   1.888   5.792
 8389SOL     OW26607   3.127   2.317   6.261
 8389SOL    HW126608   3.095   2.407   6.266
 8389SOL    HW226609   3.147   2.294   6.352
 8390SOL     OW26610   3.438   2.055   6.469
 8390SOL    HW126611   3.388   2.085   6.546
 8390SOL    HW226612   3.442   2.132   6.412
 8391SOL     OW26613   1.897   2.930   5.896
 8391SOL    HW126614   1.992   2.932   5.887
 8391SOL    HW226615   1.876   2.838   5.913
 8392SOL     OW26616   2.733   3.503   5.936
 8392SOL    HW126617   2.669   3.496   5.865
 8392SOL    HW226618   2.710   3.584   5.981
 8393SOL     OW26619   2.071   2.439   7.576
 8393SOL    HW126620   1.999   2.491   7.612
 8393SOL    HW226621   2.080   2.470   7.486
 8394SOL     OW26622   2.081   2.152   8.446
 8394SOL    HW126623   2.114   2.114   8.527
 8394SOL    HW226624   1.993   2.118   8.437
 8395SOL     OW26625   1.857   2.231   8.093
 8395SOL    HW126626   1.776   2.265   8.131
 8395SOL    HW226627   1.830   2.154   8.043
 8396SOL     OW26628   2.417   3.160   8.633
 8396SOL    HW126629   2.342   3.183   8.577
 8396SOL    HW226630   2.450   3.243   8.665
 8397SOL     OW26631   2.989   2.562   8.151
 8397SOL    HW126632   3.043   2.637   8.128
 8397SOL    HW226633   2.947   2.586   8.234
 8398SOL     OW26634   3.615   2.458   7.694
 8398SOL    HW126635   3.600   2.482   7.602
 8398SOL    HW226636   3.605   2.363   7.695
 8399SOL     OW26637   2.594   2.995   8.501
 8399SOL    HW126638   2.530   3.039   8.556
 8399SOL    HW226639   2.639   3.065   8.453
 8400SOL     OW26640   2.734   2.622   9.265
 8400SOL    HW126641   2.704   2.696   9.317
 8400SOL    HW226642   2.761   2.661   9.182
 8401SOL     OW26643   2.537   2.842   8.098
 8401SOL    HW126644   2.607   2.839   8.164
 8401SOL    HW226645   2.477   2.909   8.130
 8402SOL     OW26646   2.580   3.016   9.282
 8402SOL    HW126647   2.630   3.093   9.308
 8402SOL    HW226648   2.510   3.050   9.227
 8403SOL     OW26649   2.194   3.284   8.509
 8403SOL    HW126650   2.125   3.248   8.453
 8403SOL    HW226651   2.247   3.338   8.450
 8404SOL     OW26652   3.334   3.380   8.789
 8404SOL    HW126653   3.368   3.453   8.738
 8404SOL    HW226654   3.350   3.405   8.880
 8405SOL     OW26655   2.304   2.262   8.965
 8405SOL    HW126656   2.384   2.210   8.953
 8405SOL    HW226657   2.233   2.200   8.954
 8406SOL     OW26658   3.469   2.316   8.188
 8406SOL    HW126659   3.428   2.348   8.108
 8406SOL    HW226660   3.482   2.394   8.242
 8407SOL     OW26661   2.093   3.571   7.909
 8407SOL    HW126662   2.111   3.645   7.968
 8407SOL    HW226663   2.170   3.566   7.853
 8408SOL     OW26664   3.022   3.181   9.161
 8408SOL    HW126665   3.016   3.239   9.237
 8408SOL    HW226666   2.933   3.151   9.147
 8409SOL     OW26667   2.065   3.308   7.977
 8409SOL    HW126668   2.080   3.400   7.954
 8409SOL    HW226669   2.048   3.309   8.071
 8410SOL     OW26670   2.111   2.953   8.321
 8410SOL    HW126671   2.127   2.868   8.362
 8410SOL    HW226672   2.067   3.005   8.389
 8411SOL     OW26673   2.441   3.668   8.856
 8411SOL    HW126674   2.368   3.650   8.915
 8411SOL    HW226675   2.477   3.751   8.887
 8412SOL     OW26676   2.433   2.851   7.585
 8412SOL    HW126677   2.482   2.897   7.518
 8412SOL    HW226678   2.477   2.873   7.667
 8413SOL     OW26679   3.457   1.984   8.915
 8413SOL    HW126680   3.504   2.046   8.859
 8413SOL    HW226681   3.437   2.034   8.994
 8414SOL     OW26682   1.970   2.521   8.013
 8414SOL    HW126683   1.956   2.429   8.038
 8414SOL    HW226684   1.967   2.569   8.095
 8415SOL     OW26685   3.706   3.620   7.794
 8415SOL    HW126686   3.782   3.590   7.843
 8415SOL    HW226687   3.729   3.709   7.766
 8416SOL     OW26688   1.889   3.459   7.575
 8416SOL    HW126689   1.884   3.365   7.595
 8416SOL    HW226690   1.875   3.502   7.659
 8417SOL     OW26691   3.521   2.754   8.032
 8417SOL    HW126692   3.612   2.738   8.007
 8417SOL    HW226693   3.501   2.840   7.996
 8418SOL     OW26694   3.511   2.993   7.898
 8418SOL    HW126695   3.597   2.997   7.856
 8418SOL    HW226696   3.502   3.075   7.945
 8419SOL     OW26697   1.991   2.607   9.036
 8419SOL    HW126698   2.081   2.638   9.029
 8419SOL    HW226699   1.938   2.685   9.023
 8420SOL     OW26700   2.460   3.252   8.194
 8420SOL    HW126701   2.425   3.163   8.188
 8420SOL    HW226702   2.455   3.286   8.104
 8421SOL     OW26703   3.135   3.080   8.888
 8421SOL    HW126704   3.155   3.021   8.815
 8421SOL    HW226705   3.218   3.089   8.935
 8422SOL     OW26706   2.689   1.874   7.968
 8422SOL    HW126707   2.728   1.956   7.937
 8422SOL    HW226708   2.595   1.892   7.969
 8423SOL     OW26709   2.035   2.818   8.732
 8423SOL    HW126710   2.124   2.782   8.728
 8423SOL    HW226711   1.996   2.797   8.647
 8424SOL     OW26712   3.383   2.876   7.675
 8424SOL    HW126713   3.355   2.800   7.727
 8424SOL    HW226714   3.430   2.932   7.736
 8425SOL     OW26715   3.022   3.657   9.064
 8425SOL    HW126716   3.034   3.713   8.987
 8425SOL    HW226717   3.039   3.569   9.032
 8426SOL     OW26718   2.203   2.101   9.297
 8426SOL    HW126719   2.249   2.185   9.291
 8426SOL    HW226720   2.110   2.125   9.304
 8427SOL     OW26721   2.467   2.578   7.714
 8427SOL    HW126722   2.494   2.655   7.665
 8427SOL    HW226723   2.409   2.612   7.782
 8428SOL     OW26724   3.146   2.235   8.393
 8428SOL    HW126725   3.058   2.199   8.391
 8428SOL    HW226726   3.195   2.177   8.451
 8429SOL     OW26727   3.480   3.461   7.735
 8429SOL    HW126728   3.554   3.515   7.762
 8429SOL    HW226729   3.449   3.500   7.653
 8430SOL     OW26730   2.645   2.482   8.889
 8430SOL    HW126731   2.621   2.452   8.977
 8430SOL    HW226732   2.613   2.413   8.831
 8431SOL     OW26733   3.247   2.341   9.126
 8431SOL    HW126734   3.257   2.388   9.208
 8431SOL    HW226735   3.314   2.272   9.129
 8432SOL     OW26736   2.807   2.744   9.030
 8432SOL    HW126737   2.860   2.674   8.994
 8432SOL    HW226738   2.766   2.785   8.954
 8433SOL     OW26739   2.850   2.266   8.679
 8433SOL    HW126740   2.758   2.285   8.695
 8433SOL    HW226741   2.855   2.247   8.585
 8434SOL     OW26742   2.888   2.562   7.893
 8434SOL    HW126743   2.923   2.554   7.982
 8434SOL    HW226744   2.817   2.498   7.890
 8435SOL     OW26745   1.946   2.677   8.237
 8435SOL    HW126746   2.032   2.679   8.279
 8435SOL    HW226747   1.902   2.755   8.270
 8436SOL     OW26748   1.975   3.738   9.034
 8436SOL    HW126749   1.980   3.717   9.127
 8436SOL    HW226750   1.902   3.684   9.002
 8437SOL     OW26751   2.760   2.202   7.616
 8437SOL    HW126752   2.798   2.278   7.572
 8437SOL    HW226753   2.822   2.131   7.599
 8438SOL     OW26754   3.540   2.439   9.282
 8438SOL    HW126755   3.515   2.514   9.227
 8438SOL    HW226756   3.586   2.380   9.223
 8439SOL     OW26757   3.224   2.999   7.993
 8439SOL    HW126758   3.306   3.045   8.007
 8439SOL    HW226759   3.174   3.055   7.934
 8440SOL     OW26760   2.404   2.034   8.343
 8440SOL    HW126761   2.413   2.069   8.431
 8440SOL    HW226762   2.421   2.108   8.285
 8441SOL     OW26763   2.856   3.314   7.922
 8441SOL    HW126764   2.803   3.380   7.877
 8441SOL    HW226765   2.919   3.365   7.973
 8442SOL     OW26766   2.216   3.682   8.335
 8442SOL    HW126767   2.269   3.602   8.334
 8442SOL    HW226768   2.280   3.753   8.340
 8443SOL     OW26769   3.627   2.841   8.307
 8443SOL    HW126770   3.666   2.894   8.237
 8443SOL    HW226771   3.559   2.897   8.344
 8444SOL     OW26772   3.061   3.398   8.966
 8444SOL    HW126773   3.095   3.315   8.999
 8444SOL    HW226774   3.084   3.398   8.873
 8445SOL     OW26775   2.177   2.832   7.696
 8445SOL    HW126776   2.268   2.854   7.680
 8445SOL    HW226777   2.148   2.785   7.618
 8446SOL     OW26778   3.342   2.617   8.181
 8446SOL    HW126779   3.367   2.592   8.270
 8446SOL    HW226780   3.416   2.669   8.149
 8447SOL     OW26781   2.323   3.126   9.195
 8447SOL    HW126782   2.303   3.130   9.101
 8447SOL    HW226783   2.238   3.127   9.238
 8448SOL     OW26784   2.068   2.123   8.940
 8448SOL    HW126785   1.997   2.187   8.947
 8448SOL    HW226786   2.031   2.043   8.979
 8449SOL     OW26787   3.480   3.223   7.534
 8449SOL    HW126788   3.450   3.313   7.527
 8449SOL    HW226789   3.405   3.170   7.505
 8450SOL     OW26790   2.328   3.589   7.769
 8450SOL    HW126791   2.376   3.652   7.823
 8450SOL    HW226792   2.392   3.560   7.704
 8451SOL     OW26793   3.265   1.966   7.894
 8451SOL    HW126794   3.252   1.943   7.802
 8451SOL    HW226795   3.347   2.014   7.896
 8452SOL     OW26796   2.117   3.644   8.668
 8452SOL    HW126797   2.181   3.582   8.703
 8452SOL    HW226798   2.123   3.635   8.573
 8453SOL     OW26799   2.792   3.546   8.372
 8453SOL    HW126800   2.878   3.503   8.374
 8453SOL    HW226801   2.755   3.519   8.287
 8454SOL     OW26802   2.249   2.555   7.917
 8454SOL    HW126803   2.250   2.459   7.919
 8454SOL    HW226804   2.158   2.578   7.935
 8455SOL     OW26805   3.387   2.096   9.168
 8455SOL    HW126806   3.394   2.112   9.262
 8455SOL    HW226807   3.315   2.034   9.159
 8456SOL     OW26808   2.485   1.957   7.578
 8456SOL    HW126809   2.580   1.945   7.569
 8456SOL    HW226810   2.449   1.929   7.494
 8457SOL     OW26811   2.626   2.141   9.203
 8457SOL    HW126812   2.708   2.092   9.201
 8457SOL    HW226813   2.587   2.119   9.288
 8458SOL     OW26814   2.723   3.355   8.652
 8458SOL    HW126815   2.719   3.338   8.558
 8458SOL    HW226816   2.806   3.316   8.680
 8459SOL     OW26817   3.195   2.453   8.875
 8459SOL    HW126818   3.233   2.427   8.959
 8459SOL    HW226819   3.235   2.538   8.857
 8460SOL     OW26820   2.683   3.234   8.387
 8460SOL    HW126821   2.770   3.232   8.346
 8460SOL    HW226822   2.623   3.257   8.315
 8461SOL     OW26823   2.782   2.355   8.354
 8461SOL    HW126824   2.757   2.355   8.262
 8461SOL    HW226825   2.824   2.270   8.368
 8462SOL     OW26826   2.415   1.927   7.946
 8462SOL    HW126827   2.335   1.927   7.998
 8462SOL    HW226828   2.406   2.003   7.888
 8463SOL     OW26829   3.276   3.045   7.481
 8463SOL    HW126830   3.310   2.985   7.548
 8463SOL    HW226831   3.194   3.078   7.518
 8464SOL     OW26832   2.164   1.931   7.617
 8464SOL    HW126833   2.225   1.946   7.544
 8464SOL    HW226834   2.210   1.871   7.675
 8465SOL     OW26835   2.800   2.114   7.896
 8465SOL    HW126836   2.776   2.157   7.814
 8465SOL    HW226837   2.895   2.128   7.904
 8466SOL     OW26838   2.941   2.535   8.925
 8466SOL    HW126839   2.885   2.464   8.894
 8466SOL    HW226840   3.030   2.506   8.905
 8467SOL     OW26841   2.330   3.010   8.169
 8467SOL    HW126842   2.258   2.991   8.229
 8467SOL    HW226843   2.291   3.001   8.082
 8468SOL     OW26844   2.880   2.403   7.478
 8468SOL    HW126845   2.850   2.491   7.455
 8468SOL    HW226846   2.950   2.418   7.541
 8469SOL     OW26847   1.957   2.406   8.854
 8469SOL    HW126848   2.047   2.408   8.820
 8469SOL    HW226849   1.953   2.481   8.914
 8470SOL     OW26850   2.420   2.088   8.615
 8470SOL    HW126851   2.465   2.013   8.654
 8470SOL    HW226852   2.329   2.078   8.643
 8471SOL     OW26853   2.709   2.305   8.090
 8471SOL    HW126854   2.676   2.365   8.023
 8471SOL    HW226855   2.750   2.234   8.041
 8472SOL     OW26856   2.867   1.922   8.201
 8472SOL    HW126857   2.816   1.917   8.120
 8472SOL    HW226858   2.846   1.842   8.249
 8473SOL     OW26859   3.317   3.023   8.303
 8473SOL    HW126860   3.259   2.988   8.235
 8473SOL    HW226861   3.375   3.083   8.256
 8474SOL     OW26862   3.330   2.476   8.428
 8474SOL    HW126863   3.277   2.397   8.418
 8474SOL    HW226864   3.389   2.456   8.501
 8475SOL     OW26865   3.723   2.669   7.835
 8475SOL    HW126866   3.785   2.619   7.888
 8475SOL    HW226867   3.688   2.605   7.772
 8476SOL     OW26868   2.347   3.284   7.590
 8476SOL    HW126869   2.279   3.240   7.641
 8476SOL    HW226870   2.370   3.220   7.522
 8477SOL     OW26871   3.258   2.442   7.505
 8477SOL    HW126872   3.217   2.425   7.589
 8477SOL    HW226873   3.352   2.449   7.525
 8478SOL     OW26874   2.371   2.121   7.755
 8478SOL    HW126875   2.418   2.063   7.695
 8478SOL    HW226876   2.390   2.210   7.723
 8479SOL     OW26877   3.607   3.150   9.068
 8479SOL    HW126878   3.661   3.082   9.029
 8479SOL    HW226879   3.660   3.229   9.064
 8480SOL     OW26880   2.910   3.196   8.780
 8480SOL    HW126881   2.840   3.163   8.838
 8480SOL    HW226882   2.991   3.163   8.820
 8481SOL     OW26883   3.396   3.465   9.038
 8481SOL    HW126884   3.418   3.558   9.024
 8481SOL    HW226885   3.449   3.439   9.113
 8482SOL     OW26886   2.980   3.062   8.549
 8482SOL    HW126887   2.950   3.127   8.613
 8482SOL    HW226888   2.966   3.104   8.464
 8483SOL     OW26889   3.427   2.929   8.544
 8483SOL    HW126890   3.422   3.001   8.607
 8483SOL    HW226891   3.383   2.964   8.466
 8484SOL     OW26892   2.780   1.948   8.836
 8484SOL    HW126893   2.800   1.930   8.744
 8484SOL    HW226894   2.859   1.991   8.869
 8485SOL     OW26895   2.853   2.954   9.192
 8485SOL    HW126896   2.765   2.982   9.217
 8485SOL    HW226897   2.838   2.886   9.127
 8486SOL     OW26898   2.552   2.890   7.824
 8486SOL    HW126899   2.550   2.883   7.919
 8486SOL    HW226900   2.634   2.847   7.798
 8487SOL     OW26901   2.272   2.690   8.719
 8487SOL    HW126902   2.349   2.699   8.775
 8487SOL    HW226903   2.250   2.597   8.722
 8488SOL     OW26904   3.119   2.226   8.742
 8488SOL    HW126905   3.156   2.308   8.775
 8488SOL    HW226906   3.031   2.249   8.712
 8489SOL     OW26907   1.945   3.431   8.800
 8489SOL    HW126908   1.922   3.504   8.743
 8489SOL    HW226909   2.040   3.425   8.794
 8490SOL     OW26910   2.192   2.984   7.934
 8490SOL    HW126911   2.213   3.060   7.880
 8490SOL    HW226912   2.192   2.911   7.872
 8491SOL     OW26913   2.403   2.392   8.308
 8491SOL    HW126914   2.413   2.452   8.235
 8491SOL    HW226915   2.474   2.415   8.368
 8492SOL     OW26916   3.088   3.184   7.849
 8492SOL    HW126917   3.150   3.257   7.847
 8492SOL    HW226918   3.003   3.224   7.867
 8493SOL     OW26919   3.131   3.328   8.604
 8493SOL    HW126920   3.212   3.334   8.655
 8493SOL    HW226921   3.142   3.248   8.552
 8494SOL     OW26922   3.456   2.468   7.937
 8494SOL    HW126923   3.421   2.546   7.979
 8494SOL    HW226924   3.513   2.501   7.868
 8495SOL     OW26925   2.212   3.381   8.759
 8495SOL    HW126926   2.202   3.343   8.672
 8495SOL    HW226927   2.306   3.398   8.767
 8496SOL     OW26928   2.285   2.606   9.054
 8496SOL    HW126929   2.344   2.655   8.997
 8496SOL    HW226930   2.327   2.521   9.064
 8497SOL     OW26931   3.458   2.648   9.126
 8497SOL    HW126932   3.375   2.684   9.096
 8497SOL    HW226933   3.523   2.683   9.064
 8498SOL     OW26934   2.860   1.999   9.217
 8498SOL    HW126935   2.915   2.073   9.192
 8498SOL    HW226936   2.906   1.923   9.182
 8499SOL     OW26937   2.355   1.889   9.209
 8499SOL    HW126938   2.310   1.842   9.139
 8499SOL    HW226939   2.302   1.967   9.224
 8500SOL     OW26940   2.443   2.744   8.480
 8500SOL    HW126941   2.497   2.822   8.464
 8500SOL    HW226942   2.399   2.763   8.563
 8501SOL     OW26943   3.190   2.706   8.488
 8501SOL    HW126944   3.180   2.749   8.403
 8501SOL    HW226945   3.241   2.627   8.470
 8502SOL     OW26946   3.054   2.389   7.703
 8502SOL    HW126947   3.065   2.328   7.776
 8502SOL    HW226948   3.067   2.475   7.742
 8503SOL     OW26949   2.159   2.050   8.691
 8503SOL    HW126950   2.126   2.082   8.775
 8503SOL    HW226951   2.140   1.956   8.692
 8504SOL     OW26952   1.869   3.176   8.729
 8504SOL    HW126953   1.919   3.120   8.789
 8504SOL    HW226954   1.898   3.265   8.750
 8505SOL     OW26955   2.576   2.491   8.498
 8505SOL    HW126956   2.657   2.478   8.450
 8505SOL    HW226957   2.552   2.582   8.483
 8506SOL     OW26958   3.603   2.793   9.338
 8506SOL    HW126959   3.568   2.764   9.254
 8506SOL    HW226960   3.525   2.812   9.391
 8507SOL     OW26961   2.168   1.919   8.076
 8507SOL    HW126962   2.147   2.010   8.097
 8507SOL    HW226963   2.182   1.878   8.162
 8508SOL     OW26964   3.449   2.216   7.825
 8508SOL    HW126965   3.510   2.172   7.884
 8508SOL    HW226966   3.442   2.305   7.861
 8509SOL     OW26967   2.867   2.614   8.399
 8509SOL    HW126968   2.880   2.632   8.492
 8509SOL    HW226969   2.857   2.519   8.393
 8510SOL     OW26970   2.832   3.403   9.139
 8510SOL    HW126971   2.795   3.464   9.076
 8510SOL    HW226972   2.911   3.369   9.096
 8511SOL     OW26973   2.208   2.763   9.268
 8511SOL    HW126974   2.289   2.800   9.304
 8511SOL    HW226975   2.237   2.706   9.196
 8512SOL     OW26976   3.394   2.111   7.578
 8512SOL    HW126977   3.322   2.055   7.604
 8512SOL    HW226978   3.416   2.160   7.657
 8513SOL     OW26979   3.152   2.696   7.470
 8513SOL    HW126980   3.198   2.612   7.465
 8513SOL    HW226981   3.187   2.746   7.397
 8514SOL     OW26982   2.945   3.197   8.303
 8514SOL    HW126983   2.931   3.117   8.254
 8514SOL    HW226984   3.017   3.241   8.258
 8515SOL     OW26985   2.175   2.682   8.397
 8515SOL    HW126986   2.268   2.705   8.394
 8515SOL    HW226987   2.174   2.590   8.424
 8516SOL     OW26988   2.186   2.399   8.463
 8516SOL    HW126989   2.151   2.311   8.450
 8516SOL    HW226990   2.263   2.403   8.407
 8517SOL     OW26991   2.996   2.229   9.145
 8517SOL    HW126992   2.948   2.292   9.200
 8517SOL    HW226993   3.081   2.271   9.131
 8518SOL     OW26994   3.020   2.052   8.931
 8518SOL    HW126995   3.010   2.119   8.999
 8518SOL    HW226996   3.063   2.098   8.859
 8519SOL     OW26997   1.857   3.185   7.652
 8519SOL    HW126998   1.769   3.203   7.618
 8519SOL    HW226999   1.853   3.094   7.683
 8520SOL     OW27000   1.951   3.644   8.393
 8520SOL    HW127001   1.924   3.566   8.345
 8520SOL    HW227002   2.041   3.660   8.363
 8521SOL     OW27003   2.358   3.442   8.360
 8521SOL    HW127004   2.428   3.504   8.381
 8521SOL    HW227005   2.397   3.381   8.297
 8522SOL     OW27006   2.832   2.635   8.674
 8522SOL    HW127007   2.910   2.642   8.729
 8522SOL    HW227008   2.765   2.600   8.732
 8523SOL     OW27009   1.901   2.407   8.569
 8523SOL    HW127010   1.974   2.412   8.508
 8523SOL    HW227011   1.942   2.413   8.656
 8524SOL     OW27012   2.073   2.383   9.175
 8524SOL    HW127013   2.141   2.353   9.115
 8524SOL    HW227014   2.034   2.459   9.131
 8525SOL     OW27015   3.219   2.822   9.095
 8525SOL    HW127016   3.275   2.898   9.083
 8525SOL    HW227017   3.216   2.781   9.009
 8526SOL     OW27018   2.660   2.405   7.825
 8526SOL    HW127019   2.692   2.361   7.747
 8526SOL    HW227020   2.605   2.477   7.792
 8527SOL     OW27021   3.506   2.427   8.629
 8527SOL    HW127022   3.511   2.380   8.713
 8527SOL    HW227023   3.595   2.424   8.595
 8528SOL     OW27024   2.089   3.409   9.168
 8528SOL    HW127025   2.084   3.473   9.239
 8528SOL    HW227026   2.104   3.326   9.212
 8529SOL     OW27027   2.563   2.310   8.698
 8529SOL    HW127028   2.515   2.235   8.663
 8529SOL    HW227029   2.562   2.374   8.627
 8530SOL     OW27030   2.740   3.556   8.933
 8530SOL    HW127031   2.756   3.506   8.853
 8530SOL    HW227032   2.752   3.648   8.907
 8531SOL     OW27033   2.322   2.363   7.640
 8531SOL    HW127034   2.391   2.426   7.661
 8531SOL    HW227035   2.246   2.417   7.619
 8532SOL     OW27036   1.987   3.005   8.921
 8532SOL    HW127037   2.002   2.963   9.005
 8532SOL    HW227038   2.006   2.937   8.856
 8533SOL     OW27039   3.146   2.893   8.682
 8533SOL    HW127040   3.180   2.833   8.615
 8533SOL    HW227041   3.088   2.951   8.634
 8534SOL     OW27042   3.156   2.654   7.743
 8534SOL    HW127043   3.120   2.729   7.790
 8534SOL    HW227044   3.160   2.683   7.652
 8535SOL     OW27045   3.106   3.595   8.554
 8535SOL    HW127046   3.177   3.610   8.492
 8535SOL    HW227047   3.110   3.501   8.573
 8536SOL     OW27048   1.935   3.130   8.457
 8536SOL    HW127049   1.909   3.139   8.549
 8536SOL    HW227050   1.879   3.061   8.422
 8537SOL     OW27051   2.549   3.535   9.184
 8537SOL    HW127052   2.491   3.611   9.181
 8537SOL    HW227053   2.614   3.552   9.115
 8538SOL     OW27054   3.604   2.023   7.960
 8538SOL    HW127055   3.663   2.011   7.885
 8538SOL    HW227056   3.584   1.934   7.989
 8539SOL     OW27057   3.239   3.403   7.847
 8539SOL    HW127058   3.331   3.397   7.822
 8539SOL    HW227059   3.216   3.495   7.833
 8540SOL     OW27060   1.993   3.663   9.293
 8540SOL    HW127061   1.949   3.591   9.339
 8540SOL    HW227062   2.047   3.704   9.360
 8541SOL     OW27063   3.138   2.783   8.117
 8541SOL    HW127064   3.215   2.727   8.130
 8541SOL    HW227065   3.170   2.856   8.064
 8542SOL     OW27066   2.663   3.134   8.887
 8542SOL    HW127067   2.625   3.177   8.963
 8542SOL    HW227068   2.634   3.187   8.812
 8543SOL     OW27069   2.523   3.492   7.602
 8543SOL    HW127070   2.545   3.510   7.511
 8543SOL    HW227071   2.476   3.409   7.600
 8544SOL     OW27072   3.694   2.026   8.424
 8544SOL    HW127073   3.726   1.945   8.384
 8544SOL    HW227074   3.613   2.046   8.376
 8545SOL     OW27075   2.114   2.168   8.169
 8545SOL    HW127076   2.027   2.201   8.147
 8545SOL    HW227077   2.118   2.170   8.264
 8546SOL     OW27078   3.044   3.419   7.504
 8546SOL    HW127079   3.137   3.439   7.510
 8546SOL    HW227080   3.009   3.486   7.445
 8547SOL     OW27081   2.688   2.870   8.818
 8547SOL    HW127082   2.727   2.867   8.731
 8547SOL    HW227083   2.679   2.964   8.837
 8548SOL     OW27084   2.768   2.757   7.747
 8548SOL    HW127085   2.823   2.785   7.674
 8548SOL    HW227086   2.822   2.696   7.796
 8549SOL     OW27087   3.329   3.473   7.463
 8549SOL    HW127088   3.301   3.564   7.472
 8549SOL    HW227089   3.375   3.471   7.379
 8550SOL     OW27090   2.219   3.168   8.951
 8550SOL    HW127091   2.229   3.238   8.886
 8550SOL    HW227092   2.145   3.116   8.920
 8551SOL     OW27093   3.452   3.127   8.741
 8551SOL    HW127094   3.542   3.151   8.719
 8551SOL    HW227095   3.407   3.211   8.750
 8552SOL     OW27096   2.918   2.966   8.174
 8552SOL    HW127097   2.848   2.902   8.190
 8552SOL    HW227098   2.987   2.916   8.132
 8553SOL     OW27099   2.891   2.103   8.416
 8553SOL    HW127100   2.887   2.057   8.332
 8553SOL    HW227101   2.886   2.033   8.481
 8554SOL     OW27102   2.440   3.338   7.937
 8554SOL    HW127103   2.502   3.283   7.889
 8554SOL    HW227104   2.424   3.412   7.879
 8555SOL     OW27105   3.600   2.247   8.844
 8555SOL    HW127106   3.671   2.310   8.841
 8555SOL    HW227107   3.623   2.181   8.779
 8556SOL     OW27108   2.116   3.193   7.734
 8556SOL    HW127109   2.022   3.199   7.713
 8556SOL    HW227110   2.124   3.238   7.818
 8557SOL     OW27111   1.983   2.902   9.184
 8557SOL    HW127112   1.906   2.869   9.231
 8557SOL    HW227113   2.056   2.851   9.219
 8558SOL     OW27114   2.539   2.051   8.949
 8558SOL    HW127115   2.621   2.033   8.904
 8558SOL    HW227116   2.565   2.088   9.033
 8559SOL     OW27117   1.946   2.193   7.490
 8559SOL    HW127118   1.873   2.161   7.438
 8559SOL    HW227119   1.971   2.276   7.448
 8560SOL     OW27120   3.275   2.718   8.850
 8560SOL    HW127121   3.224   2.776   8.794
 8560SOL    HW227122   3.362   2.718   8.811
 8561SOL     OW27123   3.047   3.159   7.580
 8561SOL    HW127124   3.038   3.251   7.556
 8561SOL    HW227125   3.066   3.161   7.674
 8562SOL     OW27126   2.484   2.700   8.886
 8562SOL    HW127127   2.541   2.774   8.865
 8562SOL    HW227128   2.543   2.625   8.887
 8563SOL     OW27129   2.574   2.419   9.147
 8563SOL    HW127130   2.627   2.479   9.199
 8563SOL    HW227131   2.601   2.332   9.176
 8564SOL     OW27132   3.347   3.057   9.079
 8564SOL    HW127133   3.347   3.087   9.169
 8564SOL    HW227134   3.433   3.083   9.045
 8565SOL     OW27135   2.225   3.611   9.018
 8565SOL    HW127136   2.143   3.657   9.000
 8565SOL    HW227137   2.198   3.524   9.047
 8566SOL     OW27138   3.507   2.726   8.709
 8566SOL    HW127139   3.528   2.651   8.654
 8566SOL    HW227140   3.490   2.797   8.647
 8567SOL     OW27141   3.066   2.171   7.910
 8567SOL    HW127142   3.137   2.108   7.900
 8567SOL    HW227143   3.092   2.225   7.985
 8568SOL     OW27144   2.429   2.589   8.124
 8568SOL    HW127145   2.477   2.671   8.116
 8568SOL    HW227146   2.373   2.587   8.046
 8569SOL     OW27147   3.630   2.216   9.120
 8569SOL    HW127148   3.627   2.238   9.027
 8569SOL    HW227149   3.548   2.169   9.136
 8570SOL     OW27150   3.620   2.775   8.958
 8570SOL    HW127151   3.675   2.854   8.955
 8570SOL    HW227152   3.595   2.761   8.866
 8571SOL     OW27153   2.681   3.243   7.475
 8571SOL    HW127154   2.730   3.274   7.551
 8571SOL    HW227155   2.720   3.290   7.401
 8572SOL     OW27156   2.531   3.648   8.402
 8572SOL    HW127157   2.523   3.731   8.356
 8572SOL    HW227158   2.623   3.623   8.390
 8573SOL     OW27159   2.714   2.819   8.305
 8573SOL    HW127160   2.772   2.750   8.336
 8573SOL    HW227161   2.700   2.876   8.381
 8574SOL     OW27162   2.914   2.811   7.529
 8574SOL    HW127163   2.903   2.889   7.474
 8574SOL    HW227164   3.002   2.779   7.509
 8575SOL     OW27165   2.075   3.155   9.297
 8575SOL    HW127166   2.027   3.084   9.254
 8575SOL    HW227167   2.032   3.165   9.382
 8576SOL     OW27168   1.946   3.070   8.118
 8576SOL    HW127169   2.002   3.026   8.182
 8576SOL    HW227170   2.002   3.082   8.041
 8577SOL     OW27171   2.544   3.265   9.094
 8577SOL    HW127172   2.456   3.238   9.124
 8577SOL    HW227173   2.550   3.357   9.118
 8578SOL     OW27174   3.650   2.030   8.691
 8578SOL    HW127175   3.683   1.940   8.700
 8578SOL    HW227176   3.663   2.052   8.599
 8579SOL     OW27177   2.230   2.282   7.942
 8579SOL    HW127178   2.307   2.233   7.914
 8579SOL    HW227179   2.211   2.249   8.030
 8580SOL     OW27180   2.200   2.420   8.740
 8580SOL    HW127181   2.268   2.368   8.784
 8580SOL    HW227182   2.215   2.403   8.646
 8581SOL     OW27183   2.684   3.475   8.133
 8581SOL    HW127184   2.690   3.549   8.073
 8581SOL    HW227185   2.650   3.404   8.080
 8582SOL     OW27186   3.287   2.087   8.572
 8582SOL    HW127187   3.343   2.029   8.624
 8582SOL    HW227188   3.234   2.134   8.637
 8583SOL     OW27189   2.868   1.867   8.579
 8583SOL    HW127190   2.826   1.809   8.515
 8583SOL    HW227191   2.957   1.834   8.586
 8584SOL     OW27192   2.622   3.181   7.818
 8584SOL    HW127193   2.626   3.091   7.786
 8584SOL    HW227194   2.713   3.203   7.838
 8585SOL     OW27195   2.480   3.418   8.745
 8585SOL    HW127196   2.481   3.508   8.779
 8585SOL    HW227197   2.566   3.406   8.707
 8586SOL     OW27198   3.211   1.910   7.632
 8586SOL    HW127199   3.243   1.857   7.559
 8586SOL    HW227200   3.123   1.877   7.650
 8587SOL     OW27201   3.129   2.318   8.126
 8587SOL    HW127202   3.097   2.408   8.128
 8587SOL    HW227203   3.151   2.299   8.217
 8588SOL     OW27204   3.441   2.067   8.327
 8588SOL    HW127205   3.383   2.096   8.397
 8588SOL    HW227206   3.445   2.141   8.267
 8589SOL     OW27207   1.895   2.930   7.764
 8589SOL    HW127208   1.990   2.934   7.751
 8589SOL    HW227209   1.877   2.837   7.778
 8590SOL     OW27210   2.710   3.513   7.818
 8590SOL    HW127211   2.662   3.515   7.736
 8590SOL    HW227212   2.772   3.585   7.811
 8591SOL     OW27213   2.085   2.476   9.439
 8591SOL    HW127214   1.994   2.501   9.454
 8591SOL    HW227215   2.091   2.463   9.344
 8592SOL     OW27216   2.081   2.153  10.306
 8592SOL    HW127217   2.112   2.114  10.388
 8592SOL    HW227218   1.993   2.116  10.294
 8593SOL     OW27219   1.864   2.243   9.951
 8593SOL    HW127220   1.781   2.267   9.993
 8593SOL    HW227221   1.841   2.168   9.895
 8594SOL     OW27222   2.419   3.161  10.496
 8594SOL    HW127223   2.344   3.181  10.440
 8594SOL    HW227224   2.449   3.246  10.528
 8595SOL     OW27225   2.988   2.562  10.005
 8595SOL    HW127226   3.040   2.641   9.991
 8595SOL    HW227227   2.941   2.579  10.086
 8596SOL     OW27228   3.597   2.477   9.548
 8596SOL    HW127229   3.582   2.487   9.454
 8596SOL    HW227230   3.628   2.387   9.559
 8597SOL     OW27231   2.595   2.994  10.362
 8597SOL    HW127232   2.531   3.037  10.420
 8597SOL    HW227233   2.636   3.065  10.314
 8598SOL     OW27234   2.738   2.621  11.130
 8598SOL    HW127235   2.737   2.692  11.194
 8598SOL    HW227236   2.759   2.663  11.047
 8599SOL     OW27237   2.547   2.848   9.956
 8599SOL    HW127238   2.615   2.848  10.023
 8599SOL    HW227239   2.481   2.910   9.988
 8600SOL     OW27240   2.574   3.012  11.139
 8600SOL    HW127241   2.626   3.087  11.168
 8600SOL    HW227242   2.501   3.052  11.091
 8601SOL     OW27243   2.194   3.280  10.372
 8601SOL    HW127244   2.125   3.242  10.317
 8601SOL    HW227245   2.245   3.335  10.311
 8602SOL     OW27246   3.323   3.358  10.674
 8602SOL    HW127247   3.380   3.435  10.674
 8602SOL    HW227248   3.256   3.378  10.739
 8603SOL     OW27249   2.310   2.256  10.798
 8603SOL    HW127250   2.387   2.199  10.798
 8603SOL    HW227251   2.235   2.196  10.807
 8604SOL     OW27252   3.468   2.304  10.051
 8604SOL    HW127253   3.419   2.326   9.972
 8604SOL    HW227254   3.482   2.388  10.095
 8605SOL     OW27255   2.093   3.574   9.771
 8605SOL    HW127256   2.112   3.648   9.828
 8605SOL    HW227257   2.168   3.568   9.712
 8606SOL     OW27258   3.001   3.204  11.006
 8606SOL    HW127259   3.050   3.191  11.087
 8606SOL    HW227260   2.952   3.123  10.994
 8607SOL     OW27261   2.070   3.312   9.847
 8607SOL    HW127262   2.081   3.405   9.826
 8607SOL    HW227263   2.032   3.312   9.935
 8608SOL     OW27264   2.116   2.950  10.182
 8608SOL    HW127265   2.130   2.865  10.223
 8608SOL    HW227266   2.070   3.002  10.248
 8609SOL     OW27267   2.450   3.660  10.729
 8609SOL    HW127268   2.372   3.645  10.783
 8609SOL    HW227269   2.482   3.746  10.757
 8610SOL     OW27270   2.437   2.852   9.455
 8610SOL    HW127271   2.483   2.901   9.387
 8610SOL    HW227272   2.480   2.878   9.536
 8611SOL     OW27273   3.455   1.984  10.775
 8611SOL    HW127274   3.496   2.050  10.719
 8611SOL    HW227275   3.441   2.029  10.859
 8612SOL     OW27276   1.974   2.516   9.874
 8612SOL    HW127277   1.955   2.425   9.896
 8612SOL    HW227278   1.970   2.562   9.958
 8613SOL     OW27279   1.901   3.453   9.435
 8613SOL    HW127280   1.889   3.360   9.455
 8613SOL    HW227281   1.879   3.499   9.517
 8614SOL     OW27282   3.555   2.776   9.976
 8614SOL    HW127283   3.624   2.730   9.928
 8614SOL    HW227284   3.509   2.827   9.909
 8615SOL     OW27285   3.479   2.914   9.752
 8615SOL    HW127286   3.560   2.871   9.725
 8615SOL    HW227287   3.503   3.006   9.765
 8616SOL     OW27288   2.011   2.612  10.896
 8616SOL    HW127289   2.107   2.618  10.891
 8616SOL    HW227290   1.984   2.695  10.935
 8617SOL     OW27291   2.461   3.251  10.054
 8617SOL    HW127292   2.424   3.162  10.051
 8617SOL    HW227293   2.453   3.283   9.964
 8618SOL     OW27294   3.141   3.087  10.741
 8618SOL    HW127295   3.169   3.024  10.674
 8618SOL    HW227296   3.213   3.086  10.805
 8619SOL     OW27297   2.686   1.868   9.834
 8619SOL    HW127298   2.728   1.948   9.802
 8619SOL    HW227299   2.592   1.887   9.832
 8620SOL     OW27300   2.032   2.800  10.555
 8620SOL    HW127301   2.121   2.768  10.565
 8620SOL    HW227302   2.006   2.772  10.467
 8621SOL     OW27303   3.377   2.843   9.511
 8621SOL    HW127304   3.300   2.791   9.534
 8621SOL    HW227305   3.416   2.867   9.595
 8622SOL     OW27306   3.034   3.672  10.940
 8622SOL    HW127307   3.043   3.739  10.873
 8622SOL    HW227308   3.058   3.591  10.896
 8623SOL     OW27309   2.210   2.107  11.161
 8623SOL    HW127310   2.251   2.192  11.178
 8623SOL    HW227311   2.116   2.123  11.169
 8624SOL     OW27312   3.355   3.268  10.297
 8624SOL    HW127313   3.268   3.293  10.329
 8624SOL    HW227314   3.338   3.201  10.230
 8625SOL     OW27315   2.459   2.581   9.584
 8625SOL    HW127316   2.462   2.663   9.535
 8625SOL    HW227317   2.393   2.595   9.651
 8626SOL     OW27318   3.142   2.242  10.252
 8626SOL    HW127319   3.054   2.203  10.253
 8626SOL    HW227320   3.195   2.184  10.307
 8627SOL     OW27321   2.650   2.478  10.753
 8627SOL    HW127322   2.623   2.451  10.840
 8627SOL    HW227323   2.619   2.409  10.695
 8628SOL     OW27324   3.247   2.340  10.987
 8628SOL    HW127325   3.251   2.386  11.071
 8628SOL    HW227326   3.322   2.281  10.988
 8629SOL     OW27327   2.806   2.746  10.895
 8629SOL    HW127328   2.863   2.679  10.856
 8629SOL    HW227329   2.763   2.786  10.820
 8630SOL     OW27330   2.854   2.259  10.541
 8630SOL    HW127331   2.762   2.278  10.560
 8630SOL    HW227332   2.856   2.237  10.448
 8631SOL     OW27333   2.917   2.553   9.733
 8631SOL    HW127334   2.935   2.552   9.827
 8631SOL    HW227335   2.833   2.510   9.724
 8632SOL     OW27336   1.947   2.670  10.102
 8632SOL    HW127337   2.032   2.675  10.144
 8632SOL    HW227338   1.903   2.751  10.127
 8633SOL     OW27339   1.978   3.739  10.896
 8633SOL    HW127340   1.984   3.714  10.988
 8633SOL    HW227341   1.891   3.709  10.870
 8634SOL     OW27342   2.769   2.207   9.503
 8634SOL    HW127343   2.802   2.280   9.450
 8634SOL    HW227344   2.799   2.128   9.457
 8635SOL     OW27345   3.549   2.431  11.144
 8635SOL    HW127346   3.524   2.508  11.092
 8635SOL    HW227347   3.588   2.372  11.080
 8636SOL     OW27348   3.218   2.989   9.842
 8636SOL    HW127349   3.301   2.970   9.798
 8636SOL    HW227350   3.185   3.067   9.797
 8637SOL     OW27351   2.408   2.030  10.205
 8637SOL    HW127352   2.414   2.072  10.291
 8637SOL    HW227353   2.415   2.103  10.143
 8638SOL     OW27354   2.879   3.310   9.776
 8638SOL    HW127355   2.820   3.375   9.736
 8638SOL    HW227356   2.874   3.328   9.870
 8639SOL     OW27357   2.217   3.681  10.194
 8639SOL    HW127358   2.268   3.600  10.194
 8639SOL    HW227359   2.282   3.751  10.201
 8640SOL     OW27360   3.665   2.900  10.202
 8640SOL    HW127361   3.623   2.880  10.119
 8640SOL    HW227362   3.593   2.913  10.264
 8641SOL     OW27363   3.085   3.405  10.824
 8641SOL    HW127364   3.074   3.328  10.881
 8641SOL    HW227365   3.036   3.383  10.745
 8642SOL     OW27366   2.176   2.824   9.562
 8642SOL    HW127367   2.262   2.850   9.529
 8642SOL    HW227368   2.148   2.754   9.503
 8643SOL     OW27369   3.342   2.620  10.040
 8643SOL    HW127370   3.345   2.575  10.124
 8643SOL    HW227371   3.424   2.670  10.036
 8644SOL     OW27372   2.327   3.135  11.053
 8644SOL    HW127373   2.301   3.140  10.961
 8644SOL    HW227374   2.245   3.132  11.102
 8645SOL     OW27375   2.880   3.657   9.518
 8645SOL    HW127376   2.935   3.623   9.589
 8645SOL    HW227377   2.941   3.707   9.463
 8646SOL     OW27378   2.067   2.123  10.809
 8646SOL    HW127379   1.991   2.180  10.820
 8646SOL    HW227380   2.038   2.038  10.844
 8647SOL     OW27381   2.336   3.589   9.634
 8647SOL    HW127382   2.384   3.652   9.688
 8647SOL    HW227383   2.400   3.560   9.569
 8648SOL     OW27384   3.262   1.963   9.757
 8648SOL    HW127385   3.250   1.941   9.664
 8648SOL    HW227386   3.351   1.996   9.763
 8649SOL     OW27387   2.114   3.645  10.531
 8649SOL    HW127388   2.179   3.582  10.563
 8649SOL    HW227389   2.115   3.635  10.436
 8650SOL     OW27390   2.818   3.551  10.204
 8650SOL    HW127391   2.907   3.516  10.197
 8650SOL    HW227392   2.770   3.510  10.132
 8651SOL     OW27393   2.261   2.556   9.784
 8651SOL    HW127394   2.274   2.462   9.796
 8651SOL    HW227395   2.166   2.567   9.790
 8652SOL     OW27396   3.393   2.094  11.029
 8652SOL    HW127397   3.401   2.106  11.124
 8652SOL    HW227398   3.308   2.051  11.017
 8653SOL     OW27399   2.506   1.967   9.424
 8653SOL    HW127400   2.584   1.912   9.420
 8653SOL    HW227401   2.453   1.940   9.348
 8654SOL     OW27402   2.629   2.137  11.067
 8654SOL    HW127403   2.710   2.087  11.070
 8654SOL    HW227404   2.580   2.110  11.144
 8655SOL     OW27405   2.727   3.367  10.512
 8655SOL    HW127406   2.722   3.346  10.419
 8655SOL    HW227407   2.811   3.330  10.540
 8656SOL     OW27408   3.195   2.452  10.737
 8656SOL    HW127409   3.228   2.428  10.824
 8656SOL    HW227410   3.233   2.538  10.721
 8657SOL     OW27411   2.677   3.237  10.253
 8657SOL    HW127412   2.765   3.236  10.216
 8657SOL    HW227413   2.619   3.257  10.180
 8658SOL     OW27414   2.785   2.363  10.210
 8658SOL    HW127415   2.761   2.359  10.117
 8658SOL    HW227416   2.821   2.277  10.229
 8659SOL     OW27417   2.418   1.924   9.806
 8659SOL    HW127418   2.336   1.923   9.855
 8659SOL    HW227419   2.411   2.000   9.749
 8660SOL     OW27420   3.275   3.039   9.354
 8660SOL    HW127421   3.324   2.974   9.404
 8660SOL    HW227422   3.251   3.106   9.419
 8661SOL     OW27423   2.148   1.909   9.496
 8661SOL    HW127424   2.194   1.974   9.442
 8661SOL    HW227425   2.218   1.854   9.531
 8662SOL     OW27426   2.805   2.108   9.763
 8662SOL    HW127427   2.780   2.145   9.678
 8662SOL    HW227428   2.899   2.124   9.769
 8663SOL     OW27429   2.941   2.545  10.773
 8663SOL    HW127430   2.880   2.473  10.759
 8663SOL    HW227431   3.028   2.507  10.758
 8664SOL     OW27432   3.072   3.448  10.091
 8664SOL    HW127433   3.070   3.516  10.024
 8664SOL    HW227434   3.165   3.431  10.106
 8665SOL     OW27435   2.333   3.008  10.027
 8665SOL    HW127436   2.262   2.988  10.087
 8665SOL    HW227437   2.294   3.002   9.940
 8666SOL     OW27438   3.085   3.662   9.915
 8666SOL    HW127439   3.119   3.681   9.828
 8666SOL    HW227440   3.065   3.747   9.953
 8667SOL     OW27441   2.879   2.399   9.343
 8667SOL    HW127442   2.839   2.482   9.316
 8667SOL    HW227443   2.956   2.425   9.393
 8668SOL     OW27444   1.954   2.417  10.711
 8668SOL    HW127445   2.044   2.414  10.678
 8668SOL    HW227446   1.953   2.490  10.772
 8669SOL     OW27447   2.418   2.093  10.478
 8669SOL    HW127448   2.460   2.013  10.511
 8669SOL    HW227449   2.327   2.085  10.505
 8670SOL     OW27450   2.721   2.313   9.947
 8670SOL    HW127451   2.685   2.372   9.881
 8670SOL    HW227452   2.752   2.237   9.897
 8671SOL     OW27453   2.869   1.927  10.065
 8671SOL    HW127454   2.817   1.924   9.984
 8671SOL    HW227455   2.849   1.844  10.109
 8672SOL     OW27456   3.317   3.054  10.129
 8672SOL    HW127457   3.249   2.998  10.093
 8672SOL    HW227458   3.346   3.108  10.055
 8673SOL     OW27459   3.327   2.476  10.277
 8673SOL    HW127460   3.273   2.398  10.273
 8673SOL    HW227461   3.384   2.462  10.353
 8674SOL     OW27462   3.670   2.692   9.723
 8674SOL    HW127463   3.745   2.645   9.759
 8674SOL    HW227464   3.652   2.648   9.639
 8675SOL     OW27465   2.347   3.277   9.446
 8675SOL    HW127466   2.275   3.244   9.501
 8675SOL    HW227467   2.348   3.219   9.370
 8676SOL     OW27468   3.255   2.449   9.379
 8676SOL    HW127469   3.210   2.413   9.455
 8676SOL    HW227470   3.348   2.431   9.396
 8677SOL     OW27471   2.388   2.121   9.624
 8677SOL    HW127472   2.435   2.074   9.556
 8677SOL    HW227473   2.362   2.204   9.582
 8678SOL     OW27474   3.614   3.101  10.891
 8678SOL    HW127475   3.699   3.071  10.857
 8678SOL    HW227476   3.628   3.194  10.910
 8679SOL     OW27477   2.919   3.215  10.653
 8679SOL    HW127478   2.844   3.180  10.701
 8679SOL    HW227479   2.994   3.169  10.689
 8680SOL     OW27480   3.474   3.488  10.974
 8680SOL    HW127481   3.460   3.524  10.886
 8680SOL    HW227482   3.556   3.438  10.966
 8681SOL     OW27483   2.998   3.081  10.415
 8681SOL    HW127484   2.938   3.126  10.475
 8681SOL    HW227485   2.977   3.117  10.329
 8682SOL     OW27486   3.463   2.953  10.382
 8682SOL    HW127487   3.452   3.013  10.455
 8682SOL    HW227488   3.404   2.985  10.314
 8683SOL     OW27489   2.783   1.951  10.699
 8683SOL    HW127490   2.802   1.934  10.606
 8683SOL    HW227491   2.863   1.992  10.732
 8684SOL     OW27492   2.846   2.975  11.036
 8684SOL    HW127493   2.755   2.994  11.055
 8684SOL    HW227494   2.843   2.898  10.978
 8685SOL     OW27495   2.573   2.908   9.684
 8685SOL    HW127496   2.562   2.888   9.777
 8685SOL    HW227497   2.653   2.861   9.659
 8686SOL     OW27498   2.275   2.689  10.581
 8686SOL    HW127499   2.351   2.697  10.638
 8686SOL    HW227500   2.251   2.597  10.585
 8687SOL     OW27501   3.119   2.219  10.611
 8687SOL    HW127502   3.154   2.303  10.643
 8687SOL    HW227503   3.031   2.241  10.580
 8688SOL     OW27504   1.940   3.430  10.654
 8688SOL    HW127505   1.915   3.506  10.602
 8688SOL    HW227506   2.036   3.430  10.651
 8689SOL     OW27507   2.195   2.985   9.792
 8689SOL    HW127508   2.199   3.060   9.733
 8689SOL    HW227509   2.195   2.909   9.734
 8690SOL     OW27510   2.404   2.392  10.174
 8690SOL    HW127511   2.414   2.450  10.099
 8690SOL    HW227512   2.476   2.416  10.233
 8691SOL     OW27513   3.131   3.213   9.690
 8691SOL    HW127514   3.200   3.275   9.714
 8691SOL    HW227515   3.051   3.254   9.724
 8692SOL     OW27516   3.142   3.329  10.465
 8692SOL    HW127517   3.210   3.330  10.533
 8692SOL    HW227518   3.106   3.241  10.469
 8693SOL     OW27519   3.454   2.462   9.802
 8693SOL    HW127520   3.404   2.535   9.839
 8693SOL    HW227521   3.505   2.501   9.731
 8694SOL     OW27522   2.211   3.380  10.620
 8694SOL    HW127523   2.202   3.343  10.533
 8694SOL    HW227524   2.305   3.398  10.629
 8695SOL     OW27525   2.290   2.599  10.915
 8695SOL    HW127526   2.351   2.647  10.858
 8695SOL    HW227527   2.334   2.517  10.934
 8696SOL     OW27528   3.475   2.648  10.998
 8696SOL    HW127529   3.389   2.690  10.989
 8696SOL    HW227530   3.528   2.686  10.929
 8697SOL     OW27531   2.869   1.993  11.093
 8697SOL    HW127532   2.917   2.071  11.066
 8697SOL    HW227533   2.910   1.921  11.044
 8698SOL     OW27534   2.352   1.890  11.070
 8698SOL    HW127535   2.304   1.843  11.001
 8698SOL    HW227536   2.300   1.968  11.086
 8699SOL     OW27537   2.451   2.742  10.350
 8699SOL    HW127538   2.496   2.826  10.342
 8699SOL    HW227539   2.396   2.751  10.427
 8700SOL     OW27540   3.200   2.713  10.342
 8700SOL    HW127541   3.146   2.729  10.264
 8700SOL    HW227542   3.247   2.632  10.323
 8701SOL     OW27543   3.068   2.381   9.577
 8701SOL    HW127544   3.075   2.301   9.630
 8701SOL    HW227545   3.019   2.442   9.633
 8702SOL     OW27546   2.158   2.054  10.555
 8702SOL    HW127547   2.123   2.083  10.639
 8702SOL    HW227548   2.141   1.960  10.553
 8703SOL     OW27549   1.877   3.170  10.601
 8703SOL    HW127550   1.946   3.126  10.652
 8703SOL    HW227551   1.898   3.264  10.609
 8704SOL     OW27552   2.580   2.491  10.363
 8704SOL    HW127553   2.658   2.480  10.308
 8704SOL    HW227554   2.553   2.582  10.347
 8705SOL     OW27555   3.612   2.814  11.178
 8705SOL    HW127556   3.567   2.754  11.118
 8705SOL    HW227557   3.545   2.838  11.243
 8706SOL     OW27558   2.173   1.916   9.936
 8706SOL    HW127559   2.149   2.007   9.954
 8706SOL    HW227560   2.182   1.876  10.023
 8707SOL     OW27561   3.452   2.213   9.684
 8707SOL    HW127562   3.513   2.164   9.739
 8707SOL    HW227563   3.449   2.300   9.723
 8708SOL     OW27564   2.875   2.618  10.261
 8708SOL    HW127565   2.877   2.634  10.355
 8708SOL    HW227566   2.857   2.524  10.253
 8709SOL     OW27567   2.835   3.418  11.035
 8709SOL    HW127568   2.820   3.468  10.954
 8709SOL    HW227569   2.890   3.345  11.007
 8710SOL     OW27570   3.714   3.362  10.911
 8710SOL    HW127571   3.732   3.388  10.821
 8710SOL    HW227572   3.796   3.375  10.957
 8711SOL     OW27573   2.210   2.781  11.113
 8711SOL    HW127574   2.286   2.808  11.165
 8711SOL    HW227575   2.245   2.716  11.051
 8712SOL     OW27576   3.374   2.130   9.435
 8712SOL    HW127577   3.312   2.062   9.463
 8712SOL    HW227578   3.408   2.167   9.516
 8713SOL     OW27579   3.144   2.693   9.326
 8713SOL    HW127580   3.186   2.607   9.337
 8713SOL    HW227581   3.176   2.725   9.242
 8714SOL     OW27582   2.937   3.210  10.175
 8714SOL    HW127583   2.942   3.139  10.112
 8714SOL    HW227584   2.989   3.280  10.136
 8715SOL     OW27585   2.174   2.681  10.265
 8715SOL    HW127586   2.267   2.699  10.250
 8715SOL    HW227587   2.171   2.589  10.288
 8716SOL     OW27588   2.184   2.400  10.324
 8716SOL    HW127589   2.148   2.312  10.311
 8716SOL    HW227590   2.262   2.402  10.269
 8717SOL     OW27591   2.998   2.225  11.014
 8717SOL    HW127592   2.948   2.287  11.069
 8717SOL    HW227593   3.081   2.269  10.998
 8718SOL     OW27594   3.026   2.046  10.805
 8718SOL    HW127595   3.011   2.115  10.869
 8718SOL    HW227596   3.068   2.090  10.731
 8719SOL     OW27597   1.871   3.180   9.508
 8719SOL    HW127598   1.783   3.200   9.475
 8719SOL    HW227599   1.864   3.091   9.542
 8720SOL     OW27600   1.954   3.641  10.256
 8720SOL    HW127601   1.925   3.567  10.203
 8720SOL    HW227602   2.043   3.659  10.225
 8721SOL     OW27603   2.357   3.440  10.222
 8721SOL    HW127604   2.429   3.501  10.242
 8721SOL    HW227605   2.395   3.378  10.159
 8722SOL     OW27606   2.830   2.642  10.532
 8722SOL    HW127607   2.897   2.636  10.600
 8722SOL    HW227608   2.752   2.603  10.571
 8723SOL     OW27609   1.898   2.419  10.427
 8723SOL    HW127610   1.969   2.413  10.364
 8723SOL    HW227611   1.941   2.416  10.513
 8724SOL     OW27612   2.058   2.383  11.042
 8724SOL    HW127613   2.123   2.345  10.982
 8724SOL    HW227614   2.026   2.460  10.996
 8725SOL     OW27615   3.245   2.794  10.963
 8725SOL    HW127616   3.268   2.886  10.959
 8725SOL    HW227617   3.239   2.766  10.872
 8726SOL     OW27618   2.676   2.428   9.684
 8726SOL    HW127619   2.685   2.358   9.619
 8726SOL    HW227620   2.605   2.483   9.650
 8727SOL     OW27621   3.499   2.453  10.491
 8727SOL    HW127622   3.491   2.396  10.567
 8727SOL    HW227623   3.588   2.437  10.458
 8728SOL     OW27624   2.089   3.410  11.029
 8728SOL    HW127625   2.074   3.480  11.092
 8728SOL    HW227626   2.107   3.332  11.082
 8729SOL     OW27627   2.576   2.305  10.559
 8729SOL    HW127628   2.519   2.234  10.529
 8729SOL    HW227629   2.570   2.370  10.489
 8730SOL     OW27630   2.759   3.545  10.797
 8730SOL    HW127631   2.755   3.499  10.714
 8730SOL    HW227632   2.766   3.638  10.773
 8731SOL     OW27633   2.321   2.353   9.503
 8731SOL    HW127634   2.381   2.426   9.520
 8731SOL    HW227635   2.237   2.395   9.487
 8732SOL     OW27636   1.992   2.971  10.757
 8732SOL    HW127637   2.010   2.936  10.844
 8732SOL    HW227638   2.027   2.906  10.697
 8733SOL     OW27639   3.162   2.898  10.535
 8733SOL    HW127640   3.186   2.835  10.467
 8733SOL    HW227641   3.106   2.961  10.491
 8734SOL     OW27642   3.146   2.715   9.601
 8734SOL    HW127643   3.084   2.657   9.644
 8734SOL    HW227644   3.130   2.702   9.507
 8735SOL     OW27645   3.656   3.603  10.492
 8735SOL    HW127646   3.711   3.628  10.418
 8735SOL    HW227647   3.617   3.519  10.465
 8736SOL     OW27648   3.107   3.603  10.432
 8736SOL    HW127649   3.186   3.628  10.384
 8736SOL    HW227650   3.112   3.507  10.439
 8737SOL     OW27651   1.948   3.116  10.326
 8737SOL    HW127652   1.912   3.130  10.413
 8737SOL    HW227653   1.885   3.057  10.284
 8738SOL     OW27654   2.548   3.536  11.049
 8738SOL    HW127655   2.489   3.611  11.036
 8738SOL    HW227656   2.618   3.551  10.986
 8739SOL     OW27657   3.607   2.025   9.819
 8739SOL    HW127658   3.666   2.010   9.746
 8739SOL    HW227659   3.584   1.938   9.851
 8740SOL     OW27660   2.001   3.652  11.152
 8740SOL    HW127661   1.952   3.586  11.200
 8740SOL    HW227662   2.049   3.701  11.220
 8741SOL     OW27663   3.135   2.788   9.993
 8741SOL    HW127664   3.212   2.732  10.002
 8741SOL    HW227665   3.161   2.856   9.930
 8742SOL     OW27666   2.666   3.138  10.739
 8742SOL    HW127667   2.632   3.179  10.819
 8742SOL    HW227668   2.623   3.185  10.668
 8743SOL     OW27669   2.528   3.478   9.461
 8743SOL    HW127670   2.545   3.500   9.370
 8743SOL    HW227671   2.469   3.403   9.457
 8744SOL     OW27672   3.478   3.586  10.709
 8744SOL    HW127673   3.535   3.590  10.632
 8744SOL    HW227674   3.460   3.678  10.730
 8745SOL     OW27675   3.702   2.029  10.282
 8745SOL    HW127676   3.734   1.944  10.251
 8745SOL    HW227677   3.619   2.041  10.236
 8746SOL     OW27678   2.118   2.165  10.026
 8746SOL    HW127679   2.034   2.203  10.000
 8746SOL    HW227680   2.119   2.169  10.121
 8747SOL     OW27681   3.036   3.409   9.333
 8747SOL    HW127682   3.109   3.451   9.287
 8747SOL    HW227683   2.958   3.447   9.293
 8748SOL     OW27684   2.685   2.872  10.683
 8748SOL    HW127685   2.726   2.866  10.597
 8748SOL    HW227686   2.679   2.965  10.701
 8749SOL     OW27687   2.798   2.778   9.610
 8749SOL    HW127688   2.869   2.828   9.571
 8749SOL    HW227689   2.840   2.702   9.651
 8750SOL     OW27690   2.215   3.168  10.810
 8750SOL    HW127691   2.223   3.244  10.752
 8750SOL    HW227692   2.163   3.105  10.761
 8751SOL     OW27693   3.453   3.120  10.600
 8751SOL    HW127694   3.544   3.139  10.622
 8751SOL    HW227695   3.406   3.200  10.625
 8752SOL     OW27696   2.925   2.980  10.034
 8752SOL    HW127697   2.852   2.925  10.063
 8752SOL    HW227698   2.990   2.917  10.001
 8753SOL     OW27699   2.889   2.107  10.279
 8753SOL    HW127700   2.885   2.062  10.195
 8753SOL    HW227701   2.884   2.036  10.344
 8754SOL     OW27702   2.451   3.342   9.801
 8754SOL    HW127703   2.509   3.292   9.745
 8754SOL    HW227704   2.413   3.408   9.743
 8755SOL     OW27705   3.599   2.245  10.699
 8755SOL    HW127706   3.670   2.310  10.693
 8755SOL    HW227707   3.623   2.178  10.635
 8756SOL     OW27708   2.127   3.194   9.611
 8756SOL    HW127709   2.038   3.198   9.578
 8756SOL    HW227710   2.125   3.242   9.694
 8757SOL     OW27711   1.964   2.863  11.015
 8757SOL    HW127712   1.894   2.852  11.079
 8757SOL    HW227713   2.044   2.848  11.065
 8758SOL     OW27714   2.538   2.053  10.811
 8758SOL    HW127715   2.620   2.037  10.765
 8758SOL    HW227716   2.564   2.090  10.895
 8759SOL     OW27717   1.936   2.196   9.334
 8759SOL    HW127718   1.867   2.180   9.270
 8759SOL    HW227719   1.982   2.273   9.301
 8760SOL     OW27720   3.282   2.716  10.704
 8760SOL    HW127721   3.229   2.776  10.652
 8760SOL    HW227722   3.369   2.721  10.665
 8761SOL     OW27723   1.918   2.018   9.596
 8761SOL    HW127724   1.905   2.088   9.532
 8761SOL    HW227725   2.005   1.984   9.577
 8762SOL     OW27726   3.007   3.121   9.449
 8762SOL    HW127727   2.937   3.183   9.430
 8762SOL    HW227728   3.048   3.154   9.529
 8763SOL     OW27729   2.487   2.696  10.748
 8763SOL    HW127730   2.543   2.771  10.730
 8763SOL    HW227731   2.546   2.621  10.751
 8764SOL     OW27732   3.343   3.659  10.300
 8764SOL    HW127733   3.350   3.709  10.219
 8764SOL    HW227734   3.420   3.602  10.301
 8765SOL     OW27735   2.573   2.422  11.009
 8765SOL    HW127736   2.621   2.485  11.063
 8765SOL    HW227737   2.597   2.336  11.043
 8766SOL     OW27738   3.342   3.050  10.939
 8766SOL    HW127739   3.335   3.072  11.032
 8766SOL    HW227740   3.432   3.072  10.915
 8767SOL     OW27741   2.225   3.608  10.879
 8767SOL    HW127742   2.143   3.655  10.861
 8767SOL    HW227743   2.197   3.523  10.912
 8768SOL     OW27744   3.519   2.741  10.565
 8768SOL    HW127745   3.519   2.659  10.516
 8768SOL    HW227746   3.504   2.808  10.498
 8769SOL     OW27747   3.072   2.171   9.771
 8769SOL    HW127748   3.140   2.104   9.763
 8769SOL    HW227749   3.101   2.225   9.844
 8770SOL     OW27750   2.434   2.597   9.995
 8770SOL    HW127751   2.482   2.678   9.979
 8770SOL    HW227752   2.378   2.587   9.918
 8771SOL     OW27753   3.625   2.223  10.973
 8771SOL    HW127754   3.621   2.240  10.879
 8771SOL    HW227755   3.547   2.171  10.991
 8772SOL     OW27756   3.620   2.792  10.819
 8772SOL    HW127757   3.605   2.885  10.834
 8772SOL    HW227758   3.597   2.778  10.727
 8773SOL     OW27759   2.737   3.238   9.347
 8773SOL    HW127760   2.694   3.294   9.412
 8773SOL    HW227761   2.755   3.297   9.274
 8774SOL     OW27762   2.535   3.643  10.256
 8774SOL    HW127763   2.516   3.731  10.225
 8774SOL    HW227764   2.628   3.630  10.235
 8775SOL     OW27765   2.728   2.832  10.164
 8775SOL    HW127766   2.780   2.759  10.197
 8775SOL    HW227767   2.696   2.877  10.242
 8776SOL     OW27768   3.685   3.448  10.116
 8776SOL    HW127769   3.632   3.472  10.040
 8776SOL    HW227770   3.655   3.360  10.139
 8777SOL     OW27771   2.091   3.167  11.182
 8777SOL    HW127772   2.001   3.136  11.177
 8777SOL    HW227773   2.107   3.180  11.275
 8778SOL     OW27774   1.947   3.072   9.980
 8778SOL    HW127775   2.003   3.027  10.043
 8778SOL    HW227776   2.002   3.081   9.902
 8779SOL     OW27777   2.546   3.268  10.947
 8779SOL    HW127778   2.464   3.236  10.984
 8779SOL    HW227779   2.552   3.359  10.977
 8780SOL     OW27780   3.660   2.027  10.551
 8780SOL    HW127781   3.671   1.932  10.553
 8780SOL    HW227782   3.674   2.051  10.459
 8781SOL     OW27783   2.284   2.293   9.835
 8781SOL    HW127784   2.321   2.229   9.774
 8781SOL    HW227785   2.239   2.240   9.901
 8782SOL     OW27786   3.564   3.361  10.432
 8782SOL    HW127787   3.490   3.334  10.378
 8782SOL    HW227788   3.599   3.279  10.467
 8783SOL     OW27789   2.200   2.423  10.602
 8783SOL    HW127790   2.257   2.366  10.653
 8783SOL    HW227791   2.217   2.400  10.511
 8784SOL     OW27792   2.686   3.458   9.984
 8784SOL    HW127793   2.698   3.523   9.916
 8784SOL    HW227794   2.618   3.400   9.951
 8785SOL     OW27795   3.286   2.093  10.428
 8785SOL    HW127796   3.314   2.009  10.464
 8785SOL    HW227797   3.236   2.134  10.499
 8786SOL     OW27798   2.870   1.869  10.441
 8786SOL    HW127799   2.824   1.810  10.382
 8786SOL    HW227800   2.958   1.833  10.447
 8787SOL     OW27801   2.624   3.185   9.661
 8787SOL    HW127802   2.607   3.091   9.655
 8787SOL    HW227803   2.718   3.192   9.677
 8788SOL     OW27804   2.480   3.417  10.605
 8788SOL    HW127805   2.481   3.504  10.646
 8788SOL    HW227806   2.567   3.409  10.566
 8789SOL     OW27807   3.215   1.910   9.493
 8789SOL    HW127808   3.250   1.850   9.426
 8789SOL    HW227809   3.127   1.877   9.510
 8790SOL     OW27810   3.139   2.323   9.985
 8790SOL    HW127811   3.096   2.408   9.988
 8790SOL    HW227812   3.150   2.299  10.077
 8791SOL     OW27813   3.444   2.061  10.193
 8791SOL    HW127814   3.388   2.091  10.265
 8791SOL    HW227815   3.447   2.134  10.132
 8792SOL     OW27816   1.898   2.927   9.627
 8792SOL    HW127817   1.992   2.926   9.606
 8792SOL    HW227818   1.876   2.836   9.645
 8793SOL     OW27819   2.699   3.497   9.690
 8793SOL    HW127820   2.654   3.489   9.606
 8793SOL    HW227821   2.724   3.590   9.695
 8794SOL     OW27822   2.079   2.483  11.306
 8794SOL    HW127823   1.990   2.476  11.341
 8794SOL    HW227824   2.070   2.462  11.213
 8795SOL     OW27825   2.086   2.150  12.165
 8795SOL    HW127826   2.117   2.111  12.247
 8795SOL    HW227827   1.997   2.117  12.154
 8796SOL     OW27828   1.857   2.248  11.812
 8796SOL    HW127829   1.777   2.276  11.857
 8796SOL    HW227830   1.829   2.172  11.760
 8797SOL     OW27831   2.404   3.110  12.337
 8797SOL    HW127832   2.331   3.157  12.296
 8797SOL    HW227833   2.425   3.163  12.414
 8798SOL     OW27834   3.441   3.379  11.882
 8798SOL    HW127835   3.397   3.358  11.964
 8798SOL    HW227836   3.370   3.385  11.817
 8799SOL     OW27837   2.995   2.562  11.866
 8799SOL    HW127838   3.042   2.644  11.854
 8799SOL    HW227839   2.945   2.574  11.947
 8800SOL     OW27840   3.645   2.457  11.394
 8800SOL    HW127841   3.613   2.457  11.304
 8800SOL    HW227842   3.605   2.380  11.434
 8801SOL     OW27843   2.615   2.989  12.228
 8801SOL    HW127844   2.535   3.023  12.269
 8801SOL    HW227845   2.651   3.064  12.180
 8802SOL     OW27846   2.547   2.851  11.817
 8802SOL    HW127847   2.614   2.848  11.885
 8802SOL    HW227848   2.481   2.911  11.852
 8803SOL     OW27849   2.203   3.273  12.232
 8803SOL    HW127850   2.125   3.235  12.192
 8803SOL    HW227851   2.241   3.327  12.163
 8804SOL     OW27852   3.465   2.301  11.920
 8804SOL    HW127853   3.404   2.323  11.850
 8804SOL    HW227854   3.457   2.373  11.983
 8805SOL     OW27855   2.085   3.577  11.636
 8805SOL    HW127856   2.106   3.652  11.692
 8805SOL    HW227857   2.159   3.571  11.576
 8806SOL     OW27858   2.092   3.307  11.702
 8806SOL    HW127859   2.080   3.402  11.700
 8806SOL    HW227860   2.037   3.277  11.774
 8807SOL     OW27861   2.129   2.954  12.051
 8807SOL    HW127862   2.128   2.867  12.089
 8807SOL    HW227863   2.075   3.007  12.110
 8808SOL     OW27864   2.433   2.851  11.317
 8808SOL    HW127865   2.482   2.894  11.248
 8808SOL    HW227866   2.474   2.880  11.398
 8809SOL     OW27867   1.981   2.520  11.736
 8809SOL    HW127868   1.951   2.432  11.758
 8809SOL    HW227869   1.973   2.570  11.817
 8810SOL     OW27870   3.706   3.615  11.503
 8810SOL    HW127871   3.779   3.593  11.560
 8810SOL    HW227872   3.721   3.706  11.478
 8811SOL     OW27873   1.901   3.446  11.293
 8811SOL    HW127874   1.883   3.355  11.317
 8811SOL    HW227875   1.876   3.496  11.371
 8812SOL     OW27876   3.549   2.780  11.816
 8812SOL    HW127877   3.631   2.738  11.790
 8812SOL    HW227878   3.526   2.835  11.741
 8813SOL     OW27879   3.511   2.965  11.605
 8813SOL    HW127880   3.597   2.966  11.563
 8813SOL    HW227881   3.519   3.029  11.676
 8814SOL     OW27882   2.074   2.593   0.250
 8814SOL    HW127883   2.132   2.570   0.322
 8814SOL    HW227884   1.992   2.619   0.292
 8815SOL     OW27885   2.472   3.258  11.901
 8815SOL    HW127886   2.430   3.172  11.906
 8815SOL    HW227887   2.456   3.287  11.811
 8816SOL     OW27888   2.685   1.867  11.687
 8816SOL    HW127889   2.726   1.950  11.662
 8816SOL    HW227890   2.591   1.886  11.690
 8817SOL     OW27891   2.011   2.776  12.469
 8817SOL    HW127892   2.106   2.766  12.466
 8817SOL    HW227893   1.984   2.781  12.377
 8818SOL     OW27894   3.394   2.863  11.374
 8818SOL    HW127895   3.326   2.805  11.407
 8818SOL    HW227896   3.436   2.897  11.453
 8819SOL     OW27897   3.334   3.278  12.119
 8819SOL    HW127898   3.265   3.294  12.183
 8819SOL    HW227899   3.319   3.188  12.089
 8820SOL     OW27900   3.513   3.627  11.747
 8820SOL    HW127901   3.496   3.591  11.659
 8820SOL    HW227902   3.500   3.553  11.806
 8821SOL     OW27903   2.457   2.575  11.445
 8821SOL    HW127904   2.462   2.660  11.401
 8821SOL    HW227905   2.392   2.588  11.514
 8822SOL     OW27906   3.152   2.238  12.109
 8822SOL    HW127907   3.063   2.203  12.108
 8822SOL    HW227908   3.200   2.180  12.169
 8823SOL     OW27909   3.441   3.534  11.485
 8823SOL    HW127910   3.533   3.558  11.476
 8823SOL    HW227911   3.410   3.519  11.396
 8824SOL     OW27912   2.840   2.209  12.385
 8824SOL    HW127913   2.847   2.279  12.451
 8824SOL    HW227914   2.751   2.216  12.352
 8825SOL     OW27915   2.918   2.557  11.595
 8825SOL    HW127916   2.937   2.553  11.689
 8825SOL    HW227917   2.833   2.513  11.587
 8826SOL     OW27918   1.949   2.685  11.952
 8826SOL    HW127919   2.030   2.681  12.003
 8826SOL    HW227920   1.901   2.759  11.989
 8827SOL     OW27921   2.766   2.213  11.367
 8827SOL    HW127922   2.804   2.283  11.314
 8827SOL    HW227923   2.777   2.134  11.314
 8828SOL     OW27924   3.241   3.000  11.704
 8828SOL    HW127925   3.322   2.993  11.655
 8828SOL    HW227926   3.190   3.066  11.657
 8829SOL     OW27927   2.416   2.042  12.064
 8829SOL    HW127928   2.419   2.086  12.149
 8829SOL    HW227929   2.411   2.113  12.000
 8830SOL     OW27930   2.859   3.308  11.639
 8830SOL    HW127931   2.830   3.383  11.588
 8830SOL    HW227932   2.835   3.330  11.729
 8831SOL     OW27933   2.218   3.680  12.041
 8831SOL    HW127934   2.263   3.596  12.050
 8831SOL    HW227935   2.285   3.746  12.061
 8832SOL     OW27936   3.662   2.909  12.048
 8832SOL    HW127937   3.608   2.893  11.970
 8832SOL    HW227938   3.598   2.917  12.119
 8833SOL     OW27939   2.172   2.824  11.428
 8833SOL    HW127940   2.256   2.843  11.387
 8833SOL    HW227941   2.147   2.738  11.394
 8834SOL     OW27942   3.343   2.613  11.886
 8834SOL    HW127943   3.343   2.575  11.973
 8834SOL    HW227944   3.421   2.669  11.884
 8835SOL     OW27945   2.988   3.635  11.404
 8835SOL    HW127946   2.909   3.596  11.442
 8835SOL    HW227947   3.013   3.575  11.334
 8836SOL     OW27948   3.496   3.247  11.277
 8836SOL    HW127949   3.459   3.333  11.255
 8836SOL    HW227950   3.431   3.184  11.249
 8837SOL     OW27951   2.328   3.596  11.490
 8837SOL    HW127952   2.373   3.654  11.551
 8837SOL    HW227953   2.396   3.566  11.429
 8838SOL     OW27954   3.264   1.964  11.613
 8838SOL    HW127955   3.263   1.932  11.523
 8838SOL    HW227956   3.357   1.977  11.633
 8839SOL     OW27957   2.103   3.643  12.389
 8839SOL    HW127958   2.115   3.566  12.444
 8839SOL    HW227959   2.066   3.609  12.308
 8840SOL     OW27960   2.808   3.555  12.069
 8840SOL    HW127961   2.892   3.509  12.076
 8840SOL    HW227962   2.761   3.509  12.000
 8841SOL     OW27963   2.259   2.555  11.644
 8841SOL    HW127964   2.274   2.462  11.657
 8841SOL    HW227965   2.165   2.567  11.661
 8842SOL     OW27966   2.509   1.975  11.276
 8842SOL    HW127967   2.566   1.900  11.292
 8842SOL    HW227968   2.452   1.947  11.204
 8843SOL     OW27969   2.672   3.219  12.100
 8843SOL    HW127970   2.761   3.230  12.066
 8843SOL    HW227971   2.615   3.243  12.027
 8844SOL     OW27972   2.792   2.371  12.068
 8844SOL    HW127973   2.764   2.360  11.977
 8844SOL    HW227974   2.830   2.287  12.092
 8845SOL     OW27975   2.417   1.925  11.665
 8845SOL    HW127976   2.337   1.924  11.717
 8845SOL    HW227977   2.409   2.002  11.609
 8846SOL     OW27978   3.296   3.070  11.213
 8846SOL    HW127979   3.321   2.992  11.264
 8846SOL    HW227980   3.210   3.093  11.246
 8847SOL     OW27981   2.147   1.909  11.358
 8847SOL    HW127982   2.199   1.975  11.311
 8847SOL    HW227983   2.213   1.852  11.398
 8848SOL     OW27984   2.806   2.108  11.622
 8848SOL    HW127985   2.782   2.149  11.539
 8848SOL    HW227986   2.900   2.127  11.632
 8849SOL     OW27987   3.075   3.447  11.972
 8849SOL    HW127988   3.088   3.506  11.897
 8849SOL    HW227989   3.152   3.462  12.027
 8850SOL     OW27990   2.337   3.016  11.889
 8850SOL    HW127991   2.271   2.996  11.956
 8850SOL    HW227992   2.291   3.006  11.806
 8851SOL     OW27993   3.121   3.654  11.785
 8851SOL    HW127994   3.172   3.713  11.731
 8851SOL    HW227995   3.052   3.708  11.823
 8852SOL     OW27996   2.883   2.397  11.202
 8852SOL    HW127997   2.840   2.479  11.176
 8852SOL    HW227998   2.954   2.425  11.261
 8853SOL     OW27999   2.423   2.075  12.346
 8853SOL    HW128000   2.443   1.982  12.333
 8853SOL    HW228001   2.330   2.076  12.368
 8854SOL     OW28002   2.724   2.316  11.808
 8854SOL    HW128003   2.685   2.374  11.742
 8854SOL    HW228004   2.750   2.238  11.758
 8855SOL     OW28005   2.886   1.905  11.912
 8855SOL    HW128006   2.823   1.906  11.840
 8855SOL    HW228007   2.859   1.831  11.967
 8856SOL     OW28008   3.304   3.021  12.024
 8856SOL    HW128009   3.233   2.958  12.009
 8856SOL    HW228010   3.343   3.034  11.938
 8857SOL     OW28011   3.323   2.471  12.127
 8857SOL    HW128012   3.266   2.395  12.133
 8857SOL    HW228013   3.383   2.462  12.201
 8858SOL     OW28014   3.701   2.667  11.561
 8858SOL    HW128015   3.763   2.619  11.617
 8858SOL    HW228016   3.680   2.606  11.491
 8859SOL     OW28017   2.356   3.287  11.321
 8859SOL    HW128018   2.280   3.257  11.371
 8859SOL    HW228019   2.358   3.230  11.244
 8860SOL     OW28020   3.533   3.122  11.824
 8860SOL    HW128021   3.628   3.118  11.835
 8860SOL    HW228022   3.511   3.214  11.838
 8861SOL     OW28023   3.253   2.439  11.240
 8861SOL    HW128024   3.199   2.415  11.315
 8861SOL    HW228025   3.343   2.427  11.270
 8862SOL     OW28026   2.387   2.123  11.481
 8862SOL    HW128027   2.437   2.079  11.412
 8862SOL    HW228028   2.359   2.206  11.442
 8863SOL     OW28029   2.967   3.100  12.289
 8863SOL    HW128030   2.887   3.126  12.334
 8863SOL    HW228031   2.955   3.131  12.199
 8864SOL     OW28032   3.470   2.956  12.243
 8864SOL    HW128033   3.439   2.997  12.324
 8864SOL    HW228034   3.403   2.978  12.178
 8865SOL     OW28035   2.571   2.920  11.546
 8865SOL    HW128036   2.558   2.898  11.638
 8865SOL    HW228037   2.647   2.869  11.520
 8866SOL     OW28038   2.294   2.694  12.457
 8866SOL    HW128039   2.345   2.741  12.523
 8866SOL    HW228040   2.328   2.604  12.461
 8867SOL     OW28041   3.114   2.221  12.432
 8867SOL    HW128042   3.143   2.306  12.465
 8867SOL    HW228043   3.024   2.236  12.403
 8868SOL     OW28044   2.187   2.988  11.659
 8868SOL    HW128045   2.195   3.062  11.599
 8868SOL    HW228046   2.188   2.911  11.601
 8869SOL     OW28047   2.400   2.385  12.032
 8869SOL    HW128048   2.414   2.444  11.957
 8869SOL    HW228049   2.466   2.412  12.096
 8870SOL     OW28050   3.108   3.212  11.567
 8870SOL    HW128051   3.164   3.283  11.596
 8870SOL    HW228052   3.020   3.236  11.598
 8871SOL     OW28053   3.151   3.309  12.317
 8871SOL    HW128054   3.208   3.308  12.393
 8871SOL    HW228055   3.095   3.232  12.328
 8872SOL     OW28056   3.439   2.476  11.659
 8872SOL    HW128057   3.388   2.524  11.724
 8872SOL    HW228058   3.484   2.545  11.609
 8873SOL     OW28059   2.234   3.400  12.469
 8873SOL    HW128060   2.210   3.347  12.393
 8873SOL    HW228061   2.301   3.460  12.435
 8874SOL     OW28062   2.441   2.740  12.213
 8874SOL    HW128063   2.483   2.825  12.206
 8874SOL    HW228064   2.389   2.745  12.293
 8875SOL     OW28065   3.192   2.716  12.172
 8875SOL    HW128066   3.108   2.694  12.132
 8875SOL    HW228067   3.244   2.637  12.164
 8876SOL     OW28068   3.065   2.384  11.436
 8876SOL    HW128069   3.071   2.308  11.493
 8876SOL    HW228070   3.023   2.451  11.490
 8877SOL     OW28071   2.161   2.040  12.409
 8877SOL    HW128072   2.136   2.070  12.496
 8877SOL    HW228073   2.151   1.945  12.412
 8878SOL     OW28074   1.939   3.182  12.445
 8878SOL    HW128075   1.967   3.114  12.507
 8878SOL    HW228076   1.928   3.260  12.498
 8879SOL     OW28077   2.572   2.490  12.218
 8879SOL    HW128078   2.652   2.480  12.166
 8879SOL    HW228079   2.545   2.581  12.203
 8880SOL     OW28080   2.174   1.921  11.794
 8880SOL    HW128081   2.147   2.011  11.813
 8880SOL    HW228082   2.181   1.880  11.880
 8881SOL     OW28083   3.486   2.244  11.523
 8881SOL    HW128084   3.516   2.179  11.587
 8881SOL    HW228085   3.461   2.320  11.576
 8882SOL     OW28086   2.888   2.616  12.139
 8882SOL    HW128087   2.882   2.625  12.234
 8882SOL    HW228088   2.861   2.526  12.121
 8883SOL     OW28089   3.387   2.118  11.298
 8883SOL    HW128090   3.336   2.051  11.343
 8883SOL    HW228091   3.425   2.170  11.368
 8884SOL     OW28092   3.147   2.689  11.196
 8884SOL    HW128093   3.189   2.603  11.198
 8884SOL    HW228094   3.179   2.729  11.115
 8885SOL     OW28095   2.937   3.209  12.033
 8885SOL    HW128096   2.944   3.136  11.971
 8885SOL    HW228097   2.992   3.277  11.996
 8886SOL     OW28098   2.169   2.683  12.124
 8886SOL    HW128099   2.263   2.699  12.122
 8886SOL    HW228100   2.161   2.589  12.144
 8887SOL     OW28101   2.168   2.408  12.166
 8887SOL    HW128102   2.139   2.316  12.168
 8887SOL    HW228103   2.250   2.406  12.118
 8888SOL     OW28104   3.039   2.077   0.153
 8888SOL    HW128105   3.019   2.143   0.219
 8888SOL    HW228106   3.064   2.127   0.076
 8889SOL     OW28107   1.862   3.174  11.367
 8889SOL    HW128108   1.775   3.191  11.332
 8889SOL    HW228109   1.857   3.085  11.402
 8890SOL     OW28110   1.957   3.640  12.118
 8890SOL    HW128111   1.926   3.564  12.068
 8890SOL    HW228112   2.045   3.657  12.084
 8891SOL     OW28113   2.357   3.443  12.074
 8891SOL    HW128114   2.428   3.502  12.099
 8891SOL    HW228115   2.399   3.380  12.015
 8892SOL     OW28116   2.836   2.647  12.416
 8892SOL    HW128117   2.889   2.715  12.458
 8892SOL    HW228118   2.745   2.674  12.430
 8893SOL     OW28119   1.916   2.430  12.286
 8893SOL    HW128120   1.994   2.433  12.231
 8893SOL    HW228121   1.941   2.377  12.361
 8894SOL     OW28122   2.678   2.430  11.545
 8894SOL    HW128123   2.684   2.359  11.481
 8894SOL    HW228124   2.605   2.484  11.514
 8895SOL     OW28125   3.512   2.462  12.323
 8895SOL    HW128126   3.513   2.410  12.403
 8895SOL    HW228127   3.604   2.468  12.297
 8896SOL     OW28128   2.577   2.299  12.414
 8896SOL    HW128129   2.509   2.237  12.388
 8896SOL    HW228130   2.567   2.372  12.353
 8897SOL     OW28131   2.751   3.515   0.035
 8897SOL    HW128132   2.761   3.576  -0.037
 8897SOL    HW228133   2.799   3.556   0.108
 8898SOL     OW28134   2.318   2.352  11.351
 8898SOL    HW128135   2.379   2.422  11.375
 8898SOL    HW228136   2.233   2.396  11.344
 8899SOL     OW28137   3.143   2.895  12.371
 8899SOL    HW128138   3.169   2.841  12.296
 8899SOL    HW228139   3.093   2.967  12.332
 8900SOL     OW28140   3.182   2.712  11.470
 8900SOL    HW128141   3.104   2.688  11.520
 8900SOL    HW228142   3.156   2.705  11.379
 8901SOL     OW28143   3.616   3.611  12.304
 8901SOL    HW128144   3.686   3.631  12.242
 8901SOL    HW228145   3.603   3.516  12.296
 8902SOL     OW28146   3.109   3.581  12.279
 8902SOL    HW128147   3.188   3.617  12.238
 8902SOL    HW228148   3.126   3.487  12.284
 8903SOL     OW28149   1.962   3.124  12.182
 8903SOL    HW128150   1.946   3.149  12.273
 8903SOL    HW228151   1.882   3.080  12.155
 8904SOL     OW28152   3.583   2.025  11.671
 8904SOL    HW128153   3.653   2.008  11.607
 8904SOL    HW228154   3.569   1.940  11.713
 8905SOL     OW28155   3.257   3.429  11.668
 8905SOL    HW128156   3.315   3.461  11.599
 8905SOL    HW228157   3.205   3.506  11.693
 8906SOL     OW28158   3.140   2.792  11.843
 8906SOL    HW128159   3.214   2.732  11.851
 8906SOL    HW228160   3.173   2.862  11.786
 8907SOL     OW28161   2.533   3.492  11.326
 8907SOL    HW128162   2.549   3.508  11.233
 8907SOL    HW228163   2.477   3.414  11.328
 8908SOL     OW28164   3.487   3.651   0.042
 8908SOL    HW128165   3.537   3.638  -0.038
 8908SOL    HW228166   3.521   3.733   0.079
 8909SOL     OW28167   3.703   2.031  12.142
 8909SOL    HW128168   3.734   1.943  12.117
 8909SOL    HW228169   3.617   2.038  12.101
 8910SOL     OW28170   2.114   2.171  11.883
 8910SOL    HW128171   2.029   2.207  11.860
 8910SOL    HW228172   2.117   2.173  11.979
 8911SOL     OW28173   3.072   3.464  11.207
 8911SOL    HW128174   3.060   3.370  11.223
 8911SOL    HW228175   3.015   3.482  11.132
 8912SOL     OW28176   2.657   2.873  12.481
 8912SOL    HW128177   2.658   2.921  12.399
 8912SOL    HW228178   2.734   2.905  12.528
 8913SOL     OW28179   2.779   2.770  11.470
 8913SOL    HW128180   2.834   2.802  11.399
 8913SOL    HW228181   2.832   2.703  11.513
 8914SOL     OW28182   3.354   3.493  11.220
 8914SOL    HW128183   3.260   3.482  11.203
 8914SOL    HW228184   3.394   3.498  11.134
 8915SOL     OW28185   2.929   2.977  11.892
 8915SOL    HW128186   2.855   2.925  11.923
 8915SOL    HW228187   2.993   2.912  11.861
 8916SOL     OW28188   2.905   2.112  12.106
 8916SOL    HW128189   2.899   2.044  12.040
 8916SOL    HW228190   2.886   2.068  12.189
 8917SOL     OW28191   2.464   3.356  11.649
 8917SOL    HW128192   2.517   3.303  11.590
 8917SOL    HW228193   2.398   3.396  11.593
 8918SOL     OW28194   3.627   2.293   0.021
 8918SOL    HW128195   3.686   2.288   0.097
 8918SOL    HW228196   3.619   2.203  -0.009
 8919SOL     OW28197   2.120   3.205  11.457
 8919SOL    HW128198   2.027   3.199  11.437
 8919SOL    HW228199   2.124   3.247  11.543
 8920SOL     OW28200   1.943   2.186  11.196
 8920SOL    HW128201   1.860   2.168  11.153
 8920SOL    HW228202   1.977   2.264  11.151
 8921SOL     OW28203   1.918   2.014  11.466
 8921SOL    HW128204   1.905   2.092  11.412
 8921SOL    HW228205   2.004   1.981  11.441
 8922SOL     OW28206   3.045   3.189  11.291
 8922SOL    HW128207   2.952   3.166  11.289
 8922SOL    HW228208   3.067   3.193  11.384
 8923SOL     OW28209   3.350   3.648  12.156
 8923SOL    HW128210   3.370   3.720  12.096
 8923SOL    HW228211   3.433   3.630  12.200
 8924SOL     OW28212   3.537   2.735  12.405
 8924SOL    HW128213   3.514   2.651  12.364
 8924SOL    HW228214   3.515   2.801  12.339
 8925SOL     OW28215   3.076   2.174  11.629
 8925SOL    HW128216   3.142   2.105  11.625
 8925SOL    HW228217   3.102   2.228  11.705
 8926SOL     OW28218   2.443   2.592  11.850
 8926SOL    HW128219   2.486   2.676  11.837
 8926SOL    HW228220   2.381   2.584  11.778
 8927SOL     OW28221   3.691   2.746   0.125
 8927SOL    HW128222   3.673   2.828   0.171
 8927SOL    HW228223   3.628   2.744   0.053
 8928SOL     OW28224   2.729   3.228  11.218
 8928SOL    HW128225   2.690   3.271  11.294
 8928SOL    HW228226   2.751   3.299  11.159
 8929SOL     OW28227   2.528   3.653  12.121
 8929SOL    HW128228   2.511   3.741  12.089
 8929SOL    HW228229   2.623   3.641  12.111
 8930SOL     OW28230   2.734   2.830  12.026
 8930SOL    HW128231   2.784   2.757  12.065
 8930SOL    HW228232   2.699   2.877  12.101
 8931SOL     OW28233   2.930   2.840  11.260
 8931SOL    HW128234   2.911   2.898  11.186
 8931SOL    HW228235   3.008   2.792  11.233
 8932SOL     OW28236   3.705   3.417  12.014
 8932SOL    HW128237   3.625   3.407  11.962
 8932SOL    HW228238   3.692   3.360  12.090
 8933SOL     OW28239   1.956   3.081  11.835
 8933SOL    HW128240   1.985   3.042  11.918
 8933SOL    HW228241   2.021   3.052  11.771
 8934SOL     OW28242   3.664   2.039  12.414
 8934SOL    HW128243   3.699   1.951  12.428
 8934SOL    HW228244   3.672   2.053  12.320
 8935SOL     OW28245   2.287   2.294  11.696
 8935SOL    HW128246   2.319   2.224  11.639
 8935SOL    HW228247   2.236   2.248  11.763
 8936SOL     OW28248   3.571   3.347  12.268
 8936SOL    HW128249   3.488   3.317  12.230
 8936SOL    HW228250   3.584   3.292  12.344
 8937SOL     OW28251   2.691   3.451  11.846
 8937SOL    HW128252   2.677   3.519  11.780
 8937SOL    HW228253   2.615   3.393  11.837
 8938SOL     OW28254   3.308   2.097  12.295
 8938SOL    HW128255   3.374   2.064  12.356
 8938SOL    HW228256   3.240   2.135  12.350
 8939SOL     OW28257   2.857   1.824  12.318
 8939SOL    HW128258   2.825   1.787  12.236
 8939SOL    HW228259   2.952   1.809  12.316
 8940SOL     OW28260   2.631   3.194  11.506
 8940SOL    HW128261   2.610   3.101  11.509
 8940SOL    HW228262   2.718   3.201  11.546
 8941SOL     OW28263   3.212   1.894  11.340
 8941SOL    HW128264   3.188   1.935  11.257
 8941SOL    HW228265   3.139   1.836  11.360
 8942SOL     OW28266   3.149   2.324  11.846
 8942SOL    HW128267   3.101   2.407  11.850
 8942SOL    HW228268   3.153   2.294  11.936
 8943SOL     OW28269   3.444   2.052  12.057
 8943SOL    HW128270   3.390   2.077  12.132
 8943SOL    HW228271   3.444   2.129  12.000
 8944SOL     OW28272   1.901   2.922  11.480
 8944SOL    HW128273   1.995   2.915  11.462
 8944SOL    HW228274   1.874   2.833  11.502
 8945SOL     OW28275   2.749   3.525  11.511
 8945SOL    HW128276   2.675   3.513  11.450
 8945SOL    HW228277   2.723   3.600  11.565
 8946SOL     OW28278   2.071   4.328   0.155
 8946SOL    HW128279   1.979   4.305   0.167
 8946SOL    HW228280   2.086   4.317   0.061
 8947SOL     OW28281   2.087   4.006   0.992
 8947SOL    HW128282   2.114   3.974   1.078
 8947SOL    HW228283   1.998   3.972   0.981
 8948SOL     OW28284   1.846   4.114   0.638
 8948SOL    HW128285   1.769   4.142   0.687
 8948SOL    HW228286   1.822   4.029   0.602
 8949SOL     OW28287   2.427   5.016   1.181
 8949SOL    HW128288   2.340   5.027   1.142
 8949SOL    HW228289   2.447   5.102   1.218
 8950SOL     OW28290   3.425   5.244   0.721
 8950SOL    HW128291   3.391   5.220   0.807
 8950SOL    HW228292   3.348   5.245   0.664
 8951SOL     OW28293   2.992   4.424   0.692
 8951SOL    HW128294   3.043   4.504   0.682
 8951SOL    HW228295   2.948   4.434   0.776
 8952SOL     OW28296   3.598   4.333   0.270
 8952SOL    HW128297   3.595   4.333   0.174
 8952SOL    HW228298   3.568   4.246   0.295
 8953SOL     OW28299   2.595   4.853   1.038
 8953SOL    HW128300   2.531   4.894   1.096
 8953SOL    HW228301   2.648   4.926   1.006
 8954SOL     OW28302   2.743   4.478   1.831
 8954SOL    HW128303   2.735   4.542   1.902
 8954SOL    HW228304   2.764   4.531   1.753
 8955SOL     OW28305   2.545   4.716   0.649
 8955SOL    HW128306   2.614   4.711   0.715
 8955SOL    HW228307   2.480   4.775   0.688
 8956SOL     OW28308   2.572   4.884   1.815
 8956SOL    HW128309   2.603   4.967   1.851
 8956SOL    HW228310   2.488   4.905   1.775
 8957SOL     OW28311   2.195   5.137   1.064
 8957SOL    HW128312   2.119   5.098   1.021
 8957SOL    HW228313   2.237   5.189   0.995
 8958SOL     OW28314   3.347   5.220   1.374
 8958SOL    HW128315   3.388   5.305   1.383
 8958SOL    HW228316   3.260   5.231   1.414
 8959SOL     OW28317   2.317   4.107   1.462
 8959SOL    HW128318   2.392   4.050   1.482
 8959SOL    HW228319   2.241   4.059   1.495
 8960SOL     OW28320   3.466   4.168   0.753
 8960SOL    HW128321   3.419   4.199   0.676
 8960SOL    HW228322   3.439   4.227   0.824
 8961SOL     OW28323   2.079   5.440   0.472
 8961SOL    HW128324   2.098   5.514   0.530
 8961SOL    HW228325   2.158   5.431   0.418
 8962SOL     OW28326   2.986   5.078   1.708
 8962SOL    HW128327   3.035   5.062   1.788
 8962SOL    HW228328   2.940   4.996   1.690
 8963SOL     OW28329   2.080   5.168   0.531
 8963SOL    HW128330   2.070   5.263   0.534
 8963SOL    HW228331   2.030   5.137   0.608
 8964SOL     OW28332   2.129   4.814   0.887
 8964SOL    HW128333   2.131   4.726   0.924
 8964SOL    HW228334   2.075   4.864   0.948
 8965SOL     OW28335   2.439   4.690   0.158
 8965SOL    HW128336   2.504   4.710   0.091
 8965SOL    HW228337   2.471   4.735   0.236
 8966SOL     OW28338   3.457   3.858   1.460
 8966SOL    HW128339   3.480   3.942   1.420
 8966SOL    HW228340   3.435   3.880   1.551
 8967SOL     OW28341   1.982   4.361   0.566
 8967SOL    HW128342   1.943   4.277   0.590
 8967SOL    HW228343   1.964   4.418   0.641
 8968SOL     OW28344   3.719   5.466   0.309
 8968SOL    HW128345   3.785   5.438   0.373
 8968SOL    HW228346   3.736   5.560   0.296
 8969SOL     OW28347   1.897   5.243   0.135
 8969SOL    HW128348   1.808   5.211   0.120
 8969SOL    HW228349   1.885   5.322   0.189
 8970SOL     OW28350   3.546   4.656   0.643
 8970SOL    HW128351   3.604   4.612   0.582
 8970SOL    HW228352   3.504   4.725   0.591
 8971SOL     OW28353   3.506   4.843   0.428
 8971SOL    HW128354   3.593   4.839   0.389
 8971SOL    HW228355   3.514   4.909   0.497
 8972SOL     OW28356   1.992   4.470   1.580
 8972SOL    HW128357   2.083   4.500   1.590
 8972SOL    HW228358   1.940   4.549   1.590
 8973SOL     OW28359   2.477   5.118   0.735
 8973SOL    HW128360   2.434   5.033   0.742
 8973SOL    HW228361   2.465   5.143   0.643
 8974SOL     OW28362   3.138   4.946   1.436
 8974SOL    HW128363   3.173   4.890   1.367
 8974SOL    HW228364   3.205   4.943   1.505
 8975SOL     OW28365   2.686   3.740   0.524
 8975SOL    HW128366   2.723   3.824   0.499
 8975SOL    HW228367   2.591   3.756   0.527
 8976SOL     OW28368   2.049   4.683   1.275
 8976SOL    HW128369   2.136   4.645   1.262
 8976SOL    HW228370   1.988   4.617   1.241
 8977SOL     OW28371   3.355   4.739   0.224
 8977SOL    HW128372   3.293   4.679   0.266
 8977SOL    HW228373   3.410   4.770   0.296
 8978SOL     OW28374   2.990   5.518   1.583
 8978SOL    HW128375   3.027   5.592   1.535
 8978SOL    HW228376   3.042   5.443   1.556
 8979SOL     OW28377   2.214   3.979   1.826
 8979SOL    HW128378   2.253   4.056   1.867
 8979SOL    HW228379   2.121   3.985   1.849
 8980SOL     OW28380   3.335   5.137   0.961
 8980SOL    HW128381   3.251   5.167   0.996
 8980SOL    HW228382   3.318   5.048   0.932
 8981SOL     OW28383   3.507   5.489   0.585
 8981SOL    HW128384   3.488   5.450   0.500
 8981SOL    HW228385   3.489   5.418   0.647
 8982SOL     OW28386   2.453   4.434   0.272
 8982SOL    HW128387   2.469   4.520   0.234
 8982SOL    HW228388   2.403   4.453   0.352
 8983SOL     OW28389   3.143   4.096   0.934
 8983SOL    HW128390   3.053   4.063   0.943
 8983SOL    HW228391   3.195   4.041   0.993
 8984SOL     OW28392   3.456   5.404   0.328
 8984SOL    HW128393   3.550   5.418   0.321
 8984SOL    HW228394   3.428   5.382   0.239
 8985SOL     OW28395   2.651   4.343   1.442
 8985SOL    HW128396   2.629   4.316   1.531
 8985SOL    HW228397   2.621   4.270   1.387
 8986SOL     OW28398   3.257   4.195   1.683
 8986SOL    HW128399   3.260   4.240   1.767
 8986SOL    HW228400   3.312   4.117   1.695
 8987SOL     OW28401   2.814   4.611   1.590
 8987SOL    HW128402   2.871   4.543   1.554
 8987SOL    HW228403   2.764   4.643   1.515
 8988SOL     OW28404   2.862   4.132   1.226
 8988SOL    HW128405   2.773   4.150   1.257
 8988SOL    HW228406   2.850   4.082   1.146
 8989SOL     OW28407   2.916   4.429   0.426
 8989SOL    HW128408   2.935   4.424   0.520
 8989SOL    HW228409   2.832   4.385   0.416
 8990SOL     OW28410   1.954   4.556   0.764
 8990SOL    HW128411   2.033   4.542   0.817
 8990SOL    HW228412   1.906   4.624   0.811
 8991SOL     OW28413   2.004   5.593   1.584
 8991SOL    HW128414   2.007   5.573   1.678
 8991SOL    HW228415   1.923   5.551   1.554
 8992SOL     OW28416   2.750   4.083   0.220
 8992SOL    HW128417   2.786   4.147   0.159
 8992SOL    HW228418   2.746   4.001   0.169
 8993SOL     OW28419   3.561   4.284   1.827
 8993SOL    HW128420   3.529   4.360   1.780
 8993SOL    HW228421   3.596   4.226   1.759
 8994SOL     OW28422   3.246   4.865   0.540
 8994SOL    HW128423   3.325   4.864   0.488
 8994SOL    HW228424   3.188   4.928   0.497
 8995SOL     OW28425   2.414   3.899   0.907
 8995SOL    HW128426   2.416   3.922   1.000
 8995SOL    HW228427   2.415   3.982   0.861
 8996SOL     OW28428   2.853   5.145   0.480
 8996SOL    HW128429   2.816   5.230   0.458
 8996SOL    HW228430   2.857   5.145   0.576
 8997SOL     OW28431   2.217   5.540   0.876
 8997SOL    HW128432   2.263   5.457   0.881
 8997SOL    HW228433   2.285   5.606   0.893
 8998SOL     OW28434   3.667   4.779   0.860
 8998SOL    HW128435   3.612   4.746   0.789
 8998SOL    HW228436   3.608   4.787   0.934
 8999SOL     OW28437   3.083   5.264   1.504
 8999SOL    HW128438   3.081   5.196   1.572
 8999SOL    HW228439   3.037   5.225   1.430
 9000SOL     OW28440   2.166   4.642   0.233
 9000SOL    HW128441   2.256   4.665   0.211
 9000SOL    HW228442   2.117   4.661   0.153
 9001SOL     OW28443   3.344   4.479   0.721
 9001SOL    HW128444   3.342   4.437   0.807
 9001SOL    HW228445   3.421   4.535   0.724
 9002SOL     OW28446   2.336   4.997   1.729
 9002SOL    HW128447   2.304   5.000   1.639
 9002SOL    HW228448   2.256   4.993   1.782
 9003SOL     OW28449   2.926   5.500   0.229
 9003SOL    HW128450   2.914   5.463   0.317
 9003SOL    HW228451   2.995   5.447   0.190
 9004SOL     OW28452   2.062   3.995   1.509
 9004SOL    HW128453   1.978   4.040   1.518
 9004SOL    HW228454   2.047   3.908   1.546
 9005SOL     OW28455   3.514   5.137   0.093
 9005SOL    HW128456   3.449   5.196   0.053
 9005SOL    HW228457   3.470   5.052   0.095
 9006SOL     OW28458   2.316   5.452   0.331
 9006SOL    HW128459   2.362   5.511   0.391
 9006SOL    HW228460   2.385   5.417   0.274
 9007SOL     OW28461   3.265   3.824   0.448
 9007SOL    HW128462   3.262   3.790   0.359
 9007SOL    HW228463   3.359   3.826   0.469
 9008SOL     OW28464   2.122   5.514   1.221
 9008SOL    HW128465   2.164   5.437   1.258
 9008SOL    HW228466   2.108   5.492   1.129
 9009SOL     OW28467   2.804   5.422   0.911
 9009SOL    HW128468   2.868   5.362   0.950
 9009SOL    HW228469   2.766   5.373   0.838
 9010SOL     OW28470   2.247   4.418   0.487
 9010SOL    HW128471   2.273   4.326   0.485
 9010SOL    HW228472   2.185   4.424   0.559
 9011SOL     OW28473   3.392   3.945   1.723
 9011SOL    HW128474   3.405   3.970   1.815
 9011SOL    HW228475   3.329   3.873   1.728
 9012SOL     OW28476   2.489   3.846   0.115
 9012SOL    HW128477   2.582   3.824   0.120
 9012SOL    HW228478   2.480   3.892   0.032
 9013SOL     OW28479   2.619   4.003   1.753
 9013SOL    HW128480   2.703   3.955   1.750
 9013SOL    HW228481   2.578   3.973   1.834
 9014SOL     OW28482   2.730   5.242   1.201
 9014SOL    HW128483   2.718   5.210   1.112
 9014SOL    HW228484   2.817   5.210   1.227
 9015SOL     OW28485   3.202   4.313   1.439
 9015SOL    HW128486   3.233   4.281   1.524
 9015SOL    HW228487   3.240   4.400   1.431
 9016SOL     OW28488   2.676   5.109   0.945
 9016SOL    HW128489   2.756   5.108   0.892
 9016SOL    HW228490   2.606   5.115   0.880
 9017SOL     OW28491   2.793   4.234   0.898
 9017SOL    HW128492   2.766   4.223   0.806
 9017SOL    HW228493   2.821   4.147   0.925
 9018SOL     OW28494   2.415   3.782   0.499
 9018SOL    HW128495   2.336   3.783   0.554
 9018SOL    HW228496   2.407   3.861   0.445
 9019SOL     OW28497   3.321   4.945   0.050
 9019SOL    HW128498   3.335   4.865   0.101
 9019SOL    HW228499   3.231   4.970   0.068
 9020SOL     OW28500   2.176   3.805   0.202
 9020SOL    HW128501   2.259   3.852   0.202
 9020SOL    HW228502   2.198   3.716   0.230
 9021SOL     OW28503   2.809   3.977   0.464
 9021SOL    HW128504   2.783   4.013   0.379
 9021SOL    HW228505   2.904   3.988   0.467
 9022SOL     OW28506   2.945   4.411   1.457
 9022SOL    HW128507   2.883   4.339   1.470
 9022SOL    HW228508   3.031   4.369   1.456
 9023SOL     OW28509   3.136   5.275   0.746
 9023SOL    HW128510   3.120   5.365   0.721
 9023SOL    HW228511   3.107   5.269   0.837
 9024SOL     OW28512   2.333   4.882   0.722
 9024SOL    HW128513   2.271   4.859   0.791
 9024SOL    HW228514   2.284   4.871   0.640
 9025SOL     OW28515   3.123   5.522   0.607
 9025SOL    HW128516   3.172   5.589   0.560
 9025SOL    HW228517   3.053   5.571   0.652
 9026SOL     OW28518   2.880   4.280   0.077
 9026SOL    HW128519   2.883   4.358   0.022
 9026SOL    HW228520   2.954   4.290   0.137
 9027SOL     OW28521   1.954   4.287   1.381
 9027SOL    HW128522   2.047   4.283   1.360
 9027SOL    HW228523   1.948   4.351   1.452
 9028SOL     OW28524   2.419   3.948   1.179
 9028SOL    HW128525   2.461   3.887   1.239
 9028SOL    HW228526   2.327   3.947   1.206
 9029SOL     OW28527   2.726   4.181   0.638
 9029SOL    HW128528   2.689   4.238   0.571
 9029SOL    HW228529   2.751   4.102   0.592
 9030SOL     OW28530   2.885   3.773   0.739
 9030SOL    HW128531   2.820   3.769   0.669
 9030SOL    HW228532   2.860   3.704   0.800
 9031SOL     OW28533   3.302   4.877   0.858
 9031SOL    HW128534   3.236   4.808   0.868
 9031SOL    HW228535   3.307   4.891   0.763
 9032SOL     OW28536   3.327   4.329   0.957
 9032SOL    HW128537   3.264   4.259   0.968
 9032SOL    HW228538   3.381   4.326   1.037
 9033SOL     OW28539   3.692   4.546   0.433
 9033SOL    HW128540   3.741   4.479   0.480
 9033SOL    HW228541   3.652   4.499   0.359
 9034SOL     OW28542   2.350   5.119   0.172
 9034SOL    HW128543   2.286   5.071   0.224
 9034SOL    HW228544   2.299   5.166   0.107
 9035SOL     OW28545   3.536   5.003   0.637
 9035SOL    HW128546   3.629   5.005   0.657
 9035SOL    HW228547   3.503   5.088   0.666
 9036SOL     OW28548   3.256   4.271   0.081
 9036SOL    HW128549   3.204   4.269   0.161
 9036SOL    HW228550   3.313   4.194   0.087
 9037SOL     OW28551   2.391   3.987   0.322
 9037SOL    HW128552   2.442   3.938   0.258
 9037SOL    HW228553   2.366   4.068   0.278
 9038SOL     OW28554   3.606   4.960   1.559
 9038SOL    HW128555   3.682   4.914   1.594
 9038SOL    HW228556   3.622   5.052   1.579
 9039SOL     OW28557   2.918   5.086   1.361
 9039SOL    HW128558   2.839   5.042   1.390
 9039SOL    HW228559   2.990   5.031   1.393
 9040SOL     OW28560   3.471   5.361   1.664
 9040SOL    HW128561   3.467   5.393   1.574
 9040SOL    HW228562   3.547   5.303   1.665
 9041SOL     OW28563   2.972   4.923   1.123
 9041SOL    HW128564   2.965   4.992   1.188
 9041SOL    HW228565   2.974   4.969   1.039
 9042SOL     OW28566   3.493   4.823   1.070
 9042SOL    HW128567   3.488   4.883   1.144
 9042SOL    HW228568   3.417   4.845   1.016
 9043SOL     OW28569   2.784   3.812   1.390
 9043SOL    HW128570   2.809   3.798   1.299
 9043SOL    HW228571   2.861   3.853   1.430
 9044SOL     OW28572   2.835   4.847   1.720
 9044SOL    HW128573   2.743   4.854   1.747
 9044SOL    HW228574   2.838   4.767   1.667
 9045SOL     OW28575   2.571   4.784   0.381
 9045SOL    HW128576   2.563   4.766   0.475
 9045SOL    HW228577   2.649   4.736   0.354
 9046SOL     OW28578   2.286   4.546   1.251
 9046SOL    HW128579   2.352   4.558   1.319
 9046SOL    HW228580   2.254   4.456   1.264
 9047SOL     OW28581   3.128   4.103   1.280
 9047SOL    HW128582   3.159   4.179   1.330
 9047SOL    HW228583   3.037   4.123   1.260
 9048SOL     OW28584   1.939   5.301   1.363
 9048SOL    HW128585   1.910   5.369   1.303
 9048SOL    HW228586   2.034   5.297   1.350
 9049SOL     OW28587   2.184   4.839   0.489
 9049SOL    HW128588   2.175   4.912   0.427
 9049SOL    HW228589   2.220   4.767   0.436
 9050SOL     OW28590   2.405   4.246   0.851
 9050SOL    HW128591   2.425   4.306   0.778
 9050SOL    HW228592   2.467   4.269   0.919
 9051SOL     OW28593   3.104   5.067   0.395
 9051SOL    HW128594   3.159   5.141   0.424
 9051SOL    HW228595   3.018   5.086   0.432
 9052SOL     OW28596   3.418   4.321   0.505
 9052SOL    HW128597   3.375   4.381   0.567
 9052SOL    HW228598   3.453   4.377   0.437
 9053SOL     OW28599   2.207   5.262   1.301
 9053SOL    HW128600   2.199   5.211   1.220
 9053SOL    HW228601   2.301   5.268   1.316
 9054SOL     OW28602   2.285   4.471   1.607
 9054SOL    HW128603   2.349   4.510   1.548
 9054SOL    HW228604   2.323   4.387   1.633
 9055SOL     OW28605   3.478   4.502   1.686
 9055SOL    HW128606   3.391   4.542   1.685
 9055SOL    HW228607   3.527   4.549   1.619
 9056SOL     OW28608   2.854   3.863   1.745
 9056SOL    HW128609   2.915   3.935   1.732
 9056SOL    HW228610   2.905   3.784   1.725
 9057SOL     OW28611   2.361   3.757   1.748
 9057SOL    HW128612   2.308   3.706   1.686
 9057SOL    HW228613   2.308   3.835   1.766
 9058SOL     OW28614   2.441   4.602   1.028
 9058SOL    HW128615   2.486   4.686   1.034
 9058SOL    HW228616   2.392   4.595   1.109
 9059SOL     OW28617   3.196   4.584   1.008
 9059SOL    HW128618   3.106   4.560   0.987
 9059SOL    HW228619   3.245   4.502   1.002
 9060SOL     OW28620   3.070   4.253   0.282
 9060SOL    HW128621   3.085   4.180   0.342
 9060SOL    HW228622   3.025   4.318   0.335
 9061SOL     OW28623   2.154   3.923   1.247
 9061SOL    HW128624   2.116   3.956   1.328
 9061SOL    HW228625   2.137   3.829   1.248
 9062SOL     OW28626   1.920   5.039   1.269
 9062SOL    HW128627   1.944   4.978   1.339
 9062SOL    HW228628   1.917   5.124   1.312
 9063SOL     OW28629   2.571   4.347   1.042
 9063SOL    HW128630   2.654   4.337   0.996
 9063SOL    HW228631   2.547   4.439   1.029
 9064SOL     OW28632   3.601   4.692   1.854
 9064SOL    HW128633   3.560   4.615   1.813
 9064SOL    HW228634   3.548   4.708   1.932
 9065SOL     OW28635   2.171   3.787   0.627
 9065SOL    HW128636   2.146   3.877   0.649
 9065SOL    HW228637   2.180   3.744   0.712
 9066SOL     OW28638   3.481   4.093   0.367
 9066SOL    HW128639   3.512   4.025   0.427
 9066SOL    HW228640   3.447   4.162   0.425
 9067SOL     OW28641   2.897   4.479   0.960
 9067SOL    HW128642   2.883   4.495   1.053
 9067SOL    HW228643   2.868   4.389   0.946
 9068SOL     OW28644   2.826   5.300   1.708
 9068SOL    HW128645   2.855   5.357   1.636
 9068SOL    HW228646   2.873   5.217   1.693
 9069SOL     OW28647   3.706   5.217   1.605
 9069SOL    HW128648   3.732   5.249   1.518
 9069SOL    HW228649   3.783   5.230   1.659
 9070SOL     OW28650   2.213   4.655   1.799
 9070SOL    HW128651   2.284   4.663   1.863
 9070SOL    HW228652   2.242   4.587   1.738
 9071SOL     OW28653   3.362   4.009   0.134
 9071SOL    HW128654   3.318   3.927   0.159
 9071SOL    HW228655   3.409   4.035   0.213
 9072SOL     OW28656   3.146   4.527   0.057
 9072SOL    HW128657   3.198   4.448   0.047
 9072SOL    HW228658   3.188   4.591  -0.001
 9073SOL     OW28659   2.885   5.083   0.767
 9073SOL    HW128660   2.908   4.993   0.745
 9073SOL    HW228661   2.962   5.118   0.811
 9074SOL     OW28662   2.175   4.532   0.933
 9074SOL    HW128663   2.267   4.554   0.946
 9074SOL    HW228664   2.167   4.444   0.969
 9075SOL     OW28665   2.182   4.256   1.005
 9075SOL    HW128666   2.148   4.166   0.999
 9075SOL    HW228667   2.260   4.256   0.949
 9076SOL     OW28668   2.999   4.097   1.684
 9076SOL    HW128669   2.952   4.148   1.750
 9076SOL    HW228670   3.087   4.134   1.683
 9077SOL     OW28671   3.025   3.923   1.469
 9077SOL    HW128672   3.013   3.982   1.543
 9077SOL    HW228673   3.069   3.975   1.403
 9078SOL     OW28674   1.953   5.501   0.943
 9078SOL    HW128675   1.923   5.423   0.895
 9078SOL    HW228676   2.042   5.515   0.911
 9079SOL     OW28677   2.354   5.301   0.903
 9079SOL    HW128678   2.423   5.361   0.931
 9079SOL    HW228679   2.397   5.239   0.844
 9080SOL     OW28680   2.830   4.500   1.222
 9080SOL    HW128681   2.894   4.483   1.292
 9080SOL    HW228682   2.746   4.471   1.258
 9081SOL     OW28683   1.907   4.292   1.110
 9081SOL    HW128684   1.992   4.278   1.068
 9081SOL    HW228685   1.925   4.284   1.203
 9082SOL     OW28686   2.046   4.250   1.738
 9082SOL    HW128687   2.098   4.199   1.677
 9082SOL    HW228688   2.014   4.324   1.686
 9083SOL     OW28689   3.246   4.650   1.656
 9083SOL    HW128690   3.268   4.743   1.655
 9083SOL    HW228691   3.242   4.624   1.564
 9084SOL     OW28692   2.679   4.299   0.378
 9084SOL    HW128693   2.692   4.221   0.323
 9084SOL    HW228694   2.604   4.344   0.338
 9085SOL     OW28695   3.495   4.331   1.172
 9085SOL    HW128696   3.486   4.274   1.248
 9085SOL    HW228697   3.585   4.316   1.142
 9086SOL     OW28698   2.104   5.272   1.717
 9086SOL    HW128699   2.081   5.333   1.788
 9086SOL    HW228700   2.112   5.187   1.761
 9087SOL     OW28701   2.584   4.166   1.246
 9087SOL    HW128702   2.522   4.095   1.229
 9087SOL    HW228703   2.568   4.229   1.175
 9088SOL     OW28704   2.697   5.435   1.443
 9088SOL    HW128705   2.727   5.372   1.378
 9088SOL    HW228706   2.761   5.505   1.440
 9089SOL     OW28707   2.319   4.208   0.187
 9089SOL    HW128708   2.382   4.278   0.203
 9089SOL    HW228709   2.234   4.251   0.188
 9090SOL     OW28710   2.006   4.868   1.470
 9090SOL    HW128711   2.005   4.823   1.554
 9090SOL    HW228712   2.022   4.798   1.406
 9091SOL     OW28713   3.175   4.764   1.217
 9091SOL    HW128714   3.194   4.706   1.143
 9091SOL    HW228715   3.101   4.817   1.188
 9092SOL     OW28716   3.164   4.569   0.329
 9092SOL    HW128717   3.088   4.534   0.375
 9092SOL    HW228718   3.152   4.542   0.238
 9093SOL     OW28719   3.648   5.456   1.164
 9093SOL    HW128720   3.705   5.481   1.091
 9093SOL    HW228721   3.617   5.369   1.142
 9094SOL     OW28722   3.119   5.513   1.130
 9094SOL    HW128723   3.202   5.522   1.083
 9094SOL    HW228724   3.094   5.422   1.118
 9095SOL     OW28725   1.950   4.993   1.005
 9095SOL    HW128726   1.937   5.008   1.099
 9095SOL    HW228727   1.880   4.933   0.981
 9096SOL     OW28728   2.572   5.399   1.730
 9096SOL    HW128729   2.548   5.398   1.823
 9096SOL    HW228730   2.663   5.370   1.729
 9097SOL     OW28731   2.762   3.827   0.101
 9097SOL    HW128732   2.809   3.846   0.019
 9097SOL    HW228733   2.826   3.782   0.155
 9098SOL     OW28734   3.589   3.880   0.507
 9098SOL    HW128735   3.658   3.856   0.445
 9098SOL    HW228736   3.567   3.798   0.551
 9099SOL     OW28737   3.244   5.292   0.469
 9099SOL    HW128738   3.314   5.337   0.423
 9099SOL    HW228739   3.202   5.360   0.521
 9100SOL     OW28740   2.018   5.522   1.845
 9100SOL    HW128741   1.965   5.456   1.889
 9100SOL    HW228742   2.061   5.570   1.916
 9101SOL     OW28743   3.139   4.649   0.665
 9101SOL    HW128744   3.214   4.592   0.680
 9101SOL    HW228745   3.174   4.721   0.612
 9102SOL     OW28746   2.660   4.989   1.417
 9102SOL    HW128747   2.625   5.039   1.491
 9102SOL    HW228748   2.595   4.999   1.348
 9103SOL     OW28749   2.523   5.333   0.197
 9103SOL    HW128750   2.590   5.339   0.129
 9103SOL    HW228751   2.482   5.248   0.183
 9104SOL     OW28752   3.485   5.462   1.399
 9104SOL    HW128753   3.535   5.464   1.318
 9104SOL    HW228754   3.467   5.555   1.418
 9105SOL     OW28755   3.703   3.889   0.956
 9105SOL    HW128756   3.731   3.799   0.937
 9105SOL    HW228757   3.614   3.894   0.922
 9106SOL     OW28758   2.111   4.039   0.714
 9106SOL    HW128759   2.023   4.073   0.698
 9106SOL    HW228760   2.117   4.031   0.809
 9107SOL     OW28761   3.066   5.330   0.072
 9107SOL    HW128762   3.062   5.237   0.093
 9107SOL    HW228763   3.025   5.337  -0.014
 9108SOL     OW28764   2.692   4.724   1.370
 9108SOL    HW128765   2.746   4.719   1.291
 9108SOL    HW228766   2.688   4.818   1.390
 9109SOL     OW28767   2.784   4.644   0.292
 9109SOL    HW128768   2.845   4.672   0.223
 9109SOL    HW228769   2.832   4.577   0.341
 9110SOL     OW28770   3.323   5.299  -0.002
 9110SOL    HW128771   3.238   5.325   0.034
 9110SOL    HW228772   3.376   5.379   0.002
 9111SOL     OW28773   2.225   5.034   1.487
 9111SOL    HW128774   2.207   5.108   1.429
 9111SOL    HW228775   2.150   4.976   1.476
 9112SOL     OW28776   3.485   5.002   1.286
 9112SOL    HW128777   3.531   4.980   1.367
 9112SOL    HW228778   3.424   5.072   1.311
 9113SOL     OW28779   2.928   4.823   0.708
 9113SOL    HW128780   2.857   4.773   0.750
 9113SOL    HW228781   2.995   4.758   0.689
 9114SOL     OW28782   2.890   3.967   0.961
 9114SOL    HW128783   2.888   3.920   0.877
 9114SOL    HW228784   2.884   3.899   1.027
 9115SOL     OW28785   2.461   5.195   0.475
 9115SOL    HW128786   2.510   5.153   0.404
 9115SOL    HW228787   2.395   5.248   0.429
 9116SOL     OW28788   3.581   4.123   1.367
 9116SOL    HW128789   3.655   4.183   1.376
 9116SOL    HW228790   3.614   4.052   1.313
 9117SOL     OW28791   2.106   5.036   0.303
 9117SOL    HW128792   2.054   5.088   0.242
 9117SOL    HW228793   2.102   5.085   0.385
 9118SOL     OW28794   1.974   4.770   1.725
 9118SOL    HW128795   1.899   4.740   1.777
 9118SOL    HW228796   2.049   4.725   1.764
 9119SOL     OW28797   2.542   3.914   1.496
 9119SOL    HW128798   2.628   3.891   1.461
 9119SOL    HW228799   2.560   3.946   1.585
 9120SOL     OW28800   3.285   4.581   1.393
 9120SOL    HW128801   3.234   4.642   1.340
 9120SOL    HW228802   3.374   4.586   1.358
 9121SOL     OW28803   1.927   3.866   0.305
 9121SOL    HW128804   1.925   3.962   0.302
 9121SOL    HW228805   2.014   3.843   0.274
 9122SOL     OW28806   3.053   5.060   0.122
 9122SOL    HW128807   2.958   5.048   0.114
 9122SOL    HW228808   3.070   5.050   0.216
 9123SOL     OW28809   2.484   4.557   1.434
 9123SOL    HW128810   2.545   4.630   1.418
 9123SOL    HW228811   2.541   4.480   1.441
 9124SOL     OW28812   3.356   5.539   0.998
 9124SOL    HW128813   3.392   5.595   0.929
 9124SOL    HW228814   3.424   5.472   1.012
 9125SOL     OW28815   2.583   4.282   1.695
 9125SOL    HW128816   2.628   4.337   1.759
 9125SOL    HW228817   2.594   4.193   1.728
 9126SOL     OW28818   3.334   4.913   1.633
 9126SOL    HW128819   3.323   4.926   1.727
 9126SOL    HW228820   3.425   4.935   1.616
 9127SOL     OW28821   2.254   5.454   1.557
 9127SOL    HW128822   2.174   5.505   1.538
 9127SOL    HW228823   2.222   5.373   1.596
 9128SOL     OW28824   3.525   4.606   1.249
 9128SOL    HW128825   3.517   4.521   1.206
 9128SOL    HW228826   3.516   4.670   1.178
 9129SOL     OW28827   3.085   4.037   0.451
 9129SOL    HW128828   3.146   3.963   0.451
 9129SOL    HW228829   3.106   4.085   0.530
 9130SOL     OW28830   2.456   4.452   0.670
 9130SOL    HW128831   2.497   4.538   0.668
 9130SOL    HW228832   2.389   4.455   0.602
 9131SOL     OW28833   3.621   4.088   1.637
 9131SOL    HW128834   3.593   4.105   1.547
 9131SOL    HW228835   3.554   4.030   1.673
 9132SOL     OW28836   3.603   4.662   1.504
 9132SOL    HW128837   3.590   4.756   1.516
 9132SOL    HW228838   3.582   4.648   1.411
 9133SOL     OW28839   2.776   5.090   0.058
 9133SOL    HW128840   2.723   5.071   0.135
 9133SOL    HW228841   2.762   5.183   0.041
 9134SOL     OW28842   2.528   5.507   0.948
 9134SOL    HW128843   2.517   5.597   0.918
 9134SOL    HW228844   2.622   5.490   0.938
 9135SOL     OW28845   2.734   4.689   0.852
 9135SOL    HW128846   2.786   4.620   0.894
 9135SOL    HW228847   2.693   4.736   0.925
 9136SOL     OW28848   2.944   4.711   0.073
 9136SOL    HW128849   2.986   4.785   0.028
 9136SOL    HW228850   3.013   4.646   0.083
 9137SOL     OW28851   3.695   5.278   0.843
 9137SOL    HW128852   3.615   5.265   0.793
 9137SOL    HW228853   3.684   5.224   0.921
 9138SOL     OW28854   2.091   5.022   1.848
 9138SOL    HW128855   2.035   4.950   1.817
 9138SOL    HW228856   2.066   5.033   1.940
 9139SOL     OW28857   1.956   4.945   0.671
 9139SOL    HW128858   1.967   4.907   0.758
 9139SOL    HW228859   2.029   4.910   0.620
 9140SOL     OW28860   2.521   5.158   1.586
 9140SOL    HW128861   2.460   5.105   1.636
 9140SOL    HW228862   2.547   5.228   1.646
 9141SOL     OW28863   3.672   3.914   1.227
 9141SOL    HW128864   3.685   3.824   1.255
 9141SOL    HW228865   3.681   3.911   1.132
 9142SOL     OW28866   2.275   4.156   0.515
 9142SOL    HW128867   2.321   4.086   0.469
 9142SOL    HW228868   2.234   4.112   0.590
 9143SOL     OW28869   3.565   5.205   1.092
 9143SOL    HW128870   3.481   5.185   1.050
 9143SOL    HW228871   3.571   5.141   1.163
 9144SOL     OW28872   2.210   4.287   1.290
 9144SOL    HW128873   2.256   4.226   1.347
 9144SOL    HW228874   2.222   4.251   1.202
 9145SOL     OW28875   2.678   5.320   0.690
 9145SOL    HW128876   2.670   5.346   0.598
 9145SOL    HW228877   2.620   5.245   0.698
 9146SOL     OW28878   3.291   3.957   1.118
 9146SOL    HW128879   3.316   3.877   1.165
 9146SOL    HW228880   3.241   4.008   1.181
 9147SOL     OW28881   2.874   3.744   1.130
 9147SOL    HW128882   2.815   3.678   1.093
 9147SOL    HW228883   2.960   3.703   1.128
 9148SOL     OW28884   2.655   5.045   0.306
 9148SOL    HW128885   2.623   4.958   0.332
 9148SOL    HW228886   2.725   5.064   0.369
 9149SOL     OW28887   2.481   5.255   1.316
 9149SOL    HW128888   2.507   5.232   1.405
 9149SOL    HW228889   2.564   5.268   1.269
 9150SOL     OW28890   3.232   3.758   0.183
 9150SOL    HW128891   3.238   3.713   0.099
 9150SOL    HW228892   3.147   3.802   0.180
 9151SOL     OW28893   3.140   4.183   0.672
 9151SOL    HW128894   3.093   4.266   0.679
 9151SOL    HW228895   3.146   4.151   0.762
 9152SOL     OW28896   3.441   3.914   0.886
 9152SOL    HW128897   3.389   3.938   0.962
 9152SOL    HW228898   3.440   3.991   0.830
 9153SOL     OW28899   1.893   4.822   0.306
 9153SOL    HW128900   1.972   4.875   0.310
 9153SOL    HW228901   1.911   4.746   0.361
 9154SOL     OW28902   2.724   5.371   0.395
 9154SOL    HW128903   2.652   5.361   0.332
 9154SOL    HW228904   2.713   5.459   0.430
 9155SOL     OW28905   2.076   4.356   1.996
 9155SOL    HW128906   1.990   4.344   2.037
 9155SOL    HW228907   2.063   4.328   1.905
 9156SOL     OW28908   2.086   4.008   2.854
 9156SOL    HW128909   2.114   3.979   2.940
 9156SOL    HW228910   1.997   3.974   2.844
 9157SOL     OW28911   1.857   4.119   2.500
 9157SOL    HW128912   1.778   4.143   2.549
 9157SOL    HW228913   1.833   4.039   2.454
 9158SOL     OW28914   2.425   5.022   3.040
 9158SOL    HW128915   2.337   5.036   3.006
 9158SOL    HW228916   2.450   5.107   3.077
 9159SOL     OW28917   3.435   5.241   2.580
 9159SOL    HW128918   3.396   5.214   2.663
 9159SOL    HW228919   3.362   5.237   2.518
 9160SOL     OW28920   2.987   4.426   2.550
 9160SOL    HW128921   3.039   4.506   2.545
 9160SOL    HW228922   2.943   4.431   2.635
 9161SOL     OW28923   3.660   4.312   2.079
 9161SOL    HW128924   3.622   4.305   1.991
 9161SOL    HW228925   3.613   4.248   2.131
 9162SOL     OW28926   2.598   4.856   2.903
 9162SOL    HW128927   2.536   4.891   2.967
 9162SOL    HW228928   2.643   4.933   2.868
 9163SOL     OW28929   2.675   4.547   3.682
 9163SOL    HW128930   2.728   4.550   3.762
 9163SOL    HW228931   2.737   4.565   3.612
 9164SOL     OW28932   2.546   4.721   2.504
 9164SOL    HW128933   2.615   4.711   2.571
 9164SOL    HW228934   2.480   4.775   2.547
 9165SOL     OW28935   2.580   4.880   3.661
 9165SOL    HW128936   2.615   4.958   3.703
 9165SOL    HW228937   2.491   4.905   3.635
 9166SOL     OW28938   2.188   5.145   2.928
 9166SOL    HW128939   2.114   5.106   2.881
 9166SOL    HW228940   2.236   5.194   2.862
 9167SOL     OW28941   2.316   4.112   3.336
 9167SOL    HW128942   2.404   4.077   3.349
 9167SOL    HW228943   2.259   4.050   3.382
 9168SOL     OW28944   3.480   4.182   2.605
 9168SOL    HW128945   3.391   4.185   2.571
 9168SOL    HW228946   3.476   4.230   2.687
 9169SOL     OW28947   2.076   5.451   2.327
 9169SOL    HW128948   2.101   5.520   2.388
 9169SOL    HW228949   2.155   5.433   2.277
 9170SOL     OW28950   3.007   5.065   3.550
 9170SOL    HW128951   3.049   5.052   3.634
 9170SOL    HW228952   2.949   4.989   3.540
 9171SOL     OW28953   2.094   5.169   2.395
 9171SOL    HW128954   2.068   5.260   2.414
 9171SOL    HW228955   2.048   5.117   2.460
 9172SOL     OW28956   2.127   4.813   2.749
 9172SOL    HW128957   2.139   4.722   2.779
 9172SOL    HW228958   2.081   4.856   2.821
 9173SOL     OW28959   2.467   5.512   3.276
 9173SOL    HW128960   2.393   5.506   3.337
 9173SOL    HW228961   2.497   5.602   3.284
 9174SOL     OW28962   2.433   4.714   2.008
 9174SOL    HW128963   2.487   4.752   1.939
 9174SOL    HW228964   2.475   4.742   2.090
 9175SOL     OW28965   1.976   4.387   2.423
 9175SOL    HW128966   1.951   4.297   2.446
 9175SOL    HW228967   1.972   4.435   2.506
 9176SOL     OW28968   3.703   5.471   2.185
 9176SOL    HW128969   3.771   5.447   2.247
 9176SOL    HW228970   3.716   5.565   2.170
 9177SOL     OW28971   1.906   5.313   1.975
 9177SOL    HW128972   1.887   5.221   1.992
 9177SOL    HW228973   1.878   5.359   2.054
 9178SOL     OW28974   3.555   4.630   2.515
 9178SOL    HW128975   3.645   4.598   2.528
 9178SOL    HW228976   3.558   4.674   2.430
 9179SOL     OW28977   3.521   4.829   2.285
 9179SOL    HW128978   3.609   4.822   2.248
 9179SOL    HW228979   3.529   4.893   2.356
 9180SOL     OW28980   2.011   4.476   3.441
 9180SOL    HW128981   2.106   4.483   3.446
 9180SOL    HW228982   1.979   4.559   3.477
 9181SOL     OW28983   2.485   5.116   2.593
 9181SOL    HW128984   2.440   5.033   2.603
 9181SOL    HW228985   2.469   5.141   2.502
 9182SOL     OW28986   3.169   4.971   3.269
 9182SOL    HW128987   3.182   4.893   3.214
 9182SOL    HW228988   3.195   4.944   3.357
 9183SOL     OW28989   2.681   3.726   2.367
 9183SOL    HW128990   2.725   3.810   2.351
 9183SOL    HW228991   2.589   3.748   2.376
 9184SOL     OW28992   2.045   4.687   3.124
 9184SOL    HW128993   2.133   4.650   3.116
 9184SOL    HW228994   1.986   4.616   3.100
 9185SOL     OW28995   3.397   4.728   2.061
 9185SOL    HW128996   3.326   4.674   2.094
 9185SOL    HW228997   3.443   4.759   2.140
 9186SOL     OW28998   3.040   5.550   3.489
 9186SOL    HW128999   3.055   5.603   3.410
 9186SOL    HW229000   3.085   5.467   3.471
 9187SOL     OW29001   2.195   3.984   3.642
 9187SOL    HW129002   2.260   4.035   3.690
 9187SOL    HW229003   2.121   3.977   3.703
 9188SOL     OW29004   3.324   5.142   2.810
 9188SOL    HW129005   3.267   5.154   2.886
 9188SOL    HW229006   3.308   5.052   2.781
 9189SOL     OW29007   3.505   5.491   2.439
 9189SOL    HW129008   3.490   5.443   2.358
 9189SOL    HW229009   3.501   5.424   2.508
 9190SOL     OW29010   2.452   4.429   2.132
 9190SOL    HW129011   2.461   4.517   2.097
 9190SOL    HW229012   2.388   4.438   2.203
 9191SOL     OW29013   3.158   4.100   2.798
 9191SOL    HW129014   3.077   4.054   2.818
 9191SOL    HW229015   3.224   4.030   2.791
 9192SOL     OW29016   3.436   5.405   2.173
 9192SOL    HW129017   3.530   5.423   2.169
 9192SOL    HW229018   3.413   5.383   2.083
 9193SOL     OW29019   2.565   4.359   3.314
 9193SOL    HW129020   2.579   4.328   3.404
 9193SOL    HW229021   2.559   4.278   3.262
 9194SOL     OW29022   3.232   4.232   3.513
 9194SOL    HW129023   3.175   4.218   3.588
 9194SOL    HW229024   3.309   4.177   3.530
 9195SOL     OW29025   2.835   4.601   3.455
 9195SOL    HW129026   2.901   4.534   3.438
 9195SOL    HW229027   2.786   4.608   3.373
 9196SOL     OW29028   2.912   4.427   2.283
 9196SOL    HW129029   2.935   4.424   2.376
 9196SOL    HW229030   2.831   4.377   2.277
 9197SOL     OW29031   1.952   4.561   2.636
 9197SOL    HW129032   2.033   4.544   2.684
 9197SOL    HW229033   1.912   4.635   2.681
 9198SOL     OW29034   1.978   5.586   3.451
 9198SOL    HW129035   1.985   5.578   3.546
 9198SOL    HW229036   1.914   5.518   3.427
 9199SOL     OW29037   2.761   4.072   2.057
 9199SOL    HW129038   2.801   4.133   1.996
 9199SOL    HW229039   2.786   3.985   2.025
 9200SOL     OW29040   3.584   4.287   3.676
 9200SOL    HW129041   3.539   4.362   3.636
 9200SOL    HW229042   3.608   4.231   3.602
 9201SOL     OW29043   3.253   4.865   2.405
 9201SOL    HW129044   3.336   4.854   2.359
 9201SOL    HW229045   3.204   4.927   2.353
 9202SOL     OW29046   2.406   3.899   2.767
 9202SOL    HW129047   2.411   3.916   2.861
 9202SOL    HW229048   2.414   3.985   2.727
 9203SOL     OW29049   2.855   5.163   2.326
 9203SOL    HW129050   2.836   5.248   2.286
 9203SOL    HW229051   2.838   5.177   2.419
 9204SOL     OW29052   2.214   5.537   2.735
 9204SOL    HW129053   2.258   5.452   2.741
 9204SOL    HW229054   2.283   5.602   2.751
 9205SOL     OW29055   3.653   4.793   2.730
 9205SOL    HW129056   3.597   4.758   2.661
 9205SOL    HW229057   3.595   4.803   2.806
 9206SOL     OW29058   3.104   5.252   3.369
 9206SOL    HW129059   3.074   5.187   3.434
 9206SOL    HW229060   3.023   5.290   3.335
 9207SOL     OW29061   2.169   4.685   2.118
 9207SOL    HW129062   2.255   4.699   2.078
 9207SOL    HW229063   2.148   4.594   2.097
 9208SOL     OW29064   3.340   4.473   2.586
 9208SOL    HW129065   3.343   4.429   2.671
 9208SOL    HW229066   3.421   4.524   2.582
 9209SOL     OW29067   2.337   4.992   3.599
 9209SOL    HW129068   2.307   4.994   3.508
 9209SOL    HW229069   2.256   4.991   3.650
 9210SOL     OW29070   2.987   5.513   2.071
 9210SOL    HW129071   2.917   5.477   2.125
 9210SOL    HW229072   3.014   5.441   2.015
 9211SOL     OW29073   2.054   3.987   3.385
 9211SOL    HW129074   1.993   4.055   3.409
 9211SOL    HW229075   2.091   3.956   3.468
 9212SOL     OW29076   3.490   5.107   1.942
 9212SOL    HW129077   3.445   5.192   1.938
 9212SOL    HW229078   3.420   5.043   1.929
 9213SOL     OW29079   2.322   5.462   2.181
 9213SOL    HW129080   2.365   5.514   2.249
 9213SOL    HW229081   2.395   5.422   2.133
 9214SOL     OW29082   3.268   3.840   2.306
 9214SOL    HW129083   3.271   3.807   2.217
 9214SOL    HW229084   3.360   3.848   2.332
 9215SOL     OW29085   2.114   5.512   3.103
 9215SOL    HW129086   2.171   5.472   3.169
 9215SOL    HW229087   2.145   5.478   3.020
 9216SOL     OW29088   2.799   5.425   2.753
 9216SOL    HW129089   2.867   5.377   2.799
 9216SOL    HW229090   2.771   5.367   2.683
 9217SOL     OW29091   2.252   4.421   2.327
 9217SOL    HW129092   2.268   4.328   2.342
 9217SOL    HW229093   2.160   4.434   2.351
 9218SOL     OW29094   3.411   4.029   3.630
 9218SOL    HW129095   3.390   4.030   3.723
 9218SOL    HW229096   3.434   3.938   3.611
 9219SOL     OW29097   2.508   3.842   1.963
 9219SOL    HW129098   2.565   3.769   1.991
 9219SOL    HW229099   2.457   3.806   1.891
 9220SOL     OW29100   2.569   4.007   3.616
 9220SOL    HW129101   2.661   3.987   3.632
 9220SOL    HW229102   2.528   3.999   3.702
 9221SOL     OW29103   2.739   5.238   3.053
 9221SOL    HW129104   2.720   5.194   2.970
 9221SOL    HW229105   2.805   5.182   3.095
 9222SOL     OW29106   2.682   5.107   2.810
 9222SOL    HW129107   2.766   5.097   2.765
 9222SOL    HW229108   2.617   5.111   2.740
 9223SOL     OW29109   2.798   4.234   2.765
 9223SOL    HW129110   2.772   4.217   2.675
 9223SOL    HW229111   2.834   4.151   2.796
 9224SOL     OW29112   2.412   3.786   2.352
 9224SOL    HW129113   2.338   3.788   2.413
 9224SOL    HW229114   2.401   3.865   2.299
 9225SOL     OW29115   3.289   4.923   1.904
 9225SOL    HW129116   3.326   4.851   1.953
 9225SOL    HW229117   3.207   4.944   1.949
 9226SOL     OW29118   2.157   3.771   2.053
 9226SOL    HW129119   2.218   3.843   2.039
 9226SOL    HW229120   2.210   3.704   2.096
 9227SOL     OW29121   2.806   3.972   2.318
 9227SOL    HW129122   2.785   4.015   2.235
 9227SOL    HW229123   2.900   3.985   2.329
 9228SOL     OW29124   3.090   5.284   2.647
 9228SOL    HW129125   3.106   5.360   2.592
 9228SOL    HW229126   3.154   5.292   2.718
 9229SOL     OW29127   2.333   4.886   2.584
 9229SOL    HW129128   2.273   4.861   2.654
 9229SOL    HW229129   2.284   4.870   2.503
 9230SOL     OW29130   3.123   5.516   2.473
 9230SOL    HW129131   3.172   5.584   2.427
 9230SOL    HW229132   3.054   5.563   2.519
 9231SOL     OW29133   2.892   4.249   1.889
 9231SOL    HW129134   2.849   4.334   1.874
 9231SOL    HW229135   2.952   4.265   1.962
 9232SOL     OW29136   1.946   4.287   3.252
 9232SOL    HW129137   2.038   4.275   3.229
 9232SOL    HW229138   1.947   4.356   3.319
 9233SOL     OW29139   2.413   3.933   3.040
 9233SOL    HW129140   2.457   3.873   3.101
 9233SOL    HW229141   2.324   3.940   3.073
 9234SOL     OW29142   2.727   4.177   2.504
 9234SOL    HW129143   2.687   4.233   2.438
 9234SOL    HW229144   2.752   4.098   2.457
 9235SOL     OW29145   2.891   3.771   2.601
 9235SOL    HW129146   2.825   3.763   2.533
 9235SOL    HW229147   2.867   3.705   2.666
 9236SOL     OW29148   3.274   4.893   2.706
 9236SOL    HW129149   3.241   4.808   2.735
 9236SOL    HW229150   3.282   4.885   2.611
 9237SOL     OW29151   3.334   4.319   2.831
 9237SOL    HW129152   3.270   4.248   2.832
 9237SOL    HW229153   3.388   4.304   2.909
 9238SOL     OW29154   3.697   4.531   2.240
 9238SOL    HW129155   3.751   4.489   2.306
 9238SOL    HW229156   3.679   4.463   2.175
 9239SOL     OW29157   2.339   5.155   2.018
 9239SOL    HW129158   2.262   5.125   2.066
 9239SOL    HW229159   2.354   5.087   1.952
 9240SOL     OW29160   3.557   5.003   2.481
 9240SOL    HW129161   3.647   4.993   2.512
 9240SOL    HW229162   3.525   5.082   2.525
 9241SOL     OW29163   3.252   4.299   1.936
 9241SOL    HW129164   3.191   4.275   2.005
 9241SOL    HW229165   3.338   4.272   1.970
 9242SOL     OW29166   2.377   3.984   2.164
 9242SOL    HW129167   2.437   3.945   2.101
 9242SOL    HW229168   2.351   4.067   2.125
 9243SOL     OW29169   3.620   5.005   3.439
 9243SOL    HW129170   3.675   4.928   3.427
 9243SOL    HW229171   3.649   5.044   3.521
 9244SOL     OW29172   2.907   5.055   3.183
 9244SOL    HW129173   2.832   5.030   3.237
 9244SOL    HW229174   2.983   5.036   3.237
 9245SOL     OW29175   3.454   5.311   3.513
 9245SOL    HW129176   3.519   5.364   3.468
 9245SOL    HW229177   3.501   5.272   3.587
 9246SOL     OW29178   3.002   4.945   2.953
 9246SOL    HW129179   2.946   4.973   3.026
 9246SOL    HW229180   2.954   4.972   2.875
 9247SOL     OW29181   3.499   4.840   2.950
 9247SOL    HW129182   3.526   4.891   3.026
 9247SOL    HW229183   3.404   4.834   2.957
 9248SOL     OW29184   2.832   4.858   3.542
 9248SOL    HW129185   2.749   4.857   3.590
 9248SOL    HW229186   2.843   4.768   3.512
 9249SOL     OW29187   2.577   4.786   2.234
 9249SOL    HW129188   2.563   4.766   2.327
 9249SOL    HW229189   2.650   4.729   2.208
 9250SOL     OW29190   2.275   4.542   3.109
 9250SOL    HW129191   2.337   4.565   3.178
 9250SOL    HW229192   2.251   4.451   3.128
 9251SOL     OW29193   1.951   5.300   3.225
 9251SOL    HW129194   1.946   5.379   3.171
 9251SOL    HW229195   2.045   5.278   3.225
 9252SOL     OW29196   2.182   4.847   2.354
 9252SOL    HW129197   2.185   4.916   2.288
 9252SOL    HW229198   2.184   4.766   2.304
 9253SOL     OW29199   2.401   4.248   2.712
 9253SOL    HW129200   2.421   4.308   2.640
 9253SOL    HW229201   2.466   4.269   2.779
 9254SOL     OW29202   3.111   5.079   2.251
 9254SOL    HW129203   3.166   5.148   2.288
 9254SOL    HW229204   3.025   5.092   2.291
 9255SOL     OW29205   3.150   5.169   3.021
 9255SOL    HW129206   3.164   5.156   3.115
 9255SOL    HW229207   3.099   5.094   2.993
 9256SOL     OW29208   3.431   4.359   2.333
 9256SOL    HW129209   3.384   4.382   2.414
 9256SOL    HW229210   3.496   4.428   2.323
 9257SOL     OW29211   2.211   5.239   3.180
 9257SOL    HW129212   2.201   5.203   3.092
 9257SOL    HW229213   2.305   5.256   3.188
 9258SOL     OW29214   2.287   4.464   3.473
 9258SOL    HW129215   2.340   4.520   3.417
 9258SOL    HW229216   2.347   4.396   3.504
 9259SOL     OW29217   3.457   4.493   3.548
 9259SOL    HW129218   3.373   4.451   3.531
 9259SOL    HW229219   3.468   4.555   3.476
 9260SOL     OW29220   2.368   3.759   3.596
 9260SOL    HW129221   2.316   3.700   3.540
 9260SOL    HW229222   2.310   3.833   3.613
 9261SOL     OW29223   2.436   4.606   2.890
 9261SOL    HW129224   2.486   4.687   2.905
 9261SOL    HW229225   2.391   4.590   2.973
 9262SOL     OW29226   3.201   4.583   2.870
 9262SOL    HW129227   3.114   4.546   2.852
 9262SOL    HW229228   3.258   4.506   2.878
 9263SOL     OW29229   3.052   4.250   2.121
 9263SOL    HW129230   3.067   4.174   2.178
 9263SOL    HW229231   3.013   4.315   2.180
 9264SOL     OW29232   2.143   3.930   3.114
 9264SOL    HW129233   2.118   3.959   3.202
 9264SOL    HW229234   2.135   3.835   3.117
 9265SOL     OW29235   1.901   5.042   3.127
 9265SOL    HW129236   1.929   4.979   3.193
 9265SOL    HW229237   1.914   5.128   3.168
 9266SOL     OW29238   2.575   4.335   2.901
 9266SOL    HW129239   2.660   4.316   2.861
 9266SOL    HW229240   2.565   4.430   2.893
 9267SOL     OW29241   3.569   4.714   3.694
 9267SOL    HW129242   3.540   4.623   3.683
 9267SOL    HW229243   3.549   4.734   3.786
 9268SOL     OW29244   2.170   3.784   2.488
 9268SOL    HW129245   2.146   3.874   2.508
 9268SOL    HW229246   2.182   3.742   2.574
 9269SOL     OW29247   3.492   4.117   2.213
 9269SOL    HW129248   3.510   4.047   2.276
 9269SOL    HW229249   3.463   4.191   2.267
 9270SOL     OW29250   2.890   4.485   2.822
 9270SOL    HW129251   2.891   4.500   2.917
 9270SOL    HW229252   2.865   4.393   2.813
 9271SOL     OW29253   2.847   5.284   3.584
 9271SOL    HW129254   2.837   5.320   3.496
 9271SOL    HW229255   2.887   5.199   3.572
 9272SOL     OW29256   3.731   5.328   3.461
 9272SOL    HW129257   3.750   5.285   3.377
 9272SOL    HW229258   3.799   5.295   3.520
 9273SOL     OW29259   2.213   4.662   3.659
 9273SOL    HW129260   2.282   4.684   3.722
 9273SOL    HW229261   2.250   4.590   3.608
 9274SOL     OW29262   3.391   4.001   1.985
 9274SOL    HW129263   3.333   3.931   2.015
 9274SOL    HW229264   3.427   4.040   2.065
 9275SOL     OW29265   3.132   4.542   1.883
 9275SOL    HW129266   3.177   4.459   1.896
 9275SOL    HW229267   3.172   4.580   1.805
 9276SOL     OW29268   2.922   5.067   2.701
 9276SOL    HW129269   2.937   4.991   2.645
 9276SOL    HW229270   2.989   5.131   2.674
 9277SOL     OW29271   2.176   4.538   2.797
 9277SOL    HW129272   2.269   4.559   2.812
 9277SOL    HW229273   2.167   4.448   2.830
 9278SOL     OW29274   2.174   4.262   2.859
 9278SOL    HW129275   2.144   4.171   2.856
 9278SOL    HW229276   2.255   4.261   2.807
 9279SOL     OW29277   1.868   5.037   2.050
 9279SOL    HW129278   1.780   5.055   2.016
 9279SOL    HW229279   1.863   4.949   2.085
 9280SOL     OW29280   1.944   5.509   2.794
 9280SOL    HW129281   1.920   5.426   2.753
 9280SOL    HW229282   2.037   5.519   2.774
 9281SOL     OW29283   2.349   5.296   2.759
 9281SOL    HW129284   2.418   5.358   2.784
 9281SOL    HW229285   2.394   5.230   2.706
 9282SOL     OW29286   2.874   4.511   3.094
 9282SOL    HW129287   2.941   4.476   3.152
 9282SOL    HW229288   2.791   4.489   3.137
 9283SOL     OW29289   1.908   4.290   2.976
 9283SOL    HW129290   1.991   4.283   2.930
 9283SOL    HW229291   1.931   4.285   3.069
 9284SOL     OW29292   2.044   4.252   3.599
 9284SOL    HW129293   2.132   4.228   3.570
 9284SOL    HW229294   2.021   4.328   3.545
 9285SOL     OW29295   3.210   4.679   3.512
 9285SOL    HW129296   3.287   4.717   3.554
 9285SOL    HW229297   3.240   4.653   3.425
 9286SOL     OW29298   2.680   4.289   2.228
 9286SOL    HW129299   2.687   4.215   2.169
 9286SOL    HW229300   2.602   4.336   2.198
 9287SOL     OW29301   2.091   5.269   3.587
 9287SOL    HW129302   2.096   5.323   3.666
 9287SOL    HW229303   2.107   5.180   3.617
 9288SOL     OW29304   2.547   4.168   3.120
 9288SOL    HW129305   2.507   4.088   3.086
 9288SOL    HW229306   2.557   4.225   3.043
 9289SOL     OW29307   2.832   5.360   3.319
 9289SOL    HW129308   2.773   5.326   3.252
 9289SOL    HW229309   2.827   5.456   3.309
 9290SOL     OW29310   2.311   4.212   2.025
 9290SOL    HW129311   2.375   4.277   2.054
 9290SOL    HW229312   2.227   4.258   2.026
 9291SOL     OW29313   1.989   4.863   3.324
 9291SOL    HW129314   2.000   4.816   3.407
 9291SOL    HW229315   2.015   4.799   3.257
 9292SOL     OW29316   3.210   4.790   3.044
 9292SOL    HW129317   3.211   4.713   2.989
 9292SOL    HW229318   3.136   4.842   3.013
 9293SOL     OW29319   3.177   4.598   2.158
 9293SOL    HW129320   3.124   4.556   2.226
 9293SOL    HW229321   3.142   4.564   2.076
 9294SOL     OW29322   3.621   5.471   2.997
 9294SOL    HW129323   3.693   5.488   2.936
 9294SOL    HW229324   3.604   5.377   2.988
 9295SOL     OW29325   3.101   5.442   2.947
 9295SOL    HW129326   3.188   5.471   2.919
 9295SOL    HW229327   3.115   5.355   2.985
 9296SOL     OW29328   1.940   5.009   2.859
 9296SOL    HW129329   1.925   5.016   2.953
 9296SOL    HW229330   1.884   4.936   2.831
 9297SOL     OW29331   2.550   5.407   3.606
 9297SOL    HW129332   2.497   5.486   3.594
 9297SOL    HW229333   2.630   5.424   3.557
 9298SOL     OW29334   3.556   3.871   2.349
 9298SOL    HW129335   3.638   3.862   2.301
 9298SOL    HW229336   3.548   3.791   2.400
 9299SOL     OW29337   3.249   5.295   2.349
 9299SOL    HW129338   3.311   5.334   2.288
 9299SOL    HW229339   3.204   5.370   2.388
 9300SOL     OW29340   1.988   5.538   3.714
 9300SOL    HW129341   1.947   5.462   3.754
 9300SOL    HW229342   2.048   5.572   3.781
 9301SOL     OW29343   3.139   4.649   2.526
 9301SOL    HW129344   3.211   4.591   2.548
 9301SOL    HW229345   3.180   4.721   2.477
 9302SOL     OW29346   2.667   4.990   3.293
 9302SOL    HW129347   2.660   5.019   3.384
 9302SOL    HW229348   2.584   5.017   3.253
 9303SOL     OW29349   2.525   5.346   2.005
 9303SOL    HW129350   2.596   5.287   1.976
 9303SOL    HW229351   2.448   5.289   2.012
 9304SOL     OW29352   3.458   5.441   3.236
 9304SOL    HW129353   3.519   5.449   3.162
 9304SOL    HW229354   3.450   5.531   3.269
 9305SOL     OW29355   2.116   4.037   2.574
 9305SOL    HW129356   2.030   4.075   2.558
 9305SOL    HW229357   2.122   4.031   2.670
 9306SOL     OW29358   3.069   5.315   1.895
 9306SOL    HW129359   3.057   5.226   1.928
 9306SOL    HW229360   3.004   5.324   1.825
 9307SOL     OW29361   2.695   4.721   3.229
 9307SOL    HW129362   2.762   4.722   3.162
 9307SOL    HW229363   2.691   4.812   3.261
 9308SOL     OW29364   2.777   4.630   2.135
 9308SOL    HW129365   2.846   4.672   2.084
 9308SOL    HW229366   2.824   4.567   2.191
 9309SOL     OW29367   3.347   5.363   1.911
 9309SOL    HW129368   3.254   5.344   1.893
 9309SOL    HW229369   3.387   5.366   1.824
 9310SOL     OW29370   2.218   5.023   3.360
 9310SOL    HW129371   2.215   5.097   3.299
 9310SOL    HW229372   2.141   4.971   3.337
 9311SOL     OW29373   3.455   5.037   3.209
 9311SOL    HW129374   3.540   5.031   3.253
 9311SOL    HW229375   3.412   4.954   3.229
 9312SOL     OW29376   2.926   4.831   2.565
 9312SOL    HW129377   2.857   4.782   2.609
 9312SOL    HW229378   2.996   4.766   2.551
 9313SOL     OW29379   2.904   3.971   2.808
 9313SOL    HW129380   2.905   3.916   2.730
 9313SOL    HW229381   2.884   3.911   2.880
 9314SOL     OW29382   2.470   5.207   2.329
 9314SOL    HW129383   2.518   5.152   2.266
 9314SOL    HW229384   2.384   5.217   2.290
 9315SOL     OW29385   2.119   5.067   2.151
 9315SOL    HW129386   2.027   5.058   2.127
 9315SOL    HW229387   2.117   5.107   2.238
 9316SOL     OW29388   1.968   4.734   3.565
 9316SOL    HW129389   1.899   4.721   3.630
 9316SOL    HW229390   2.049   4.713   3.612
 9317SOL     OW29391   2.551   3.919   3.360
 9317SOL    HW129392   2.642   3.937   3.339
 9317SOL    HW229393   2.543   3.938   3.454
 9318SOL     OW29394   1.946   4.045   1.893
 9318SOL    HW129395   1.856   4.029   1.864
 9318SOL    HW229396   1.971   4.125   1.847
 9319SOL     OW29397   3.297   4.624   3.256
 9319SOL    HW129398   3.263   4.672   3.181
 9319SOL    HW229399   3.385   4.597   3.230
 9320SOL     OW29400   1.920   3.873   2.159
 9320SOL    HW129401   1.910   3.953   2.108
 9320SOL    HW229402   2.007   3.840   2.135
 9321SOL     OW29403   3.034   5.046   1.991
 9321SOL    HW129404   2.984   4.965   2.000
 9321SOL    HW229405   3.067   5.065   2.079
 9322SOL     OW29406   2.457   4.596   3.297
 9322SOL    HW129407   2.528   4.659   3.286
 9322SOL    HW229408   2.500   4.511   3.305
 9323SOL     OW29409   3.354   5.514   2.856
 9323SOL    HW129410   3.386   5.581   2.796
 9323SOL    HW229411   3.432   5.484   2.902
 9324SOL     OW29412   2.591   4.302   3.574
 9324SOL    HW129413   2.625   4.375   3.626
 9324SOL    HW229414   2.627   4.224   3.615
 9325SOL     OW29415   3.343   4.977   3.493
 9325SOL    HW129416   3.315   4.954   3.582
 9325SOL    HW229417   3.435   4.953   3.490
 9326SOL     OW29418   2.228   5.467   3.420
 9326SOL    HW129419   2.142   5.507   3.424
 9326SOL    HW229420   2.216   5.380   3.460
 9327SOL     OW29421   3.532   4.575   3.089
 9327SOL    HW129422   3.598   4.508   3.068
 9327SOL    HW229423   3.555   4.649   3.033
 9328SOL     OW29424   3.079   4.046   2.316
 9328SOL    HW129425   3.141   3.974   2.313
 9328SOL    HW229426   3.104   4.095   2.394
 9329SOL     OW29427   2.451   4.451   2.525
 9329SOL    HW129428   2.490   4.538   2.521
 9329SOL    HW229429   2.382   4.452   2.459
 9330SOL     OW29430   3.614   4.102   3.452
 9330SOL    HW129431   3.594   4.034   3.388
 9330SOL    HW229432   3.562   4.079   3.529
 9331SOL     OW29433   3.570   4.696   3.371
 9331SOL    HW129434   3.633   4.701   3.443
 9331SOL    HW229435   3.613   4.641   3.306
 9332SOL     OW29436   2.668   5.127   1.913
 9332SOL    HW129437   2.671   5.095   2.004
 9332SOL    HW229438   2.760   5.143   1.891
 9333SOL     OW29439   2.526   5.500   2.781
 9333SOL    HW129440   2.516   5.596   2.781
 9333SOL    HW229441   2.620   5.485   2.791
 9334SOL     OW29442   2.734   4.695   2.712
 9334SOL    HW129443   2.783   4.623   2.750
 9334SOL    HW229444   2.691   4.737   2.786
 9335SOL     OW29445   2.950   4.740   1.949
 9335SOL    HW129446   2.920   4.772   1.863
 9335SOL    HW229447   3.014   4.672   1.928
 9336SOL     OW29448   3.718   5.267   2.700
 9336SOL    HW129449   3.626   5.251   2.681
 9336SOL    HW229450   3.741   5.200   2.764
 9337SOL     OW29451   2.092   5.021   3.716
 9337SOL    HW129452   2.031   4.947   3.712
 9337SOL    HW229453   2.104   5.037   3.810
 9338SOL     OW29454   1.968   4.950   2.527
 9338SOL    HW129455   1.980   4.913   2.615
 9338SOL    HW229456   2.031   4.903   2.473
 9339SOL     OW29457   2.529   5.153   3.477
 9339SOL    HW129458   2.470   5.097   3.528
 9339SOL    HW229459   2.544   5.229   3.532
 9340SOL     OW29460   2.278   4.160   2.377
 9340SOL    HW129461   2.319   4.087   2.331
 9340SOL    HW229462   2.236   4.120   2.454
 9341SOL     OW29463   3.558   5.213   2.961
 9341SOL    HW129464   3.480   5.176   2.920
 9341SOL    HW229465   3.579   5.151   3.031
 9342SOL     OW29466   2.200   4.279   3.156
 9342SOL    HW129467   2.250   4.226   3.219
 9342SOL    HW229468   2.227   4.246   3.071
 9343SOL     OW29469   2.696   5.293   2.534
 9343SOL    HW129470   2.651   5.354   2.475
 9343SOL    HW229471   2.628   5.230   2.559
 9344SOL     OW29472   2.865   3.761   2.982
 9344SOL    HW129473   2.794   3.698   2.991
 9344SOL    HW229474   2.944   3.708   2.976
 9345SOL     OW29475   2.654   5.047   2.172
 9345SOL    HW129476   2.629   4.958   2.196
 9345SOL    HW229477   2.727   5.067   2.231
 9346SOL     OW29478   2.482   5.279   3.137
 9346SOL    HW129479   2.482   5.359   3.190
 9346SOL    HW229480   2.572   5.269   3.107
 9347SOL     OW29481   3.232   3.775   2.031
 9347SOL    HW129482   3.271   3.692   2.002
 9347SOL    HW229483   3.141   3.753   2.049
 9348SOL     OW29484   3.149   4.190   2.539
 9348SOL    HW129485   3.098   4.270   2.545
 9348SOL    HW229486   3.151   4.155   2.628
 9349SOL     OW29487   3.384   3.953   2.753
 9349SOL    HW129488   3.427   3.931   2.835
 9349SOL    HW229489   3.452   3.996   2.701
 9350SOL     OW29490   1.904   4.784   2.164
 9350SOL    HW129491   1.997   4.773   2.147
 9350SOL    HW229492   1.874   4.696   2.187
 9351SOL     OW29493   2.759   5.394   2.197
 9351SOL    HW129494   2.673   5.373   2.159
 9351SOL    HW229495   2.740   5.462   2.261
 9352SOL     OW29496   2.068   4.373   3.859
 9352SOL    HW129497   1.988   4.344   3.903
 9352SOL    HW229498   2.061   4.337   3.770
 9353SOL     OW29499   1.864   4.133   4.344
 9353SOL    HW129500   1.781   4.130   4.393
 9353SOL    HW229501   1.875   4.044   4.310
 9354SOL     OW29502   2.442   5.030   4.913
 9354SOL    HW129503   2.360   5.035   4.864
 9354SOL    HW229504   2.461   5.120   4.937
 9355SOL     OW29505   3.385   5.292   4.445
 9355SOL    HW129506   3.385   5.214   4.500
 9355SOL    HW229507   3.338   5.264   4.365
 9356SOL     OW29508   3.660   4.320   3.934
 9356SOL    HW129509   3.622   4.304   3.848
 9356SOL    HW229510   3.615   4.260   3.992
 9357SOL     OW29511   2.601   4.843   4.771
 9357SOL    HW129512   2.551   4.907   4.822
 9357SOL    HW229513   2.691   4.874   4.776
 9358SOL     OW29514   2.731   4.487   5.543
 9358SOL    HW129515   2.740   4.556   5.608
 9358SOL    HW229516   2.761   4.527   5.461
 9359SOL     OW29517   2.550   4.729   4.366
 9359SOL    HW129518   2.624   4.705   4.422
 9359SOL    HW229519   2.492   4.779   4.423
 9360SOL     OW29520   2.574   4.870   5.535
 9360SOL    HW129521   2.613   4.950   5.569
 9360SOL    HW229522   2.491   4.898   5.496
 9361SOL     OW29523   2.189   5.148   4.784
 9361SOL    HW129524   2.122   5.114   4.725
 9361SOL    HW229525   2.247   5.199   4.728
 9362SOL     OW29526   3.320   5.236   5.080
 9362SOL    HW129527   3.377   5.312   5.092
 9362SOL    HW229528   3.260   5.240   5.155
 9363SOL     OW29529   2.283   4.117   5.236
 9363SOL    HW129530   2.377   4.108   5.249
 9363SOL    HW229531   2.260   4.046   5.176
 9364SOL     OW29532   3.482   4.188   4.483
 9364SOL    HW129533   3.416   4.252   4.457
 9364SOL    HW229534   3.541   4.237   4.541
 9365SOL     OW29535   2.080   5.453   4.191
 9365SOL    HW129536   2.108   5.523   4.251
 9365SOL    HW229537   2.158   5.431   4.142
 9366SOL     OW29538   2.999   5.062   5.420
 9366SOL    HW129539   3.031   5.057   5.511
 9366SOL    HW229540   2.952   4.979   5.408
 9367SOL     OW29541   2.070   5.164   4.239
 9367SOL    HW129542   2.071   5.255   4.271
 9367SOL    HW229543   2.040   5.113   4.314
 9368SOL     OW29544   2.106   4.797   4.624
 9368SOL    HW129545   2.130   4.704   4.624
 9368SOL    HW229546   2.124   4.825   4.714
 9369SOL     OW29547   2.427   5.547   5.111
 9369SOL    HW129548   2.369   5.514   5.179
 9369SOL    HW229549   2.484   5.609   5.157
 9370SOL     OW29550   2.425   4.727   3.864
 9370SOL    HW129551   2.491   4.737   3.795
 9370SOL    HW229552   2.471   4.751   3.944
 9371SOL     OW29553   1.965   4.392   4.280
 9371SOL    HW129554   1.948   4.299   4.296
 9371SOL    HW229555   1.973   4.431   4.367
 9372SOL     OW29556   3.697   5.490   4.054
 9372SOL    HW129557   3.767   5.451   4.106
 9372SOL    HW229558   3.724   5.580   4.040
 9373SOL     OW29559   1.892   5.318   3.842
 9373SOL    HW129560   1.886   5.224   3.858
 9373SOL    HW229561   1.875   5.358   3.928
 9374SOL     OW29562   3.540   4.592   4.234
 9374SOL    HW129563   3.626   4.588   4.192
 9374SOL    HW229564   3.525   4.686   4.248
 9375SOL     OW29565   2.019   4.478   5.304
 9375SOL    HW129566   2.115   4.478   5.301
 9375SOL    HW229567   1.996   4.560   5.349
 9376SOL     OW29568   2.467   5.121   4.455
 9376SOL    HW129569   2.428   5.034   4.467
 9376SOL    HW229570   2.457   5.138   4.361
 9377SOL     OW29571   3.153   4.958   5.137
 9377SOL    HW129572   3.222   4.928   5.077
 9377SOL    HW229573   3.192   4.948   5.224
 9378SOL     OW29574   2.681   3.742   4.251
 9378SOL    HW129575   2.730   3.820   4.223
 9378SOL    HW229576   2.590   3.771   4.253
 9379SOL     OW29577   2.043   4.682   4.974
 9379SOL    HW129578   2.133   4.651   4.984
 9379SOL    HW229579   2.001   4.617   4.919
 9380SOL     OW29580   3.420   4.759   3.929
 9380SOL    HW129581   3.369   4.704   3.988
 9380SOL    HW229582   3.495   4.787   3.981
 9381SOL     OW29583   2.987   5.521   5.301
 9381SOL    HW129584   3.042   5.587   5.259
 9381SOL    HW229585   3.036   5.439   5.293
 9382SOL     OW29586   2.192   3.972   5.520
 9382SOL    HW129587   2.254   4.039   5.550
 9382SOL    HW229588   2.114   3.987   5.574
 9383SOL     OW29589   3.495   5.511   4.303
 9383SOL    HW129590   3.497   5.461   4.222
 9383SOL    HW229591   3.472   5.447   4.370
 9384SOL     OW29592   2.453   4.425   3.977
 9384SOL    HW129593   2.490   4.510   3.952
 9384SOL    HW229594   2.395   4.445   4.050
 9385SOL     OW29595   3.433   5.416   4.040
 9385SOL    HW129596   3.528   5.425   4.034
 9385SOL    HW229597   3.404   5.398   3.950
 9386SOL     OW29598   2.625   4.355   5.178
 9386SOL    HW129599   2.614   4.317   5.265
 9386SOL    HW229600   2.598   4.285   5.118
 9387SOL     OW29601   2.824   4.596   5.302
 9387SOL    HW129602   2.893   4.540   5.267
 9387SOL    HW229603   2.771   4.619   5.226
 9388SOL     OW29604   2.897   4.426   4.165
 9388SOL    HW129605   2.921   4.420   4.257
 9388SOL    HW229606   2.818   4.372   4.157
 9389SOL     OW29607   1.943   4.564   4.504
 9389SOL    HW129608   2.018   4.527   4.551
 9389SOL    HW229609   1.932   4.651   4.542
 9390SOL     OW29610   1.981   5.590   5.315
 9390SOL    HW129611   1.986   5.579   5.410
 9390SOL    HW229612   1.912   5.530   5.288
 9391SOL     OW29613   2.754   4.097   3.912
 9391SOL    HW129614   2.800   4.173   3.876
 9391SOL    HW229615   2.773   4.026   3.851
 9392SOL     OW29616   2.400   3.903   4.615
 9392SOL    HW129617   2.409   3.925   4.707
 9392SOL    HW229618   2.443   3.975   4.569
 9393SOL     OW29619   2.823   5.178   4.214
 9393SOL    HW129620   2.843   5.250   4.154
 9393SOL    HW229621   2.904   5.128   4.220
 9394SOL     OW29622   2.218   5.539   4.602
 9394SOL    HW129623   2.264   5.455   4.605
 9394SOL    HW229624   2.286   5.605   4.619
 9395SOL     OW29625   3.074   5.259   5.236
 9395SOL    HW129626   3.068   5.192   5.304
 9395SOL    HW229627   3.038   5.218   5.157
 9396SOL     OW29628   2.165   4.684   3.974
 9396SOL    HW129629   2.252   4.703   3.939
 9396SOL    HW229630   2.150   4.591   3.954
 9397SOL     OW29631   3.295   4.400   4.424
 9397SOL    HW129632   3.220   4.380   4.480
 9397SOL    HW229633   3.277   4.488   4.391
 9398SOL     OW29634   2.335   4.990   5.462
 9398SOL    HW129635   2.302   4.999   5.373
 9398SOL    HW229636   2.257   4.988   5.517
 9399SOL     OW29637   2.996   5.519   3.932
 9399SOL    HW129638   2.920   5.487   3.980
 9399SOL    HW229639   3.022   5.446   3.876
 9400SOL     OW29640   2.019   3.960   5.258
 9400SOL    HW129641   1.991   4.052   5.259
 9400SOL    HW229642   2.088   3.956   5.324
 9401SOL     OW29643   3.495   5.143   3.761
 9401SOL    HW129644   3.564   5.137   3.827
 9401SOL    HW229645   3.443   5.064   3.773
 9402SOL     OW29646   2.323   5.458   4.049
 9402SOL    HW129647   2.373   5.509   4.113
 9402SOL    HW229648   2.389   5.425   3.988
 9403SOL     OW29649   3.249   3.819   4.104
 9403SOL    HW129650   3.233   3.743   4.049
 9403SOL    HW229651   3.337   3.806   4.138
 9404SOL     OW29652   2.118   5.510   4.955
 9404SOL    HW129653   2.179   5.462   5.012
 9404SOL    HW229654   2.142   5.481   4.867
 9405SOL     OW29655   2.800   5.429   4.622
 9405SOL    HW129656   2.882   5.381   4.634
 9405SOL    HW229657   2.753   5.379   4.555
 9406SOL     OW29658   2.251   4.429   4.180
 9406SOL    HW129659   2.269   4.336   4.194
 9406SOL    HW229660   2.160   4.441   4.206
 9407SOL     OW29661   2.494   3.843   3.838
 9407SOL    HW129662   2.586   3.820   3.852
 9407SOL    HW229663   2.469   3.796   3.759
 9408SOL     OW29664   2.607   4.012   5.487
 9408SOL    HW129665   2.692   3.969   5.488
 9408SOL    HW229666   2.573   4.002   5.576
 9409SOL     OW29667   2.737   5.247   4.926
 9409SOL    HW129668   2.722   5.212   4.838
 9409SOL    HW229669   2.808   5.192   4.961
 9410SOL     OW29670   2.678   5.140   4.674
 9410SOL    HW129671   2.764   5.111   4.643
 9410SOL    HW229672   2.617   5.106   4.610
 9411SOL     OW29673   2.692   4.186   4.641
 9411SOL    HW129674   2.756   4.241   4.596
 9411SOL    HW229675   2.731   4.098   4.641
 9412SOL     OW29676   2.406   3.788   4.218
 9412SOL    HW129677   2.336   3.790   4.282
 9412SOL    HW229678   2.395   3.868   4.167
 9413SOL     OW29679   3.286   4.916   3.752
 9413SOL    HW129680   3.338   4.853   3.802
 9413SOL    HW229681   3.211   4.935   3.807
 9414SOL     OW29682   2.170   3.780   3.910
 9414SOL    HW129683   2.234   3.851   3.923
 9414SOL    HW229684   2.211   3.703   3.950
 9415SOL     OW29685   2.810   3.974   4.166
 9415SOL    HW129686   2.796   4.011   4.079
 9415SOL    HW229687   2.903   3.985   4.182
 9416SOL     OW29688   3.062   5.314   4.534
 9416SOL    HW129689   3.102   5.359   4.459
 9416SOL    HW229690   3.132   5.311   4.600
 9417SOL     OW29691   2.321   4.888   4.459
 9417SOL    HW129692   2.267   4.848   4.527
 9417SOL    HW229693   2.278   4.863   4.377
 9418SOL     OW29694   3.129   5.518   4.326
 9418SOL    HW129695   3.174   5.585   4.275
 9418SOL    HW229696   3.063   5.567   4.376
 9419SOL     OW29697   2.868   4.296   3.754
 9419SOL    HW129698   2.932   4.358   3.789
 9419SOL    HW229699   2.921   4.225   3.718
 9420SOL     OW29700   1.952   4.286   5.122
 9420SOL    HW129701   2.040   4.274   5.086
 9420SOL    HW229702   1.962   4.357   5.186
 9421SOL     OW29703   2.431   3.936   4.888
 9421SOL    HW129704   2.479   3.860   4.920
 9421SOL    HW229705   2.348   3.934   4.936
 9422SOL     OW29706   2.656   4.158   4.333
 9422SOL    HW129707   2.660   4.215   4.256
 9422SOL    HW229708   2.722   4.092   4.317
 9423SOL     OW29709   2.902   3.727   4.440
 9423SOL    HW129710   2.817   3.734   4.396
 9423SOL    HW229711   2.880   3.728   4.534
 9424SOL     OW29712   3.756   4.542   4.065
 9424SOL    HW129713   3.796   4.494   4.138
 9424SOL    HW229714   3.713   4.474   4.013
 9425SOL     OW29715   2.351   5.157   3.872
 9425SOL    HW129716   2.276   5.120   3.918
 9425SOL    HW229717   2.385   5.084   3.820
 9426SOL     OW29718   3.246   4.311   3.806
 9426SOL    HW129719   3.185   4.281   3.873
 9426SOL    HW229720   3.326   4.261   3.821
 9427SOL     OW29721   2.363   3.985   4.027
 9427SOL    HW129722   2.428   3.941   3.972
 9427SOL    HW229723   2.349   4.069   3.984
 9428SOL     OW29724   3.602   4.957   5.261
 9428SOL    HW129725   3.659   4.881   5.259
 9428SOL    HW229726   3.640   5.015   5.327
 9429SOL     OW29727   2.924   5.078   5.057
 9429SOL    HW129728   2.849   5.041   5.104
 9429SOL    HW229729   2.999   5.028   5.089
 9430SOL     OW29730   3.462   5.357   5.381
 9430SOL    HW129731   3.462   5.389   5.290
 9430SOL    HW229732   3.542   5.304   5.388
 9431SOL     OW29733   2.866   4.928   4.819
 9431SOL    HW129734   2.906   4.976   4.891
 9431SOL    HW229735   2.902   4.970   4.740
 9432SOL     OW29736   2.840   4.835   5.434
 9432SOL    HW129737   2.748   4.842   5.460
 9432SOL    HW229738   2.844   4.756   5.380
 9433SOL     OW29739   2.573   4.784   4.094
 9433SOL    HW129740   2.564   4.767   4.188
 9433SOL    HW229741   2.647   4.730   4.067
 9434SOL     OW29742   2.276   4.548   4.988
 9434SOL    HW129743   2.351   4.558   5.047
 9434SOL    HW229744   2.255   4.455   4.992
 9435SOL     OW29745   1.954   5.293   5.078
 9435SOL    HW129746   1.948   5.374   5.028
 9435SOL    HW229747   2.048   5.272   5.079
 9436SOL     OW29748   2.176   4.840   4.223
 9436SOL    HW129749   2.222   4.904   4.168
 9436SOL    HW229750   2.180   4.759   4.172
 9437SOL     OW29751   2.429   4.251   4.576
 9437SOL    HW129752   2.434   4.321   4.511
 9437SOL    HW229753   2.519   4.222   4.588
 9438SOL     OW29754   3.088   5.084   4.121
 9438SOL    HW129755   3.148   5.154   4.147
 9438SOL    HW229756   3.114   5.009   4.174
 9439SOL     OW29757   3.162   5.203   4.859
 9439SOL    HW129758   3.221   5.210   4.934
 9439SOL    HW229759   3.151   5.108   4.847
 9440SOL     OW29760   3.421   4.350   4.187
 9440SOL    HW129761   3.371   4.354   4.268
 9440SOL    HW229762   3.478   4.427   4.190
 9441SOL     OW29763   2.216   5.238   5.037
 9441SOL    HW129764   2.205   5.202   4.949
 9441SOL    HW229765   2.310   5.257   5.044
 9442SOL     OW29766   2.294   4.463   5.330
 9442SOL    HW129767   2.353   4.510   5.272
 9442SOL    HW229768   2.343   4.386   5.358
 9443SOL     OW29769   2.836   3.878   5.528
 9443SOL    HW129770   2.891   3.940   5.481
 9443SOL    HW229771   2.880   3.793   5.517
 9444SOL     OW29772   2.358   3.753   5.472
 9444SOL    HW129773   2.314   3.697   5.408
 9444SOL    HW229774   2.303   3.831   5.478
 9445SOL     OW29775   2.391   4.660   4.744
 9445SOL    HW129776   2.471   4.713   4.746
 9445SOL    HW229777   2.389   4.617   4.829
 9446SOL     OW29778   3.062   4.262   4.005
 9446SOL    HW129779   3.075   4.182   4.056
 9446SOL    HW229780   3.016   4.321   4.064
 9447SOL     OW29781   2.180   3.950   5.008
 9447SOL    HW129782   2.110   3.928   5.069
 9447SOL    HW229783   2.136   3.964   4.925
 9448SOL     OW29784   1.867   5.040   5.002
 9448SOL    HW129785   1.910   4.976   5.059
 9448SOL    HW229786   1.900   5.125   5.032
 9449SOL     OW29787   2.597   4.376   4.812
 9449SOL    HW129788   2.652   4.312   4.767
 9449SOL    HW229789   2.567   4.435   4.742
 9450SOL     OW29790   2.155   3.783   4.353
 9450SOL    HW129791   2.142   3.876   4.373
 9450SOL    HW229792   2.174   3.743   4.438
 9451SOL     OW29793   3.506   4.116   4.083
 9451SOL    HW129794   3.522   4.051   4.151
 9451SOL    HW229795   3.477   4.194   4.130
 9452SOL     OW29796   2.837   5.274   5.460
 9452SOL    HW129797   2.811   5.314   5.377
 9452SOL    HW229798   2.886   5.196   5.434
 9453SOL     OW29799   3.710   5.236   5.348
 9453SOL    HW129800   3.738   5.268   5.262
 9453SOL    HW229801   3.786   5.249   5.404
 9454SOL     OW29802   2.208   4.657   5.512
 9454SOL    HW129803   2.276   4.677   5.577
 9454SOL    HW229804   2.247   4.588   5.458
 9455SOL     OW29805   3.359   3.997   3.892
 9455SOL    HW129806   3.305   3.937   3.943
 9455SOL    HW229807   3.416   4.039   3.956
 9456SOL     OW29808   3.093   4.516   3.713
 9456SOL    HW129809   3.152   4.449   3.746
 9456SOL    HW229810   3.144   4.565   3.649
 9457SOL     OW29811   2.926   5.064   4.585
 9457SOL    HW129812   2.925   4.993   4.522
 9457SOL    HW229813   2.981   5.132   4.546
 9458SOL     OW29814   2.165   4.529   4.662
 9458SOL    HW129815   2.252   4.565   4.677
 9458SOL    HW229816   2.172   4.437   4.688
 9459SOL     OW29817   2.211   4.269   4.735
 9459SOL    HW129818   2.163   4.187   4.726
 9459SOL    HW229819   2.290   4.256   4.682
 9460SOL     OW29820   2.977   4.099   5.448
 9460SOL    HW129821   2.968   4.172   5.510
 9460SOL    HW229822   3.071   4.094   5.430
 9461SOL     OW29823   1.857   5.043   3.920
 9461SOL    HW129824   1.769   5.057   3.886
 9461SOL    HW229825   1.856   4.953   3.954
 9462SOL     OW29826   1.949   5.508   4.659
 9462SOL    HW129827   1.924   5.423   4.621
 9462SOL    HW229828   2.041   5.518   4.636
 9463SOL     OW29829   2.353   5.300   4.629
 9463SOL    HW129830   2.425   5.357   4.657
 9463SOL    HW229831   2.395   5.237   4.569
 9464SOL     OW29832   1.889   4.283   4.830
 9464SOL    HW129833   1.924   4.206   4.785
 9464SOL    HW229834   1.947   4.294   4.905
 9465SOL     OW29835   2.067   4.244   5.450
 9465SOL    HW129836   2.142   4.209   5.402
 9465SOL    HW229837   2.039   4.320   5.399
 9466SOL     OW29838   3.224   4.664   5.359
 9466SOL    HW129839   3.264   4.751   5.348
 9466SOL    HW229840   3.287   4.604   5.319
 9467SOL     OW29841   2.669   4.287   4.092
 9467SOL    HW129842   2.694   4.215   4.033
 9467SOL    HW229843   2.599   4.333   4.045
 9468SOL     OW29844   2.091   5.269   5.453
 9468SOL    HW129845   2.093   5.316   5.536
 9468SOL    HW229846   2.109   5.178   5.476
 9469SOL     OW29847   2.511   4.186   4.993
 9469SOL    HW129848   2.498   4.105   4.944
 9469SOL    HW229849   2.540   4.250   4.928
 9470SOL     OW29850   2.747   5.407   5.227
 9470SOL    HW129851   2.755   5.366   5.141
 9470SOL    HW229852   2.827   5.458   5.236
 9471SOL     OW29853   2.308   4.211   3.874
 9471SOL    HW129854   2.380   4.270   3.895
 9471SOL    HW229855   2.229   4.261   3.895
 9472SOL     OW29856   1.983   4.856   5.175
 9472SOL    HW129857   2.000   4.812   5.258
 9472SOL    HW229858   2.010   4.792   5.108
 9473SOL     OW29859   3.155   4.620   4.034
 9473SOL    HW129860   3.172   4.631   4.127
 9473SOL    HW229861   3.166   4.526   4.018
 9474SOL     OW29862   3.633   5.444   4.879
 9474SOL    HW129863   3.696   5.469   4.812
 9474SOL    HW229864   3.609   5.355   4.858
 9475SOL     OW29865   3.102   5.470   4.833
 9475SOL    HW129866   3.188   5.494   4.799
 9475SOL    HW229867   3.108   5.375   4.849
 9476SOL     OW29868   1.900   5.033   4.718
 9476SOL    HW129869   1.909   5.012   4.811
 9476SOL    HW229870   1.885   4.949   4.675
 9477SOL     OW29871   2.557   5.407   5.452
 9477SOL    HW129872   2.511   5.490   5.443
 9477SOL    HW229873   2.626   5.410   5.386
 9478SOL     OW29874   3.533   3.885   4.244
 9478SOL    HW129875   3.594   3.827   4.197
 9478SOL    HW229876   3.514   3.839   4.326
 9479SOL     OW29877   3.245   5.296   4.203
 9479SOL    HW129878   3.311   5.331   4.143
 9479SOL    HW229879   3.202   5.374   4.238
 9480SOL     OW29880   1.986   5.542   5.578
 9480SOL    HW129881   1.947   5.463   5.616
 9480SOL    HW229882   2.046   5.573   5.645
 9481SOL     OW29883   2.668   5.003   5.144
 9481SOL    HW129884   2.634   5.049   5.220
 9481SOL    HW229885   2.598   5.007   5.079
 9482SOL     OW29886   2.521   5.367   3.880
 9482SOL    HW129887   2.548   5.375   3.789
 9482SOL    HW229888   2.472   5.284   3.883
 9483SOL     OW29889   3.476   5.458   5.116
 9483SOL    HW129890   3.535   5.457   5.040
 9483SOL    HW229891   3.464   5.551   5.134
 9484SOL     OW29892   3.686   3.893   4.708
 9484SOL    HW129893   3.730   3.813   4.678
 9484SOL    HW229894   3.606   3.898   4.655
 9485SOL     OW29895   2.119   4.040   4.436
 9485SOL    HW129896   2.041   4.094   4.424
 9485SOL    HW229897   2.125   4.025   4.530
 9486SOL     OW29898   3.061   5.312   3.762
 9486SOL    HW129899   3.053   5.224   3.798
 9486SOL    HW229900   2.987   5.320   3.701
 9487SOL     OW29901   2.693   4.733   5.093
 9487SOL    HW129902   2.741   4.728   5.011
 9487SOL    HW229903   2.696   4.826   5.117
 9488SOL     OW29904   2.775   4.627   4.005
 9488SOL    HW129905   2.841   4.668   3.950
 9488SOL    HW229906   2.824   4.565   4.060
 9489SOL     OW29907   3.323   5.402   3.781
 9489SOL    HW129908   3.235   5.368   3.770
 9489SOL    HW229909   3.380   5.335   3.744
 9490SOL     OW29910   2.200   5.036   5.233
 9490SOL    HW129911   2.217   5.101   5.164
 9490SOL    HW229912   2.140   4.973   5.192
 9491SOL     OW29913   3.426   4.983   5.044
 9491SOL    HW129914   3.497   4.970   5.107
 9491SOL    HW229915   3.398   5.073   5.057
 9492SOL     OW29916   2.905   4.852   4.421
 9492SOL    HW129917   2.867   4.768   4.447
 9492SOL    HW229918   2.987   4.828   4.378
 9493SOL     OW29919   2.811   3.933   4.640
 9493SOL    HW129920   2.894   3.948   4.595
 9493SOL    HW229921   2.834   3.877   4.715
 9494SOL     OW29922   2.441   5.178   4.189
 9494SOL    HW129923   2.509   5.135   4.137
 9494SOL    HW229924   2.399   5.239   4.129
 9495SOL     OW29925   2.116   5.074   3.990
 9495SOL    HW129926   2.022   5.064   3.974
 9495SOL    HW229927   2.122   5.106   4.080
 9496SOL     OW29928   1.959   4.728   5.423
 9496SOL    HW129929   1.894   4.719   5.492
 9496SOL    HW229930   2.043   4.712   5.466
 9497SOL     OW29931   2.529   3.924   5.232
 9497SOL    HW129932   2.605   3.951   5.181
 9497SOL    HW229933   2.551   3.946   5.323
 9498SOL     OW29934   1.941   4.056   3.764
 9498SOL    HW129935   1.857   4.035   3.722
 9498SOL    HW229936   1.975   4.130   3.713
 9499SOL     OW29937   1.925   3.876   4.022
 9499SOL    HW129938   1.920   3.952   3.964
 9499SOL    HW229939   2.015   3.844   4.012
 9500SOL     OW29940   3.026   5.049   3.854
 9500SOL    HW129941   2.979   4.965   3.856
 9500SOL    HW229942   3.052   5.063   3.944
 9501SOL     OW29943   2.480   4.575   5.160
 9501SOL    HW129944   2.543   4.644   5.140
 9501SOL    HW229945   2.533   4.495   5.165
 9502SOL     OW29946   3.352   5.524   4.733
 9502SOL    HW129947   3.382   5.550   4.646
 9502SOL    HW229948   3.421   5.467   4.766
 9503SOL     OW29949   2.560   4.286   5.434
 9503SOL    HW129950   2.615   4.346   5.483
 9503SOL    HW229951   2.589   4.199   5.460
 9504SOL     OW29952   3.339   4.922   5.352
 9504SOL    HW129953   3.346   4.960   5.440
 9504SOL    HW229954   3.427   4.931   5.315
 9505SOL     OW29955   2.232   5.466   5.293
 9505SOL    HW129956   2.144   5.505   5.291
 9505SOL    HW229957   2.219   5.379   5.330
 9506SOL     OW29958   3.082   4.035   4.182
 9506SOL    HW129959   3.140   3.964   4.153
 9506SOL    HW229960   3.119   4.064   4.265
 9507SOL     OW29961   2.421   4.473   4.405
 9507SOL    HW129962   2.483   4.544   4.389
 9507SOL    HW229963   2.375   4.462   4.322
 9508SOL     OW29964   2.667   5.111   3.769
 9508SOL    HW129965   2.672   5.101   3.864
 9508SOL    HW229966   2.735   5.175   3.748
 9509SOL     OW29967   2.527   5.507   4.670
 9509SOL    HW129968   2.527   5.596   4.635
 9509SOL    HW229969   2.619   5.479   4.664
 9510SOL     OW29970   2.743   4.644   4.547
 9510SOL    HW129971   2.785   4.559   4.554
 9510SOL    HW229972   2.728   4.671   4.638
 9511SOL     OW29973   2.942   4.736   3.807
 9511SOL    HW129974   2.943   4.745   3.711
 9511SOL    HW229975   3.006   4.668   3.826
 9512SOL     OW29976   3.704   5.294   4.582
 9512SOL    HW129977   3.719   5.247   4.500
 9512SOL    HW229978   3.684   5.226   4.646
 9513SOL     OW29979   2.092   5.019   5.582
 9513SOL    HW129980   2.026   4.949   5.578
 9513SOL    HW229981   2.103   5.035   5.676
 9514SOL     OW29982   1.967   4.940   4.390
 9514SOL    HW129983   1.992   4.897   4.472
 9514SOL    HW229984   2.028   4.905   4.326
 9515SOL     OW29985   2.530   5.144   5.336
 9515SOL    HW129986   2.472   5.091   5.390
 9515SOL    HW229987   2.548   5.222   5.388
 9516SOL     OW29988   3.733   3.884   4.986
 9516SOL    HW129989   3.708   3.791   4.987
 9516SOL    HW229990   3.706   3.914   4.900
 9517SOL     OW29991   2.265   4.167   4.229
 9517SOL    HW129992   2.323   4.102   4.189
 9517SOL    HW229993   2.237   4.126   4.311
 9518SOL     OW29994   3.569   5.183   4.827
 9518SOL    HW129995   3.496   5.120   4.825
 9518SOL    HW229996   3.638   5.138   4.876
 9519SOL     OW29997   2.197   4.283   5.009
 9519SOL    HW129998   2.259   4.229   5.057
 9519SOL    HW229999   2.214   4.264   4.917
 9520SOL     OW30000   2.675   5.310   4.413
 9520SOL    HW130001   2.729   5.267   4.347
 9520SOL    HW230002   2.605   5.247   4.431
 9521SOL     OW30003   3.295   3.949   4.782
 9521SOL    HW130004   3.265   3.863   4.809
 9521SOL    HW230005   3.219   4.006   4.792
 9522SOL     OW30006   2.641   5.054   4.044
 9522SOL    HW130007   2.627   4.961   4.059
 9522SOL    HW230008   2.709   5.079   4.107
 9523SOL     OW30009   2.480   5.295   4.997
 9523SOL    HW130010   2.479   5.383   5.035
 9523SOL    HW230011   2.572   5.279   4.975
 9524SOL     OW30012   3.447   3.917   4.563
 9524SOL    HW130013   3.397   3.928   4.644
 9524SOL    HW230014   3.454   4.005   4.526
 9525SOL     OW30015   1.899   4.785   4.025
 9525SOL    HW130016   1.994   4.778   4.010
 9525SOL    HW230017   1.872   4.696   4.047
 9526SOL     OW30018   2.765   5.407   4.041
 9526SOL    HW130019   2.683   5.380   3.999
 9526SOL    HW230020   2.738   5.464   4.113
 9527SOL     OW30021   2.077   4.366   5.710
 9527SOL    HW130022   1.997   4.331   5.749
 9527SOL    HW230023   2.077   4.332   5.620
 9528SOL     OW30024   2.080   4.015   6.583
 9528SOL    HW130025   2.114   3.978   6.665
 9528SOL    HW230026   1.993   3.975   6.574
 9529SOL     OW30027   1.865   4.125   6.223
 9529SOL    HW130028   1.780   4.131   6.267
 9529SOL    HW230029   1.859   4.044   6.172
 9530SOL     OW30030   2.433   5.027   6.793
 9530SOL    HW130031   2.364   5.031   6.726
 9530SOL    HW230032   2.457   5.118   6.809
 9531SOL     OW30033   3.397   5.240   6.262
 9531SOL    HW130034   3.383   5.208   6.352
 9531SOL    HW230035   3.394   5.162   6.208
 9532SOL     OW30036   2.604   4.864   6.627
 9532SOL    HW130037   2.556   4.886   6.707
 9532SOL    HW230038   2.637   4.947   6.595
 9533SOL     OW30039   2.687   4.514   7.405
 9533SOL    HW130040   2.762   4.512   7.464
 9533SOL    HW230041   2.724   4.545   7.322
 9534SOL     OW30042   2.540   4.727   6.225
 9534SOL    HW130043   2.612   4.712   6.285
 9534SOL    HW230044   2.477   4.779   6.276
 9535SOL     OW30045   2.566   4.882   7.407
 9535SOL    HW130046   2.608   4.964   7.433
 9535SOL    HW230047   2.485   4.909   7.363
 9536SOL     OW30048   2.182   5.155   6.647
 9536SOL    HW130049   2.114   5.115   6.592
 9536SOL    HW230050   2.239   5.201   6.585
 9537SOL     OW30051   3.291   5.226   6.949
 9537SOL    HW130052   3.362   5.289   6.953
 9537SOL    HW230053   3.305   5.168   7.024
 9538SOL     OW30054   2.284   4.125   7.144
 9538SOL    HW130055   2.378   4.107   7.141
 9538SOL    HW230056   2.247   4.069   7.076
 9539SOL     OW30057   2.079   5.450   6.053
 9539SOL    HW130058   2.107   5.520   6.112
 9539SOL    HW230059   2.158   5.429   6.002
 9540SOL     OW30060   3.017   5.043   7.282
 9540SOL    HW130061   3.101   4.999   7.271
 9540SOL    HW230062   2.952   4.973   7.280
 9541SOL     OW30063   2.078   5.164   6.102
 9541SOL    HW130064   2.071   5.256   6.128
 9541SOL    HW230065   2.043   5.116   6.177
 9542SOL     OW30066   2.107   4.804   6.477
 9542SOL    HW130067   2.132   4.712   6.483
 9542SOL    HW230068   2.107   4.835   6.568
 9543SOL     OW30069   2.430   5.550   6.974
 9543SOL    HW130070   2.371   5.516   7.041
 9543SOL    HW230071   2.482   5.616   7.020
 9544SOL     OW30072   2.422   4.728   5.728
 9544SOL    HW130073   2.483   4.754   5.659
 9544SOL    HW230074   2.466   4.751   5.810
 9545SOL     OW30075   3.447   3.826   7.073
 9545SOL    HW130076   3.484   3.814   6.986
 9545SOL    HW230077   3.458   3.920   7.091
 9546SOL     OW30078   1.967   4.391   6.144
 9546SOL    HW130079   1.953   4.298   6.166
 9546SOL    HW230080   1.970   4.435   6.229
 9547SOL     OW30081   3.692   5.499   5.923
 9547SOL    HW130082   3.767   5.465   5.972
 9547SOL    HW230083   3.719   5.587   5.897
 9548SOL     OW30084   1.895   5.318   5.704
 9548SOL    HW130085   1.886   5.224   5.720
 9548SOL    HW230086   1.876   5.358   5.789
 9549SOL     OW30087   1.996   4.461   7.168
 9549SOL    HW130088   2.087   4.490   7.167
 9549SOL    HW230089   1.946   4.541   7.153
 9550SOL     OW30090   2.467   5.124   6.317
 9550SOL    HW130091   2.430   5.036   6.328
 9550SOL    HW230092   2.457   5.142   6.224
 9551SOL     OW30093   3.168   4.942   7.040
 9551SOL    HW130094   3.186   4.880   6.970
 9551SOL    HW230095   3.212   4.906   7.116
 9552SOL     OW30096   2.661   3.715   6.077
 9552SOL    HW130097   2.711   3.796   6.069
 9552SOL    HW230098   2.571   3.745   6.092
 9553SOL     OW30099   2.041   4.689   6.853
 9553SOL    HW130100   2.128   4.648   6.853
 9553SOL    HW230101   1.989   4.634   6.794
 9554SOL     OW30102   3.006   5.535   7.201
 9554SOL    HW130103   3.045   5.590   7.134
 9554SOL    HW230104   3.035   5.447   7.179
 9555SOL     OW30105   2.187   3.970   7.392
 9555SOL    HW130106   2.253   4.038   7.383
 9555SOL    HW230107   2.117   4.009   7.444
 9556SOL     OW30108   3.307   5.150   6.510
 9556SOL    HW130109   3.257   5.149   6.591
 9556SOL    HW230110   3.305   5.059   6.480
 9557SOL     OW30111   3.475   5.498   6.163
 9557SOL    HW130112   3.484   5.460   6.075
 9557SOL    HW230113   3.459   5.423   6.220
 9558SOL     OW30114   2.459   4.428   5.845
 9558SOL    HW130115   2.492   4.513   5.817
 9558SOL    HW230116   2.399   4.448   5.917
 9559SOL     OW30117   3.433   5.423   5.891
 9559SOL    HW130118   3.527   5.436   5.891
 9559SOL    HW230119   3.411   5.400   5.801
 9560SOL     OW30120   2.597   4.352   7.043
 9560SOL    HW130121   2.598   4.310   7.129
 9560SOL    HW230122   2.593   4.280   6.980
 9561SOL     OW30123   3.259   4.186   7.286
 9561SOL    HW130124   3.266   4.213   7.378
 9561SOL    HW230125   3.310   4.105   7.281
 9562SOL     OW30126   2.812   4.598   7.172
 9562SOL    HW130127   2.880   4.531   7.159
 9562SOL    HW230128   2.765   4.601   7.089
 9563SOL     OW30129   2.793   4.107   6.809
 9563SOL    HW130130   2.839   4.092   6.892
 9563SOL    HW230131   2.850   4.068   6.743
 9564SOL     OW30132   2.842   4.484   6.027
 9564SOL    HW130133   2.912   4.492   6.091
 9564SOL    HW230134   2.805   4.397   6.042
 9565SOL     OW30135   1.942   4.563   6.364
 9565SOL    HW130136   2.022   4.535   6.410
 9565SOL    HW230137   1.919   4.647   6.404
 9566SOL     OW30138   1.982   5.592   7.173
 9566SOL    HW130139   1.977   5.580   7.268
 9566SOL    HW230140   1.926   5.523   7.137
 9567SOL     OW30141   2.774   4.069   5.759
 9567SOL    HW130142   2.818   4.143   5.718
 9567SOL    HW230143   2.804   3.992   5.710
 9568SOL     OW30144   3.515   4.345   7.408
 9568SOL    HW130145   3.476   4.400   7.340
 9568SOL    HW230146   3.555   4.272   7.360
 9569SOL     OW30147   2.390   3.902   6.477
 9569SOL    HW130148   2.403   3.916   6.571
 9569SOL    HW230149   2.438   3.974   6.436
 9570SOL     OW30150   2.824   5.188   6.082
 9570SOL    HW130151   2.834   5.259   6.018
 9570SOL    HW230152   2.909   5.144   6.082
 9571SOL     OW30153   2.217   5.541   6.467
 9571SOL    HW130154   2.264   5.458   6.469
 9571SOL    HW230155   2.285   5.607   6.480
 9572SOL     OW30156   3.669   4.838   6.430
 9572SOL    HW130157   3.630   4.825   6.344
 9572SOL    HW230158   3.602   4.809   6.492
 9573SOL     OW30159   3.062   5.280   7.126
 9573SOL    HW130160   3.065   5.197   7.174
 9573SOL    HW230161   3.076   5.255   7.035
 9574SOL     OW30162   2.165   4.684   5.836
 9574SOL    HW130163   2.252   4.703   5.800
 9574SOL    HW230164   2.151   4.591   5.816
 9575SOL     OW30165   2.330   5.005   7.328
 9575SOL    HW130166   2.299   5.013   7.237
 9575SOL    HW230167   2.250   4.995   7.380
 9576SOL     OW30168   2.987   5.524   5.787
 9576SOL    HW130169   2.918   5.486   5.841
 9576SOL    HW230170   3.018   5.451   5.733
 9577SOL     OW30171   2.035   3.973   7.094
 9577SOL    HW130172   2.004   4.064   7.091
 9577SOL    HW230173   2.080   3.966   7.178
 9578SOL     OW30174   2.323   5.460   5.909
 9578SOL    HW130175   2.374   5.507   5.975
 9578SOL    HW230176   2.389   5.425   5.848
 9579SOL     OW30177   2.124   5.512   6.805
 9579SOL    HW130178   2.177   5.447   6.850
 9579SOL    HW230179   2.132   5.489   6.712
 9580SOL     OW30180   2.814   5.424   6.486
 9580SOL    HW130181   2.899   5.380   6.492
 9580SOL    HW230182   2.767   5.376   6.419
 9581SOL     OW30183   2.249   4.427   6.041
 9581SOL    HW130184   2.267   4.334   6.056
 9581SOL    HW230185   2.157   4.438   6.066
 9582SOL     OW30186   3.395   3.951   7.317
 9582SOL    HW130187   3.393   3.934   7.411
 9582SOL    HW230188   3.389   3.865   7.276
 9583SOL     OW30189   2.484   3.837   5.702
 9583SOL    HW130190   2.568   3.793   5.717
 9583SOL    HW230191   2.451   3.799   5.621
 9584SOL     OW30192   2.626   3.998   7.353
 9584SOL    HW130193   2.708   3.950   7.336
 9584SOL    HW230194   2.629   4.017   7.447
 9585SOL     OW30195   2.743   5.241   6.795
 9585SOL    HW130196   2.736   5.207   6.706
 9585SOL    HW230197   2.816   5.192   6.833
 9586SOL     OW30198   3.207   4.322   7.040
 9586SOL    HW130199   3.249   4.293   7.121
 9586SOL    HW230200   3.245   4.409   7.024
 9587SOL     OW30201   2.678   5.114   6.534
 9587SOL    HW130202   2.765   5.096   6.497
 9587SOL    HW230203   2.620   5.120   6.458
 9588SOL     OW30204   2.711   4.170   6.485
 9588SOL    HW130205   2.708   4.169   6.389
 9588SOL    HW230206   2.794   4.128   6.506
 9589SOL     OW30207   2.396   3.787   6.077
 9589SOL    HW130208   2.323   3.793   6.139
 9589SOL    HW230209   2.392   3.869   6.027
 9590SOL     OW30210   2.161   3.766   5.773
 9590SOL    HW130211   2.228   3.827   5.744
 9590SOL    HW230212   2.210   3.696   5.817
 9591SOL     OW30213   2.791   3.959   6.024
 9591SOL    HW130214   2.783   3.999   5.937
 9591SOL    HW230215   2.884   3.967   6.046
 9592SOL     OW30216   2.947   4.386   7.056
 9592SOL    HW130217   2.916   4.297   7.043
 9592SOL    HW230218   3.043   4.379   7.053
 9593SOL     OW30219   3.078   5.304   6.400
 9593SOL    HW130220   3.111   5.348   6.322
 9593SOL    HW230221   3.155   5.262   6.438
 9594SOL     OW30222   2.323   4.888   6.317
 9594SOL    HW130223   2.265   4.854   6.385
 9594SOL    HW230224   2.279   4.866   6.235
 9595SOL     OW30225   3.132   5.518   6.198
 9595SOL    HW130226   3.175   5.577   6.136
 9595SOL    HW230227   3.091   5.577   6.261
 9596SOL     OW30228   2.895   4.288   5.639
 9596SOL    HW130229   2.836   4.354   5.604
 9596SOL    HW230230   2.972   4.338   5.667
 9597SOL     OW30231   1.968   4.260   6.985
 9597SOL    HW130232   2.058   4.258   6.952
 9597SOL    HW230233   1.966   4.333   7.047
 9598SOL     OW30234   2.417   3.913   6.745
 9598SOL    HW130235   2.480   3.862   6.798
 9598SOL    HW230236   2.340   3.921   6.801
 9599SOL     OW30237   2.689   4.154   6.209
 9599SOL    HW130238   2.671   4.208   6.132
 9599SOL    HW230239   2.716   4.070   6.173
 9600SOL     OW30240   2.777   3.804   6.323
 9600SOL    HW130241   2.762   3.728   6.267
 9600SOL    HW230242   2.827   3.770   6.397
 9601SOL     OW30243   3.285   4.904   6.387
 9601SOL    HW130244   3.288   4.809   6.391
 9601SOL    HW230245   3.313   4.925   6.298
 9602SOL     OW30246   3.259   4.305   6.661
 9602SOL    HW130247   3.239   4.213   6.646
 9602SOL    HW230248   3.349   4.306   6.693
 9603SOL     OW30249   3.796   4.546   5.915
 9603SOL    HW130250   3.819   4.513   6.002
 9603SOL    HW230251   3.731   4.484   5.882
 9604SOL     OW30252   2.353   5.161   5.741
 9604SOL    HW130253   2.275   5.121   5.781
 9604SOL    HW230254   2.391   5.090   5.689
 9605SOL     OW30255   2.374   3.993   5.899
 9605SOL    HW130256   2.427   3.943   5.837
 9605SOL    HW230257   2.352   4.073   5.852
 9606SOL     OW30258   2.931   5.089   6.947
 9606SOL    HW130259   2.854   5.047   6.985
 9606SOL    HW230260   3.004   5.033   6.975
 9607SOL     OW30261   3.465   5.375   7.254
 9607SOL    HW130262   3.449   5.392   7.162
 9607SOL    HW230263   3.556   5.344   7.257
 9608SOL     OW30264   3.003   4.956   6.683
 9608SOL    HW130265   2.923   4.924   6.725
 9608SOL    HW230266   2.979   4.964   6.591
 9609SOL     OW30267   3.493   4.810   6.652
 9609SOL    HW130268   3.504   4.876   6.721
 9609SOL    HW230269   3.400   4.787   6.656
 9610SOL     OW30270   2.738   3.856   6.986
 9610SOL    HW130271   2.760   3.808   6.906
 9610SOL    HW230272   2.822   3.884   7.021
 9611SOL     OW30273   2.827   4.839   7.301
 9611SOL    HW130274   2.735   4.841   7.325
 9611SOL    HW230275   2.836   4.761   7.246
 9612SOL     OW30276   2.561   4.795   5.959
 9612SOL    HW130277   2.556   4.771   6.052
 9612SOL    HW230278   2.633   4.742   5.925
 9613SOL     OW30279   2.263   4.538   6.854
 9613SOL    HW130280   2.338   4.556   6.911
 9613SOL    HW230281   2.252   4.443   6.857
 9614SOL     OW30282   3.090   4.119   6.885
 9614SOL    HW130283   3.148   4.190   6.914
 9614SOL    HW230284   3.127   4.090   6.802
 9615SOL     OW30285   1.951   5.300   6.949
 9615SOL    HW130286   1.930   5.367   6.884
 9615SOL    HW230287   2.045   5.287   6.941
 9616SOL     OW30288   2.179   4.841   6.082
 9616SOL    HW130289   2.222   4.905   6.026
 9616SOL    HW230290   2.181   4.760   6.033
 9617SOL     OW30291   2.401   4.277   6.454
 9617SOL    HW130292   2.414   4.336   6.380
 9617SOL    HW230293   2.485   4.279   6.501
 9618SOL     OW30294   3.086   5.075   5.979
 9618SOL    HW130295   3.129   5.160   5.988
 9618SOL    HW230296   3.143   5.014   6.026
 9619SOL     OW30297   3.139   5.195   6.727
 9619SOL    HW130298   3.194   5.194   6.806
 9619SOL    HW230299   3.090   5.113   6.731
 9620SOL     OW30300   2.216   5.257   6.892
 9620SOL    HW130301   2.202   5.214   6.808
 9620SOL    HW230302   2.311   5.268   6.899
 9621SOL     OW30303   2.281   4.463   7.195
 9621SOL    HW130304   2.340   4.512   7.137
 9621SOL    HW230305   2.328   4.381   7.212
 9622SOL     OW30306   2.864   3.871   7.351
 9622SOL    HW130307   2.924   3.944   7.336
 9622SOL    HW230308   2.903   3.797   7.305
 9623SOL     OW30309   2.348   3.753   7.352
 9623SOL    HW130310   2.316   3.698   7.280
 9623SOL    HW230311   2.294   3.832   7.348
 9624SOL     OW30312   2.386   4.664   6.608
 9624SOL    HW130313   2.472   4.704   6.595
 9624SOL    HW230314   2.396   4.611   6.688
 9625SOL     OW30315   3.203   4.576   6.632
 9625SOL    HW130316   3.209   4.573   6.537
 9625SOL    HW230317   3.221   4.486   6.660
 9626SOL     OW30318   2.137   3.916   6.838
 9626SOL    HW130319   2.102   3.937   6.925
 9626SOL    HW230320   2.134   3.821   6.834
 9627SOL     OW30321   1.880   5.042   6.862
 9627SOL    HW130322   1.921   4.977   6.918
 9627SOL    HW230323   1.911   5.126   6.895
 9628SOL     OW30324   2.608   4.357   6.647
 9628SOL    HW130325   2.649   4.281   6.606
 9628SOL    HW230326   2.673   4.427   6.638
 9629SOL     OW30327   2.156   3.778   6.220
 9629SOL    HW130328   2.142   3.871   6.238
 9629SOL    HW230329   2.176   3.739   6.305
 9630SOL     OW30330   2.846   4.507   6.602
 9630SOL    HW130331   2.925   4.527   6.653
 9630SOL    HW230332   2.879   4.485   6.515
 9631SOL     OW30333   2.837   5.256   7.311
 9631SOL    HW130334   2.827   5.301   7.227
 9631SOL    HW230335   2.897   5.183   7.293
 9632SOL     OW30336   3.723   5.298   7.209
 9632SOL    HW130337   3.740   5.311   7.116
 9632SOL    HW230338   3.749   5.208   7.226
 9633SOL     OW30339   2.214   4.643   7.390
 9633SOL    HW130340   2.293   4.662   7.442
 9633SOL    HW230341   2.243   4.578   7.326
 9634SOL     OW30342   3.131   4.534   5.576
 9634SOL    HW130343   3.204   4.539   5.636
 9634SOL    HW230344   3.161   4.578   5.496
 9635SOL     OW30345   2.916   5.046   6.427
 9635SOL    HW130346   2.928   4.968   6.372
 9635SOL    HW230347   2.986   5.105   6.400
 9636SOL     OW30348   2.161   4.536   6.525
 9636SOL    HW130349   2.248   4.571   6.545
 9636SOL    HW230350   2.167   4.443   6.550
 9637SOL     OW30351   2.175   4.264   6.592
 9637SOL    HW130352   2.148   4.173   6.583
 9637SOL    HW230353   2.258   4.270   6.546
 9638SOL     OW30354   2.995   4.125   7.315
 9638SOL    HW130355   2.981   4.185   7.388
 9638SOL    HW230356   3.086   4.139   7.290
 9639SOL     OW30357   2.981   3.954   7.070
 9639SOL    HW130358   3.005   4.011   7.142
 9639SOL    HW230359   3.030   3.988   6.995
 9640SOL     OW30360   1.855   5.044   5.784
 9640SOL    HW130361   1.767   5.057   5.748
 9640SOL    HW230362   1.855   4.954   5.817
 9641SOL     OW30363   1.950   5.507   6.526
 9641SOL    HW130364   1.923   5.424   6.487
 9641SOL    HW230365   2.041   5.518   6.498
 9642SOL     OW30366   2.354   5.303   6.491
 9642SOL    HW130367   2.427   5.358   6.520
 9642SOL    HW230368   2.393   5.241   6.430
 9643SOL     OW30369   2.822   4.552   6.880
 9643SOL    HW130370   2.879   4.497   6.934
 9643SOL    HW230371   2.810   4.502   6.799
 9644SOL     OW30372   1.901   4.277   6.710
 9644SOL    HW130373   1.978   4.271   6.653
 9644SOL    HW230374   1.936   4.266   6.798
 9645SOL     OW30375   2.078   4.242   7.314
 9645SOL    HW130376   2.153   4.212   7.262
 9645SOL    HW230377   2.042   4.316   7.264
 9646SOL     OW30378   2.663   4.261   5.953
 9646SOL    HW130379   2.690   4.201   5.884
 9646SOL    HW230380   2.600   4.320   5.910
 9647SOL     OW30381   3.511   4.329   6.779
 9647SOL    HW130382   3.511   4.265   6.850
 9647SOL    HW230383   3.593   4.314   6.733
 9648SOL     OW30384   2.088   5.268   7.317
 9648SOL    HW130385   2.103   5.306   7.404
 9648SOL    HW230386   2.102   5.175   7.329
 9649SOL     OW30387   2.478   4.198   6.835
 9649SOL    HW130388   2.519   4.113   6.818
 9649SOL    HW230389   2.524   4.259   6.776
 9650SOL     OW30390   2.746   5.399   7.082
 9650SOL    HW130391   2.748   5.340   7.006
 9650SOL    HW230392   2.814   5.463   7.064
 9651SOL     OW30393   2.311   4.215   5.751
 9651SOL    HW130394   2.380   4.277   5.774
 9651SOL    HW230395   2.231   4.267   5.751
 9652SOL     OW30396   1.990   4.865   7.052
 9652SOL    HW130397   2.007   4.822   7.137
 9652SOL    HW230398   2.010   4.798   6.987
 9653SOL     OW30399   3.194   4.788   6.797
 9653SOL    HW130400   3.198   4.710   6.742
 9653SOL    HW230401   3.134   4.847   6.751
 9654SOL     OW30402   3.652   5.467   6.746
 9654SOL    HW130403   3.708   5.483   6.670
 9654SOL    HW230404   3.610   5.383   6.728
 9655SOL     OW30405   3.103   5.470   6.708
 9655SOL    HW130406   3.187   5.491   6.666
 9655SOL    HW230407   3.105   5.375   6.717
 9656SOL     OW30408   1.910   5.033   6.579
 9656SOL    HW130409   1.905   5.019   6.673
 9656SOL    HW230410   1.885   4.949   6.540
 9657SOL     OW30411   2.572   5.414   7.334
 9657SOL    HW130412   2.516   5.481   7.296
 9657SOL    HW230413   2.642   5.401   7.270
 9658SOL     OW30414   3.200   5.316   6.011
 9658SOL    HW130415   3.291   5.330   5.985
 9658SOL    HW230416   3.189   5.370   6.089
 9659SOL     OW30417   1.968   5.550   7.440
 9659SOL    HW130418   1.938   5.465   7.471
 9659SOL    HW230419   2.033   5.578   7.506
 9660SOL     OW30420   2.674   5.015   7.014
 9660SOL    HW130421   2.631   5.063   7.084
 9660SOL    HW230422   2.602   4.991   6.954
 9661SOL     OW30423   2.522   5.373   5.735
 9661SOL    HW130424   2.555   5.375   5.645
 9661SOL    HW230425   2.474   5.290   5.740
 9662SOL     OW30426   3.469   5.445   6.983
 9662SOL    HW130427   3.525   5.439   6.906
 9662SOL    HW230428   3.455   5.539   6.995
 9663SOL     OW30429   3.696   3.917   6.598
 9663SOL    HW130430   3.715   3.826   6.573
 9663SOL    HW230431   3.612   3.936   6.556
 9664SOL     OW30432   2.121   4.033   6.303
 9664SOL    HW130433   2.039   4.081   6.292
 9664SOL    HW230434   2.134   4.030   6.397
 9665SOL     OW30435   3.063   5.320   5.617
 9665SOL    HW130436   3.059   5.232   5.656
 9665SOL    HW230437   2.987   5.324   5.559
 9666SOL     OW30438   2.651   4.746   6.940
 9666SOL    HW130439   2.715   4.685   6.905
 9666SOL    HW230440   2.703   4.820   6.971
 9667SOL     OW30441   2.745   4.643   5.837
 9667SOL    HW130442   2.822   4.673   5.788
 9667SOL    HW230443   2.780   4.585   5.904
 9668SOL     OW30444   3.331   5.416   5.620
 9668SOL    HW130445   3.247   5.370   5.614
 9668SOL    HW230446   3.379   5.389   5.542
 9669SOL     OW30447   2.200   5.049   7.097
 9669SOL    HW130448   2.227   5.101   7.020
 9669SOL    HW230449   2.142   4.982   7.061
 9670SOL     OW30450   3.528   5.001   6.859
 9670SOL    HW130451   3.607   4.966   6.901
 9670SOL    HW230452   3.458   4.987   6.923
 9671SOL     OW30453   2.931   4.809   6.292
 9671SOL    HW130454   2.858   4.758   6.329
 9671SOL    HW230455   3.001   4.745   6.280
 9672SOL     OW30456   2.446   5.186   6.053
 9672SOL    HW130457   2.515   5.143   6.003
 9672SOL    HW230458   2.393   5.230   5.987
 9673SOL     OW30459   3.587   4.137   6.979
 9673SOL    HW130460   3.669   4.183   6.965
 9673SOL    HW230461   3.598   4.054   6.933
 9674SOL     OW30462   2.115   5.072   5.854
 9674SOL    HW130463   2.021   5.063   5.838
 9674SOL    HW230464   2.122   5.104   5.944
 9675SOL     OW30465   1.985   4.777   7.326
 9675SOL    HW130466   1.909   4.734   7.366
 9675SOL    HW230467   2.059   4.723   7.353
 9676SOL     OW30468   2.517   3.962   7.102
 9676SOL    HW130469   2.592   3.932   7.051
 9676SOL    HW230470   2.551   3.970   7.191
 9677SOL     OW30471   1.940   4.067   5.622
 9677SOL    HW130472   1.866   4.036   5.570
 9677SOL    HW230473   1.980   4.135   5.568
 9678SOL     OW30474   3.273   4.578   6.969
 9678SOL    HW130475   3.242   4.651   6.916
 9678SOL    HW230476   3.368   4.580   6.960
 9679SOL     OW30477   1.924   3.875   5.879
 9679SOL    HW130478   1.916   3.952   5.822
 9679SOL    HW230479   2.012   3.841   5.862
 9680SOL     OW30480   3.023   5.056   5.707
 9680SOL    HW130481   2.986   4.967   5.707
 9680SOL    HW230482   3.053   5.070   5.796
 9681SOL     OW30483   2.462   4.578   7.028
 9681SOL    HW130484   2.522   4.647   7.000
 9681SOL    HW230485   2.517   4.499   7.031
 9682SOL     OW30486   3.352   5.527   6.600
 9682SOL    HW130487   3.380   5.539   6.509
 9682SOL    HW230488   3.402   5.451   6.630
 9683SOL     OW30489   2.556   4.287   7.308
 9683SOL    HW130490   2.603   4.361   7.349
 9683SOL    HW230491   2.610   4.211   7.329
 9684SOL     OW30492   2.237   5.469   7.161
 9684SOL    HW130493   2.150   5.505   7.148
 9684SOL    HW230494   2.222   5.378   7.187
 9685SOL     OW30495   3.528   4.596   6.853
 9685SOL    HW130496   3.522   4.504   6.826
 9685SOL    HW230497   3.537   4.645   6.771
 9686SOL     OW30498   2.422   4.469   6.260
 9686SOL    HW130499   2.482   4.542   6.246
 9686SOL    HW230500   2.374   4.462   6.178
 9687SOL     OW30501   3.599   4.118   7.257
 9687SOL    HW130502   3.594   4.132   7.163
 9687SOL    HW230503   3.531   4.053   7.276
 9688SOL     OW30504   3.706   4.658   7.061
 9688SOL    HW130505   3.719   4.749   7.036
 9688SOL    HW230506   3.633   4.629   7.006
 9689SOL     OW30507   2.662   5.110   5.626
 9689SOL    HW130508   2.679   5.107   5.720
 9689SOL    HW230509   2.728   5.169   5.591
 9690SOL     OW30510   2.535   5.506   6.535
 9690SOL    HW130511   2.533   5.590   6.489
 9690SOL    HW230512   2.626   5.476   6.525
 9691SOL     OW30513   2.714   4.697   6.432
 9691SOL    HW130514   2.766   4.623   6.464
 9691SOL    HW230515   2.690   4.746   6.511
 9692SOL     OW30516   2.943   4.715   5.663
 9692SOL    HW130517   2.923   4.757   5.579
 9692SOL    HW230518   3.010   4.650   5.642
 9693SOL     OW30519   3.716   5.254   6.446
 9693SOL    HW130520   3.704   5.211   6.361
 9693SOL    HW230521   3.743   5.184   6.505
 9694SOL     OW30522   2.079   5.012   7.434
 9694SOL    HW130523   2.039   4.935   7.394
 9694SOL    HW230524   2.079   4.993   7.528
 9695SOL     OW30525   1.969   4.943   6.253
 9695SOL    HW130526   1.995   4.900   6.334
 9695SOL    HW230527   2.029   4.907   6.187
 9696SOL     OW30528   2.528   5.150   7.203
 9696SOL    HW130529   2.464   5.098   7.252
 9696SOL    HW230530   2.559   5.215   7.266
 9697SOL     OW30531   3.647   3.900   6.864
 9697SOL    HW130532   3.720   3.842   6.888
 9697SOL    HW230533   3.658   3.915   6.770
 9698SOL     OW30534   2.265   4.165   6.097
 9698SOL    HW130535   2.318   4.102   6.048
 9698SOL    HW230536   2.239   4.119   6.177
 9699SOL     OW30537   3.519   5.238   6.704
 9699SOL    HW130538   3.484   5.202   6.622
 9699SOL    HW230539   3.538   5.161   6.758
 9700SOL     OW30540   2.211   4.265   6.867
 9700SOL    HW130541   2.300   4.235   6.890
 9700SOL    HW230542   2.207   4.258   6.772
 9701SOL     OW30543   2.675   5.312   6.284
 9701SOL    HW130544   2.731   5.275   6.216
 9701SOL    HW230545   2.599   5.253   6.286
 9702SOL     OW30546   2.806   3.711   6.761
 9702SOL    HW130547   2.800   3.662   6.679
 9702SOL    HW230548   2.872   3.779   6.743
 9703SOL     OW30549   2.643   5.059   5.909
 9703SOL    HW130550   2.623   4.967   5.924
 9703SOL    HW230551   2.713   5.079   5.971
 9704SOL     OW30552   2.484   5.295   6.861
 9704SOL    HW130553   2.485   5.384   6.895
 9704SOL    HW230554   2.575   5.276   6.840
 9705SOL     OW30555   3.437   4.024   6.545
 9705SOL    HW130556   3.353   4.018   6.591
 9705SOL    HW230557   3.423   4.091   6.479
 9706SOL     OW30558   1.901   4.786   5.886
 9706SOL    HW130559   1.995   4.779   5.871
 9706SOL    HW230560   1.874   4.697   5.909
 9707SOL     OW30561   2.763   5.404   5.906
 9707SOL    HW130562   2.682   5.380   5.860
 9707SOL    HW230563   2.735   5.465   5.974
 9708SOL     OW30564   2.079   4.369   7.573
 9708SOL    HW130565   2.000   4.317   7.591
 9708SOL    HW230566   2.098   4.351   7.481
 9709SOL     OW30567   2.075   4.021   8.448
 9709SOL    HW130568   2.112   3.978   8.525
 9709SOL    HW230569   1.989   3.980   8.437
 9710SOL     OW30570   1.867   4.109   8.088
 9710SOL    HW130571   1.780   4.113   8.128
 9710SOL    HW230572   1.862   4.036   8.027
 9711SOL     OW30573   2.432   5.030   8.647
 9711SOL    HW130574   2.357   5.035   8.588
 9711SOL    HW230575   2.453   5.121   8.667
 9712SOL     OW30576   3.433   5.249   8.151
 9712SOL    HW130577   3.388   5.215   8.228
 9712SOL    HW230578   3.368   5.245   8.081
 9713SOL     OW30579   2.969   4.429   8.158
 9713SOL    HW130580   3.041   4.405   8.099
 9713SOL    HW230581   2.988   4.520   8.183
 9714SOL     OW30582   2.599   4.861   8.501
 9714SOL    HW130583   2.542   4.900   8.567
 9714SOL    HW230584   2.636   4.936   8.454
 9715SOL     OW30585   2.718   4.504   9.259
 9715SOL    HW130586   2.762   4.564   9.319
 9715SOL    HW230587   2.745   4.533   9.171
 9716SOL     OW30588   2.543   4.724   8.094
 9716SOL    HW130589   2.610   4.707   8.160
 9716SOL    HW230590   2.478   4.778   8.138
 9717SOL     OW30591   2.570   4.872   9.274
 9717SOL    HW130592   2.615   4.952   9.301
 9717SOL    HW230593   2.493   4.903   9.226
 9718SOL     OW30594   2.186   5.151   8.508
 9718SOL    HW130595   2.117   5.112   8.455
 9718SOL    HW230596   2.241   5.198   8.445
 9719SOL     OW30597   3.298   5.259   8.837
 9719SOL    HW130598   3.362   5.330   8.829
 9719SOL    HW230599   3.262   5.269   8.926
 9720SOL     OW30600   2.297   4.128   8.979
 9720SOL    HW130601   2.380   4.083   8.962
 9720SOL    HW230602   2.230   4.062   8.959
 9721SOL     OW30603   2.080   5.445   7.914
 9721SOL    HW130604   2.107   5.517   7.970
 9721SOL    HW230605   2.154   5.430   7.855
 9722SOL     OW30606   3.000   5.063   9.153
 9722SOL    HW130607   3.088   5.037   9.178
 9722SOL    HW230608   2.951   4.981   9.145
 9723SOL     OW30609   2.094   5.167   7.972
 9723SOL    HW130610   2.075   5.261   7.979
 9723SOL    HW230611   2.044   5.128   8.044
 9724SOL     OW30612   2.110   4.803   8.333
 9724SOL    HW130613   2.138   4.712   8.345
 9724SOL    HW230614   2.086   4.833   8.421
 9725SOL     OW30615   2.431   5.546   8.844
 9725SOL    HW130616   2.368   5.514   8.909
 9725SOL    HW230617   2.474   5.620   8.886
 9726SOL     OW30618   2.424   4.721   7.590
 9726SOL    HW130619   2.482   4.748   7.520
 9726SOL    HW230620   2.470   4.743   7.671
 9727SOL     OW30621   1.956   4.386   8.008
 9727SOL    HW130622   1.955   4.292   8.027
 9727SOL    HW230623   1.969   4.427   8.093
 9728SOL     OW30624   3.697   5.482   7.785
 9728SOL    HW130625   3.771   5.451   7.837
 9728SOL    HW230626   3.719   5.572   7.762
 9729SOL     OW30627   1.901   5.319   7.569
 9729SOL    HW130628   1.896   5.224   7.574
 9729SOL    HW230629   1.878   5.349   7.657
 9730SOL     OW30630   1.997   4.464   9.035
 9730SOL    HW130631   2.090   4.488   9.032
 9730SOL    HW230632   1.951   4.547   9.027
 9731SOL     OW30633   2.467   5.122   8.179
 9731SOL    HW130634   2.428   5.035   8.185
 9731SOL    HW230635   2.458   5.146   8.087
 9732SOL     OW30636   3.146   4.967   8.894
 9732SOL    HW130637   3.153   4.903   8.824
 9732SOL    HW230638   3.229   4.960   8.941
 9733SOL     OW30639   2.656   3.743   8.020
 9733SOL    HW130640   2.704   3.799   7.960
 9733SOL    HW230641   2.565   3.748   7.991
 9734SOL     OW30642   2.042   4.687   8.718
 9734SOL    HW130643   2.130   4.650   8.719
 9734SOL    HW230644   1.996   4.637   8.651
 9735SOL     OW30645   3.007   5.539   9.068
 9735SOL    HW130646   3.044   5.596   9.001
 9735SOL    HW230647   3.033   5.450   9.043
 9736SOL     OW30648   2.206   3.962   9.297
 9736SOL    HW130649   2.256   4.043   9.290
 9736SOL    HW230650   2.115   3.991   9.306
 9737SOL     OW30651   3.299   5.164   8.374
 9737SOL    HW130652   3.252   5.170   8.457
 9737SOL    HW230653   3.295   5.071   8.350
 9738SOL     OW30654   3.508   5.485   8.034
 9738SOL    HW130655   3.497   5.455   7.944
 9738SOL    HW230656   3.490   5.407   8.087
 9739SOL     OW30657   2.467   4.430   7.705
 9739SOL    HW130658   2.496   4.503   7.649
 9739SOL    HW230659   2.412   4.471   7.771
 9740SOL     OW30660   3.179   4.070   8.454
 9740SOL    HW130661   3.122   4.035   8.385
 9740SOL    HW230662   3.267   4.043   8.429
 9741SOL     OW30663   3.431   5.415   7.768
 9741SOL    HW130664   3.525   5.431   7.759
 9741SOL    HW230665   3.404   5.386   7.681
 9742SOL     OW30666   2.642   4.332   8.909
 9742SOL    HW130667   2.607   4.301   8.993
 9742SOL    HW230668   2.607   4.271   8.844
 9743SOL     OW30669   2.824   4.600   9.027
 9743SOL    HW130670   2.876   4.528   8.991
 9743SOL    HW230671   2.770   4.629   8.953
 9744SOL     OW30672   2.819   4.134   8.698
 9744SOL    HW130673   2.725   4.148   8.692
 9744SOL    HW230674   2.845   4.103   8.612
 9745SOL     OW30675   2.863   4.460   7.888
 9745SOL    HW130676   2.891   4.433   7.975
 9745SOL    HW230677   2.823   4.381   7.850
 9746SOL     OW30678   1.948   4.550   8.233
 9746SOL    HW130679   2.032   4.532   8.277
 9746SOL    HW230680   1.922   4.636   8.268
 9747SOL     OW30681   1.983   5.594   9.034
 9747SOL    HW130682   1.983   5.580   9.128
 9747SOL    HW230683   1.914   5.536   9.000
 9748SOL     OW30684   2.806   4.097   7.619
 9748SOL    HW130685   2.865   4.170   7.600
 9748SOL    HW230686   2.846   4.022   7.574
 9749SOL     OW30687   3.575   4.348   9.330
 9749SOL    HW130688   3.494   4.397   9.319
 9749SOL    HW230689   3.627   4.369   9.252
 9750SOL     OW30690   3.257   4.853   7.952
 9750SOL    HW130691   3.323   4.831   7.887
 9750SOL    HW230692   3.207   4.924   7.912
 9751SOL     OW30693   2.392   3.897   8.337
 9751SOL    HW130694   2.412   3.937   8.422
 9751SOL    HW230695   2.425   3.960   8.273
 9752SOL     OW30696   2.876   5.169   7.923
 9752SOL    HW130697   2.836   5.240   7.873
 9752SOL    HW230698   2.859   5.191   8.015
 9753SOL     OW30699   2.215   5.541   8.326
 9753SOL    HW130700   2.262   5.458   8.327
 9753SOL    HW230701   2.282   5.608   8.339
 9754SOL     OW30702   3.059   5.281   8.985
 9754SOL    HW130703   3.050   5.199   9.034
 9754SOL    HW230704   3.054   5.254   8.893
 9755SOL     OW30705   2.164   4.683   7.696
 9755SOL    HW130706   2.250   4.704   7.660
 9755SOL    HW230707   2.143   4.598   7.658
 9756SOL     OW30708   3.300   4.525   8.250
 9756SOL    HW130709   3.298   4.465   8.324
 9756SOL    HW230710   3.370   4.491   8.193
 9757SOL     OW30711   2.331   5.001   9.194
 9757SOL    HW130712   2.304   5.007   9.102
 9757SOL    HW230713   2.248   4.994   9.242
 9758SOL     OW30714   2.984   5.504   7.674
 9758SOL    HW130715   2.918   5.456   7.723
 9758SOL    HW230716   3.010   5.444   7.603
 9759SOL     OW30717   2.067   3.979   8.940
 9759SOL    HW130718   1.995   4.040   8.953
 9759SOL    HW230719   2.036   3.896   8.977
 9760SOL     OW30720   3.463   5.167   7.599
 9760SOL    HW130721   3.449   5.237   7.534
 9760SOL    HW230722   3.402   5.098   7.573
 9761SOL     OW30723   2.324   5.471   7.768
 9761SOL    HW130724   2.386   5.498   7.835
 9761SOL    HW230725   2.377   5.426   7.703
 9762SOL     OW30726   2.126   5.510   8.667
 9762SOL    HW130727   2.177   5.447   8.719
 9762SOL    HW230728   2.141   5.484   8.576
 9763SOL     OW30729   2.810   5.416   8.345
 9763SOL    HW130730   2.898   5.377   8.348
 9763SOL    HW230731   2.766   5.371   8.274
 9764SOL     OW30732   2.249   4.428   7.921
 9764SOL    HW130733   2.269   4.335   7.927
 9764SOL    HW230734   2.153   4.431   7.920
 9765SOL     OW30735   2.482   3.825   7.580
 9765SOL    HW130736   2.573   3.795   7.577
 9765SOL    HW230737   2.445   3.798   7.496
 9766SOL     OW30738   2.627   4.006   9.212
 9766SOL    HW130739   2.706   3.954   9.197
 9766SOL    HW230740   2.611   3.998   9.306
 9767SOL     OW30741   2.735   5.246   8.649
 9767SOL    HW130742   2.726   5.209   8.561
 9767SOL    HW230743   2.808   5.198   8.687
 9768SOL     OW30744   2.668   5.113   8.395
 9768SOL    HW130745   2.755   5.103   8.359
 9768SOL    HW230746   2.610   5.117   8.319
 9769SOL     OW30747   2.772   4.229   8.345
 9769SOL    HW130748   2.764   4.222   8.250
 9769SOL    HW230749   2.808   4.144   8.372
 9770SOL     OW30750   2.400   3.786   7.944
 9770SOL    HW130751   2.315   3.790   7.989
 9770SOL    HW230752   2.400   3.864   7.888
 9771SOL     OW30753   2.157   3.766   7.631
 9771SOL    HW130754   2.214   3.819   7.576
 9771SOL    HW230755   2.216   3.703   7.673
 9772SOL     OW30756   2.760   3.942   7.865
 9772SOL    HW130757   2.768   4.002   7.791
 9772SOL    HW230758   2.834   3.882   7.856
 9773SOL     OW30759   2.924   4.376   8.890
 9773SOL    HW130760   2.837   4.335   8.885
 9773SOL    HW230761   2.984   4.308   8.860
 9774SOL     OW30762   3.069   5.317   8.257
 9774SOL    HW130763   3.101   5.369   8.184
 9774SOL    HW230764   3.149   5.281   8.297
 9775SOL     OW30765   2.323   4.888   8.175
 9775SOL    HW130766   2.258   4.855   8.237
 9775SOL    HW230767   2.287   4.869   8.089
 9776SOL     OW30768   3.135   5.521   8.056
 9776SOL    HW130769   3.187   5.575   7.996
 9776SOL    HW230770   3.077   5.583   8.100
 9777SOL     OW30771   1.958   4.269   8.849
 9777SOL    HW130772   2.048   4.266   8.817
 9777SOL    HW230773   1.957   4.340   8.913
 9778SOL     OW30774   2.422   3.953   8.612
 9778SOL    HW130775   2.470   3.873   8.633
 9778SOL    HW230776   2.332   3.936   8.641
 9779SOL     OW30777   2.717   4.167   8.073
 9779SOL    HW130778   2.692   4.223   8.000
 9779SOL    HW230779   2.735   4.082   8.033
 9780SOL     OW30780   2.809   3.810   8.231
 9780SOL    HW130781   2.757   3.794   8.152
 9780SOL    HW230782   2.871   3.737   8.235
 9781SOL     OW30783   3.281   4.910   8.282
 9781SOL    HW130784   3.231   4.839   8.242
 9781SOL    HW230785   3.362   4.913   8.232
 9782SOL     OW30786   3.293   4.361   8.473
 9782SOL    HW130787   3.278   4.267   8.463
 9782SOL    HW230788   3.388   4.370   8.483
 9783SOL     OW30789   2.353   5.161   7.617
 9783SOL    HW130790   2.273   5.116   7.646
 9783SOL    HW230791   2.390   5.104   7.550
 9784SOL     OW30792   3.520   4.976   8.157
 9784SOL    HW130793   3.609   4.955   8.129
 9784SOL    HW230794   3.500   5.058   8.113
 9785SOL     OW30795   2.375   3.992   7.768
 9785SOL    HW130796   2.422   3.936   7.705
 9785SOL    HW230797   2.354   4.071   7.718
 9786SOL     OW30798   2.917   5.097   8.801
 9786SOL    HW130799   2.841   5.053   8.837
 9786SOL    HW230800   2.992   5.045   8.831
 9787SOL     OW30801   3.464   5.368   9.111
 9787SOL    HW130802   3.457   5.401   9.022
 9787SOL    HW230803   3.550   5.327   9.116
 9788SOL     OW30804   3.004   4.968   8.544
 9788SOL    HW130805   2.921   4.960   8.589
 9788SOL    HW230806   2.981   4.983   8.452
 9789SOL     OW30807   2.780   3.820   8.839
 9789SOL    HW130808   2.800   3.795   8.749
 9789SOL    HW230809   2.851   3.878   8.864
 9790SOL     OW30810   2.852   4.829   9.173
 9790SOL    HW130811   2.760   4.841   9.194
 9790SOL    HW230812   2.854   4.756   9.112
 9791SOL     OW30813   2.561   4.784   7.822
 9791SOL    HW130814   2.557   4.759   7.914
 9791SOL    HW230815   2.639   4.740   7.788
 9792SOL     OW30816   2.274   4.549   8.721
 9792SOL    HW130817   2.349   4.554   8.779
 9792SOL    HW230818   2.250   4.456   8.719
 9793SOL     OW30819   3.149   4.093   8.735
 9793SOL    HW130820   3.244   4.097   8.745
 9793SOL    HW230821   3.135   4.093   8.640
 9794SOL     OW30822   1.948   5.296   8.805
 9794SOL    HW130823   1.929   5.368   8.745
 9794SOL    HW230824   2.043   5.284   8.799
 9795SOL     OW30825   2.184   4.841   7.939
 9795SOL    HW130826   2.209   4.905   7.872
 9795SOL    HW230827   2.188   4.757   7.895
 9796SOL     OW30828   2.402   4.264   8.311
 9796SOL    HW130829   2.409   4.325   8.238
 9796SOL    HW230830   2.486   4.269   8.356
 9797SOL     OW30831   3.119   5.067   7.849
 9797SOL    HW130832   3.172   5.141   7.877
 9797SOL    HW230833   3.030   5.090   7.876
 9798SOL     OW30834   3.150   5.197   8.601
 9798SOL    HW130835   3.203   5.191   8.680
 9798SOL    HW230836   3.103   5.114   8.596
 9799SOL     OW30837   2.213   5.250   8.756
 9799SOL    HW130838   2.201   5.209   8.670
 9799SOL    HW230839   2.307   5.264   8.764
 9800SOL     OW30840   2.282   4.461   9.056
 9800SOL    HW130841   2.345   4.506   8.999
 9800SOL    HW230842   2.321   4.375   9.073
 9801SOL     OW30843   2.850   3.856   9.163
 9801SOL    HW130844   2.886   3.904   9.088
 9801SOL    HW230845   2.893   3.771   9.158
 9802SOL     OW30846   2.360   3.748   9.211
 9802SOL    HW130847   2.315   3.702   9.140
 9802SOL    HW230848   2.309   3.828   9.224
 9803SOL     OW30849   2.418   4.633   8.476
 9803SOL    HW130850   2.489   4.697   8.477
 9803SOL    HW230851   2.401   4.615   8.569
 9804SOL     OW30852   3.148   4.588   8.493
 9804SOL    HW130853   3.185   4.623   8.411
 9804SOL    HW230854   3.196   4.507   8.508
 9805SOL     OW30855   2.159   3.912   8.689
 9805SOL    HW130856   2.128   3.941   8.775
 9805SOL    HW230857   2.143   3.818   8.688
 9806SOL     OW30858   1.869   5.040   8.726
 9806SOL    HW130859   1.914   4.977   8.783
 9806SOL    HW230860   1.901   5.126   8.755
 9807SOL     OW30861   2.591   4.352   8.503
 9807SOL    HW130862   2.666   4.318   8.455
 9807SOL    HW230863   2.581   4.442   8.470
 9808SOL     OW30864   3.559   4.679   9.349
 9808SOL    HW130865   3.628   4.702   9.286
 9808SOL    HW230866   3.498   4.625   9.299
 9809SOL     OW30867   2.156   3.775   8.079
 9809SOL    HW130868   2.143   3.868   8.098
 9809SOL    HW230869   2.179   3.736   8.164
 9810SOL     OW30870   2.866   4.489   8.438
 9810SOL    HW130871   2.959   4.509   8.450
 9810SOL    HW230872   2.866   4.411   8.384
 9811SOL     OW30873   2.828   5.273   9.176
 9811SOL    HW130874   2.818   5.316   9.092
 9811SOL    HW230875   2.887   5.199   9.158
 9812SOL     OW30876   3.720   5.287   9.075
 9812SOL    HW130877   3.744   5.298   8.983
 9812SOL    HW230878   3.784   5.224   9.109
 9813SOL     OW30879   2.212   4.639   9.254
 9813SOL    HW130880   2.291   4.660   9.303
 9813SOL    HW230881   2.240   4.575   9.189
 9814SOL     OW30882   3.378   3.961   7.589
 9814SOL    HW130883   3.296   4.010   7.587
 9814SOL    HW230884   3.445   4.027   7.601
 9815SOL     OW30885   2.914   5.071   8.299
 9815SOL    HW130886   2.915   4.993   8.243
 9815SOL    HW230887   2.983   5.127   8.264
 9816SOL     OW30888   2.173   4.539   8.394
 9816SOL    HW130889   2.264   4.566   8.404
 9816SOL    HW230890   2.173   4.446   8.417
 9817SOL     OW30891   2.183   4.265   8.460
 9817SOL    HW130892   2.149   4.176   8.448
 9817SOL    HW230893   2.262   4.268   8.407
 9818SOL     OW30894   3.006   3.959   8.937
 9818SOL    HW130895   3.081   3.981   8.992
 9818SOL    HW230896   3.023   4.005   8.855
 9819SOL     OW30897   1.857   5.050   7.665
 9819SOL    HW130898   1.770   5.066   7.628
 9819SOL    HW230899   1.858   4.956   7.685
 9820SOL     OW30900   1.948   5.509   8.383
 9820SOL    HW130901   1.920   5.425   8.347
 9820SOL    HW230902   2.040   5.516   8.359
 9821SOL     OW30903   2.355   5.305   8.351
 9821SOL    HW130904   2.429   5.358   8.379
 9821SOL    HW230905   2.392   5.242   8.290
 9822SOL     OW30906   2.815   4.555   8.705
 9822SOL    HW130907   2.871   4.497   8.757
 9822SOL    HW230908   2.822   4.520   8.616
 9823SOL     OW30909   1.902   4.282   8.565
 9823SOL    HW130910   1.975   4.270   8.504
 9823SOL    HW230911   1.943   4.276   8.652
 9824SOL     OW30912   2.076   4.242   9.179
 9824SOL    HW130913   2.144   4.209   9.121
 9824SOL    HW230914   2.038   4.316   9.131
 9825SOL     OW30915   2.674   4.266   7.809
 9825SOL    HW130916   2.708   4.212   7.738
 9825SOL    HW230917   2.606   4.320   7.768
 9826SOL     OW30918   2.089   5.269   9.175
 9826SOL    HW130919   2.081   5.315   9.258
 9826SOL    HW230920   2.105   5.178   9.199
 9827SOL     OW30921   2.531   4.186   8.707
 9827SOL    HW130922   2.499   4.106   8.666
 9827SOL    HW230923   2.546   4.246   8.634
 9828SOL     OW30924   2.744   5.402   8.943
 9828SOL    HW130925   2.749   5.346   8.865
 9828SOL    HW230926   2.794   5.480   8.919
 9829SOL     OW30927   2.307   4.217   7.636
 9829SOL    HW130928   2.379   4.279   7.649
 9829SOL    HW230929   2.230   4.273   7.623
 9830SOL     OW30930   1.988   4.866   8.915
 9830SOL    HW130931   2.004   4.824   8.999
 9830SOL    HW230932   2.009   4.799   8.850
 9831SOL     OW30933   3.154   4.791   8.691
 9831SOL    HW130934   3.171   4.709   8.644
 9831SOL    HW230935   3.115   4.848   8.625
 9832SOL     OW30936   3.649   5.462   8.614
 9832SOL    HW130937   3.706   5.482   8.539
 9832SOL    HW230938   3.606   5.380   8.589
 9833SOL     OW30939   3.104   5.468   8.571
 9833SOL    HW130940   3.185   5.493   8.527
 9833SOL    HW230941   3.111   5.374   8.583
 9834SOL     OW30942   1.912   5.029   8.442
 9834SOL    HW130943   1.900   5.014   8.536
 9834SOL    HW230944   1.882   4.948   8.401
 9835SOL     OW30945   2.557   5.403   9.194
 9835SOL    HW130946   2.505   5.478   9.164
 9835SOL    HW230947   2.633   5.401   9.135
 9836SOL     OW30948   3.547   3.766   7.979
 9836SOL    HW130949   3.600   3.846   7.972
 9836SOL    HW230950   3.585   3.707   7.913
 9837SOL     OW30951   3.254   5.292   7.943
 9837SOL    HW130952   3.312   5.323   7.873
 9837SOL    HW230953   3.204   5.370   7.968
 9838SOL     OW30954   1.982   5.540   9.296
 9838SOL    HW130955   1.945   5.460   9.335
 9838SOL    HW230956   2.040   5.574   9.364
 9839SOL     OW30957   3.128   4.699   8.137
 9839SOL    HW130958   3.187   4.628   8.160
 9839SOL    HW230959   3.169   4.741   8.061
 9840SOL     OW30960   2.665   5.010   8.866
 9840SOL    HW130961   2.630   5.054   8.943
 9840SOL    HW230962   2.592   5.009   8.804
 9841SOL     OW30963   2.532   5.374   7.608
 9841SOL    HW130964   2.560   5.381   7.516
 9841SOL    HW230965   2.493   5.286   7.613
 9842SOL     OW30966   3.477   5.463   8.845
 9842SOL    HW130967   3.542   5.458   8.775
 9842SOL    HW230968   3.462   5.557   8.858
 9843SOL     OW30969   2.121   4.028   8.169
 9843SOL    HW130970   2.038   4.070   8.148
 9843SOL    HW230971   2.126   4.030   8.265
 9844SOL     OW30972   3.059   5.326   7.482
 9844SOL    HW130973   3.046   5.238   7.517
 9844SOL    HW230974   3.002   5.330   7.406
 9845SOL     OW30975   2.665   4.733   8.836
 9845SOL    HW130976   2.721   4.688   8.772
 9845SOL    HW230977   2.692   4.825   8.832
 9846SOL     OW30978   2.776   4.662   7.728
 9846SOL    HW130979   2.840   4.679   7.659
 9846SOL    HW230980   2.814   4.591   7.779
 9847SOL     OW30981   3.330   5.403   7.488
 9847SOL    HW130982   3.242   5.368   7.471
 9847SOL    HW230983   3.375   5.395   7.404
 9848SOL     OW30984   2.211   5.039   8.955
 9848SOL    HW130985   2.223   5.102   8.884
 9848SOL    HW230986   2.144   4.979   8.922
 9849SOL     OW30987   3.410   5.044   8.728
 9849SOL    HW130988   3.458   4.984   8.786
 9849SOL    HW230989   3.371   5.108   8.788
 9850SOL     OW30990   2.899   4.842   8.167
 9850SOL    HW130991   2.834   4.776   8.190
 9850SOL    HW230992   2.977   4.792   8.144
 9851SOL     OW30993   2.844   3.975   8.444
 9851SOL    HW130994   2.833   3.934   8.358
 9851SOL    HW230995   2.871   3.904   8.502
 9852SOL     OW30996   2.461   5.209   7.920
 9852SOL    HW130997   2.529   5.156   7.879
 9852SOL    HW230998   2.394   5.218   7.852
 9853SOL     OW30999   2.121   5.057   7.729
 9853SOL    HW131000   2.027   5.060   7.706
 9853SOL    HW231001   2.125   5.096   7.816
 9854SOL     OW31002   1.982   4.773   9.183
 9854SOL    HW131003   1.906   4.738   9.230
 9854SOL    HW231004   2.056   4.721   9.215
 9855SOL     OW31005   2.535   3.916   8.956
 9855SOL    HW131006   2.617   3.901   8.909
 9855SOL    HW231007   2.562   3.950   9.041
 9856SOL     OW31008   1.930   4.088   7.488
 9856SOL    HW131009   1.862   4.053   7.431
 9856SOL    HW231010   1.981   4.147   7.433
 9857SOL     OW31011   1.926   3.880   7.736
 9857SOL    HW131012   1.914   3.950   7.672
 9857SOL    HW231013   2.013   3.844   7.717
 9858SOL     OW31014   3.003   5.082   7.595
 9858SOL    HW131015   3.010   5.004   7.540
 9858SOL    HW231016   3.050   5.060   7.675
 9859SOL     OW31017   2.480   4.550   8.892
 9859SOL    HW131018   2.535   4.626   8.876
 9859SOL    HW231019   2.540   4.476   8.893
 9860SOL     OW31020   3.346   5.534   8.454
 9860SOL    HW131021   3.379   5.575   8.375
 9860SOL    HW231022   3.407   5.462   8.472
 9861SOL     OW31023   2.554   4.288   9.165
 9861SOL    HW131024   2.607   4.355   9.208
 9861SOL    HW231025   2.594   4.205   9.193
 9862SOL     OW31026   2.231   5.468   9.022
 9862SOL    HW131027   2.146   5.510   9.010
 9862SOL    HW231028   2.211   5.381   9.055
 9863SOL     OW31029   2.421   4.469   8.132
 9863SOL    HW131030   2.481   4.540   8.109
 9863SOL    HW231031   2.367   4.457   8.054
 9864SOL     OW31032   2.670   5.125   7.483
 9864SOL    HW131033   2.726   5.106   7.558
 9864SOL    HW231034   2.726   5.173   7.422
 9865SOL     OW31035   2.542   5.507   8.392
 9865SOL    HW131036   2.550   5.577   8.327
 9865SOL    HW231037   2.629   5.468   8.395
 9866SOL     OW31038   2.714   4.685   8.309
 9866SOL    HW131039   2.765   4.612   8.344
 9866SOL    HW231040   2.689   4.736   8.385
 9867SOL     OW31041   2.947   4.728   7.520
 9867SOL    HW131042   2.907   4.770   7.444
 9867SOL    HW231043   3.024   4.682   7.485
 9868SOL     OW31044   3.699   5.283   8.288
 9868SOL    HW131045   3.626   5.273   8.226
 9868SOL    HW231046   3.715   5.194   8.320
 9869SOL     OW31047   2.076   5.012   9.292
 9869SOL    HW131048   2.038   4.935   9.249
 9869SOL    HW231049   2.034   5.014   9.378
 9870SOL     OW31050   1.964   4.945   8.112
 9870SOL    HW131051   1.997   4.900   8.189
 9870SOL    HW231052   2.019   4.915   8.040
 9871SOL     OW31053   2.534   5.141   9.068
 9871SOL    HW131054   2.468   5.095   9.118
 9871SOL    HW231055   2.550   5.222   9.117
 9872SOL     OW31056   2.268   4.163   7.966
 9872SOL    HW131057   2.316   4.105   7.906
 9872SOL    HW231058   2.241   4.107   8.038
 9873SOL     OW31059   3.515   5.233   8.554
 9873SOL    HW131060   3.468   5.205   8.474
 9873SOL    HW231061   3.492   5.167   8.619
 9874SOL     OW31062   2.202   4.280   8.737
 9874SOL    HW131063   2.272   4.231   8.780
 9874SOL    HW231064   2.216   4.263   8.644
 9875SOL     OW31065   2.679   5.320   8.127
 9875SOL    HW131066   2.681   5.356   8.039
 9875SOL    HW231067   2.615   5.250   8.123
 9876SOL     OW31068   2.868   3.726   8.591
 9876SOL    HW131069   2.821   3.677   8.523
 9876SOL    HW231070   2.958   3.692   8.588
 9877SOL     OW31071   2.641   5.050   7.802
 9877SOL    HW131072   2.616   4.958   7.794
 9877SOL    HW231073   2.735   5.048   7.822
 9878SOL     OW31074   2.480   5.295   8.727
 9878SOL    HW131075   2.481   5.382   8.766
 9878SOL    HW231076   2.571   5.279   8.701
 9879SOL     OW31077   3.222   3.715   7.550
 9879SOL    HW131078   3.288   3.783   7.567
 9879SOL    HW231079   3.189   3.692   7.637
 9880SOL     OW31080   1.902   4.787   7.758
 9880SOL    HW131081   1.995   4.781   7.734
 9880SOL    HW231082   1.876   4.697   7.775
 9881SOL     OW31083   2.745   5.383   7.810
 9881SOL    HW131084   2.681   5.369   7.740
 9881SOL    HW231085   2.720   5.468   7.848
 9882SOL     OW31086   2.085   4.360   9.438
 9882SOL    HW131087   1.995   4.340   9.461
 9882SOL    HW231088   2.091   4.336   9.345
 9883SOL     OW31089   2.080   4.015  10.307
 9883SOL    HW131090   2.112   3.975  10.388
 9883SOL    HW231091   1.993   3.979  10.295
 9884SOL     OW31092   1.863   4.108   9.950
 9884SOL    HW131093   1.780   4.130   9.992
 9884SOL    HW231094   1.844   4.034   9.894
 9885SOL     OW31095   2.432   5.026  10.502
 9885SOL    HW131096   2.351   5.032  10.451
 9885SOL    HW231097   2.451   5.117  10.527
 9886SOL     OW31098   3.443   5.252  10.014
 9886SOL    HW131099   3.395   5.220  10.091
 9886SOL    HW231100   3.377   5.253   9.945
 9887SOL     OW31101   2.996   4.460  10.012
 9887SOL    HW131102   3.072   4.404  10.025
 9887SOL    HW231103   2.959   4.470  10.100
 9888SOL     OW31104   3.599   4.290   9.591
 9888SOL    HW131105   3.577   4.321   9.503
 9888SOL    HW231106   3.658   4.217   9.577
 9889SOL     OW31107   2.599   4.859  10.358
 9889SOL    HW131108   2.538   4.902  10.418
 9889SOL    HW231109   2.640   4.930  10.309
 9890SOL     OW31110   2.743   4.480  11.133
 9890SOL    HW131111   2.737   4.554  11.193
 9890SOL    HW231112   2.764   4.520  11.048
 9891SOL     OW31113   2.556   4.721   9.950
 9891SOL    HW131114   2.626   4.717  10.014
 9891SOL    HW231115   2.489   4.775   9.990
 9892SOL     OW31116   2.575   4.878  11.142
 9892SOL    HW131117   2.627   4.953  11.168
 9892SOL    HW231118   2.503   4.915  11.091
 9893SOL     OW31119   2.194   5.137  10.375
 9893SOL    HW131120   2.121   5.096  10.329
 9893SOL    HW231121   2.239   5.189  10.309
 9894SOL     OW31122   3.322   5.222  10.680
 9894SOL    HW131123   3.377   5.300  10.682
 9894SOL    HW231124   3.254   5.239  10.745
 9895SOL     OW31125   2.311   4.121  10.801
 9895SOL    HW131126   2.389   4.065  10.800
 9895SOL    HW231127   2.238   4.060  10.808
 9896SOL     OW31128   3.464   4.196  10.055
 9896SOL    HW131129   3.418   4.171   9.975
 9896SOL    HW231130   3.513   4.274  10.031
 9897SOL     OW31131   2.082   5.443   9.775
 9897SOL    HW131132   2.108   5.516   9.831
 9897SOL    HW231133   2.156   5.432   9.715
 9898SOL     OW31134   3.002   5.064  11.006
 9898SOL    HW131135   3.052   5.047  11.086
 9898SOL    HW231136   2.953   4.983  10.991
 9899SOL     OW31137   2.094   5.173   9.844
 9899SOL    HW131138   2.078   5.268   9.842
 9899SOL    HW231139   2.038   5.141   9.915
 9900SOL     OW31140   2.126   4.815  10.193
 9900SOL    HW131141   2.134   4.726  10.228
 9900SOL    HW231142   2.072   4.861  10.257
 9901SOL     OW31143   2.453   5.521  10.737
 9901SOL    HW131144   2.372   5.505  10.785
 9901SOL    HW231145   2.479   5.610  10.762
 9902SOL     OW31146   2.429   4.711   9.454
 9902SOL    HW131147   2.481   4.750   9.383
 9902SOL    HW231148   2.474   4.740   9.534
 9903SOL     OW31149   3.453   3.848  10.775
 9903SOL    HW131150   3.492   3.912  10.715
 9903SOL    HW231151   3.433   3.899  10.853
 9904SOL     OW31152   1.973   4.382   9.872
 9904SOL    HW131153   1.955   4.290   9.892
 9904SOL    HW231154   1.970   4.427   9.956
 9905SOL     OW31155   3.702   5.478   9.638
 9905SOL    HW131156   3.778   5.454   9.692
 9905SOL    HW231157   3.722   5.566   9.606
 9906SOL     OW31158   1.906   5.316   9.429
 9906SOL    HW131159   1.894   5.222   9.446
 9906SOL    HW231160   1.879   5.359   9.510
 9907SOL     OW31161   3.563   4.654   9.957
 9907SOL    HW131162   3.603   4.579   9.912
 9907SOL    HW231163   3.532   4.711   9.887
 9908SOL     OW31164   3.514   4.831   9.748
 9908SOL    HW131165   3.592   4.824   9.693
 9908SOL    HW231166   3.535   4.902   9.809
 9909SOL     OW31167   1.985   4.468  10.894
 9909SOL    HW131168   2.074   4.503  10.890
 9909SOL    HW231169   1.929   4.545  10.880
 9910SOL     OW31170   2.471   5.115  10.052
 9910SOL    HW131171   2.432   5.028  10.053
 9910SOL    HW231172   2.461   5.145   9.962
 9911SOL     OW31173   3.141   4.956  10.737
 9911SOL    HW131174   3.164   4.890  10.672
 9911SOL    HW231175   3.210   4.950  10.803
 9912SOL     OW31176   2.688   3.743   9.851
 9912SOL    HW131177   2.728   3.821   9.812
 9912SOL    HW231178   2.594   3.755   9.840
 9913SOL     OW31179   2.045   4.682  10.597
 9913SOL    HW131180   2.132   4.646  10.585
 9913SOL    HW231181   1.993   4.647  10.524
 9914SOL     OW31182   3.337   4.663   9.526
 9914SOL    HW131183   3.336   4.596   9.457
 9914SOL    HW231184   3.427   4.695   9.527
 9915SOL     OW31185   3.032   5.535  10.941
 9915SOL    HW131186   3.042   5.600  10.871
 9915SOL    HW231187   3.054   5.452  10.900
 9916SOL     OW31188   2.206   3.967  11.158
 9916SOL    HW131189   2.250   4.051  11.168
 9916SOL    HW231190   2.113   3.986  11.168
 9917SOL     OW31191   3.320   5.154  10.242
 9917SOL    HW131192   3.260   5.162  10.316
 9917SOL    HW231193   3.317   5.061  10.218
 9918SOL     OW31194   3.505   5.499   9.883
 9918SOL    HW131195   3.499   5.464   9.794
 9918SOL    HW231196   3.495   5.424   9.940
 9919SOL     OW31197   2.457   4.440   9.575
 9919SOL    HW131198   2.460   4.521   9.523
 9919SOL    HW231199   2.393   4.459   9.644
 9920SOL     OW31200   3.126   4.072  10.232
 9920SOL    HW131201   3.039   4.037  10.252
 9920SOL    HW231202   3.184   4.031  10.296
 9921SOL     OW31203   3.437   5.402   9.621
 9921SOL    HW131204   3.531   5.417   9.611
 9921SOL    HW231205   3.405   5.385   9.532
 9922SOL     OW31206   2.639   4.342  10.757
 9922SOL    HW131207   2.617   4.310  10.844
 9922SOL    HW231208   2.614   4.270  10.698
 9923SOL     OW31209   3.249   4.201  10.986
 9923SOL    HW131210   3.258   4.245  11.071
 9923SOL    HW231211   3.307   4.125  10.992
 9924SOL     OW31212   2.812   4.603  10.897
 9924SOL    HW131213   2.864   4.534  10.857
 9924SOL    HW231214   2.762   4.640  10.825
 9925SOL     OW31215   2.854   4.132  10.536
 9925SOL    HW131216   2.760   4.141  10.555
 9925SOL    HW231217   2.857   4.093  10.449
 9926SOL     OW31218   2.843   4.436   9.773
 9926SOL    HW131219   2.895   4.382   9.832
 9926SOL    HW231220   2.788   4.374   9.726
 9927SOL     OW31221   1.948   4.539  10.097
 9927SOL    HW131222   2.033   4.536  10.142
 9927SOL    HW231223   1.907   4.619  10.130
 9928SOL     OW31224   1.981   5.601  10.893
 9928SOL    HW131225   1.983   5.579  10.987
 9928SOL    HW231226   1.902   5.559  10.860
 9929SOL     OW31227   2.771   4.067   9.500
 9929SOL    HW131228   2.799   4.147   9.455
 9929SOL    HW231229   2.826   3.998   9.463
 9930SOL     OW31230   3.554   4.297  11.146
 9930SOL    HW131231   3.528   4.372  11.093
 9930SOL    HW231232   3.586   4.232  11.083
 9931SOL     OW31233   3.251   4.861   9.824
 9931SOL    HW131234   3.332   4.843   9.775
 9931SOL    HW231235   3.208   4.931   9.775
 9932SOL     OW31236   2.402   3.891  10.204
 9932SOL    HW131237   2.412   3.934  10.289
 9932SOL    HW231238   2.417   3.960  10.140
 9933SOL     OW31239   2.867   5.178   9.793
 9933SOL    HW131240   2.837   5.243   9.729
 9933SOL    HW231241   2.829   5.207   9.876
 9934SOL     OW31242   2.217   5.541  10.187
 9934SOL    HW131243   2.263   5.458  10.191
 9934SOL    HW231244   2.285   5.607  10.200
 9935SOL     OW31245   3.672   4.777  10.185
 9935SOL    HW131246   3.630   4.747  10.104
 9935SOL    HW231247   3.603   4.772  10.250
 9936SOL     OW31248   3.081   5.267  10.827
 9936SOL    HW131249   3.077   5.190  10.883
 9936SOL    HW231250   3.033   5.242  10.748
 9937SOL     OW31251   2.167   4.682   9.562
 9937SOL    HW131252   2.251   4.704   9.522
 9937SOL    HW231253   2.142   4.599   9.521
 9938SOL     OW31254   3.306   4.506  10.053
 9938SOL    HW131255   3.297   4.411  10.054
 9938SOL    HW231256   3.390   4.522  10.010
 9939SOL     OW31257   2.322   5.009  11.062
 9939SOL    HW131258   2.302   5.012  10.969
 9939SOL    HW231259   2.238   4.993  11.105
 9940SOL     OW31260   2.986   5.502   9.540
 9940SOL    HW131261   2.912   5.458   9.581
 9940SOL    HW231262   3.013   5.443   9.470
 9941SOL     OW31263   2.068   3.987  10.808
 9941SOL    HW131264   1.994   4.046  10.812
 9941SOL    HW231265   2.036   3.905  10.846
 9942SOL     OW31266   3.480   5.117   9.408
 9942SOL    HW131267   3.496   5.152   9.320
 9942SOL    HW231268   3.411   5.052   9.395
 9943SOL     OW31269   2.322   5.461   9.628
 9943SOL    HW131270   2.375   5.512   9.689
 9943SOL    HW231271   2.386   5.421   9.568
 9944SOL     OW31272   2.122   5.512  10.531
 9944SOL    HW131273   2.170   5.437  10.564
 9944SOL    HW231274   2.108   5.493  10.438
 9945SOL     OW31275   2.809   5.424  10.203
 9945SOL    HW131276   2.897   5.386  10.206
 9945SOL    HW231277   2.764   5.375  10.134
 9946SOL     OW31278   2.257   4.422   9.783
 9946SOL    HW131279   2.275   4.329   9.794
 9946SOL    HW231280   2.162   4.430   9.793
 9947SOL     OW31281   3.383   3.956  11.031
 9947SOL    HW131282   3.389   3.973  11.125
 9947SOL    HW231283   3.323   3.882  11.024
 9948SOL     OW31284   2.495   3.822   9.441
 9948SOL    HW131285   2.581   3.779   9.440
 9948SOL    HW231286   2.455   3.796   9.358
 9949SOL     OW31287   2.625   4.003  11.068
 9949SOL    HW131288   2.708   3.955  11.064
 9949SOL    HW231289   2.581   3.969  11.146
 9950SOL     OW31290   2.732   5.243  10.508
 9950SOL    HW131291   2.723   5.209  10.419
 9950SOL    HW231292   2.807   5.196  10.544
 9951SOL     OW31293   3.196   4.318  10.741
 9951SOL    HW131294   3.231   4.287  10.825
 9951SOL    HW231295   3.240   4.401  10.726
 9952SOL     OW31296   2.686   5.107  10.253
 9952SOL    HW131297   2.771   5.096  10.210
 9952SOL    HW231298   2.624   5.118  10.182
 9953SOL     OW31299   2.781   4.234  10.207
 9953SOL    HW131300   2.762   4.228  10.113
 9953SOL    HW231301   2.816   4.149  10.230
 9954SOL     OW31302   2.417   3.788   9.809
 9954SOL    HW131303   2.333   3.786   9.855
 9954SOL    HW231304   2.411   3.864   9.751
 9955SOL     OW31305   3.259   4.920   9.387
 9955SOL    HW131306   3.333   4.865   9.411
 9955SOL    HW231307   3.195   4.860   9.348
 9956SOL     OW31308   2.153   3.768   9.496
 9956SOL    HW131309   2.197   3.832   9.440
 9956SOL    HW231310   2.224   3.714   9.531
 9957SOL     OW31311   2.799   3.979   9.769
 9957SOL    HW131312   2.782   4.009   9.680
 9957SOL    HW231313   2.893   3.995   9.781
 9958SOL     OW31314   2.939   4.403  10.765
 9958SOL    HW131315   2.885   4.325  10.755
 9958SOL    HW231316   3.029   4.371  10.754
 9959SOL     OW31317   3.066   5.316  10.120
 9959SOL    HW131318   3.084   5.372  10.045
 9959SOL    HW231319   3.152   5.303  10.161
 9960SOL     OW31320   2.336   4.876  10.030
 9960SOL    HW131321   2.269   4.853  10.094
 9960SOL    HW231322   2.294   4.864   9.945
 9961SOL     OW31323   3.119   5.521   9.927
 9961SOL    HW131324   3.171   5.575   9.868
 9961SOL    HW231325   3.051   5.580   9.960
 9962SOL     OW31326   2.850   4.297   9.379
 9962SOL    HW131327   2.803   4.361   9.325
 9962SOL    HW231328   2.937   4.336   9.391
 9963SOL     OW31329   1.955   4.269  10.710
 9963SOL    HW131330   2.046   4.272  10.678
 9963SOL    HW231331   1.949   4.340  10.773
 9964SOL     OW31332   2.419   3.954  10.478
 9964SOL    HW131333   2.463   3.875  10.508
 9964SOL    HW231334   2.328   3.944  10.506
 9965SOL     OW31335   2.726   4.186   9.942
 9965SOL    HW131336   2.685   4.237   9.873
 9965SOL    HW231337   2.753   4.104   9.900
 9966SOL     OW31338   2.835   3.804  10.085
 9966SOL    HW131339   2.797   3.794   9.997
 9966SOL    HW231340   2.845   3.714  10.117
 9967SOL     OW31341   3.322   4.891  10.160
 9967SOL    HW131342   3.258   4.829  10.126
 9967SOL    HW231343   3.384   4.903  10.088
 9968SOL     OW31344   3.297   4.329  10.334
 9968SOL    HW131345   3.300   4.258  10.270
 9968SOL    HW231346   3.378   4.320  10.383
 9969SOL     OW31347   3.708   4.544   9.707
 9969SOL    HW131348   3.766   4.484   9.755
 9969SOL    HW231349   3.676   4.492   9.633
 9970SOL     OW31350   2.350   5.152   9.464
 9970SOL    HW131351   2.275   5.112   9.507
 9970SOL    HW231352   2.369   5.095   9.389
 9971SOL     OW31353   3.533   4.988   9.985
 9971SOL    HW131354   3.629   4.980   9.979
 9971SOL    HW231355   3.517   5.082   9.974
 9972SOL     OW31356   2.381   3.988   9.629
 9972SOL    HW131357   2.427   3.935   9.563
 9972SOL    HW231358   2.357   4.068   9.582
 9973SOL     OW31359   3.610   4.967  10.885
 9973SOL    HW131360   3.696   4.931  10.862
 9973SOL    HW231361   3.628   5.059  10.905
 9974SOL     OW31362   2.916   5.092  10.658
 9974SOL    HW131363   2.839   5.050  10.696
 9974SOL    HW231364   2.990   5.039  10.687
 9975SOL     OW31365   3.472   5.356  10.975
 9975SOL    HW131366   3.459   5.389  10.886
 9975SOL    HW231367   3.552   5.304  10.970
 9976SOL     OW31368   3.005   4.957  10.414
 9976SOL    HW131369   2.928   4.980  10.466
 9976SOL    HW231370   2.979   4.977  10.324
 9977SOL     OW31371   3.480   4.807  10.384
 9977SOL    HW131372   3.463   4.870  10.454
 9977SOL    HW231373   3.411   4.825  10.319
 9978SOL     OW31374   2.778   3.811  10.698
 9978SOL    HW131375   2.798   3.790  10.607
 9978SOL    HW231376   2.858   3.851  10.732
 9979SOL     OW31377   2.843   4.836  11.032
 9979SOL    HW131378   2.751   4.848  11.052
 9979SOL    HW231379   2.846   4.759  10.976
 9980SOL     OW31380   2.575   4.782   9.678
 9980SOL    HW131381   2.560   4.760   9.770
 9980SOL    HW231382   2.662   4.746   9.659
 9981SOL     OW31383   2.281   4.551  10.568
 9981SOL    HW131384   2.353   4.559  10.631
 9981SOL    HW231385   2.253   4.460  10.575
 9982SOL     OW31386   3.120   4.087  10.606
 9982SOL    HW131387   3.158   4.169  10.637
 9982SOL    HW231388   3.034   4.112  10.572
 9983SOL     OW31389   1.941   5.296  10.668
 9983SOL    HW131390   1.909   5.363  10.607
 9983SOL    HW231391   2.036   5.295  10.655
 9984SOL     OW31392   2.189   4.846   9.796
 9984SOL    HW131393   2.195   4.916   9.732
 9984SOL    HW231394   2.190   4.766   9.744
 9985SOL     OW31395   2.402   4.263  10.176
 9985SOL    HW131396   2.412   4.321  10.101
 9985SOL    HW231397   2.480   4.279  10.230
 9986SOL     OW31398   3.113   5.073   9.725
 9986SOL    HW131399   3.169   5.148   9.746
 9986SOL    HW231400   3.024   5.104   9.742
 9987SOL     OW31401   3.158   5.188  10.459
 9987SOL    HW131402   3.214   5.185  10.536
 9987SOL    HW231403   3.109   5.105  10.462
 9988SOL     OW31404   3.460   4.403   9.815
 9988SOL    HW131405   3.386   4.441   9.767
 9988SOL    HW231406   3.520   4.372   9.747
 9989SOL     OW31407   2.210   5.255  10.615
 9989SOL    HW131408   2.199   5.208  10.532
 9989SOL    HW231409   2.305   5.267  10.623
 9990SOL     OW31410   2.281   4.467  10.915
 9990SOL    HW131411   2.343   4.513  10.857
 9990SOL    HW231412   2.319   4.380  10.927
 9991SOL     OW31413   3.477   4.513  11.001
 9991SOL    HW131414   3.390   4.552  10.988
 9991SOL    HW231415   3.529   4.548  10.929
 9992SOL     OW31416   2.858   3.860  11.073
 9992SOL    HW131417   2.915   3.934  11.050
 9992SOL    HW231418   2.905   3.783  11.041
 9993SOL     OW31419   2.356   3.754  11.069
 9993SOL    HW131420   2.310   3.705  11.001
 9993SOL    HW231421   2.302   3.831  11.084
 9994SOL     OW31422   2.457   4.599  10.344
 9994SOL    HW131423   2.498   4.686  10.343
 9994SOL    HW231424   2.396   4.603  10.418
 9995SOL     OW31425   3.205   4.582  10.345
 9995SOL    HW131426   3.178   4.593  10.254
 9995SOL    HW231427   3.240   4.493  10.349
 9996SOL     OW31428   3.065   4.277   9.616
 9996SOL    HW131429   3.077   4.184   9.634
 9996SOL    HW231430   3.105   4.291   9.530
 9997SOL     OW31431   2.158   3.914  10.555
 9997SOL    HW131432   2.125   3.945  10.639
 9997SOL    HW231433   2.138   3.820  10.555
 9998SOL     OW31434   1.898   5.034  10.584
 9998SOL    HW131435   1.937   4.979  10.652
 9998SOL    HW231436   1.910   5.124  10.616
 9999SOL     OW31437   2.588   4.353  10.368
 9999SOL    HW131438   2.660   4.335  10.308
 9999SOL    HW231439   2.560   4.441  10.345
10000SOL     OW31440   3.608   4.684  11.177
10000SOL    HW131441   3.569   4.619  11.118
10000SOL    HW231442   3.542   4.700  11.243
10001SOL     OW31443   2.168   3.776   9.937
10001SOL    HW131444   2.147   3.868   9.955
10001SOL    HW231445   2.182   3.738  10.024
10002SOL     OW31446   3.479   4.098   9.780
10002SOL    HW131447   3.424   4.041   9.727
10002SOL    HW231448   3.507   4.168   9.721
10003SOL     OW31449   2.877   4.488  10.262
10003SOL    HW131450   2.882   4.503  10.357
10003SOL    HW231451   2.858   4.395  10.254
10004SOL     OW31452   2.842   5.280  11.031
10004SOL    HW131453   2.821   5.329  10.951
10004SOL    HW231454   2.896   5.207  11.000
10005SOL     OW31455   3.710   5.228  10.914
10005SOL    HW131456   3.733   5.251  10.824
10005SOL    HW231457   3.792   5.238  10.962
10006SOL     OW31458   2.214   4.639  11.119
10006SOL    HW131459   2.295   4.655  11.167
10006SOL    HW231460   2.238   4.576  11.051
10007SOL     OW31461   2.942   5.068  10.160
10007SOL    HW131462   2.971   5.009  10.090
10007SOL    HW231463   2.987   5.151  10.141
10008SOL     OW31464   2.177   4.539  10.253
10008SOL    HW131465   2.270   4.553  10.233
10008SOL    HW231466   2.172   4.449  10.286
10009SOL     OW31467   2.183   4.261  10.326
10009SOL    HW131468   2.148   4.173  10.312
10009SOL    HW231469   2.261   4.265  10.271
10010SOL     OW31470   2.996   4.092  11.004
10010SOL    HW131471   2.950   4.150  11.065
10010SOL    HW231472   3.081   4.134  10.990
10011SOL     OW31473   3.017   3.914  10.792
10011SOL    HW131474   3.008   3.980  10.861
10011SOL    HW231475   3.061   3.959  10.721
10012SOL     OW31476   1.873   5.042   9.509
10012SOL    HW131477   1.784   5.060   9.477
10012SOL    HW231478   1.868   4.952   9.542
10013SOL     OW31479   1.955   5.503  10.258
10013SOL    HW131480   1.923   5.426  10.210
10013SOL    HW231481   2.043   5.518  10.223
10014SOL     OW31482   2.353   5.300  10.217
10014SOL    HW131483   2.424   5.359  10.241
10014SOL    HW231484   2.393   5.237  10.157
10015SOL     OW31485   2.823   4.520  10.539
10015SOL    HW131486   2.886   4.495  10.606
10015SOL    HW231487   2.750   4.459  10.550
10016SOL     OW31488   1.899   4.275  10.430
10016SOL    HW131489   1.974   4.272  10.371
10016SOL    HW231490   1.937   4.273  10.518
10017SOL     OW31491   2.062   4.249  11.043
10017SOL    HW131492   2.124   4.212  10.981
10017SOL    HW231493   2.025   4.325  10.998
10018SOL     OW31494   3.243   4.659  10.966
10018SOL    HW131495   3.267   4.751  10.958
10018SOL    HW231496   3.239   4.628  10.875
10019SOL     OW31497   2.655   4.268   9.674
10019SOL    HW131498   2.679   4.204   9.607
10019SOL    HW231499   2.590   4.323   9.632
10020SOL     OW31500   3.513   4.325  10.507
10020SOL    HW131501   3.502   4.255  10.571
10020SOL    HW231502   3.598   4.308  10.467
10021SOL     OW31503   2.097   5.269  11.037
10021SOL    HW131504   2.069   5.326  11.108
10021SOL    HW231505   2.100   5.181  11.075
10022SOL     OW31506   2.575   4.165  10.562
10022SOL    HW131507   2.520   4.094  10.530
10022SOL    HW231508   2.571   4.231  10.491
10023SOL     OW31509   2.753   5.409  10.799
10023SOL    HW131510   2.753   5.358  10.719
10023SOL    HW231511   2.761   5.500  10.770
10024SOL     OW31512   2.314   4.216   9.499
10024SOL    HW131513   2.380   4.284   9.514
10024SOL    HW231514   2.232   4.264   9.485
10025SOL     OW31515   2.000   4.870  10.787
10025SOL    HW131516   2.005   4.826  10.871
10025SOL    HW231517   2.016   4.801  10.723
10026SOL     OW31518   3.166   4.767  10.535
10026SOL    HW131519   3.187   4.700  10.469
10026SOL    HW231520   3.111   4.830  10.488
10027SOL     OW31521   3.117   4.558   9.660
10027SOL    HW131522   3.096   4.475   9.618
10027SOL    HW231523   3.186   4.596   9.606
10028SOL     OW31524   3.658   5.459  10.485
10028SOL    HW131525   3.713   5.483  10.411
10028SOL    HW231526   3.614   5.378  10.457
10029SOL     OW31527   3.105   5.461  10.429
10029SOL    HW131528   3.185   5.487  10.383
10029SOL    HW231529   3.114   5.366  10.440
10030SOL     OW31530   1.943   4.996  10.315
10030SOL    HW131531   1.920   5.004  10.408
10030SOL    HW231532   1.882   4.930  10.281
10031SOL     OW31533   2.557   5.407  11.027
10031SOL    HW131534   2.496   5.479  11.012
10031SOL    HW231535   2.622   5.415  10.958
10032SOL     OW31536   3.634   3.829   9.850
10032SOL    HW131537   3.579   3.878   9.788
10032SOL    HW231538   3.591   3.744   9.859
10033SOL     OW31539   3.262   5.295   9.808
10033SOL    HW131540   3.316   5.322   9.735
10033SOL    HW231541   3.206   5.371   9.825
10034SOL     OW31542   1.996   5.526  11.153
10034SOL    HW131543   1.951   5.454  11.197
10034SOL    HW231544   2.044   5.571  11.223
10035SOL     OW31545   3.139   4.713  10.006
10035SOL    HW131546   3.195   4.637  10.019
10035SOL    HW231547   3.185   4.765   9.940
10036SOL     OW31548   2.663   5.002  10.728
10036SOL    HW131549   2.632   5.043  10.809
10036SOL    HW231550   2.593   5.018  10.665
10037SOL     OW31551   2.528   5.359   9.468
10037SOL    HW131552   2.551   5.371   9.376
10037SOL    HW231553   2.479   5.277   9.471
10038SOL     OW31554   3.478   5.451  10.708
10038SOL    HW131555   3.536   5.451  10.632
10038SOL    HW231556   3.461   5.543  10.726
10039SOL     OW31557   3.706   3.891  10.282
10039SOL    HW131558   3.729   3.805  10.248
10039SOL    HW231559   3.623   3.912  10.239
10040SOL     OW31560   2.118   4.027  10.026
10040SOL    HW131561   2.034   4.067  10.002
10040SOL    HW231562   2.119   4.031  10.122
10041SOL     OW31563   3.061   5.330   9.344
10041SOL    HW131564   3.042   5.243   9.381
10041SOL    HW231565   3.003   5.337   9.269
10042SOL     OW31566   2.684   4.728  10.691
10042SOL    HW131567   2.731   4.704  10.611
10042SOL    HW231568   2.687   4.824  10.692
10043SOL     OW31569   2.824   4.675   9.643
10043SOL    HW131570   2.865   4.680   9.556
10043SOL    HW231571   2.817   4.581   9.660
10044SOL     OW31572   3.331   5.415   9.351
10044SOL    HW131573   3.247   5.370   9.338
10044SOL    HW231574   3.381   5.397   9.272
10045SOL     OW31575   2.226   5.038  10.813
10045SOL    HW131576   2.223   5.107  10.746
10045SOL    HW231577   2.154   4.980  10.791
10046SOL     OW31578   3.455   4.998  10.582
10046SOL    HW131579   3.542   5.000  10.622
10046SOL    HW231580   3.406   5.067  10.626
10047SOL     OW31581   2.870   3.971  10.296
10047SOL    HW131582   2.858   3.930  10.211
10047SOL    HW231583   2.873   3.898  10.358
10048SOL     OW31584   2.470   5.216   9.800
10048SOL    HW131585   2.527   5.163   9.745
10048SOL    HW231586   2.397   5.241   9.743
10049SOL     OW31587   3.600   4.107  10.699
10049SOL    HW131588   3.672   4.170  10.694
10049SOL    HW231589   3.624   4.038  10.637
10050SOL     OW31590   2.130   5.057   9.607
10050SOL    HW131591   2.040   5.058   9.576
10050SOL    HW231592   2.127   5.103   9.691
10051SOL     OW31593   1.983   4.773  11.048
10051SOL    HW131594   1.905   4.740  11.092
10051SOL    HW231595   2.055   4.719  11.081
10052SOL     OW31596   2.538   3.915  10.812
10052SOL    HW131597   2.620   3.896  10.767
10052SOL    HW231598   2.565   3.952  10.896
10053SOL     OW31599   1.938   4.064   9.339
10053SOL    HW131600   1.865   4.042   9.281
10053SOL    HW231601   1.983   4.135   9.294
10054SOL     OW31602   3.286   4.584  10.708
10054SOL    HW131603   3.233   4.641  10.652
10054SOL    HW231604   3.372   4.583  10.666
10055SOL     OW31605   1.922   3.879   9.597
10055SOL    HW131606   1.910   3.950   9.535
10055SOL    HW231607   2.010   3.845   9.578
10056SOL     OW31608   2.991   5.093   9.464
10056SOL    HW131609   2.965   5.014   9.417
10056SOL    HW231610   3.062   5.064   9.522
10057SOL     OW31611   2.480   4.559  10.750
10057SOL    HW131612   2.540   4.632  10.733
10057SOL    HW231613   2.537   4.482  10.752
10058SOL     OW31614   3.344   5.523  10.305
10058SOL    HW131615   3.371   5.582  10.234
10058SOL    HW231616   3.415   5.459  10.311
10059SOL     OW31617   2.574   4.279  11.014
10059SOL    HW131618   2.627   4.336  11.069
10059SOL    HW231619   2.597   4.190  11.042
10060SOL     OW31620   3.339   4.918  10.937
10060SOL    HW131621   3.335   4.933  11.032
10060SOL    HW231622   3.430   4.935  10.915
10061SOL     OW31623   2.227   5.470  10.885
10061SOL    HW131624   2.145   5.515  10.863
10061SOL    HW231625   2.198   5.385  10.919
10062SOL     OW31626   3.524   4.598  10.569
10062SOL    HW131627   3.522   4.510  10.531
10062SOL    HW231628   3.512   4.657  10.494
10063SOL     OW31629   3.071   4.037   9.811
10063SOL    HW131630   3.082   3.954   9.764
10063SOL    HW231631   3.160   4.072   9.819
10064SOL     OW31632   2.428   4.470   9.996
10064SOL    HW131633   2.485   4.544   9.974
10064SOL    HW231634   2.374   4.457   9.919
10065SOL     OW31635   3.616   4.088  10.975
10065SOL    HW131636   3.615   4.103  10.881
10065SOL    HW231637   3.539   4.034  10.992
10066SOL     OW31638   3.623   4.653  10.818
10066SOL    HW131639   3.606   4.747  10.828
10066SOL    HW231640   3.600   4.633  10.728
10067SOL     OW31641   2.683   5.108   9.344
10067SOL    HW131642   2.710   5.136   9.431
10067SOL    HW231643   2.732   5.165   9.285
10068SOL     OW31644   2.531   5.504  10.256
10068SOL    HW131645   2.514   5.593  10.227
10068SOL    HW231646   2.625   5.491  10.240
10069SOL     OW31647   2.741   4.707  10.154
10069SOL    HW131648   2.796   4.633  10.181
10069SOL    HW231649   2.706   4.742  10.236
10070SOL     OW31650   2.929   4.658   9.391
10070SOL    HW131651   2.936   4.710   9.311
10070SOL    HW231652   2.995   4.589   9.381
10071SOL     OW31653   3.713   5.275  10.157
10071SOL    HW131654   3.638   5.262  10.099
10071SOL    HW231655   3.734   5.187  10.188
10072SOL     OW31656   2.065   5.014  11.155
10072SOL    HW131657   2.034   4.936  11.110
10072SOL    HW231658   2.002   5.026  11.227
10073SOL     OW31659   1.957   4.949   9.974
10073SOL    HW131660   1.990   4.904  10.052
10073SOL    HW231661   2.016   4.921   9.904
10074SOL     OW31662   2.550   5.130  10.946
10074SOL    HW131663   2.464   5.101  10.976
10074SOL    HW231664   2.553   5.223  10.966
10075SOL     OW31665   3.665   3.890  10.551
10075SOL    HW131666   3.666   3.794  10.554
10075SOL    HW231667   3.679   3.911  10.459
10076SOL     OW31668   2.283   4.159   9.835
10076SOL    HW131669   2.323   4.097   9.774
10076SOL    HW231670   2.240   4.104   9.901
10077SOL     OW31671   3.533   5.229  10.416
10077SOL    HW131672   3.470   5.203  10.349
10077SOL    HW231673   3.553   5.148  10.462
10078SOL     OW31674   2.202   4.287  10.604
10078SOL    HW131675   2.260   4.230  10.654
10078SOL    HW231676   2.217   4.262  10.512
10079SOL     OW31677   2.691   5.317   9.981
10079SOL    HW131678   2.686   5.387   9.915
10079SOL    HW231679   2.617   5.260   9.961
10080SOL     OW31680   3.282   3.954  10.419
10080SOL    HW131681   3.299   3.863  10.442
10080SOL    HW231682   3.237   3.990  10.495
10081SOL     OW31683   2.867   3.729  10.443
10081SOL    HW131684   2.826   3.672  10.378
10081SOL    HW231685   2.956   3.696  10.450
10082SOL     OW31686   2.632   5.057   9.656
10082SOL    HW131687   2.606   4.966   9.645
10082SOL    HW231688   2.726   5.054   9.674
10083SOL     OW31689   2.482   5.283  10.603
10083SOL    HW131690   2.483   5.368  10.648
10083SOL    HW231691   2.569   5.275  10.565
10084SOL     OW31692   3.160   4.242  10.024
10084SOL    HW131693   3.100   4.205   9.959
10084SOL    HW231694   3.159   4.179  10.096
10085SOL     OW31695   3.457   3.948  10.194
10085SOL    HW131696   3.391   3.965  10.262
10085SOL    HW231697   3.457   4.027  10.140
10086SOL     OW31698   1.903   4.787   9.622
10086SOL    HW131699   1.995   4.779   9.598
10086SOL    HW231700   1.875   4.697   9.642
10087SOL     OW31701   2.747   5.387   9.653
10087SOL    HW131702   2.675   5.371   9.592
10087SOL    HW231703   2.720   5.464   9.703
10088SOL     OW31704   2.080   4.352  11.306
10088SOL    HW131705   1.990   4.343  11.337
10088SOL    HW231706   2.076   4.331  11.213
10089SOL     OW31707   2.086   4.013  12.169
10089SOL    HW131708   2.116   3.974  12.252
10089SOL    HW231709   1.997   3.980  12.158
10090SOL     OW31710   1.858   4.110  11.812
10090SOL    HW131711   1.778   4.137  11.856
10090SOL    HW231712   1.832   4.034  11.759
10091SOL     OW31713   2.405   4.977  12.339
10091SOL    HW131714   2.330   5.021  12.299
10091SOL    HW231715   2.416   5.021  12.424
10092SOL     OW31716   3.444   5.243  11.881
10092SOL    HW131717   3.400   5.217  11.962
10092SOL    HW231718   3.375   5.243  11.815
10093SOL     OW31719   2.995   4.427  11.865
10093SOL    HW131720   3.043   4.510  11.854
10093SOL    HW231721   2.946   4.439  11.946
10094SOL     OW31722   3.625   4.323  11.404
10094SOL    HW131723   3.603   4.322  11.311
10094SOL    HW231724   3.596   4.238  11.436
10095SOL     OW31725   2.616   4.854  12.229
10095SOL    HW131726   2.537   4.888  12.272
10095SOL    HW231727   2.649   4.928  12.178
10096SOL     OW31728   2.550   4.712  11.815
10096SOL    HW131729   2.617   4.706  11.884
10096SOL    HW231730   2.482   4.767  11.852
10097SOL     OW31731   2.200   5.135  12.232
10097SOL    HW131732   2.122   5.094  12.196
10097SOL    HW231733   2.234   5.190  12.161
10098SOL     OW31734   3.467   4.161  11.918
10098SOL    HW131735   3.409   4.183  11.845
10098SOL    HW231736   3.465   4.238  11.975
10099SOL     OW31737   2.074   5.439  11.643
10099SOL    HW131738   2.097   5.515  11.697
10099SOL    HW231739   2.144   5.434  11.577
10100SOL     OW31740   2.121   5.176  11.731
10100SOL    HW131741   2.083   5.263  11.725
10100SOL    HW231742   2.058   5.126  11.783
10101SOL     OW31743   2.138   4.816  12.058
10101SOL    HW131744   2.134   4.727  12.093
10101SOL    HW231745   2.078   4.867  12.113
10102SOL     OW31746   2.434   4.710  11.317
10102SOL    HW131747   2.484   4.754  11.248
10102SOL    HW231748   2.476   4.737  11.398
10103SOL     OW31749   1.982   4.381  11.735
10103SOL    HW131750   1.951   4.292  11.756
10103SOL    HW231751   1.974   4.429  11.817
10104SOL     OW31752   3.703   5.476  11.504
10104SOL    HW131753   3.777   5.453  11.560
10104SOL    HW231754   3.720   5.567  11.477
10105SOL     OW31755   1.917   5.310  11.293
10105SOL    HW131756   1.890   5.219  11.309
10105SOL    HW231757   1.881   5.359  11.367
10106SOL     OW31758   3.555   4.644  11.823
10106SOL    HW131759   3.635   4.596  11.800
10106SOL    HW231760   3.533   4.692  11.744
10107SOL     OW31761   3.513   4.825  11.606
10107SOL    HW131762   3.599   4.823  11.563
10107SOL    HW231763   3.523   4.889  11.676
10108SOL     OW31764   2.460   5.124  11.881
10108SOL    HW131765   2.449   5.029  11.892
10108SOL    HW231766   2.376   5.155  11.848
10109SOL     OW31767   2.686   3.732  11.692
10109SOL    HW131768   2.727   3.814  11.663
10109SOL    HW231769   2.592   3.751  11.692
10110SOL     OW31770   2.059   4.669  12.482
10110SOL    HW131771   2.136   4.636  12.436
10110SOL    HW231772   1.988   4.661  12.419
10111SOL     OW31773   3.392   4.727  11.374
10111SOL    HW131774   3.324   4.668  11.406
10111SOL    HW231775   3.437   4.756  11.454
10112SOL     OW31776   3.321   5.144  12.107
10112SOL    HW131777   3.259   5.156  12.179
10112SOL    HW231778   3.311   5.051  12.083
10113SOL     OW31779   3.504   5.494  11.747
10113SOL    HW131780   3.495   5.455  11.660
10113SOL    HW231781   3.499   5.421  11.808
10114SOL     OW31782   2.456   4.437  11.446
10114SOL    HW131783   2.457   4.520  11.398
10114SOL    HW231784   2.390   4.449  11.514
10115SOL     OW31785   3.145   4.100  12.109
10115SOL    HW131786   3.057   4.062  12.111
10115SOL    HW231787   3.197   4.044  12.167
10116SOL     OW31788   3.438   5.399  11.484
10116SOL    HW131789   3.531   5.419  11.477
10116SOL    HW231790   3.409   5.382  11.395
10117SOL     OW31791   2.841   4.073  12.387
10117SOL    HW131792   2.800   4.139  12.443
10117SOL    HW231793   2.787   4.072  12.308
10118SOL     OW31794   2.918   4.422  11.594
10118SOL    HW131795   2.937   4.416  11.688
10118SOL    HW231796   2.834   4.377  11.584
10119SOL     OW31797   1.953   4.545  11.953
10119SOL    HW131798   2.032   4.541  12.006
10119SOL    HW231799   1.904   4.620  11.988
10120SOL     OW31800   2.766   4.073  11.369
10120SOL    HW131801   2.804   4.140  11.312
10120SOL    HW231802   2.777   3.991  11.320
10121SOL     OW31803   3.245   4.864  11.705
10121SOL    HW131804   3.326   4.850  11.656
10121SOL    HW231805   3.195   4.925  11.651
10122SOL     OW31806   2.414   3.904  12.063
10122SOL    HW131807   2.416   3.957  12.143
10122SOL    HW231808   2.411   3.968  11.992
10123SOL     OW31809   2.866   5.178  11.642
10123SOL    HW131810   2.802   5.242  11.609
10123SOL    HW231811   2.859   5.184  11.737
10124SOL     OW31812   2.218   5.541  12.040
10124SOL    HW131813   2.263   5.457  12.050
10124SOL    HW231814   2.283   5.607  12.063
10125SOL     OW31815   3.663   4.779  12.053
10125SOL    HW131816   3.615   4.755  11.973
10125SOL    HW231817   3.597   4.783  12.121
10126SOL     OW31818   2.170   4.683  11.425
10126SOL    HW131819   2.253   4.702  11.382
10126SOL    HW231820   2.142   4.599  11.387
10127SOL     OW31821   3.341   4.484  11.892
10127SOL    HW131822   3.343   4.438  11.976
10127SOL    HW231823   3.423   4.534  11.890
10128SOL     OW31824   2.981   5.506  11.392
10128SOL    HW131825   2.974   5.449  11.469
10128SOL    HW231826   3.005   5.446  11.321
10129SOL     OW31827   3.492   5.114  11.279
10129SOL    HW131828   3.454   5.196  11.250
10129SOL    HW231829   3.430   5.046  11.251
10130SOL     OW31830   2.378   5.442  11.499
10130SOL    HW131831   2.389   5.508  11.566
10130SOL    HW231832   2.418   5.480  11.420
10131SOL     OW31833   3.260   3.828  11.619
10131SOL    HW131834   3.252   3.805  11.527
10131SOL    HW231835   3.355   3.836  11.633
10132SOL     OW31836   2.106   5.507  12.393
10132SOL    HW131837   2.111   5.432  12.453
10132SOL    HW231838   2.063   5.473  12.315
10133SOL     OW31839   2.807   5.420  12.067
10133SOL    HW131840   2.891   5.373  12.076
10133SOL    HW231841   2.757   5.369  12.004
10134SOL     OW31842   2.258   4.417  11.646
10134SOL    HW131843   2.275   4.324  11.658
10134SOL    HW231844   2.164   4.427  11.660
10135SOL     OW31845   2.512   3.835  11.277
10135SOL    HW131846   2.579   3.768  11.285
10135SOL    HW231847   2.456   3.805  11.205
10136SOL     OW31848   2.669   5.084  12.094
10136SOL    HW131849   2.762   5.090  12.071
10136SOL    HW231850   2.623   5.106  12.013
10137SOL     OW31851   2.790   4.230  12.067
10137SOL    HW131852   2.763   4.222  11.975
10137SOL    HW231853   2.828   4.144  12.087
10138SOL     OW31854   2.418   3.787  11.666
10138SOL    HW131855   2.336   3.787  11.716
10138SOL    HW231856   2.410   3.863  11.608
10139SOL     OW31857   3.299   4.930  11.212
10139SOL    HW131858   3.328   4.852  11.260
10139SOL    HW231859   3.211   4.947  11.245
10140SOL     OW31860   2.148   3.770  11.357
10140SOL    HW131861   2.197   3.835  11.306
10140SOL    HW231862   2.215   3.714  11.395
10141SOL     OW31863   2.807   3.973  11.625
10141SOL    HW131864   2.783   4.009  11.540
10141SOL    HW231865   2.901   3.988  11.632
10142SOL     OW31866   3.072   5.305  11.968
10142SOL    HW131867   3.091   5.368  11.898
10142SOL    HW231868   3.153   5.301  12.019
10143SOL     OW31869   2.341   4.875  11.889
10143SOL    HW131870   2.277   4.855  11.957
10143SOL    HW231871   2.293   4.862  11.807
10144SOL     OW31872   3.119   5.515  11.781
10144SOL    HW131873   3.171   5.578  11.730
10144SOL    HW231874   3.053   5.570  11.824
10145SOL     OW31875   2.886   4.256  11.204
10145SOL    HW131876   2.845   4.338  11.179
10145SOL    HW231877   2.957   4.281  11.263
10146SOL     OW31878   2.428   3.938  12.351
10146SOL    HW131879   2.447   3.849  12.322
10146SOL    HW231880   2.334   3.937  12.372
10147SOL     OW31881   2.725   4.180  11.805
10147SOL    HW131882   2.687   4.236  11.737
10147SOL    HW231883   2.753   4.101  11.759
10148SOL     OW31884   2.878   3.773  11.914
10148SOL    HW131885   2.820   3.769  11.838
10148SOL    HW231886   2.855   3.695  11.966
10149SOL     OW31887   3.302   4.881  12.024
10149SOL    HW131888   3.236   4.812  12.012
10149SOL    HW231889   3.342   4.892  11.938
10150SOL     OW31890   3.324   4.337  12.130
10150SOL    HW131891   3.268   4.259  12.133
10150SOL    HW231892   3.385   4.326  12.203
10151SOL     OW31893   3.696   4.533  11.562
10151SOL    HW131894   3.758   4.484  11.616
10151SOL    HW231895   3.671   4.471  11.493
10152SOL     OW31896   2.345   5.129  11.321
10152SOL    HW131897   2.265   5.101  11.364
10152SOL    HW231898   2.346   5.082  11.237
10153SOL     OW31899   3.543   4.985  11.821
10153SOL    HW131900   3.638   4.980  11.832
10153SOL    HW231901   3.522   5.078  11.836
10154SOL     OW31902   3.257   4.302  11.242
10154SOL    HW131903   3.201   4.273  11.314
10154SOL    HW231904   3.344   4.271  11.265
10155SOL     OW31905   2.388   3.984  11.481
10155SOL    HW131906   2.438   3.940  11.413
10155SOL    HW231907   2.359   4.066  11.440
10156SOL     OW31908   2.965   4.962  12.291
10156SOL    HW131909   2.885   4.986  12.337
10156SOL    HW231910   2.951   4.992  12.201
10157SOL     OW31911   3.467   4.817  12.247
10157SOL    HW131912   3.433   4.852  12.329
10157SOL    HW231913   3.399   4.838  12.182
10158SOL     OW31914   2.571   4.780  11.547
10158SOL    HW131915   2.558   4.753  11.638
10158SOL    HW231916   2.648   4.730  11.518
10159SOL     OW31917   2.313   4.545  12.438
10159SOL    HW131918   2.355   4.584  12.515
10159SOL    HW231919   2.341   4.453  12.440
10160SOL     OW31920   3.109   4.082  12.434
10160SOL    HW131921   3.139   4.168  12.465
10160SOL    HW231922   3.017   4.095  12.413
10161SOL     OW31923   2.192   4.846  11.658
10161SOL    HW131924   2.184   4.915  11.592
10161SOL    HW231925   2.193   4.765  11.607
10162SOL     OW31926   2.402   4.249  12.033
10162SOL    HW131927   2.414   4.307  11.958
10162SOL    HW231928   2.469   4.275  12.096
10163SOL     OW31929   3.110   5.074  11.563
10163SOL    HW131930   3.169   5.142  11.595
10163SOL    HW231931   3.024   5.100  11.594
10164SOL     OW31932   3.149   5.171  12.316
10164SOL    HW131933   3.208   5.172  12.391
10164SOL    HW231934   3.094   5.094  12.329
10165SOL     OW31935   3.440   4.332  11.666
10165SOL    HW131936   3.387   4.391  11.720
10165SOL    HW231937   3.487   4.391  11.606
10166SOL     OW31938   2.236   5.258  12.471
10166SOL    HW131939   2.209   5.207  12.395
10166SOL    HW231940   2.296   5.324  12.436
10167SOL     OW31941   2.451   4.604  12.202
10167SOL    HW131942   2.488   4.692  12.203
10167SOL    HW231943   2.398   4.600  12.282
10168SOL     OW31944   3.192   4.581  12.174
10168SOL    HW131945   3.111   4.557  12.128
10168SOL    HW231946   3.246   4.502  12.168
10169SOL     OW31947   3.065   4.248  11.435
10169SOL    HW131948   3.072   4.169  11.489
10169SOL    HW231949   3.021   4.312  11.492
10170SOL     OW31950   2.164   3.903  12.414
10170SOL    HW131951   2.145   3.921  12.506
10170SOL    HW231952   2.144   3.810  12.402
10171SOL     OW31953   1.937   5.048  12.442
10171SOL    HW131954   1.934   4.976  12.505
10171SOL    HW231955   1.931   5.127  12.496
10172SOL     OW31956   2.578   4.352  12.217
10172SOL    HW131957   2.656   4.337  12.163
10172SOL    HW231958   2.553   4.443  12.197
10173SOL     OW31959   2.173   3.784  11.794
10173SOL    HW131960   2.146   3.873  11.813
10173SOL    HW231961   2.181   3.742  11.879
10174SOL     OW31962   3.483   4.098  11.530
10174SOL    HW131963   3.518   4.034  11.592
10174SOL    HW231964   3.460   4.173  11.585
10175SOL     OW31965   2.885   4.478  12.133
10175SOL    HW131966   2.882   4.487  12.228
10175SOL    HW231967   2.860   4.386  12.117
10176SOL     OW31968   3.377   3.997  11.297
10176SOL    HW131969   3.318   3.928  11.328
10176SOL    HW231970   3.416   4.032  11.377
10177SOL     OW31971   3.148   4.550  11.199
10177SOL    HW131972   3.190   4.464  11.203
10177SOL    HW231973   3.180   4.589  11.117
10178SOL     OW31974   2.932   5.069  12.034
10178SOL    HW131975   2.941   4.995  11.974
10178SOL    HW231976   2.990   5.136  11.998
10179SOL     OW31977   2.173   4.542  12.124
10179SOL    HW131978   2.267   4.557  12.114
10179SOL    HW231979   2.165   4.450  12.147
10180SOL     OW31980   2.172   4.268  12.170
10180SOL    HW131981   2.143   4.177  12.174
10180SOL    HW231982   2.253   4.266  12.120
10181SOL     OW31983   3.036   3.939   0.156
10181SOL    HW131984   3.025   4.005   0.225
10181SOL    HW231985   3.060   3.989   0.078
10182SOL     OW31986   1.879   5.034  11.362
10182SOL    HW131987   1.790   5.053  11.332
10182SOL    HW231988   1.874   4.946  11.399
10183SOL     OW31989   1.957   5.503  12.118
10183SOL    HW131990   1.924   5.427  12.069
10183SOL    HW231991   2.045   5.517  12.084
10184SOL     OW31992   2.364   5.307  12.079
10184SOL    HW131993   2.429   5.372  12.105
10184SOL    HW231994   2.415   5.238  12.037
10185SOL     OW31995   2.839   4.508  12.408
10185SOL    HW131996   2.884   4.579  12.454
10185SOL    HW231997   2.747   4.519  12.430
10186SOL     OW31998   1.906   4.304  12.255
10186SOL    HW131999   1.982   4.290  12.199
10186SOL    HW232000   1.941   4.305  12.344
10187SOL     OW32001   2.679   4.292  11.543
10187SOL    HW132002   2.688   4.220  11.481
10187SOL    HW232003   2.605   4.343  11.510
10188SOL     OW32004   3.512   4.324  12.328
10188SOL    HW132005   3.512   4.273  12.408
10188SOL    HW232006   3.602   4.320  12.296
10189SOL     OW32007   2.570   4.176  12.426
10189SOL    HW132008   2.514   4.103  12.399
10189SOL    HW232009   2.565   4.239  12.355
10190SOL     OW32010   2.752   5.375   0.043
10190SOL    HW132011   2.752   5.444  -0.023
10190SOL    HW232012   2.803   5.410   0.116
10191SOL     OW32013   2.315   4.214  11.355
10191SOL    HW132014   2.378   4.283  11.376
10191SOL    HW232015   2.231   4.260  11.346
10192SOL     OW32016   3.143   4.760  12.372
10192SOL    HW132017   3.167   4.703  12.299
10192SOL    HW232018   3.092   4.830  12.331
10193SOL     OW32019   3.176   4.580  11.474
10193SOL    HW132020   3.103   4.540  11.520
10193SOL    HW232021   3.156   4.566  11.381
10194SOL     OW32022   3.613   5.475  12.297
10194SOL    HW132023   3.687   5.490  12.238
10194SOL    HW232024   3.600   5.380  12.295
10195SOL     OW32025   3.109   5.443  12.278
10195SOL    HW132026   3.189   5.478  12.238
10195SOL    HW232027   3.124   5.349  12.284
10196SOL     OW32028   1.963   4.988  12.180
10196SOL    HW132029   1.946   5.013  12.271
10196SOL    HW232030   1.884   4.941  12.153
10197SOL     OW32031   3.594   3.887  11.676
10197SOL    HW132032   3.659   3.871  11.608
10197SOL    HW232033   3.575   3.801  11.713
10198SOL     OW32034   3.256   5.292  11.667
10198SOL    HW132035   3.316   5.323  11.599
10198SOL    HW232036   3.210   5.370  11.696
10199SOL     OW32037   3.140   4.661  11.850
10199SOL    HW132038   3.212   4.599  11.860
10199SOL    HW232039   3.174   4.727  11.789
10200SOL     OW32040   2.548   5.313  11.284
10200SOL    HW132041   2.571   5.356  11.202
10200SOL    HW232042   2.471   5.260  11.264
10201SOL     OW32043   3.483   5.511   0.035
10201SOL    HW132044   3.535   5.501  -0.045
10201SOL    HW232045   3.527   5.579   0.084
10202SOL     OW32046   3.705   3.893  12.145
10202SOL    HW132047   3.736   3.807  12.118
10202SOL    HW232048   3.619   3.902  12.103
10203SOL     OW32049   2.115   4.033  11.885
10203SOL    HW132050   2.030   4.069  11.861
10203SOL    HW232051   2.117   4.035  11.981
10204SOL     OW32052   3.065   5.322  11.209
10204SOL    HW132053   3.059   5.229  11.228
10204SOL    HW232054   3.007   5.334  11.134
10205SOL     OW32055   2.650   4.738  12.490
10205SOL    HW132056   2.657   4.783  12.406
10205SOL    HW232057   2.730   4.762  12.537
10206SOL     OW32058   2.786   4.641  11.469
10206SOL    HW132059   2.842   4.671  11.398
10206SOL    HW232060   2.834   4.569  11.510
10207SOL     OW32061   3.346   5.368  11.219
10207SOL    HW132062   3.255   5.348  11.199
10207SOL    HW232063   3.389   5.369  11.134
10208SOL     OW32064   2.926   4.841  11.889
10208SOL    HW132065   2.854   4.787  11.921
10208SOL    HW232066   2.993   4.779  11.862
10209SOL     OW32067   2.893   3.968  12.115
10209SOL    HW132068   2.890   3.910  12.039
10209SOL    HW232069   2.889   3.910  12.190
10210SOL     OW32070   3.626   4.159   0.032
10210SOL    HW132071   3.715   4.158   0.067
10210SOL    HW232072   3.612   4.070   0.001
10211SOL     OW32073   2.135   5.064  11.484
10211SOL    HW132074   2.047   5.060  11.447
10211SOL    HW232075   2.124   5.107  11.568
10212SOL     OW32076   1.942   4.053  11.196
10212SOL    HW132077   1.861   4.036  11.147
10212SOL    HW232078   1.979   4.131  11.154
10213SOL     OW32079   1.919   3.877  11.464
10213SOL    HW132080   1.905   3.953  11.408
10213SOL    HW232081   2.005   3.844  11.440
10214SOL     OW32082   3.046   5.051  11.291
10214SOL    HW132083   2.959   5.012  11.291
10214SOL    HW232084   3.072   5.052  11.383
10215SOL     OW32085   3.352   5.517  12.164
10215SOL    HW132086   3.377   5.582  12.099
10215SOL    HW232087   3.434   5.489  12.204
10216SOL     OW32088   3.542   4.594  12.407
10216SOL    HW132089   3.521   4.509  12.369
10216SOL    HW232090   3.518   4.657  12.340
10217SOL     OW32091   3.076   4.040  11.631
10217SOL    HW132092   3.139   3.968  11.625
10217SOL    HW232093   3.106   4.092  11.705
10218SOL     OW32094   2.439   4.456  11.853
10218SOL    HW132095   2.486   4.538  11.835
10218SOL    HW232096   2.378   4.446  11.780
10219SOL     OW32097   3.681   4.610   0.136
10219SOL    HW132098   3.663   4.696   0.173
10219SOL    HW232099   3.623   4.604   0.060
10220SOL     OW32100   2.725   5.102  11.214
10220SOL    HW132101   2.676   5.171  11.260
10220SOL    HW232102   2.765   5.146  11.139
10221SOL     OW32103   2.528   5.520  12.123
10221SOL    HW132104   2.510   5.609  12.092
10221SOL    HW232105   2.623   5.510  12.112
10222SOL     OW32106   2.734   4.693  12.025
10222SOL    HW132107   2.782   4.618  12.060
10222SOL    HW232108   2.698   4.737  12.102
10223SOL     OW32109   2.938   4.715  11.260
10223SOL    HW132110   2.915   4.762  11.179
10223SOL    HW232111   3.012   4.659  11.235
10224SOL     OW32112   3.715   5.276  12.014
10224SOL    HW132113   3.631   5.262  11.971
10224SOL    HW232114   3.727   5.198  12.068
10225SOL     OW32115   1.964   4.957  11.833
10225SOL    HW132116   1.969   4.915  11.919
10225SOL    HW232117   2.023   4.907  11.777
10226SOL     OW32118   3.664   3.901  12.418
10226SOL    HW132119   3.694   3.811  12.426
10226SOL    HW232120   3.672   3.921  12.324
10227SOL     OW32121   2.290   4.156  11.698
10227SOL    HW132122   2.321   4.088  11.638
10227SOL    HW232123   2.238   4.109  11.762
10228SOL     OW32124   3.565   5.212  12.283
10228SOL    HW132125   3.489   5.170  12.243
10228SOL    HW232126   3.598   5.148  12.345
10229SOL     OW32127   2.679   5.298  11.855
10229SOL    HW132128   2.668   5.351  11.777
10229SOL    HW232129   2.605   5.237  11.853
10230SOL     OW32130   3.303   3.960  12.291
10230SOL    HW132131   3.367   3.921  12.350
10230SOL    HW232132   3.237   3.998  12.349
10231SOL     OW32133   2.861   3.699  12.308
10231SOL    HW132134   2.828   3.653  12.230
10231SOL    HW232135   2.954   3.676  12.311
10232SOL     OW32136   2.619   5.049  11.539
10232SOL    HW132137   2.598   4.956  11.534
10232SOL    HW232138   2.713   5.052  11.554
10233SOL     OW32139   3.221   3.772  11.353
10233SOL    HW132140   3.256   3.708  11.292
10233SOL    HW232141   3.131   3.743  11.370
10234SOL     OW32142   3.152   4.189  11.847
10234SOL    HW132143   3.103   4.271  11.851
10234SOL    HW232144   3.153   4.157  11.937
10235SOL     OW32145   3.446   3.914  12.057
10235SOL    HW132146   3.390   3.940  12.129
10235SOL    HW232147   3.446   3.990  11.998
10236SOL     OW32148   1.907   4.784  11.484
10236SOL    HW132149   1.998   4.771  11.458
10236SOL    HW232150   1.876   4.697  11.506
10237SOL     OW32151   2.673   5.365  11.552
10237SOL    HW132152   2.683   5.378  11.458
10237SOL    HW232153   2.686   5.452  11.590
10238SOL     OW32154   2.132   6.183   0.027
10238SOL    HW132155   2.095   6.233   0.100
10238SOL    HW232156   2.067   6.190  -0.043
10239SOL     OW32157   2.086   5.871   0.994
10239SOL    HW132158   2.115   5.836   1.078
10239SOL    HW232159   1.997   5.836   0.982
10240SOL     OW32160   1.855   5.971   0.637
10240SOL    HW132161   1.779   6.002   0.685
10240SOL    HW232162   1.826   5.890   0.595
10241SOL     OW32163   2.434   6.889   1.190
10241SOL    HW132164   2.347   6.892   1.150
10241SOL    HW232165   2.449   6.979   1.220
10242SOL     OW32166   3.412   7.121   0.709
10242SOL    HW132167   3.388   7.095   0.798
10242SOL    HW232168   3.328   7.124   0.662
10243SOL     OW32169   2.996   6.281   0.692
10243SOL    HW132170   3.041   6.365   0.683
10243SOL    HW232171   2.947   6.288   0.774
10244SOL     OW32172   3.576   6.222   0.209
10244SOL    HW132173   3.597   6.159   0.139
10244SOL    HW232174   3.521   6.172   0.269
10245SOL     OW32175   2.600   6.721   1.048
10245SOL    HW132176   2.537   6.759   1.109
10245SOL    HW232177   2.643   6.796   1.008
10246SOL     OW32178   2.742   6.341   1.829
10246SOL    HW132179   2.736   6.408   1.898
10246SOL    HW232180   2.762   6.390   1.750
10247SOL     OW32181   2.548   6.581   0.644
10247SOL    HW132182   2.615   6.574   0.712
10247SOL    HW232183   2.480   6.636   0.682
10248SOL     OW32184   2.574   6.731   1.819
10248SOL    HW132185   2.620   6.808   1.853
10248SOL    HW232186   2.494   6.767   1.780
10249SOL     OW32187   2.194   6.998   1.068
10249SOL    HW132188   2.119   6.956   1.026
10249SOL    HW232189   2.235   7.049   0.998
10250SOL     OW32190   3.318   7.086   1.361
10250SOL    HW132191   3.378   7.160   1.372
10250SOL    HW232192   3.252   7.098   1.430
10251SOL     OW32193   2.309   5.976   1.471
10251SOL    HW132194   2.384   5.921   1.494
10251SOL    HW232195   2.232   5.924   1.495
10252SOL     OW32196   3.455   6.030   0.749
10252SOL    HW132197   3.374   6.037   0.698
10252SOL    HW232198   3.445   6.092   0.821
10253SOL     OW32199   2.073   7.310   0.471
10253SOL    HW132200   2.098   7.384   0.527
10253SOL    HW232201   2.151   7.295   0.417
10254SOL     OW32202   3.000   6.927   1.697
10254SOL    HW132203   3.042   6.920   1.783
10254SOL    HW232204   2.947   6.848   1.689
10255SOL     OW32205   2.091   7.039   0.546
10255SOL    HW132206   2.063   7.131   0.552
10255SOL    HW232207   2.036   6.994   0.611
10256SOL     OW32208   2.140   6.678   0.895
10256SOL    HW132209   2.133   6.588   0.928
10256SOL    HW232210   2.078   6.728   0.949
10257SOL     OW32211   2.450   7.388   1.415
10257SOL    HW132212   2.375   7.364   1.469
10257SOL    HW232213   2.478   7.473   1.450
10258SOL     OW32214   2.440   6.547   0.153
10258SOL    HW132215   2.506   6.564   0.086
10258SOL    HW232216   2.471   6.593   0.230
10259SOL     OW32217   3.452   5.727   1.460
10259SOL    HW132218   3.475   5.809   1.414
10259SOL    HW232219   3.430   5.755   1.549
10260SOL     OW32220   1.980   6.236   0.561
10260SOL    HW132221   1.950   6.148   0.584
10260SOL    HW232222   1.974   6.285   0.642
10261SOL     OW32223   3.697   7.328   0.420
10261SOL    HW132224   3.786   7.306   0.445
10261SOL    HW232225   3.705   7.408   0.368
10262SOL     OW32226   1.893   7.114   0.126
10262SOL    HW132227   1.806   7.076   0.116
10262SOL    HW232228   1.881   7.188   0.185
10263SOL     OW32229   3.548   6.517   0.664
10263SOL    HW132230   3.630   6.468   0.656
10263SOL    HW232231   3.534   6.555   0.578
10264SOL     OW32232   3.512   6.708   0.432
10264SOL    HW132233   3.588   6.706   0.374
10264SOL    HW232234   3.530   6.781   0.492
10265SOL     OW32235   1.990   6.332   1.581
10265SOL    HW132236   2.080   6.363   1.587
10265SOL    HW232237   1.936   6.411   1.584
10266SOL     OW32238   2.485   6.980   0.734
10266SOL    HW132239   2.441   6.895   0.745
10266SOL    HW232240   2.468   7.004   0.643
10267SOL     OW32241   3.144   6.818   1.416
10267SOL    HW132242   3.177   6.750   1.359
10267SOL    HW232243   3.200   6.815   1.493
10268SOL     OW32244   2.688   5.607   0.521
10268SOL    HW132245   2.724   5.693   0.499
10268SOL    HW232246   2.593   5.621   0.526
10269SOL     OW32247   2.050   6.546   1.282
10269SOL    HW132248   2.136   6.508   1.268
10269SOL    HW232249   1.991   6.494   1.227
10270SOL     OW32250   3.415   6.547   0.232
10270SOL    HW132251   3.332   6.506   0.256
10270SOL    HW232252   3.435   6.607   0.304
10271SOL     OW32253   3.033   7.392   1.612
10271SOL    HW132254   3.085   7.443   1.550
10271SOL    HW232255   3.053   7.301   1.590
10272SOL     OW32256   2.215   5.856   1.826
10272SOL    HW132257   2.254   5.928   1.875
10272SOL    HW232258   2.124   5.855   1.853
10273SOL     OW32259   3.339   6.995   0.945
10273SOL    HW132260   3.272   7.016   1.010
10273SOL    HW232261   3.315   6.907   0.914
10274SOL     OW32262   2.443   6.295   0.278
10274SOL    HW132263   2.449   6.382   0.239
10274SOL    HW232264   2.378   6.304   0.348
10275SOL     OW32265   3.139   5.957   0.931
10275SOL    HW132266   3.051   5.921   0.941
10275SOL    HW232267   3.193   5.903   0.990
10276SOL     OW32268   3.447   7.224   0.315
10276SOL    HW132269   3.507   7.294   0.289
10276SOL    HW232270   3.412   7.190   0.233
10277SOL     OW32271   2.651   6.206   1.441
10277SOL    HW132272   2.629   6.180   1.531
10277SOL    HW232273   2.622   6.134   1.387
10278SOL     OW32274   3.256   6.057   1.680
10278SOL    HW132275   3.260   6.101   1.765
10278SOL    HW232276   3.309   5.978   1.692
10279SOL     OW32277   2.811   6.469   1.590
10279SOL    HW132278   2.867   6.402   1.550
10279SOL    HW232279   2.760   6.505   1.517
10280SOL     OW32280   2.862   5.997   1.223
10280SOL    HW132281   2.772   6.010   1.253
10280SOL    HW232282   2.854   5.944   1.144
10281SOL     OW32283   2.913   6.290   0.426
10281SOL    HW132284   2.931   6.282   0.520
10281SOL    HW232285   2.829   6.247   0.413
10282SOL     OW32286   1.957   6.403   0.775
10282SOL    HW132287   2.035   6.399   0.830
10282SOL    HW232288   1.908   6.478   0.808
10283SOL     OW32289   1.986   7.460   1.585
10283SOL    HW132290   1.990   7.440   1.679
10283SOL    HW232291   1.905   7.418   1.556
10284SOL     OW32292   2.748   5.945   0.221
10284SOL    HW132293   2.781   6.013   0.162
10284SOL    HW232294   2.741   5.867   0.166
10285SOL     OW32295   3.565   6.150   1.830
10285SOL    HW132296   3.531   6.225   1.782
10285SOL    HW232297   3.593   6.089   1.762
10286SOL     OW32298   3.253   6.736   0.556
10286SOL    HW132299   3.329   6.724   0.499
10286SOL    HW232300   3.194   6.792   0.505
10287SOL     OW32301   2.410   5.763   0.893
10287SOL    HW132302   2.412   5.794   0.983
10287SOL    HW232303   2.413   5.843   0.840
10288SOL     OW32304   2.857   7.028   0.472
10288SOL    HW132305   2.824   7.103   0.423
10288SOL    HW232306   2.832   7.044   0.563
10289SOL     OW32307   2.214   7.398   0.872
10289SOL    HW132308   2.257   7.312   0.878
10289SOL    HW232309   2.283   7.460   0.895
10290SOL     OW32310   3.660   6.649   0.882
10290SOL    HW132311   3.606   6.617   0.810
10290SOL    HW232312   3.599   6.655   0.956
10291SOL     OW32313   3.084   7.124   1.516
10291SOL    HW132314   3.075   7.054   1.581
10291SOL    HW232315   3.019   7.102   1.449
10292SOL     OW32316   2.174   6.570   0.262
10292SOL    HW132317   2.254   6.575   0.209
10292SOL    HW232318   2.136   6.485   0.240
10293SOL     OW32319   3.340   6.338   0.722
10293SOL    HW132320   3.336   6.293   0.806
10293SOL    HW232321   3.416   6.396   0.729
10294SOL     OW32322   2.337   6.857   1.736
10294SOL    HW132323   2.310   6.861   1.644
10294SOL    HW232324   2.255   6.852   1.785
10295SOL     OW32325   2.968   7.372   0.245
10295SOL    HW132326   2.906   7.328   0.304
10295SOL    HW232327   3.003   7.301   0.191
10296SOL     OW32328   2.063   5.850   1.502
10296SOL    HW132329   1.984   5.900   1.523
10296SOL    HW232330   2.046   5.763   1.538
10297SOL     OW32331   3.513   6.991   0.098
10297SOL    HW132332   3.451   7.058   0.066
10297SOL    HW232333   3.462   6.910   0.100
10298SOL     OW32334   2.313   7.320   0.325
10298SOL    HW132335   2.361   7.374   0.388
10298SOL    HW232336   2.380   7.277   0.272
10299SOL     OW32337   3.270   5.697   0.444
10299SOL    HW132338   3.266   5.662   0.355
10299SOL    HW232339   3.363   5.690   0.468
10300SOL     OW32340   2.118   7.373   1.226
10300SOL    HW132341   2.166   7.303   1.269
10300SOL    HW232342   2.113   7.346   1.135
10301SOL     OW32343   2.797   7.288   0.898
10301SOL    HW132344   2.867   7.236   0.938
10301SOL    HW232345   2.764   7.232   0.827
10302SOL     OW32346   2.253   6.279   0.479
10302SOL    HW132347   2.271   6.185   0.490
10302SOL    HW232348   2.162   6.289   0.506
10303SOL     OW32349   3.392   5.809   1.725
10303SOL    HW132350   3.400   5.835   1.817
10303SOL    HW232351   3.342   5.727   1.729
10304SOL     OW32352   2.490   5.708   0.118
10304SOL    HW132353   2.582   5.684   0.121
10304SOL    HW232354   2.479   5.755   0.036
10305SOL     OW32355   2.620   5.867   1.754
10305SOL    HW132356   2.703   5.819   1.750
10305SOL    HW232357   2.579   5.837   1.835
10306SOL     OW32358   2.739   7.114   1.193
10306SOL    HW132359   2.718   7.069   1.111
10306SOL    HW232360   2.805   7.058   1.235
10307SOL     OW32361   3.200   6.176   1.438
10307SOL    HW132362   3.231   6.143   1.522
10307SOL    HW232363   3.240   6.263   1.431
10308SOL     OW32364   2.684   6.972   0.951
10308SOL    HW132365   2.769   6.961   0.907
10308SOL    HW232366   2.621   6.979   0.880
10309SOL     OW32367   2.793   6.099   0.896
10309SOL    HW132368   2.767   6.088   0.805
10309SOL    HW232369   2.820   6.012   0.924
10310SOL     OW32370   2.414   5.642   0.503
10310SOL    HW132371   2.335   5.642   0.557
10310SOL    HW232372   2.406   5.721   0.449
10311SOL     OW32373   3.330   6.792   0.079
10311SOL    HW132374   3.335   6.700   0.105
10311SOL    HW232375   3.236   6.812   0.080
10312SOL     OW32376   2.173   5.664   0.204
10312SOL    HW132377   2.253   5.717   0.205
10312SOL    HW232378   2.202   5.577   0.232
10313SOL     OW32379   2.810   5.846   0.465
10313SOL    HW132380   2.783   5.880   0.380
10313SOL    HW232381   2.905   5.855   0.466
10314SOL     OW32382   2.944   6.274   1.451
10314SOL    HW132383   2.882   6.202   1.462
10314SOL    HW232384   3.030   6.232   1.451
10315SOL     OW32385   3.096   7.152   0.790
10315SOL    HW132386   3.100   7.227   0.730
10315SOL    HW232387   3.138   7.184   0.870
10316SOL     OW32388   2.342   6.745   0.728
10316SOL    HW132389   2.277   6.723   0.795
10316SOL    HW232390   2.295   6.735   0.645
10317SOL     OW32391   3.120   7.376   0.613
10317SOL    HW132392   3.172   7.443   0.568
10317SOL    HW232393   3.048   7.424   0.654
10318SOL     OW32394   2.873   6.154   0.097
10318SOL    HW132395   2.879   6.218   0.026
10318SOL    HW232396   2.955   6.163   0.145
10319SOL     OW32397   1.948   6.143   1.389
10319SOL    HW132398   2.040   6.140   1.364
10319SOL    HW232399   1.943   6.210   1.457
10320SOL     OW32400   2.417   5.820   1.165
10320SOL    HW132401   2.461   5.743   1.201
10320SOL    HW232402   2.327   5.814   1.197
10321SOL     OW32403   2.728   6.049   0.638
10321SOL    HW132404   2.686   6.104   0.571
10321SOL    HW232405   2.752   5.969   0.592
10322SOL     OW32406   2.879   5.632   0.745
10322SOL    HW132407   2.816   5.620   0.674
10322SOL    HW232408   2.861   5.560   0.805
10323SOL     OW32409   3.285   6.743   0.845
10323SOL    HW132410   3.230   6.670   0.873
10323SOL    HW232411   3.276   6.745   0.750
10324SOL     OW32412   3.326   6.192   0.960
10324SOL    HW132413   3.264   6.121   0.971
10324SOL    HW232414   3.383   6.187   1.037
10325SOL     OW32415   3.658   6.384   0.412
10325SOL    HW132416   3.724   6.345   0.469
10325SOL    HW232417   3.640   6.316   0.347
10326SOL     OW32418   2.350   6.989   0.173
10326SOL    HW132419   2.285   6.944   0.227
10326SOL    HW232420   2.299   7.032   0.105
10327SOL     OW32421   3.580   6.912   0.604
10327SOL    HW132422   3.663   6.872   0.632
10327SOL    HW232423   3.528   6.918   0.684
10328SOL     OW32424   3.260   6.136   0.082
10328SOL    HW132425   3.206   6.137   0.162
10328SOL    HW232426   3.308   6.053   0.088
10329SOL     OW32427   2.387   5.845   0.327
10329SOL    HW132428   2.439   5.797   0.262
10329SOL    HW232429   2.365   5.927   0.283
10330SOL     OW32430   3.605   6.828   1.548
10330SOL    HW132431   3.692   6.788   1.546
10330SOL    HW232432   3.620   6.917   1.581
10331SOL     OW32433   2.914   6.939   1.329
10331SOL    HW132434   2.837   6.907   1.377
10331SOL    HW232435   2.988   6.896   1.371
10332SOL     OW32436   3.468   7.210   1.657
10332SOL    HW132437   3.467   7.247   1.568
10332SOL    HW232438   3.549   7.159   1.660
10333SOL     OW32439   3.001   6.801   1.099
10333SOL    HW132440   2.943   6.838   1.166
10333SOL    HW232441   2.970   6.837   1.017
10334SOL     OW32442   3.482   6.684   1.083
10334SOL    HW132443   3.482   6.744   1.157
10334SOL    HW232444   3.398   6.700   1.039
10335SOL     OW32445   2.777   5.704   1.376
10335SOL    HW132446   2.802   5.676   1.288
10335SOL    HW232447   2.859   5.735   1.415
10336SOL     OW32448   2.843   6.704   1.719
10336SOL    HW132449   2.753   6.718   1.747
10336SOL    HW232450   2.840   6.623   1.668
10337SOL     OW32451   2.575   6.651   0.373
10337SOL    HW132452   2.558   6.628   0.465
10337SOL    HW232453   2.653   6.601   0.350
10338SOL     OW32454   2.286   6.408   1.252
10338SOL    HW132455   2.352   6.418   1.320
10338SOL    HW232456   2.251   6.319   1.265
10339SOL     OW32457   3.128   5.962   1.283
10339SOL    HW132458   3.159   6.039   1.331
10339SOL    HW232459   3.037   5.983   1.260
10340SOL     OW32460   1.939   7.160   1.362
10340SOL    HW132461   1.911   7.230   1.303
10340SOL    HW232462   2.034   7.156   1.353
10341SOL     OW32463   2.202   6.714   0.497
10341SOL    HW132464   2.188   6.789   0.439
10341SOL    HW232465   2.203   6.638   0.438
10342SOL     OW32466   2.405   6.111   0.856
10342SOL    HW132467   2.420   6.171   0.783
10342SOL    HW232468   2.472   6.135   0.921
10343SOL     OW32469   3.107   6.932   0.403
10343SOL    HW132470   3.159   7.007   0.434
10343SOL    HW232471   3.018   6.950   0.433
10344SOL     OW32472   3.159   7.047   1.145
10344SOL    HW132473   3.214   7.057   1.223
10344SOL    HW232474   3.105   6.970   1.162
10345SOL     OW32475   3.428   6.214   0.483
10345SOL    HW132476   3.375   6.235   0.560
10345SOL    HW232477   3.472   6.296   0.462
10346SOL     OW32478   2.207   7.117   1.308
10346SOL    HW132479   2.197   7.070   1.226
10346SOL    HW232480   2.302   7.128   1.317
10347SOL     OW32481   2.283   6.332   1.608
10347SOL    HW132482   2.346   6.373   1.549
10347SOL    HW232483   2.323   6.248   1.630
10348SOL     OW32484   3.475   6.365   1.691
10348SOL    HW132485   3.389   6.406   1.688
10348SOL    HW232486   3.526   6.410   1.623
10349SOL     OW32487   2.849   5.722   1.739
10349SOL    HW132488   2.914   5.791   1.727
10349SOL    HW232489   2.892   5.643   1.707
10350SOL     OW32490   2.358   5.638   1.742
10350SOL    HW132491   2.291   5.573   1.722
10350SOL    HW232492   2.309   5.718   1.762
10351SOL     OW32493   2.449   6.460   1.033
10351SOL    HW132494   2.484   6.549   1.039
10351SOL    HW232495   2.393   6.452   1.110
10352SOL     OW32496   3.196   6.445   1.005
10352SOL    HW132497   3.106   6.420   0.984
10352SOL    HW232498   3.246   6.364   1.001
10353SOL     OW32499   3.080   6.126   0.286
10353SOL    HW132500   3.092   6.049   0.341
10353SOL    HW232501   3.025   6.185   0.337
10354SOL     OW32502   2.158   5.782   1.246
10354SOL    HW132503   2.121   5.812   1.329
10354SOL    HW232504   2.141   5.687   1.245
10355SOL     OW32505   1.915   6.899   1.269
10355SOL    HW132506   1.942   6.841   1.340
10355SOL    HW232507   1.915   6.986   1.309
10356SOL     OW32508   2.578   6.211   1.047
10356SOL    HW132509   2.657   6.200   0.993
10356SOL    HW232510   2.550   6.301   1.032
10357SOL     OW32511   3.603   6.550   1.859
10357SOL    HW132512   3.562   6.477   1.814
10357SOL    HW232513   3.545   6.568   1.933
10358SOL     OW32514   2.168   5.645   0.629
10358SOL    HW132515   2.145   5.736   0.650
10358SOL    HW232516   2.179   5.604   0.715
10359SOL     OW32517   3.484   5.967   0.368
10359SOL    HW132518   3.513   5.898   0.427
10359SOL    HW232519   3.458   6.039   0.425
10360SOL     OW32520   2.896   6.344   0.961
10360SOL    HW132521   2.880   6.361   1.053
10360SOL    HW232522   2.867   6.254   0.947
10361SOL     OW32523   2.842   7.149   1.729
10361SOL    HW132524   2.823   7.191   1.645
10361SOL    HW232525   2.883   7.066   1.706
10362SOL     OW32526   3.709   7.080   1.603
10362SOL    HW132527   3.734   7.112   1.516
10362SOL    HW232528   3.788   7.094   1.657
10363SOL     OW32529   2.212   6.511   1.806
10363SOL    HW132530   2.289   6.525   1.862
10363SOL    HW232531   2.241   6.445   1.742
10364SOL     OW32532   3.362   5.885   0.137
10364SOL    HW132533   3.324   5.799   0.153
10364SOL    HW232534   3.409   5.907   0.217
10365SOL     OW32535   3.160   6.390   0.048
10365SOL    HW132536   3.204   6.305   0.045
10365SOL    HW232537   3.195   6.437  -0.029
10366SOL     OW32538   2.932   6.930   0.853
10366SOL    HW132539   2.940   6.855   0.794
10366SOL    HW232540   2.995   6.994   0.819
10367SOL     OW32541   2.173   6.396   0.945
10367SOL    HW132542   2.267   6.415   0.944
10367SOL    HW232543   2.168   6.306   0.976
10368SOL     OW32544   2.183   6.119   1.009
10368SOL    HW132545   2.148   6.031   1.000
10368SOL    HW232546   2.261   6.120   0.953
10369SOL     OW32547   2.998   5.958   1.685
10369SOL    HW132548   2.951   6.010   1.751
10369SOL    HW232549   3.086   5.996   1.684
10370SOL     OW32550   3.022   5.785   1.472
10370SOL    HW132551   3.012   5.848   1.544
10370SOL    HW232552   3.071   5.832   1.405
10371SOL     OW32553   1.948   7.364   0.939
10371SOL    HW132554   1.918   7.286   0.893
10371SOL    HW232555   2.038   7.377   0.909
10372SOL     OW32556   2.350   7.158   0.900
10372SOL    HW132557   2.419   7.220   0.924
10372SOL    HW232558   2.393   7.095   0.843
10373SOL     OW32559   2.826   6.372   1.223
10373SOL    HW132560   2.888   6.353   1.293
10373SOL    HW232561   2.744   6.331   1.250
10374SOL     OW32562   1.901   6.144   1.116
10374SOL    HW132563   1.983   6.138   1.068
10374SOL    HW232564   1.926   6.141   1.208
10375SOL     OW32565   2.046   6.113   1.739
10375SOL    HW132566   2.110   6.069   1.683
10375SOL    HW232567   2.016   6.188   1.687
10376SOL     OW32568   3.246   6.514   1.657
10376SOL    HW132569   3.266   6.608   1.654
10376SOL    HW232570   3.243   6.487   1.565
10377SOL     OW32571   2.673   6.166   0.380
10377SOL    HW132572   2.684   6.090   0.322
10377SOL    HW232573   2.596   6.210   0.345
10378SOL     OW32574   3.502   6.189   1.170
10378SOL    HW132575   3.492   6.130   1.246
10378SOL    HW232576   3.591   6.174   1.139
10379SOL     OW32577   2.095   7.131   1.723
10379SOL    HW132578   2.076   7.190   1.796
10379SOL    HW232579   2.107   7.045   1.764
10380SOL     OW32580   2.582   6.028   1.248
10380SOL    HW132581   2.521   5.958   1.225
10380SOL    HW232582   2.572   6.092   1.178
10381SOL     OW32583   2.771   7.261   1.483
10381SOL    HW132584   2.750   7.226   1.396
10381SOL    HW232585   2.782   7.355   1.468
10382SOL     OW32586   2.327   6.062   0.183
10382SOL    HW132587   2.376   6.139   0.211
10382SOL    HW232588   2.260   6.096   0.124
10383SOL     OW32589   2.000   6.731   1.475
10383SOL    HW132590   2.003   6.687   1.560
10383SOL    HW232591   2.018   6.662   1.411
10384SOL     OW32592   3.183   6.627   1.209
10384SOL    HW132593   3.196   6.562   1.141
10384SOL    HW232594   3.117   6.686   1.174
10385SOL     OW32595   3.175   6.448   0.317
10385SOL    HW132596   3.106   6.412   0.372
10385SOL    HW232597   3.156   6.414   0.230
10386SOL     OW32598   3.603   7.318   1.122
10386SOL    HW132599   3.681   7.346   1.073
10386SOL    HW232600   3.599   7.223   1.109
10387SOL     OW32601   3.096   7.309   1.075
10387SOL    HW132602   3.183   7.343   1.054
10387SOL    HW232603   3.113   7.221   1.110
10388SOL     OW32604   1.952   6.854   1.005
10388SOL    HW132605   1.934   6.868   1.098
10388SOL    HW232606   1.884   6.794   0.976
10389SOL     OW32607   2.546   7.261   1.744
10389SOL    HW132608   2.489   7.336   1.731
10389SOL    HW232609   2.621   7.277   1.687
10390SOL     OW32610   2.762   5.683   0.099
10390SOL    HW132611   2.817   5.709   0.025
10390SOL    HW232612   2.822   5.638   0.159
10391SOL     OW32613   3.588   5.743   0.506
10391SOL    HW132614   3.655   5.717   0.443
10391SOL    HW232615   3.565   5.662   0.552
10392SOL     OW32616   3.241   7.160   0.489
10392SOL    HW132617   3.293   7.200   0.420
10392SOL    HW232618   3.190   7.233   0.526
10393SOL     OW32619   2.000   7.388   1.845
10393SOL    HW132620   1.954   7.317   1.889
10393SOL    HW232621   2.050   7.432   1.914
10394SOL     OW32622   3.137   6.512   0.664
10394SOL    HW132623   3.210   6.453   0.681
10394SOL    HW232624   3.176   6.585   0.615
10395SOL     OW32625   2.660   6.866   1.415
10395SOL    HW132626   2.634   6.909   1.496
10395SOL    HW232627   2.583   6.875   1.358
10396SOL     OW32628   2.520   7.197   0.186
10396SOL    HW132629   2.580   7.192   0.112
10396SOL    HW232630   2.470   7.115   0.182
10397SOL     OW32631   3.490   7.299   1.384
10397SOL    HW132632   3.535   7.300   1.299
10397SOL    HW232633   3.461   7.390   1.397
10398SOL     OW32634   3.710   5.753   0.961
10398SOL    HW132635   3.737   5.663   0.943
10398SOL    HW232636   3.621   5.759   0.925
10399SOL     OW32637   2.113   5.897   0.715
10399SOL    HW132638   2.027   5.932   0.694
10399SOL    HW232639   2.116   5.894   0.811
10400SOL     OW32640   3.060   7.189   0.070
10400SOL    HW132641   3.061   7.096   0.091
10400SOL    HW232642   3.006   7.195  -0.009
10401SOL     OW32643   2.685   6.594   1.380
10401SOL    HW132644   2.731   6.583   1.297
10401SOL    HW232645   2.682   6.688   1.393
10402SOL     OW32646   2.796   6.516   0.297
10402SOL    HW132647   2.853   6.532   0.221
10402SOL    HW232648   2.834   6.440   0.341
10403SOL     OW32649   3.334   7.181   0.040
10403SOL    HW132650   3.242   7.206   0.042
10403SOL    HW232651   3.381   7.263   0.025
10404SOL     OW32652   2.228   6.892   1.492
10404SOL    HW132653   2.213   6.968   1.436
10404SOL    HW232654   2.150   6.838   1.479
10405SOL     OW32655   3.472   6.868   1.288
10405SOL    HW132656   3.524   6.850   1.366
10405SOL    HW232657   3.410   6.936   1.315
10406SOL     OW32658   2.931   6.697   0.714
10406SOL    HW132659   2.856   6.650   0.751
10406SOL    HW232660   2.993   6.628   0.690
10407SOL     OW32661   2.886   5.829   0.960
10407SOL    HW132662   2.883   5.782   0.877
10407SOL    HW232663   2.880   5.761   1.027
10408SOL     OW32664   2.466   7.065   0.475
10408SOL    HW132665   2.506   7.015   0.404
10408SOL    HW232666   2.380   7.090   0.441
10409SOL     OW32667   3.588   5.983   1.371
10409SOL    HW132668   3.663   6.043   1.376
10409SOL    HW232669   3.620   5.910   1.317
10410SOL     OW32670   2.132   6.913   0.317
10410SOL    HW132671   2.046   6.911   0.274
10410SOL    HW232672   2.117   6.964   0.396
10411SOL     OW32673   1.977   6.631   1.730
10411SOL    HW132674   1.901   6.599   1.780
10411SOL    HW232675   2.051   6.583   1.768
10412SOL     OW32676   2.541   5.755   1.509
10412SOL    HW132677   2.623   5.754   1.458
10412SOL    HW232678   2.563   5.804   1.588
10413SOL     OW32679   3.285   6.444   1.395
10413SOL    HW132680   3.237   6.505   1.339
10413SOL    HW232681   3.374   6.446   1.361
10414SOL     OW32682   1.927   5.730   0.307
10414SOL    HW132683   1.931   5.825   0.311
10414SOL    HW232684   2.013   5.704   0.274
10415SOL     OW32685   3.059   6.920   0.123
10415SOL    HW132686   2.965   6.910   0.110
10415SOL    HW232687   3.071   6.910   0.218
10416SOL     OW32688   2.482   6.419   1.437
10416SOL    HW132689   2.540   6.494   1.425
10416SOL    HW232690   2.541   6.343   1.442
10417SOL     OW32691   3.355   7.369   0.983
10417SOL    HW132692   3.374   7.452   0.940
10417SOL    HW232693   3.430   7.355   1.041
10418SOL     OW32694   2.583   6.144   1.695
10418SOL    HW132695   2.627   6.201   1.758
10418SOL    HW232696   2.596   6.056   1.729
10419SOL     OW32697   3.332   6.778   1.625
10419SOL    HW132698   3.320   6.792   1.719
10419SOL    HW232699   3.424   6.798   1.610
10420SOL     OW32700   2.228   7.326   1.567
10420SOL    HW132701   2.146   7.373   1.555
10420SOL    HW232702   2.203   7.243   1.608
10421SOL     OW32703   3.524   6.463   1.254
10421SOL    HW132704   3.521   6.377   1.211
10421SOL    HW232705   3.516   6.526   1.183
10422SOL     OW32706   3.089   5.906   0.451
10422SOL    HW132707   3.149   5.831   0.447
10422SOL    HW232708   3.114   5.952   0.532
10423SOL     OW32709   2.447   6.318   0.675
10423SOL    HW132710   2.487   6.403   0.660
10423SOL    HW232711   2.382   6.310   0.606
10424SOL     OW32712   3.618   5.953   1.644
10424SOL    HW132713   3.598   5.968   1.552
10424SOL    HW232714   3.549   5.893   1.674
10425SOL     OW32715   3.603   6.521   1.510
10425SOL    HW132716   3.593   6.615   1.521
10425SOL    HW232717   3.586   6.506   1.417
10426SOL     OW32718   2.788   6.949   0.064
10426SOL    HW132719   2.728   6.930   0.136
10426SOL    HW232720   2.766   7.038   0.037
10427SOL     OW32721   2.524   7.365   0.927
10427SOL    HW132722   2.509   7.458   0.913
10427SOL    HW232723   2.620   7.356   0.927
10428SOL     OW32724   2.735   6.561   0.854
10428SOL    HW132725   2.783   6.487   0.891
10428SOL    HW232726   2.690   6.600   0.928
10429SOL     OW32727   2.953   6.568   0.067
10429SOL    HW132728   2.991   6.642   0.020
10429SOL    HW232729   3.024   6.504   0.073
10430SOL     OW32730   3.706   7.121   0.825
10430SOL    HW132731   3.616   7.133   0.854
10430SOL    HW232732   3.742   7.054   0.883
10431SOL     OW32733   2.090   6.880   1.848
10431SOL    HW132734   2.035   6.808   1.816
10431SOL    HW232735   2.067   6.888   1.941
10432SOL     OW32736   1.954   6.821   0.670
10432SOL    HW132737   1.962   6.775   0.754
10432SOL    HW232738   2.012   6.774   0.611
10433SOL     OW32739   2.546   7.001   1.624
10433SOL    HW132740   2.474   6.954   1.665
10433SOL    HW232741   2.549   7.085   1.668
10434SOL     OW32742   3.676   5.770   1.232
10434SOL    HW132743   3.673   5.676   1.251
10434SOL    HW232744   3.689   5.776   1.138
10435SOL     OW32745   2.283   6.018   0.526
10435SOL    HW132746   2.322   5.948   0.474
10435SOL    HW232747   2.236   5.972   0.596
10436SOL     OW32748   3.570   7.054   1.080
10436SOL    HW132749   3.486   7.031   1.042
10436SOL    HW232750   3.581   6.994   1.153
10437SOL     OW32751   2.201   6.150   1.291
10437SOL    HW132752   2.251   6.091   1.347
10437SOL    HW232753   2.216   6.118   1.202
10438SOL     OW32754   2.697   7.160   0.677
10438SOL    HW132755   2.664   7.230   0.621
10438SOL    HW232756   2.624   7.100   0.686
10439SOL     OW32757   3.290   5.818   1.109
10439SOL    HW132758   3.292   5.726   1.134
10439SOL    HW232759   3.244   5.861   1.181
10440SOL     OW32760   2.867   5.610   1.130
10440SOL    HW132761   2.828   5.538   1.081
10440SOL    HW232762   2.959   5.584   1.142
10441SOL     OW32763   2.653   6.909   0.306
10441SOL    HW132764   2.616   6.822   0.323
10441SOL    HW232765   2.723   6.919   0.370
10442SOL     OW32766   2.481   7.148   1.283
10442SOL    HW132767   2.478   7.231   1.330
10442SOL    HW232768   2.571   7.141   1.251
10443SOL     OW32769   3.239   5.634   0.180
10443SOL    HW132770   3.244   5.569   0.109
10443SOL    HW232771   3.151   5.672   0.171
10444SOL     OW32772   3.164   6.051   0.676
10444SOL    HW132773   3.108   6.129   0.677
10444SOL    HW232774   3.153   6.013   0.763
10445SOL     OW32775   3.452   5.781   0.882
10445SOL    HW132776   3.396   5.801   0.958
10445SOL    HW232777   3.447   5.859   0.828
10446SOL     OW32778   1.908   6.662   0.347
10446SOL    HW132779   1.997   6.656   0.314
10446SOL    HW232780   1.889   6.574   0.380
10447SOL     OW32781   2.743   7.246   0.346
10447SOL    HW132782   2.659   7.219   0.308
10447SOL    HW232783   2.720   7.313   0.411
10448SOL     OW32784   2.077   6.217   1.996
10448SOL    HW132785   1.990   6.206   2.036
10448SOL    HW232786   2.065   6.193   1.905
10449SOL     OW32787   2.078   5.877   2.850
10449SOL    HW132788   2.109   5.844   2.935
10449SOL    HW232789   1.990   5.839   2.841
10450SOL     OW32790   1.860   5.973   2.501
10450SOL    HW132791   1.782   5.978   2.557
10450SOL    HW232792   1.844   5.898   2.444
10451SOL     OW32793   2.432   6.878   3.052
10451SOL    HW132794   2.347   6.884   3.009
10451SOL    HW232795   2.448   6.967   3.085
10452SOL     OW32796   3.441   7.103   2.571
10452SOL    HW132797   3.397   7.077   2.652
10452SOL    HW232798   3.371   7.104   2.505
10453SOL     OW32799   2.993   6.286   2.549
10453SOL    HW132800   3.040   6.370   2.547
10453SOL    HW232801   2.945   6.289   2.632
10454SOL     OW32802   3.659   6.175   2.082
10454SOL    HW132803   3.623   6.169   1.993
10454SOL    HW232804   3.612   6.107   2.130
10455SOL     OW32805   2.602   6.719   2.907
10455SOL    HW132806   2.538   6.756   2.968
10455SOL    HW232807   2.643   6.795   2.866
10456SOL     OW32808   2.747   6.353   3.701
10456SOL    HW132809   2.764   6.423   3.763
10456SOL    HW232810   2.766   6.392   3.615
10457SOL     OW32811   2.547   6.583   2.505
10457SOL    HW132812   2.614   6.572   2.573
10457SOL    HW232813   2.480   6.637   2.546
10458SOL     OW32814   2.571   6.746   3.678
10458SOL    HW132815   2.604   6.829   3.712
10458SOL    HW232816   2.488   6.769   3.636
10459SOL     OW32817   2.194   6.999   2.926
10459SOL    HW132818   2.118   6.961   2.883
10459SOL    HW232819   2.238   7.050   2.858
10460SOL     OW32820   3.323   7.087   3.227
10460SOL    HW132821   3.377   7.166   3.232
10460SOL    HW232822   3.265   7.093   3.303
10461SOL     OW32823   2.262   6.027   3.407
10461SOL    HW132824   2.348   5.987   3.392
10461SOL    HW232825   2.200   5.955   3.395
10462SOL     OW32826   3.459   6.028   2.613
10462SOL    HW132827   3.381   6.040   2.559
10462SOL    HW232828   3.447   6.088   2.686
10463SOL     OW32829   2.078   7.312   2.328
10463SOL    HW132830   2.104   7.383   2.387
10463SOL    HW232831   2.154   7.296   2.273
10464SOL     OW32832   2.983   6.937   3.566
10464SOL    HW132833   3.036   6.921   3.645
10464SOL    HW232834   2.936   6.856   3.552
10465SOL     OW32835   2.093   7.033   2.392
10465SOL    HW132836   2.070   7.125   2.404
10465SOL    HW232837   2.043   6.987   2.459
10466SOL     OW32838   2.125   6.674   2.747
10466SOL    HW132839   2.137   6.584   2.777
10466SOL    HW232840   2.077   6.717   2.817
10467SOL     OW32841   2.433   6.574   2.007
10467SOL    HW132842   2.485   6.614   1.938
10467SOL    HW232843   2.474   6.604   2.088
10468SOL     OW32844   3.446   5.710   3.317
10468SOL    HW132845   3.485   5.790   3.281
10468SOL    HW232846   3.431   5.730   3.409
10469SOL     OW32847   1.976   6.247   2.423
10469SOL    HW132848   1.956   6.156   2.446
10469SOL    HW232849   1.973   6.294   2.507
10470SOL     OW32850   3.704   7.340   2.192
10470SOL    HW132851   3.781   7.318   2.244
10470SOL    HW232852   3.716   7.431   2.168
10471SOL     OW32853   1.906   7.174   1.980
10471SOL    HW132854   1.888   7.082   1.998
10471SOL    HW232855   1.879   7.220   2.060
10472SOL     OW32856   3.556   6.502   2.515
10472SOL    HW132857   3.643   6.462   2.508
10472SOL    HW232858   3.544   6.547   2.431
10473SOL     OW32859   3.516   6.686   2.290
10473SOL    HW132860   3.604   6.684   2.251
10473SOL    HW232861   3.524   6.750   2.361
10474SOL     OW32862   1.995   6.329   3.441
10474SOL    HW132863   2.090   6.346   3.442
10474SOL    HW232864   1.956   6.416   3.446
10475SOL     OW32865   2.478   6.981   2.596
10475SOL    HW132866   2.435   6.896   2.604
10475SOL    HW232867   2.464   7.006   2.505
10476SOL     OW32868   3.146   6.820   3.283
10476SOL    HW132869   3.174   6.752   3.222
10476SOL    HW232870   3.206   6.814   3.357
10477SOL     OW32871   2.685   5.596   2.366
10477SOL    HW132872   2.725   5.682   2.351
10477SOL    HW232873   2.592   5.614   2.377
10478SOL     OW32874   2.053   6.543   3.142
10478SOL    HW132875   2.141   6.507   3.132
10478SOL    HW232876   1.996   6.482   3.093
10479SOL     OW32877   3.394   6.591   2.061
10479SOL    HW132878   3.324   6.535   2.094
10479SOL    HW232879   3.439   6.622   2.140
10480SOL     OW32880   3.002   7.378   3.459
10480SOL    HW132881   3.036   7.450   3.406
10480SOL    HW232882   3.048   7.300   3.427
10481SOL     OW32883   2.203   5.840   3.679
10481SOL    HW132884   2.258   5.911   3.712
10481SOL    HW232885   2.120   5.852   3.725
10482SOL     OW32886   3.323   7.007   2.799
10482SOL    HW132887   3.263   7.022   2.872
10482SOL    HW232888   3.311   6.915   2.776
10483SOL     OW32889   3.497   7.356   2.436
10483SOL    HW132890   3.493   7.311   2.351
10483SOL    HW232891   3.496   7.285   2.500
10484SOL     OW32892   2.452   6.293   2.130
10484SOL    HW132893   2.460   6.380   2.092
10484SOL    HW232894   2.388   6.303   2.201
10485SOL     OW32895   3.143   5.958   2.793
10485SOL    HW132896   3.054   5.922   2.802
10485SOL    HW232897   3.196   5.904   2.852
10486SOL     OW32898   3.438   7.261   2.172
10486SOL    HW132899   3.531   7.282   2.166
10486SOL    HW232900   3.411   7.242   2.082
10487SOL     OW32901   2.652   6.208   3.313
10487SOL    HW132902   2.636   6.177   3.402
10487SOL    HW232903   2.595   6.154   3.258
10488SOL     OW32904   3.261   6.056   3.543
10488SOL    HW132905   3.267   6.097   3.629
10488SOL    HW232906   3.308   5.973   3.554
10489SOL     OW32907   2.815   6.470   3.455
10489SOL    HW132908   2.871   6.401   3.420
10489SOL    HW232909   2.757   6.494   3.383
10490SOL     OW32910   2.854   5.998   3.105
10490SOL    HW132911   2.797   5.976   3.179
10490SOL    HW232912   2.829   5.935   3.037
10491SOL     OW32913   2.915   6.287   2.283
10491SOL    HW132914   2.938   6.282   2.376
10491SOL    HW232915   2.832   6.239   2.276
10492SOL     OW32916   1.947   6.416   2.640
10492SOL    HW132917   2.029   6.401   2.688
10492SOL    HW232918   1.909   6.494   2.682
10493SOL     OW32919   2.006   7.453   3.445
10493SOL    HW132920   2.009   7.429   3.538
10493SOL    HW232921   1.918   7.429   3.417
10494SOL     OW32922   2.761   5.935   2.057
10494SOL    HW132923   2.802   5.996   1.996
10494SOL    HW232924   2.781   5.848   2.022
10495SOL     OW32925   3.567   6.154   3.693
10495SOL    HW132926   3.532   6.226   3.641
10495SOL    HW232927   3.593   6.088   3.628
10496SOL     OW32928   3.248   6.728   2.400
10496SOL    HW132929   3.329   6.715   2.351
10496SOL    HW232930   3.197   6.789   2.347
10497SOL     OW32931   2.400   5.765   2.733
10497SOL    HW132932   2.400   5.774   2.829
10497SOL    HW232933   2.411   5.854   2.700
10498SOL     OW32934   2.859   7.029   2.328
10498SOL    HW132935   2.833   7.106   2.278
10498SOL    HW232936   2.838   7.050   2.419
10499SOL     OW32937   2.214   7.401   2.739
10499SOL    HW132938   2.261   7.318   2.743
10499SOL    HW232939   2.281   7.467   2.756
10500SOL     OW32940   3.663   6.643   2.737
10500SOL    HW132941   3.610   6.616   2.662
10500SOL    HW232942   3.601   6.647   2.810
10501SOL     OW32943   3.072   7.121   3.374
10501SOL    HW132944   3.065   7.053   3.441
10501SOL    HW232945   3.034   7.082   3.296
10502SOL     OW32946   2.169   6.548   2.119
10502SOL    HW132947   2.254   6.565   2.078
10502SOL    HW232948   2.146   6.459   2.090
10503SOL     OW32949   3.341   6.340   2.582
10503SOL    HW132950   3.342   6.294   2.665
10503SOL    HW232951   3.422   6.391   2.581
10504SOL     OW32952   2.338   6.863   3.589
10504SOL    HW132953   2.307   6.864   3.498
10504SOL    HW232954   2.258   6.862   3.642
10505SOL     OW32955   2.987   7.367   2.081
10505SOL    HW132956   2.912   7.330   2.127
10505SOL    HW232957   3.012   7.301   2.017
10506SOL     OW32958   2.046   5.848   3.368
10506SOL    HW132959   1.982   5.893   3.423
10506SOL    HW232960   2.044   5.757   3.399
10507SOL     OW32961   3.488   6.967   1.947
10507SOL    HW132962   3.446   7.052   1.936
10507SOL    HW232963   3.419   6.904   1.928
10508SOL     OW32964   2.321   7.322   2.181
10508SOL    HW132965   2.368   7.375   2.245
10508SOL    HW232966   2.390   7.284   2.126
10509SOL     OW32967   3.264   5.700   2.306
10509SOL    HW132968   3.265   5.667   2.216
10509SOL    HW232969   3.355   5.696   2.334
10510SOL     OW32970   2.115   7.368   3.088
10510SOL    HW132971   2.161   7.295   3.127
10510SOL    HW232972   2.119   7.352   2.993
10511SOL     OW32973   2.805   7.285   2.758
10511SOL    HW132974   2.888   7.240   2.776
10511SOL    HW232975   2.764   7.234   2.688
10512SOL     OW32976   2.255   6.283   2.328
10512SOL    HW132977   2.270   6.189   2.343
10512SOL    HW232978   2.162   6.295   2.349
10513SOL     OW32979   3.387   5.801   3.589
10513SOL    HW132980   3.396   5.830   3.679
10513SOL    HW232981   3.337   5.720   3.594
10514SOL     OW32982   2.508   5.706   1.963
10514SOL    HW132983   2.554   5.628   1.995
10514SOL    HW232984   2.457   5.674   1.889
10515SOL     OW32985   2.642   5.894   3.656
10515SOL    HW132986   2.715   5.840   3.626
10515SOL    HW232987   2.572   5.832   3.674
10516SOL     OW32988   2.736   7.113   3.059
10516SOL    HW132989   2.718   7.074   2.973
10516SOL    HW232990   2.806   7.059   3.096
10517SOL     OW32991   3.201   6.178   3.304
10517SOL    HW132992   3.233   6.139   3.386
10517SOL    HW232993   3.245   6.262   3.299
10518SOL     OW32994   2.678   6.975   2.812
10518SOL    HW132995   2.764   6.962   2.772
10518SOL    HW232996   2.618   6.981   2.738
10519SOL     OW32997   2.806   6.099   2.755
10519SOL    HW132998   2.778   6.084   2.665
10519SOL    HW232999   2.833   6.013   2.786
10520SOL     OW33000   2.415   5.650   2.355
10520SOL    HW133001   2.343   5.650   2.418
10520SOL    HW233002   2.400   5.728   2.300
10521SOL     OW33003   3.287   6.786   1.897
10521SOL    HW133004   3.321   6.713   1.950
10521SOL    HW233005   3.204   6.809   1.938
10522SOL     OW33006   2.159   5.641   2.054
10522SOL    HW133007   2.220   5.714   2.054
10522SOL    HW233008   2.206   5.569   2.097
10523SOL     OW33009   2.806   5.841   2.317
10523SOL    HW133010   2.786   5.880   2.232
10523SOL    HW233011   2.901   5.852   2.327
10524SOL     OW33012   2.945   6.273   3.320
10524SOL    HW133013   2.884   6.200   3.335
10524SOL    HW233014   3.032   6.232   3.319
10525SOL     OW33015   3.072   7.162   2.661
10525SOL    HW133016   3.092   7.227   2.593
10525SOL    HW233017   3.149   7.161   2.718
10526SOL     OW33018   2.333   6.746   2.584
10526SOL    HW133019   2.270   6.720   2.652
10526SOL    HW233020   2.287   6.732   2.502
10527SOL     OW33021   3.122   7.376   2.478
10527SOL    HW133022   3.171   7.438   2.426
10527SOL    HW233023   3.053   7.428   2.520
10528SOL     OW33024   2.890   6.113   1.889
10528SOL    HW133025   2.847   6.197   1.873
10528SOL    HW233026   2.951   6.130   1.960
10529SOL     OW33027   1.941   6.152   3.244
10529SOL    HW133028   2.032   6.136   3.220
10529SOL    HW233029   1.946   6.215   3.316
10530SOL     OW33030   2.390   5.786   2.996
10530SOL    HW133031   2.448   5.788   3.073
10530SOL    HW233032   2.302   5.788   3.033
10531SOL     OW33033   2.730   6.045   2.498
10531SOL    HW133034   2.687   6.098   2.430
10531SOL    HW233035   2.752   5.964   2.453
10532SOL     OW33036   2.885   5.635   2.599
10532SOL    HW133037   2.821   5.622   2.529
10532SOL    HW233038   2.864   5.567   2.664
10533SOL     OW33039   3.294   6.745   2.719
10533SOL    HW133040   3.235   6.669   2.728
10533SOL    HW233041   3.314   6.748   2.625
10534SOL     OW33042   3.329   6.193   2.823
10534SOL    HW133043   3.268   6.121   2.833
10534SOL    HW233044   3.387   6.187   2.900
10535SOL     OW33045   3.700   6.391   2.244
10535SOL    HW133046   3.756   6.346   2.307
10535SOL    HW233047   3.680   6.325   2.177
10536SOL     OW33048   2.352   7.010   2.013
10536SOL    HW133049   2.274   6.981   2.060
10536SOL    HW233050   2.357   6.952   1.937
10537SOL     OW33051   3.545   6.853   2.495
10537SOL    HW133052   3.639   6.847   2.515
10537SOL    HW233053   3.520   6.942   2.522
10538SOL     OW33054   3.254   6.158   1.935
10538SOL    HW133055   3.191   6.136   2.003
10538SOL    HW233056   3.338   6.127   1.968
10539SOL     OW33057   2.373   5.846   2.163
10539SOL    HW133058   2.435   5.807   2.101
10539SOL    HW233059   2.350   5.930   2.124
10540SOL     OW33060   3.605   6.832   3.420
10540SOL    HW133061   3.686   6.785   3.441
10540SOL    HW233062   3.623   6.922   3.445
10541SOL     OW33063   2.917   6.944   3.198
10541SOL    HW133064   2.839   6.906   3.239
10541SOL    HW233065   2.990   6.894   3.234
10542SOL     OW33066   3.461   7.216   3.517
10542SOL    HW133067   3.460   7.253   3.429
10542SOL    HW233068   3.541   7.165   3.521
10543SOL     OW33069   3.005   6.810   2.962
10543SOL    HW133070   2.938   6.840   3.023
10543SOL    HW233071   2.974   6.839   2.876
10544SOL     OW33072   3.483   6.681   2.937
10544SOL    HW133073   3.478   6.740   3.013
10544SOL    HW233074   3.405   6.701   2.886
10545SOL     OW33075   2.825   5.622   3.254
10545SOL    HW133076   2.843   5.641   3.162
10545SOL    HW233077   2.875   5.687   3.303
10546SOL     OW33078   2.832   6.710   3.575
10546SOL    HW133079   2.741   6.714   3.606
10546SOL    HW233080   2.837   6.629   3.525
10547SOL     OW33081   2.574   6.650   2.235
10547SOL    HW133082   2.561   6.628   2.327
10547SOL    HW233083   2.648   6.594   2.208
10548SOL     OW33084   2.287   6.402   3.117
10548SOL    HW133085   2.354   6.409   3.184
10548SOL    HW233086   2.256   6.312   3.122
10549SOL     OW33087   3.130   5.976   3.132
10549SOL    HW133088   3.160   6.049   3.188
10549SOL    HW233089   3.038   5.994   3.117
10550SOL     OW33090   1.940   7.156   3.221
10550SOL    HW133091   1.916   7.232   3.168
10550SOL    HW233092   2.036   7.151   3.213
10551SOL     OW33093   2.183   6.711   2.353
10551SOL    HW133094   2.192   6.782   2.289
10551SOL    HW233095   2.184   6.631   2.301
10552SOL     OW33096   2.400   6.111   2.709
10552SOL    HW133097   2.420   6.172   2.638
10552SOL    HW233098   2.467   6.129   2.775
10553SOL     OW33099   3.110   6.939   2.250
10553SOL    HW133100   3.166   7.007   2.287
10553SOL    HW233101   3.023   6.957   2.286
10554SOL     OW33102   3.159   7.048   3.011
10554SOL    HW133103   3.214   7.053   3.089
10554SOL    HW233104   3.110   6.966   3.021
10555SOL     OW33105   3.433   6.213   2.341
10555SOL    HW133106   3.384   6.246   2.416
10555SOL    HW233107   3.487   6.287   2.313
10556SOL     OW33108   2.208   7.118   3.166
10556SOL    HW133109   2.201   7.070   3.083
10556SOL    HW233110   2.303   7.128   3.179
10557SOL     OW33111   2.273   6.320   3.459
10557SOL    HW133112   2.346   6.358   3.411
10557SOL    HW233113   2.293   6.226   3.461
10558SOL     OW33114   3.473   6.368   3.552
10558SOL    HW133115   3.386   6.407   3.550
10558SOL    HW233116   3.522   6.413   3.483
10559SOL     OW33117   2.855   5.729   3.606
10559SOL    HW133118   2.921   5.796   3.589
10559SOL    HW233119   2.900   5.646   3.588
10560SOL     OW33120   2.357   5.620   3.612
10560SOL    HW133121   2.316   5.568   3.543
10560SOL    HW233122   2.304   5.699   3.618
10561SOL     OW33123   2.433   6.471   2.888
10561SOL    HW133124   2.485   6.550   2.905
10561SOL    HW233125   2.392   6.451   2.973
10562SOL     OW33126   3.200   6.445   2.874
10562SOL    HW133127   3.111   6.417   2.850
10562SOL    HW233128   3.253   6.366   2.868
10563SOL     OW33129   3.054   6.112   2.120
10563SOL    HW133130   3.068   6.036   2.175
10563SOL    HW233131   3.014   6.177   2.178
10564SOL     OW33132   2.131   5.785   3.101
10564SOL    HW133133   2.121   5.817   3.191
10564SOL    HW233134   2.128   5.689   3.109
10565SOL     OW33135   1.904   6.896   3.130
10565SOL    HW133136   1.936   6.838   3.199
10565SOL    HW233137   1.911   6.984   3.168
10566SOL     OW33138   2.585   6.199   2.889
10566SOL    HW133139   2.667   6.176   2.846
10566SOL    HW233140   2.574   6.292   2.872
10567SOL     OW33141   3.600   6.554   3.718
10567SOL    HW133142   3.563   6.478   3.673
10567SOL    HW233143   3.544   6.565   3.795
10568SOL     OW33144   2.173   5.648   2.490
10568SOL    HW133145   2.153   5.739   2.513
10568SOL    HW233146   2.183   5.604   2.574
10569SOL     OW33147   3.494   5.976   2.214
10569SOL    HW133148   3.516   5.907   2.277
10569SOL    HW233149   3.464   6.049   2.269
10570SOL     OW33150   2.893   6.348   2.827
10570SOL    HW133151   2.879   6.362   2.921
10570SOL    HW233152   2.871   6.256   2.813
10571SOL     OW33153   2.825   7.160   3.573
10571SOL    HW133154   2.852   7.219   3.502
10571SOL    HW233155   2.871   7.079   3.556
10572SOL     OW33156   3.704   7.090   3.466
10572SOL    HW133157   3.733   7.117   3.379
10572SOL    HW233158   3.782   7.098   3.521
10573SOL     OW33159   2.218   6.511   3.648
10573SOL    HW133160   2.297   6.525   3.700
10573SOL    HW233161   2.241   6.440   3.588
10574SOL     OW33162   3.386   5.865   1.987
10574SOL    HW133163   3.330   5.793   2.017
10574SOL    HW233164   3.424   5.900   2.067
10575SOL     OW33165   3.140   6.405   1.886
10575SOL    HW133166   3.184   6.321   1.895
10575SOL    HW233167   3.177   6.443   1.806
10576SOL     OW33168   2.926   6.927   2.718
10576SOL    HW133169   2.935   6.854   2.657
10576SOL    HW233170   2.984   6.995   2.684
10577SOL     OW33171   2.172   6.402   2.803
10577SOL    HW133172   2.265   6.422   2.814
10577SOL    HW233173   2.164   6.310   2.827
10578SOL     OW33174   2.170   6.128   2.848
10578SOL    HW133175   2.140   6.037   2.852
10578SOL    HW233176   2.252   6.125   2.800
10579SOL     OW33177   2.996   5.976   3.533
10579SOL    HW133178   2.950   6.018   3.605
10579SOL    HW233179   3.086   6.006   3.541
10580SOL     OW33180   3.026   5.797   3.326
10580SOL    HW133181   3.011   5.858   3.398
10580SOL    HW233182   3.077   5.848   3.262
10581SOL     OW33183   1.868   6.901   2.055
10581SOL    HW133184   1.780   6.919   2.021
10581SOL    HW233185   1.863   6.812   2.089
10582SOL     OW33186   1.946   7.369   2.798
10582SOL    HW133187   1.919   7.288   2.754
10582SOL    HW233188   2.037   7.381   2.771
10583SOL     OW33189   2.353   7.162   2.765
10583SOL    HW133190   2.423   7.223   2.788
10583SOL    HW233191   2.395   7.099   2.707
10584SOL     OW33192   2.822   6.371   3.094
10584SOL    HW133193   2.886   6.351   3.162
10584SOL    HW233194   2.748   6.314   3.112
10585SOL     OW33195   1.907   6.159   2.968
10585SOL    HW133196   1.989   6.147   2.920
10585SOL    HW233197   1.932   6.151   3.060
10586SOL     OW33198   2.062   6.113   3.602
10586SOL    HW133199   2.136   6.076   3.554
10586SOL    HW233200   2.028   6.182   3.544
10587SOL     OW33201   3.241   6.519   3.520
10587SOL    HW133202   3.267   6.611   3.515
10587SOL    HW233203   3.242   6.489   3.429
10588SOL     OW33204   2.680   6.154   2.228
10588SOL    HW133205   2.688   6.079   2.169
10588SOL    HW233206   2.603   6.202   2.196
10589SOL     OW33207   3.504   6.188   3.034
10589SOL    HW133208   3.496   6.128   3.108
10589SOL    HW233209   3.593   6.175   3.002
10590SOL     OW33210   2.103   7.133   3.577
10590SOL    HW133211   2.084   7.199   3.643
10590SOL    HW233212   2.111   7.051   3.626
10591SOL     OW33213   2.476   6.106   3.132
10591SOL    HW133214   2.481   6.017   3.165
10591SOL    HW233215   2.518   6.102   3.046
10592SOL     OW33216   2.697   7.294   3.307
10592SOL    HW133217   2.733   7.237   3.238
10592SOL    HW233218   2.746   7.376   3.297
10593SOL     OW33219   2.312   6.075   2.023
10593SOL    HW133220   2.376   6.139   2.052
10593SOL    HW233221   2.229   6.122   2.024
10594SOL     OW33222   2.000   6.729   3.333
10594SOL    HW133223   2.008   6.687   3.419
10594SOL    HW233224   2.020   6.660   3.271
10595SOL     OW33225   3.181   6.631   3.075
10595SOL    HW133226   3.199   6.565   3.008
10595SOL    HW233227   3.119   6.691   3.033
10596SOL     OW33228   3.178   6.452   2.160
10596SOL    HW133229   3.114   6.412   2.219
10596SOL    HW233230   3.147   6.429   2.073
10597SOL     OW33231   3.642   7.322   3.024
10597SOL    HW133232   3.699   7.345   2.951
10597SOL    HW233233   3.612   7.233   3.004
10598SOL     OW33234   3.102   7.316   2.963
10598SOL    HW133235   3.186   7.343   2.925
10598SOL    HW233236   3.115   7.224   2.985
10599SOL     OW33237   1.943   6.866   2.863
10599SOL    HW133238   1.924   6.873   2.956
10599SOL    HW233239   1.884   6.798   2.831
10600SOL     OW33240   2.570   7.261   3.593
10600SOL    HW133241   2.548   7.268   3.686
10600SOL    HW233242   2.662   7.233   3.592
10601SOL     OW33243   3.577   5.749   2.360
10601SOL    HW133244   3.650   5.729   2.301
10601SOL    HW233245   3.560   5.666   2.405
10602SOL     OW33246   3.255   7.154   2.356
10602SOL    HW133247   3.313   7.189   2.289
10602SOL    HW233248   3.205   7.229   2.388
10603SOL     OW33249   2.021   7.376   3.704
10603SOL    HW133250   1.966   7.313   3.750
10603SOL    HW233251   2.061   7.428   3.774
10604SOL     OW33252   3.139   6.518   2.534
10604SOL    HW133253   3.211   6.457   2.548
10604SOL    HW233254   3.177   6.587   2.480
10605SOL     OW33255   2.664   6.859   3.268
10605SOL    HW133256   2.631   6.905   3.345
10605SOL    HW233257   2.588   6.850   3.211
10606SOL     OW33258   2.528   7.217   2.019
10606SOL    HW133259   2.543   7.231   1.925
10606SOL    HW233260   2.474   7.138   2.023
10607SOL     OW33261   3.474   7.319   3.253
10607SOL    HW133262   3.533   7.320   3.178
10607SOL    HW233263   3.459   7.411   3.274
10608SOL     OW33264   3.709   5.754   2.817
10608SOL    HW133265   3.739   5.665   2.801
10608SOL    HW233266   3.619   5.755   2.786
10609SOL     OW33267   2.121   5.902   2.575
10609SOL    HW133268   2.033   5.936   2.558
10609SOL    HW233269   2.126   5.895   2.670
10610SOL     OW33270   3.068   7.180   1.895
10610SOL    HW133271   3.059   7.090   1.927
10610SOL    HW233272   2.997   7.191   1.832
10611SOL     OW33273   2.683   6.582   3.239
10611SOL    HW133274   2.738   6.552   3.167
10611SOL    HW233275   2.697   6.677   3.242
10612SOL     OW33276   2.776   6.494   2.147
10612SOL    HW133277   2.838   6.529   2.084
10612SOL    HW233278   2.826   6.429   2.197
10613SOL     OW33279   3.347   7.219   1.907
10613SOL    HW133280   3.253   7.205   1.891
10613SOL    HW233281   3.386   7.222   1.820
10614SOL     OW33282   2.224   6.895   3.349
10614SOL    HW133283   2.209   6.970   3.291
10614SOL    HW233284   2.148   6.839   3.335
10615SOL     OW33285   3.468   6.865   3.146
10615SOL    HW133286   3.528   6.846   3.218
10615SOL    HW233287   3.411   6.934   3.179
10616SOL     OW33288   2.927   6.697   2.575
10616SOL    HW133289   2.855   6.646   2.612
10616SOL    HW233290   2.995   6.633   2.554
10617SOL     OW33291   2.892   5.831   2.811
10617SOL    HW133292   2.889   5.781   2.730
10617SOL    HW233293   2.890   5.765   2.880
10618SOL     OW33294   2.469   7.070   2.338
10618SOL    HW133295   2.523   7.020   2.277
10618SOL    HW233296   2.392   7.095   2.287
10619SOL     OW33297   3.586   5.986   3.235
10619SOL    HW133298   3.662   6.043   3.242
10619SOL    HW233299   3.615   5.913   3.180
10620SOL     OW33300   2.123   6.930   2.149
10620SOL    HW133301   2.031   6.923   2.125
10620SOL    HW233302   2.124   6.971   2.235
10621SOL     OW33303   1.982   6.643   3.602
10621SOL    HW133304   1.908   6.603   3.648
10621SOL    HW233305   2.057   6.590   3.628
10622SOL     OW33306   1.945   5.911   1.896
10622SOL    HW133307   1.860   5.888   1.856
10622SOL    HW233308   1.973   5.990   1.850
10623SOL     OW33309   3.286   6.449   3.260
10623SOL    HW133310   3.239   6.508   3.202
10623SOL    HW233311   3.375   6.446   3.225
10624SOL     OW33312   1.919   5.738   2.154
10624SOL    HW133313   1.911   5.814   2.096
10624SOL    HW233314   2.006   5.703   2.137
10625SOL     OW33315   3.041   6.915   1.983
10625SOL    HW133316   2.957   6.870   1.989
10625SOL    HW233317   3.071   6.921   2.074
10626SOL     OW33318   2.479   6.417   3.306
10626SOL    HW133319   2.539   6.489   3.287
10626SOL    HW233320   2.536   6.340   3.313
10627SOL     OW33321   3.348   7.374   2.851
10627SOL    HW133322   3.377   7.439   2.787
10627SOL    HW233323   3.429   7.334   2.883
10628SOL     OW33324   2.589   6.151   3.569
10628SOL    HW133325   2.635   6.203   3.634
10628SOL    HW233326   2.603   6.060   3.596
10629SOL     OW33327   3.332   6.785   3.490
10629SOL    HW133328   3.324   6.793   3.585
10629SOL    HW233329   3.425   6.798   3.473
10630SOL     OW33330   2.252   7.312   3.412
10630SOL    HW133331   2.174   7.365   3.397
10630SOL    HW233332   2.220   7.231   3.452
10631SOL     OW33333   3.523   6.461   3.114
10631SOL    HW133334   3.523   6.373   3.076
10631SOL    HW233335   3.518   6.520   3.039
10632SOL     OW33336   3.081   5.910   2.315
10632SOL    HW133337   3.141   5.836   2.310
10632SOL    HW233338   3.108   5.959   2.392
10633SOL     OW33339   2.449   6.317   2.528
10633SOL    HW133340   2.489   6.403   2.518
10633SOL    HW233341   2.383   6.313   2.459
10634SOL     OW33342   3.612   5.951   3.511
10634SOL    HW133343   3.593   5.966   3.418
10634SOL    HW233344   3.546   5.888   3.539
10635SOL     OW33345   3.596   6.526   3.369
10635SOL    HW133346   3.596   6.622   3.372
10635SOL    HW233347   3.583   6.505   3.277
10636SOL     OW33348   2.709   6.950   1.907
10636SOL    HW133349   2.686   6.968   1.998
10636SOL    HW233350   2.736   7.035   1.872
10637SOL     OW33351   2.527   7.369   2.798
10637SOL    HW133352   2.512   7.461   2.779
10637SOL    HW233353   2.622   7.359   2.794
10638SOL     OW33354   2.734   6.556   2.714
10638SOL    HW133355   2.785   6.484   2.751
10638SOL    HW233356   2.691   6.597   2.790
10639SOL     OW33357   2.937   6.577   1.947
10639SOL    HW133358   2.918   6.626   1.867
10639SOL    HW233359   3.009   6.519   1.923
10640SOL     OW33360   3.709   7.130   2.704
10640SOL    HW133361   3.627   7.112   2.658
10640SOL    HW233362   3.719   7.056   2.764
10641SOL     OW33363   2.096   6.885   3.712
10641SOL    HW133364   2.046   6.809   3.681
10641SOL    HW233365   2.081   6.886   3.806
10642SOL     OW33366   1.965   6.811   2.526
10642SOL    HW133367   1.985   6.772   2.611
10642SOL    HW233368   2.027   6.771   2.465
10643SOL     OW33369   2.527   7.020   3.447
10643SOL    HW133370   2.466   6.966   3.498
10643SOL    HW233371   2.550   7.092   3.506
10644SOL     OW33372   3.665   5.776   3.090
10644SOL    HW133373   3.675   5.685   3.117
10644SOL    HW233374   3.683   5.775   2.996
10645SOL     OW33375   2.279   6.021   2.378
10645SOL    HW133376   2.318   5.948   2.330
10645SOL    HW233377   2.238   5.981   2.455
10646SOL     OW33378   3.548   7.075   2.962
10646SOL    HW133379   3.475   7.048   2.907
10646SOL    HW233380   3.561   7.002   3.022
10647SOL     OW33381   2.193   6.140   3.154
10647SOL    HW133382   2.243   6.105   3.227
10647SOL    HW233383   2.238   6.108   3.076
10648SOL     OW33384   2.694   7.171   2.536
10648SOL    HW133385   2.669   7.240   2.474
10648SOL    HW233386   2.620   7.111   2.535
10649SOL     OW33387   3.294   5.821   2.975
10649SOL    HW133388   3.318   5.740   3.020
10649SOL    HW233389   3.245   5.871   3.040
10650SOL     OW33390   2.888   5.615   2.981
10650SOL    HW133391   2.819   5.549   2.978
10650SOL    HW233392   2.970   5.566   2.977
10651SOL     OW33393   2.643   6.918   2.184
10651SOL    HW133394   2.618   6.827   2.196
10651SOL    HW233395   2.722   6.928   2.236
10652SOL     OW33396   2.483   7.122   3.176
10652SOL    HW133397   2.511   7.100   3.264
10652SOL    HW233398   2.564   7.138   3.128
10653SOL     OW33399   3.234   5.632   2.033
10653SOL    HW133400   3.275   5.551   2.004
10653SOL    HW233401   3.142   5.609   2.048
10654SOL     OW33402   3.160   6.053   2.537
10654SOL    HW133403   3.106   6.132   2.541
10654SOL    HW233404   3.154   6.015   2.625
10655SOL     OW33405   3.446   5.773   2.746
10655SOL    HW133406   3.393   5.796   2.823
10655SOL    HW233407   3.445   5.852   2.692
10656SOL     OW33408   1.903   6.647   2.168
10656SOL    HW133409   1.996   6.638   2.150
10656SOL    HW233410   1.874   6.559   2.189
10657SOL     OW33411   2.755   7.247   2.191
10657SOL    HW133412   2.678   7.231   2.137
10657SOL    HW233413   2.727   7.312   2.255
10658SOL     OW33414   2.080   6.242   3.850
10658SOL    HW133415   2.002   6.205   3.891
10658SOL    HW233416   2.081   6.206   3.762
10659SOL     OW33417   2.080   5.877   4.719
10659SOL    HW133418   2.114   5.838   4.800
10659SOL    HW233419   1.994   5.837   4.707
10660SOL     OW33420   1.859   5.985   4.359
10660SOL    HW133421   1.778   5.998   4.407
10660SOL    HW233422   1.845   5.904   4.310
10661SOL     OW33423   2.433   6.889   4.913
10661SOL    HW133424   2.345   6.896   4.874
10661SOL    HW233425   2.453   6.978   4.943
10662SOL     OW33426   3.440   7.104   4.436
10662SOL    HW133427   3.397   7.076   4.517
10662SOL    HW233428   3.371   7.100   4.370
10663SOL     OW33429   2.990   6.291   4.413
10663SOL    HW133430   3.040   6.372   4.410
10663SOL    HW233431   2.945   6.294   4.498
10664SOL     OW33432   3.644   6.181   3.950
10664SOL    HW133433   3.616   6.173   3.859
10664SOL    HW233434   3.604   6.106   3.994
10665SOL     OW33435   2.595   6.720   4.766
10665SOL    HW133436   2.535   6.758   4.830
10665SOL    HW233437   2.643   6.794   4.730
10666SOL     OW33438   2.745   6.343   5.556
10666SOL    HW133439   2.746   6.414   5.620
10666SOL    HW233440   2.765   6.387   5.473
10667SOL     OW33441   2.543   6.587   4.371
10667SOL    HW133442   2.616   6.569   4.430
10667SOL    HW233443   2.483   6.641   4.423
10668SOL     OW33444   2.573   6.731   5.542
10668SOL    HW133445   2.616   6.810   5.574
10668SOL    HW233446   2.492   6.763   5.502
10669SOL     OW33447   2.193   7.003   4.792
10669SOL    HW133448   2.118   6.964   4.748
10669SOL    HW233449   2.237   7.054   4.724
10670SOL     OW33450   3.319   7.088   5.088
10670SOL    HW133451   3.374   7.166   5.096
10670SOL    HW233452   3.257   7.096   5.160
10671SOL     OW33453   2.308   5.979   5.208
10671SOL    HW133454   2.391   5.931   5.212
10671SOL    HW233455   2.241   5.915   5.231
10672SOL     OW33456   3.459   6.036   4.470
10672SOL    HW133457   3.381   6.044   4.415
10672SOL    HW233458   3.442   6.095   4.544
10673SOL     OW33459   2.087   7.301   4.194
10673SOL    HW133460   2.104   7.375   4.252
10673SOL    HW233461   2.165   7.296   4.138
10674SOL     OW33462   2.997   6.929   5.422
10674SOL    HW133463   3.044   6.917   5.504
10674SOL    HW233464   2.946   6.849   5.411
10675SOL     OW33465   2.079   7.027   4.245
10675SOL    HW133466   2.079   7.122   4.243
10675SOL    HW233467   2.026   7.004   4.321
10676SOL     OW33468   2.126   6.673   4.610
10676SOL    HW133469   2.136   6.585   4.648
10676SOL    HW233470   2.077   6.722   4.677
10677SOL     OW33471   2.438   7.391   5.128
10677SOL    HW133472   2.369   7.365   5.189
10677SOL    HW233473   2.476   7.470   5.166
10678SOL     OW33474   2.433   6.577   3.866
10678SOL    HW133475   2.488   6.613   3.797
10678SOL    HW233476   2.475   6.603   3.948
10679SOL     OW33477   3.444   5.725   5.179
10679SOL    HW133478   3.481   5.803   5.139
10679SOL    HW233479   3.428   5.749   5.271
10680SOL     OW33480   1.975   6.238   4.294
10680SOL    HW133481   1.949   6.147   4.309
10680SOL    HW233482   1.968   6.279   4.380
10681SOL     OW33483   3.703   7.334   4.051
10681SOL    HW133484   3.773   7.310   4.112
10681SOL    HW233485   3.719   7.426   4.031
10682SOL     OW33486   1.898   7.175   3.836
10682SOL    HW133487   1.859   7.088   3.849
10682SOL    HW233488   1.878   7.222   3.917
10683SOL     OW33489   3.559   6.501   4.381
10683SOL    HW133490   3.645   6.459   4.385
10683SOL    HW233491   3.554   6.536   4.292
10684SOL     OW33492   3.517   6.689   4.149
10684SOL    HW133493   3.605   6.682   4.111
10684SOL    HW233494   3.528   6.751   4.222
10685SOL     OW33495   2.003   6.331   5.303
10685SOL    HW133496   2.098   6.347   5.309
10685SOL    HW233497   1.963   6.414   5.326
10686SOL     OW33498   2.483   6.984   4.455
10686SOL    HW133499   2.438   6.900   4.468
10686SOL    HW233500   2.467   7.005   4.362
10687SOL     OW33501   3.146   6.821   5.142
10687SOL    HW133502   3.176   6.752   5.082
10687SOL    HW233503   3.206   6.816   5.216
10688SOL     OW33504   2.691   5.605   4.222
10688SOL    HW133505   2.725   5.694   4.209
10688SOL    HW233506   2.598   5.617   4.237
10689SOL     OW33507   2.050   6.545   4.993
10689SOL    HW133508   2.138   6.508   4.985
10689SOL    HW233509   1.992   6.474   4.964
10690SOL     OW33510   3.393   6.592   3.924
10690SOL    HW133511   3.322   6.537   3.956
10690SOL    HW233512   3.440   6.620   4.003
10691SOL     OW33513   3.037   7.392   5.349
10691SOL    HW133514   3.053   7.452   5.276
10691SOL    HW233515   3.059   7.305   5.314
10692SOL     OW33516   2.206   5.851   5.542
10692SOL    HW133517   2.256   5.917   5.590
10692SOL    HW233518   2.119   5.852   5.582
10693SOL     OW33519   3.316   7.007   4.658
10693SOL    HW133520   3.260   7.020   4.735
10693SOL    HW233521   3.306   6.914   4.637
10694SOL     OW33522   3.507   7.349   4.302
10694SOL    HW133523   3.492   7.308   4.217
10694SOL    HW233524   3.500   7.278   4.365
10695SOL     OW33525   2.451   6.290   3.989
10695SOL    HW133526   2.472   6.373   3.945
10695SOL    HW233527   2.388   6.315   4.057
10696SOL     OW33528   3.134   5.959   4.658
10696SOL    HW133529   3.048   5.918   4.667
10696SOL    HW233530   3.192   5.906   4.712
10697SOL     OW33531   3.437   7.264   4.035
10697SOL    HW133532   3.531   7.283   4.031
10697SOL    HW233533   3.413   7.243   3.945
10698SOL     OW33534   2.639   6.209   5.169
10698SOL    HW133535   2.623   6.177   5.258
10698SOL    HW233536   2.611   6.137   5.112
10699SOL     OW33537   3.260   6.053   5.404
10699SOL    HW133538   3.268   6.096   5.489
10699SOL    HW233539   3.309   5.972   5.413
10700SOL     OW33540   2.812   6.466   5.314
10700SOL    HW133541   2.867   6.398   5.276
10700SOL    HW233542   2.756   6.495   5.242
10701SOL     OW33543   2.859   6.006   4.944
10701SOL    HW133544   2.778   5.994   4.993
10701SOL    HW233545   2.857   5.936   4.878
10702SOL     OW33546   2.910   6.294   4.147
10702SOL    HW133547   2.935   6.286   4.239
10702SOL    HW233548   2.831   6.241   4.139
10703SOL     OW33549   1.956   6.436   4.487
10703SOL    HW133550   2.033   6.413   4.539
10703SOL    HW233551   1.912   6.504   4.539
10704SOL     OW33552   1.983   7.453   5.312
10704SOL    HW133553   1.987   7.438   5.406
10704SOL    HW233554   1.907   7.401   5.283
10705SOL     OW33555   2.754   5.946   3.926
10705SOL    HW133556   2.804   5.993   3.860
10705SOL    HW233557   2.715   5.872   3.879
10706SOL     OW33558   3.568   6.159   5.560
10706SOL    HW133559   3.533   6.230   5.506
10706SOL    HW233560   3.595   6.093   5.497
10707SOL     OW33561   3.252   6.728   4.263
10707SOL    HW133562   3.334   6.712   4.217
10707SOL    HW233563   3.204   6.788   4.206
10708SOL     OW33564   2.395   5.769   4.623
10708SOL    HW133565   2.409   5.785   4.716
10708SOL    HW233566   2.414   5.853   4.581
10709SOL     OW33567   2.855   7.026   4.190
10709SOL    HW133568   2.833   7.109   4.146
10709SOL    HW233569   2.841   7.044   4.283
10710SOL     OW33570   2.215   7.403   4.600
10710SOL    HW133571   2.261   7.319   4.604
10710SOL    HW233572   2.282   7.469   4.620
10711SOL     OW33573   3.661   6.653   4.599
10711SOL    HW133574   3.610   6.620   4.525
10711SOL    HW233575   3.600   6.653   4.672
10712SOL     OW33576   3.080   7.126   5.240
10712SOL    HW133577   3.072   7.057   5.306
10712SOL    HW233578   3.030   7.094   5.165
10713SOL     OW33579   2.175   6.491   3.950
10713SOL    HW133580   2.256   6.521   3.909
10713SOL    HW233581   2.151   6.413   3.901
10714SOL     OW33582   3.340   6.347   4.448
10714SOL    HW133583   3.342   6.296   4.529
10714SOL    HW233584   3.423   6.394   4.447
10715SOL     OW33585   2.338   6.858   5.462
10715SOL    HW133586   2.310   6.862   5.371
10715SOL    HW233587   2.256   6.853   5.512
10716SOL     OW33588   2.990   7.370   3.938
10716SOL    HW133589   2.918   7.333   3.989
10716SOL    HW233590   3.016   7.299   3.879
10717SOL     OW33591   2.058   5.841   5.226
10717SOL    HW133592   1.986   5.891   5.264
10717SOL    HW233593   2.044   5.752   5.260
10718SOL     OW33594   3.490   6.971   3.811
10718SOL    HW133595   3.445   7.054   3.800
10718SOL    HW233596   3.423   6.905   3.792
10719SOL     OW33597   2.328   7.320   4.047
10719SOL    HW133598   2.369   7.378   4.111
10719SOL    HW233599   2.398   7.299   3.985
10720SOL     OW33600   3.267   5.700   4.160
10720SOL    HW133601   3.263   5.668   4.070
10720SOL    HW233602   3.353   5.673   4.192
10721SOL     OW33603   2.115   7.371   4.952
10721SOL    HW133604   2.168   7.309   5.001
10721SOL    HW233605   2.127   7.346   4.861
10722SOL     OW33606   2.804   7.285   4.623
10722SOL    HW133607   2.886   7.241   4.647
10722SOL    HW233608   2.768   7.231   4.553
10723SOL     OW33609   2.229   6.291   4.202
10723SOL    HW133610   2.273   6.206   4.199
10723SOL    HW233611   2.142   6.272   4.236
10724SOL     OW33612   3.393   5.802   5.454
10724SOL    HW133613   3.394   5.833   5.545
10724SOL    HW233614   3.364   5.711   5.460
10725SOL     OW33615   2.492   5.693   3.837
10725SOL    HW133616   2.553   5.623   3.863
10725SOL    HW233617   2.449   5.659   3.759
10726SOL     OW33618   2.620   5.870   5.487
10726SOL    HW133619   2.702   5.822   5.476
10726SOL    HW233620   2.578   5.828   5.563
10727SOL     OW33621   2.739   7.113   4.923
10727SOL    HW133622   2.721   7.070   4.838
10727SOL    HW233623   2.807   7.058   4.963
10728SOL     OW33624   3.201   6.180   5.166
10728SOL    HW133625   3.234   6.140   5.246
10728SOL    HW233626   3.247   6.263   5.159
10729SOL     OW33627   2.682   6.974   4.677
10729SOL    HW133628   2.767   6.961   4.637
10729SOL    HW233629   2.621   6.981   4.603
10730SOL     OW33630   2.792   6.094   4.622
10730SOL    HW133631   2.768   6.080   4.530
10730SOL    HW233632   2.823   6.008   4.652
10731SOL     OW33633   2.415   5.653   4.220
10731SOL    HW133634   2.339   5.652   4.277
10731SOL    HW233635   2.402   5.730   4.164
10732SOL     OW33636   3.291   6.786   3.762
10732SOL    HW133637   3.330   6.712   3.809
10732SOL    HW233638   3.209   6.803   3.809
10733SOL     OW33639   2.159   5.631   3.912
10733SOL    HW133640   2.228   5.685   3.874
10733SOL    HW233641   2.205   5.563   3.961
10734SOL     OW33642   2.813   5.853   4.181
10734SOL    HW133643   2.796   5.878   4.091
10734SOL    HW233644   2.908   5.855   4.189
10735SOL     OW33645   2.944   6.269   5.180
10735SOL    HW133646   2.890   6.192   5.194
10735SOL    HW233647   3.034   6.236   5.178
10736SOL     OW33648   3.075   7.155   4.519
10736SOL    HW133649   3.097   7.224   4.457
10736SOL    HW233650   3.153   7.148   4.575
10737SOL     OW33651   2.332   6.752   4.455
10737SOL    HW133652   2.274   6.727   4.527
10737SOL    HW233653   2.289   6.718   4.377
10738SOL     OW33654   3.122   7.375   4.338
10738SOL    HW133655   3.171   7.438   4.285
10738SOL    HW233656   3.055   7.428   4.382
10739SOL     OW33657   2.898   6.116   3.751
10739SOL    HW133658   2.854   6.201   3.744
10739SOL    HW233659   2.957   6.126   3.826
10740SOL     OW33660   1.948   6.150   5.106
10740SOL    HW133661   2.040   6.136   5.085
10740SOL    HW233662   1.949   6.215   5.177
10741SOL     OW33663   2.421   5.805   4.897
10741SOL    HW133664   2.468   5.734   4.940
10741SOL    HW233665   2.331   5.798   4.930
10742SOL     OW33666   2.725   6.048   4.360
10742SOL    HW133667   2.690   6.098   4.287
10742SOL    HW233668   2.756   5.966   4.321
10743SOL     OW33669   2.861   5.646   4.468
10743SOL    HW133670   2.815   5.622   4.388
10743SOL    HW233671   2.849   5.571   4.526
10744SOL     OW33672   3.291   6.743   4.580
10744SOL    HW133673   3.238   6.664   4.591
10744SOL    HW233674   3.311   6.745   4.486
10745SOL     OW33675   3.329   6.193   4.686
10745SOL    HW133676   3.268   6.119   4.694
10745SOL    HW233677   3.386   6.185   4.762
10746SOL     OW33678   3.694   6.395   4.109
10746SOL    HW133679   3.752   6.349   4.170
10746SOL    HW233680   3.672   6.329   4.042
10747SOL     OW33681   2.334   7.011   3.889
10747SOL    HW133682   2.251   6.981   3.926
10747SOL    HW233683   2.352   6.950   3.818
10748SOL     OW33684   3.555   6.858   4.352
10748SOL    HW133685   3.647   6.848   4.378
10748SOL    HW233686   3.530   6.943   4.387
10749SOL     OW33687   3.256   6.159   3.799
10749SOL    HW133688   3.192   6.135   3.866
10749SOL    HW233689   3.336   6.114   3.825
10750SOL     OW33690   2.382   5.854   4.034
10750SOL    HW133691   2.432   5.801   3.972
10750SOL    HW233692   2.354   5.930   3.982
10751SOL     OW33693   3.607   6.830   5.277
10751SOL    HW133694   3.694   6.793   5.266
10751SOL    HW233695   3.623   6.919   5.308
10752SOL     OW33696   2.917   6.943   5.059
10752SOL    HW133697   2.840   6.908   5.105
10752SOL    HW233698   2.991   6.896   5.097
10753SOL     OW33699   3.462   7.224   5.385
10753SOL    HW133700   3.454   7.257   5.295
10753SOL    HW233701   3.541   7.170   5.384
10754SOL     OW33702   3.000   6.806   4.825
10754SOL    HW133703   2.941   6.844   4.890
10754SOL    HW233704   2.969   6.839   4.741
10755SOL     OW33705   3.478   6.676   4.800
10755SOL    HW133706   3.474   6.737   4.874
10755SOL    HW233707   3.401   6.696   4.748
10756SOL     OW33708   2.765   5.734   5.087
10756SOL    HW133709   2.789   5.679   5.013
10756SOL    HW233710   2.847   5.747   5.136
10757SOL     OW33711   2.841   6.703   5.440
10757SOL    HW133712   2.750   6.714   5.469
10757SOL    HW233713   2.841   6.622   5.389
10758SOL     OW33714   2.566   6.643   4.103
10758SOL    HW133715   2.564   6.626   4.197
10758SOL    HW233716   2.643   6.594   4.072
10759SOL     OW33717   2.283   6.403   4.976
10759SOL    HW133718   2.350   6.414   5.044
10759SOL    HW233719   2.254   6.312   4.986
10760SOL     OW33720   3.130   5.969   5.002
10760SOL    HW133721   3.162   6.043   5.053
10760SOL    HW233722   3.040   5.991   4.979
10761SOL     OW33723   1.944   7.161   5.086
10761SOL    HW133724   1.927   7.236   5.029
10761SOL    HW233725   2.039   7.150   5.082
10762SOL     OW33726   2.229   6.678   4.201
10762SOL    HW133727   2.226   6.767   4.166
10762SOL    HW233728   2.316   6.645   4.179
10763SOL     OW33729   2.401   6.115   4.582
10763SOL    HW133730   2.419   6.174   4.509
10763SOL    HW233731   2.469   6.133   4.646
10764SOL     OW33732   3.110   6.943   4.109
10764SOL    HW133733   3.167   7.009   4.148
10764SOL    HW233734   3.025   6.957   4.150
10765SOL     OW33735   3.157   7.048   4.875
10765SOL    HW133736   3.215   7.056   4.951
10765SOL    HW233737   3.109   6.966   4.889
10766SOL     OW33738   3.422   6.213   4.203
10766SOL    HW133739   3.382   6.253   4.280
10766SOL    HW233740   3.489   6.275   4.175
10767SOL     OW33741   2.209   7.113   5.037
10767SOL    HW133742   2.199   7.069   4.952
10767SOL    HW233743   2.304   7.125   5.046
10768SOL     OW33744   2.283   6.325   5.332
10768SOL    HW133745   2.346   6.369   5.274
10768SOL    HW233746   2.323   6.241   5.353
10769SOL     OW33747   3.474   6.371   5.415
10769SOL    HW133748   3.387   6.411   5.410
10769SOL    HW233749   3.524   6.413   5.346
10770SOL     OW33750   2.847   5.727   5.462
10770SOL    HW133751   2.919   5.789   5.445
10770SOL    HW233752   2.882   5.642   5.435
10771SOL     OW33753   2.365   5.630   5.470
10771SOL    HW133754   2.319   5.571   5.411
10771SOL    HW233755   2.307   5.706   5.478
10772SOL     OW33756   2.422   6.482   4.746
10772SOL    HW133757   2.480   6.556   4.764
10772SOL    HW233758   2.386   6.459   4.832
10773SOL     OW33759   3.203   6.446   4.735
10773SOL    HW133760   3.116   6.415   4.708
10773SOL    HW233761   3.258   6.368   4.730
10774SOL     OW33762   3.053   6.117   3.984
10774SOL    HW133763   3.070   6.039   4.035
10774SOL    HW233764   3.012   6.178   4.045
10775SOL     OW33765   2.152   5.781   4.968
10775SOL    HW133766   2.122   5.810   5.054
10775SOL    HW233767   2.140   5.687   4.969
10776SOL     OW33768   1.909   6.902   4.993
10776SOL    HW133769   1.938   6.840   5.061
10776SOL    HW233770   1.915   6.988   5.034
10777SOL     OW33771   2.584   6.204   4.763
10777SOL    HW133772   2.663   6.173   4.719
10777SOL    HW233773   2.580   6.297   4.741
10778SOL     OW33774   3.603   6.551   5.585
10778SOL    HW133775   3.567   6.478   5.535
10778SOL    HW233776   3.542   6.563   5.658
10779SOL     OW33777   2.173   5.652   4.356
10779SOL    HW133778   2.155   5.742   4.380
10779SOL    HW233779   2.186   5.607   4.440
10780SOL     OW33780   3.495   5.974   4.077
10780SOL    HW133781   3.522   5.904   4.136
10780SOL    HW233782   3.459   6.041   4.135
10781SOL     OW33783   2.884   6.345   4.685
10781SOL    HW133784   2.876   6.359   4.779
10781SOL    HW233785   2.863   6.252   4.672
10782SOL     OW33786   2.840   7.149   5.454
10782SOL    HW133787   2.823   7.193   5.371
10782SOL    HW233788   2.884   7.068   5.430
10783SOL     OW33789   3.695   7.089   5.328
10783SOL    HW133790   3.719   7.119   5.240
10783SOL    HW233791   3.776   7.097   5.379
10784SOL     OW33792   2.213   6.514   5.523
10784SOL    HW133793   2.286   6.527   5.583
10784SOL    HW233794   2.243   6.445   5.464
10785SOL     OW33795   3.378   5.877   3.847
10785SOL    HW133796   3.326   5.801   3.872
10785SOL    HW233797   3.422   5.904   3.928
10786SOL     OW33798   3.138   6.405   3.750
10786SOL    HW133799   3.181   6.320   3.760
10786SOL    HW233800   3.176   6.442   3.670
10787SOL     OW33801   2.925   6.925   4.578
10787SOL    HW133802   2.936   6.852   4.518
10787SOL    HW233803   2.986   6.992   4.546
10788SOL     OW33804   2.170   6.398   4.657
10788SOL    HW133805   2.262   6.421   4.672
10788SOL    HW233806   2.162   6.308   4.687
10789SOL     OW33807   2.172   6.126   4.721
10789SOL    HW133808   2.141   6.036   4.719
10789SOL    HW233809   2.254   6.124   4.672
10790SOL     OW33810   2.996   5.973   5.398
10790SOL    HW133811   2.952   6.017   5.471
10790SOL    HW233812   3.086   6.003   5.403
10791SOL     OW33813   3.016   5.795   5.190
10791SOL    HW133814   3.008   5.858   5.262
10791SOL    HW233815   3.071   5.839   5.125
10792SOL     OW33816   1.836   6.849   3.917
10792SOL    HW133817   1.760   6.901   3.890
10792SOL    HW233818   1.833   6.772   3.861
10793SOL     OW33819   1.946   7.363   4.658
10793SOL    HW133820   1.921   7.284   4.611
10793SOL    HW233821   2.038   7.378   4.633
10794SOL     OW33822   2.351   7.161   4.624
10794SOL    HW133823   2.419   7.223   4.649
10794SOL    HW233824   2.395   7.098   4.568
10795SOL     OW33825   2.823   6.372   4.954
10795SOL    HW133826   2.889   6.353   5.020
10795SOL    HW233827   2.749   6.316   4.977
10796SOL     OW33828   1.904   6.159   4.834
10796SOL    HW133829   1.985   6.142   4.787
10796SOL    HW233830   1.927   6.150   4.926
10797SOL     OW33831   2.049   6.110   5.466
10797SOL    HW133832   2.116   6.061   5.418
10797SOL    HW233833   2.024   6.181   5.406
10798SOL     OW33834   3.241   6.520   5.382
10798SOL    HW133835   3.266   6.612   5.376
10798SOL    HW233836   3.241   6.490   5.291
10799SOL     OW33837   2.680   6.156   4.094
10799SOL    HW133838   2.700   6.078   4.041
10799SOL    HW233839   2.602   6.193   4.053
10800SOL     OW33840   3.501   6.188   4.900
10800SOL    HW133841   3.493   6.125   4.971
10800SOL    HW233842   3.589   6.176   4.866
10801SOL     OW33843   2.091   7.130   5.449
10801SOL    HW133844   2.076   7.183   5.527
10801SOL    HW233845   2.107   7.042   5.483
10802SOL     OW33846   2.560   6.035   4.979
10802SOL    HW133847   2.515   5.954   4.954
10802SOL    HW233848   2.560   6.088   4.899
10803SOL     OW33849   2.757   7.270   5.214
10803SOL    HW133850   2.752   7.222   5.131
10803SOL    HW233851   2.766   7.361   5.188
10804SOL     OW33852   2.306   6.073   3.886
10804SOL    HW133853   2.377   6.133   3.909
10804SOL    HW233854   2.227   6.127   3.889
10805SOL     OW33855   2.000   6.727   5.189
10805SOL    HW133856   2.004   6.682   5.274
10805SOL    HW233857   2.020   6.659   5.125
10806SOL     OW33858   3.178   6.628   4.938
10806SOL    HW133859   3.198   6.563   4.870
10806SOL    HW233860   3.114   6.687   4.897
10807SOL     OW33861   3.168   6.464   4.022
10807SOL    HW133862   3.119   6.408   4.083
10807SOL    HW233863   3.149   6.426   3.936
10808SOL     OW33864   3.640   7.330   4.877
10808SOL    HW133865   3.702   7.348   4.806
10808SOL    HW233866   3.607   7.242   4.858
10809SOL     OW33867   3.099   7.316   4.821
10809SOL    HW133868   3.184   7.344   4.785
10809SOL    HW233869   3.113   7.224   4.846
10810SOL     OW33870   1.951   6.860   4.730
10810SOL    HW133871   1.934   6.873   4.823
10810SOL    HW233872   1.882   6.799   4.702
10811SOL     OW33873   2.552   7.263   5.467
10811SOL    HW133874   2.498   7.340   5.449
10811SOL    HW233875   2.627   7.272   5.408
10812SOL     OW33876   3.595   5.760   4.227
10812SOL    HW133877   3.663   5.734   4.164
10812SOL    HW233878   3.569   5.678   4.268
10813SOL     OW33879   3.253   7.156   4.216
10813SOL    HW133880   3.313   7.192   4.151
10813SOL    HW233881   3.206   7.231   4.251
10814SOL     OW33882   1.993   7.395   5.572
10814SOL    HW133883   1.951   7.320   5.615
10814SOL    HW233884   2.048   7.434   5.640
10815SOL     OW33885   3.139   6.522   4.399
10815SOL    HW133886   3.210   6.460   4.415
10815SOL    HW233887   3.177   6.589   4.343
10816SOL     OW33888   2.665   6.864   5.139
10816SOL    HW133889   2.637   6.908   5.220
10816SOL    HW233890   2.587   6.866   5.083
10817SOL     OW33891   2.526   7.200   3.875
10817SOL    HW133892   2.591   7.141   3.837
10817SOL    HW233893   2.448   7.146   3.885
10818SOL     OW33894   3.466   7.320   5.116
10818SOL    HW133895   3.530   7.319   5.044
10818SOL    HW233896   3.453   7.413   5.135
10819SOL     OW33897   3.708   5.759   4.686
10819SOL    HW133898   3.740   5.670   4.672
10819SOL    HW233899   3.621   5.760   4.646
10820SOL     OW33900   2.122   5.908   4.440
10820SOL    HW133901   2.033   5.940   4.425
10820SOL    HW233902   2.128   5.897   4.535
10821SOL     OW33903   3.068   7.176   3.757
10821SOL    HW133904   3.054   7.086   3.787
10821SOL    HW233905   3.003   7.189   3.688
10822SOL     OW33906   2.682   6.588   5.102
10822SOL    HW133907   2.740   6.564   5.030
10822SOL    HW233908   2.692   6.683   5.111
10823SOL     OW33909   2.778   6.505   4.011
10823SOL    HW133910   2.844   6.537   3.949
10823SOL    HW233911   2.823   6.436   4.060
10824SOL     OW33912   3.345   7.225   3.770
10824SOL    HW133913   3.253   7.206   3.755
10824SOL    HW233914   3.384   7.227   3.683
10825SOL     OW33915   2.222   6.893   5.222
10825SOL    HW133916   2.214   6.966   5.161
10825SOL    HW233917   2.148   6.836   5.202
10826SOL     OW33918   3.462   6.864   5.002
10826SOL    HW133919   3.532   6.852   5.066
10826SOL    HW233920   3.408   6.933   5.039
10827SOL     OW33921   2.923   6.697   4.431
10827SOL    HW133922   2.855   6.644   4.472
10827SOL    HW233923   2.994   6.636   4.414
10828SOL     OW33924   2.883   5.826   4.688
10828SOL    HW133925   2.876   5.780   4.605
10828SOL    HW233926   2.880   5.756   4.754
10829SOL     OW33927   2.464   7.058   4.192
10829SOL    HW133928   2.519   7.012   4.128
10829SOL    HW233929   2.399   7.104   4.139
10830SOL     OW33930   3.589   5.982   5.100
10830SOL    HW133931   3.665   6.041   5.102
10830SOL    HW233932   3.618   5.909   5.045
10831SOL     OW33933   2.093   6.916   3.999
10831SOL    HW133934   2.001   6.896   3.985
10831SOL    HW233935   2.097   6.958   4.085
10832SOL     OW33936   1.974   6.622   5.444
10832SOL    HW133937   1.901   6.594   5.498
10832SOL    HW233938   2.051   6.581   5.484
10833SOL     OW33939   2.534   5.805   5.224
10833SOL    HW133940   2.615   5.785   5.177
10833SOL    HW233941   2.561   5.822   5.314
10834SOL     OW33942   1.946   5.930   3.774
10834SOL    HW133943   1.870   5.895   3.728
10834SOL    HW233944   1.980   5.999   3.716
10835SOL     OW33945   3.287   6.449   5.123
10835SOL    HW133946   3.238   6.508   5.065
10835SOL    HW233947   3.375   6.447   5.087
10836SOL     OW33948   1.924   5.739   4.016
10836SOL    HW133949   1.921   5.815   3.959
10836SOL    HW233950   2.011   5.701   4.000
10837SOL     OW33951   3.032   6.907   3.850
10837SOL    HW133952   2.983   6.826   3.860
10837SOL    HW233953   3.066   6.926   3.938
10838SOL     OW33954   2.476   6.422   5.162
10838SOL    HW133955   2.537   6.494   5.148
10838SOL    HW233956   2.532   6.344   5.167
10839SOL     OW33957   3.348   7.379   4.718
10839SOL    HW133958   3.381   7.441   4.653
10839SOL    HW233959   3.426   7.335   4.751
10840SOL     OW33960   2.580   6.142   5.426
10840SOL    HW133961   2.631   6.194   5.488
10840SOL    HW233962   2.594   6.052   5.453
10841SOL     OW33963   3.335   6.783   5.349
10841SOL    HW133964   3.329   6.795   5.444
10841SOL    HW233965   3.427   6.797   5.329
10842SOL     OW33966   2.228   7.325   5.294
10842SOL    HW133967   2.144   7.370   5.284
10842SOL    HW233968   2.206   7.241   5.333
10843SOL     OW33969   3.523   6.460   4.981
10843SOL    HW133970   3.524   6.373   4.942
10843SOL    HW233971   3.518   6.519   4.905
10844SOL     OW33972   3.090   5.915   4.175
10844SOL    HW133973   3.148   5.839   4.166
10844SOL    HW233974   3.121   5.959   4.254
10845SOL     OW33975   2.439   6.321   4.400
10845SOL    HW133976   2.485   6.403   4.386
10845SOL    HW233977   2.375   6.316   4.329
10846SOL     OW33978   3.613   5.958   5.376
10846SOL    HW133979   3.597   5.969   5.283
10846SOL    HW233980   3.549   5.892   5.404
10847SOL     OW33981   3.605   6.524   5.235
10847SOL    HW133982   3.599   6.619   5.241
10847SOL    HW233983   3.589   6.505   5.142
10848SOL     OW33984   2.668   6.987   3.775
10848SOL    HW133985   2.675   6.957   3.865
10848SOL    HW233986   2.758   7.008   3.749
10849SOL     OW33987   2.525   7.369   4.649
10849SOL    HW133988   2.512   7.463   4.638
10849SOL    HW233989   2.620   7.358   4.655
10850SOL     OW33990   2.732   6.554   4.573
10850SOL    HW133991   2.783   6.481   4.609
10850SOL    HW233992   2.692   6.595   4.650
10851SOL     OW33993   2.940   6.589   3.804
10851SOL    HW133994   2.922   6.624   3.717
10851SOL    HW233995   3.010   6.525   3.790
10852SOL     OW33996   3.721   7.126   4.567
10852SOL    HW133997   3.633   7.109   4.534
10852SOL    HW233998   3.741   7.048   4.619
10853SOL     OW33999   2.090   6.879   5.574
10853SOL    HW134000   2.034   6.807   5.548
10853SOL    HW234001   2.079   6.886   5.669
10854SOL     OW34002   1.950   6.788   4.394
10854SOL    HW134003   1.922   6.743   4.473
10854SOL    HW234004   2.045   6.786   4.397
10855SOL     OW34005   2.542   7.003   5.341
10855SOL    HW134006   2.474   6.954   5.388
10855SOL    HW234007   2.551   7.084   5.391
10856SOL     OW34008   3.670   5.771   4.957
10856SOL    HW134009   3.681   5.679   4.981
10856SOL    HW234010   3.683   5.774   4.863
10857SOL     OW34011   2.283   6.029   4.236
10857SOL    HW134012   2.324   5.960   4.185
10857SOL    HW234013   2.245   5.984   4.311
10858SOL     OW34014   3.543   7.086   4.825
10858SOL    HW134015   3.472   7.048   4.773
10858SOL    HW234016   3.573   7.014   4.881
10859SOL     OW34017   2.205   6.142   5.017
10859SOL    HW134018   2.252   6.089   5.081
10859SOL    HW234019   2.227   6.102   4.933
10860SOL     OW34020   2.694   7.165   4.401
10860SOL    HW134021   2.660   7.230   4.339
10860SOL    HW234022   2.622   7.104   4.414
10861SOL     OW34023   3.292   5.816   4.824
10861SOL    HW134024   3.309   5.725   4.847
10861SOL    HW234025   3.251   5.853   4.902
10862SOL     OW34026   2.866   5.603   4.856
10862SOL    HW134027   2.815   5.535   4.812
10862SOL    HW234028   2.954   5.566   4.863
10863SOL     OW34029   2.654   6.908   4.036
10863SOL    HW134030   2.630   6.818   4.060
10863SOL    HW234031   2.728   6.929   4.093
10864SOL     OW34032   2.480   7.149   5.003
10864SOL    HW134033   2.477   7.234   5.048
10864SOL    HW234034   2.572   7.140   4.977
10865SOL     OW34035   3.236   5.643   3.887
10865SOL    HW134036   3.278   5.565   3.851
10865SOL    HW234037   3.146   5.617   3.903
10866SOL     OW34038   3.165   6.057   4.403
10866SOL    HW134039   3.107   6.133   4.406
10866SOL    HW234040   3.154   6.015   4.489
10867SOL     OW34041   3.454   5.783   4.596
10867SOL    HW134042   3.395   5.798   4.670
10867SOL    HW234043   3.449   5.863   4.544
10868SOL     OW34044   2.755   7.252   4.059
10868SOL    HW134045   2.675   7.241   4.008
10868SOL    HW234046   2.736   7.322   4.121
10869SOL     OW34047   2.078   6.229   5.718
10869SOL    HW134048   1.996   6.203   5.760
10869SOL    HW234049   2.071   6.198   5.628
10870SOL     OW34050   2.077   5.882   6.584
10870SOL    HW134051   2.114   5.839   6.662
10870SOL    HW234052   1.992   5.839   6.571
10871SOL     OW34053   1.863   5.976   6.223
10871SOL    HW134054   1.780   5.989   6.268
10871SOL    HW234055   1.849   5.898   6.168
10872SOL     OW34056   2.430   6.890   6.780
10872SOL    HW134057   2.348   6.898   6.731
10872SOL    HW234058   2.452   6.979   6.804
10873SOL     OW34059   3.439   7.108   6.285
10873SOL    HW134060   3.389   7.081   6.362
10873SOL    HW234061   3.376   7.107   6.213
10874SOL     OW34062   2.990   6.293   6.277
10874SOL    HW134063   3.039   6.374   6.270
10874SOL    HW234064   2.944   6.300   6.361
10875SOL     OW34065   3.614   6.190   5.824
10875SOL    HW134066   3.600   6.182   5.729
10875SOL    HW234067   3.591   6.103   5.858
10876SOL     OW34068   2.593   6.717   6.636
10876SOL    HW134069   2.534   6.759   6.698
10876SOL    HW234070   2.638   6.790   6.593
10877SOL     OW34071   2.747   6.347   7.414
10877SOL    HW134072   2.755   6.424   7.470
10877SOL    HW234073   2.763   6.381   7.325
10878SOL     OW34074   2.547   6.585   6.228
10878SOL    HW134075   2.614   6.574   6.294
10878SOL    HW234076   2.480   6.639   6.270
10879SOL     OW34077   2.574   6.736   7.413
10879SOL    HW134078   2.625   6.812   7.442
10879SOL    HW234079   2.500   6.774   7.367
10880SOL     OW34080   2.192   7.002   6.651
10880SOL    HW134081   2.118   6.964   6.604
10880SOL    HW234082   2.239   7.053   6.585
10881SOL     OW34083   3.286   7.096   6.965
10881SOL    HW134084   3.360   7.153   6.945
10881SOL    HW234085   3.324   7.008   6.971
10882SOL     OW34086   2.306   5.983   7.086
10882SOL    HW134087   2.388   5.933   7.083
10882SOL    HW234088   2.237   5.916   7.089
10883SOL     OW34089   3.467   6.035   6.325
10883SOL    HW134090   3.408   6.051   6.252
10883SOL    HW234091   3.459   6.113   6.381
10884SOL     OW34092   2.080   7.310   6.056
10884SOL    HW134093   2.105   7.383   6.113
10884SOL    HW234094   2.156   7.296   6.000
10885SOL     OW34095   2.994   6.925   7.283
10885SOL    HW134096   3.047   6.910   7.361
10885SOL    HW234097   2.945   6.844   7.271
10886SOL     OW34098   2.094   7.032   6.112
10886SOL    HW134099   2.074   7.124   6.125
10886SOL    HW234100   2.045   6.987   6.181
10887SOL     OW34101   2.122   6.673   6.471
10887SOL    HW134102   2.137   6.582   6.499
10887SOL    HW234103   2.075   6.713   6.544
10888SOL     OW34104   2.440   7.394   6.993
10888SOL    HW134105   2.369   7.369   7.052
10888SOL    HW234106   2.477   7.473   7.031
10889SOL     OW34107   2.429   6.576   5.732
10889SOL    HW134108   2.484   6.612   5.662
10889SOL    HW234109   2.473   6.604   5.813
10890SOL     OW34110   3.441   5.718   7.037
10890SOL    HW134111   3.481   5.789   6.987
10890SOL    HW234112   3.431   5.753   7.125
10891SOL     OW34113   1.974   6.246   6.146
10891SOL    HW134114   1.955   6.155   6.166
10891SOL    HW234115   1.972   6.290   6.231
10892SOL     OW34116   3.703   7.339   5.916
10892SOL    HW134117   3.775   7.315   5.975
10892SOL    HW234118   3.722   7.429   5.890
10893SOL     OW34119   1.905   7.175   5.701
10893SOL    HW134120   1.890   7.082   5.718
10893SOL    HW234121   1.879   7.218   5.783
10894SOL     OW34122   3.558   6.507   6.236
10894SOL    HW134123   3.632   6.450   6.214
10894SOL    HW234124   3.535   6.549   6.153
10895SOL     OW34125   3.515   6.686   6.014
10895SOL    HW134126   3.602   6.682   5.974
10895SOL    HW234127   3.524   6.752   6.083
10896SOL     OW34128   1.993   6.325   7.172
10896SOL    HW134129   2.085   6.351   7.169
10896SOL    HW234130   1.944   6.407   7.163
10897SOL     OW34131   2.475   6.982   6.318
10897SOL    HW134132   2.434   6.896   6.326
10897SOL    HW234133   2.463   7.006   6.227
10898SOL     OW34134   3.147   6.823   7.010
10898SOL    HW134135   3.174   6.757   6.947
10898SOL    HW234136   3.209   6.814   7.082
10899SOL     OW34137   2.687   5.605   6.079
10899SOL    HW134138   2.723   5.693   6.070
10899SOL    HW234139   2.594   5.619   6.097
10900SOL     OW34140   2.048   6.544   6.865
10900SOL    HW134141   2.136   6.508   6.857
10900SOL    HW234142   1.994   6.492   6.805
10901SOL     OW34143   3.391   6.591   5.786
10901SOL    HW134144   3.322   6.533   5.818
10901SOL    HW234145   3.437   6.619   5.865
10902SOL     OW34146   3.039   7.400   7.225
10902SOL    HW134147   3.045   7.459   7.150
10902SOL    HW234148   3.048   7.313   7.187
10903SOL     OW34149   2.196   5.830   7.436
10903SOL    HW134150   2.241   5.914   7.423
10903SOL    HW234151   2.105   5.854   7.453
10904SOL     OW34152   3.276   7.017   6.480
10904SOL    HW134153   3.281   7.038   6.574
10904SOL    HW234154   3.282   6.921   6.477
10905SOL     OW34155   3.506   7.353   6.160
10905SOL    HW134156   3.492   7.315   6.073
10905SOL    HW234157   3.494   7.280   6.220
10906SOL     OW34158   2.453   6.292   5.853
10906SOL    HW134159   2.461   6.378   5.814
10906SOL    HW234160   2.389   6.303   5.924
10907SOL     OW34161   3.137   5.964   6.523
10907SOL    HW134162   3.051   5.922   6.530
10907SOL    HW234163   3.195   5.907   6.574
10908SOL     OW34164   3.436   7.269   5.897
10908SOL    HW134165   3.530   7.285   5.890
10908SOL    HW234166   3.409   7.248   5.808
10909SOL     OW34167   2.634   6.204   7.038
10909SOL    HW134168   2.615   6.169   7.126
10909SOL    HW234169   2.608   6.134   6.979
10910SOL     OW34170   3.257   6.059   7.263
10910SOL    HW134171   3.267   6.098   7.350
10910SOL    HW234172   3.306   5.977   7.269
10911SOL     OW34173   2.811   6.463   7.172
10911SOL    HW134174   2.864   6.394   7.132
10911SOL    HW234175   2.759   6.498   7.100
10912SOL     OW34176   2.857   6.006   6.806
10912SOL    HW134177   2.771   5.989   6.846
10912SOL    HW234178   2.859   5.947   6.730
10913SOL     OW34179   2.915   6.290   6.009
10913SOL    HW134180   2.936   6.282   6.102
10913SOL    HW234181   2.834   6.240   5.998
10914SOL     OW34182   1.950   6.414   6.366
10914SOL    HW134183   2.032   6.399   6.413
10914SOL    HW234184   1.913   6.493   6.407
10915SOL     OW34185   1.982   7.457   7.169
10915SOL    HW134186   1.984   7.439   7.263
10915SOL    HW234187   1.906   7.408   7.138
10916SOL     OW34188   2.759   5.935   5.785
10916SOL    HW134189   2.803   5.991   5.720
10916SOL    HW234190   2.767   5.847   5.749
10917SOL     OW34191   3.572   6.169   7.423
10917SOL    HW134192   3.537   6.240   7.369
10917SOL    HW234193   3.591   6.098   7.362
10918SOL     OW34194   3.250   6.729   6.124
10918SOL    HW134195   3.329   6.712   6.073
10918SOL    HW234196   3.198   6.788   6.070
10919SOL     OW34197   2.391   5.766   6.481
10919SOL    HW134198   2.411   5.787   6.572
10919SOL    HW234199   2.413   5.846   6.433
10920SOL     OW34200   2.862   7.031   6.054
10920SOL    HW134201   2.834   7.108   6.004
10920SOL    HW234202   2.840   7.052   6.145
10921SOL     OW34203   2.217   7.403   6.463
10921SOL    HW134204   2.262   7.319   6.466
10921SOL    HW234205   2.285   7.468   6.480
10922SOL     OW34206   3.669   6.649   6.448
10922SOL    HW134207   3.617   6.615   6.375
10922SOL    HW234208   3.608   6.650   6.522
10923SOL     OW34209   3.064   7.146   7.119
10923SOL    HW134210   3.051   7.059   7.157
10923SOL    HW234211   3.135   7.133   7.056
10924SOL     OW34212   2.166   6.545   5.839
10924SOL    HW134213   2.253   6.561   5.801
10924SOL    HW234214   2.144   6.456   5.811
10925SOL     OW34215   3.336   6.356   6.319
10925SOL    HW134216   3.338   6.301   6.397
10925SOL    HW234217   3.423   6.395   6.316
10926SOL     OW34218   2.330   6.865   7.333
10926SOL    HW134219   2.305   6.869   7.241
10926SOL    HW234220   2.247   6.855   7.380
10927SOL     OW34221   2.990   7.369   5.804
10927SOL    HW134222   2.915   7.331   5.851
10927SOL    HW234223   3.015   7.301   5.741
10928SOL     OW34224   2.066   5.839   7.089
10928SOL    HW134225   1.982   5.883   7.086
10928SOL    HW234226   2.046   5.751   7.121
10929SOL     OW34227   3.494   6.975   5.687
10929SOL    HW134228   3.450   7.057   5.664
10929SOL    HW234229   3.431   6.907   5.663
10930SOL     OW34230   2.320   7.322   5.904
10930SOL    HW134231   2.368   7.373   5.970
10930SOL    HW234232   2.388   7.284   5.849
10931SOL     OW34233   3.266   5.695   6.022
10931SOL    HW134234   3.262   5.662   5.932
10931SOL    HW234235   3.349   5.660   6.056
10932SOL     OW34236   2.119   7.371   6.810
10932SOL    HW134237   2.171   7.302   6.851
10932SOL    HW234238   2.121   7.350   6.716
10933SOL     OW34239   2.808   7.283   6.480
10933SOL    HW134240   2.893   7.242   6.490
10933SOL    HW234241   2.764   7.233   6.412
10934SOL     OW34242   2.255   6.283   6.053
10934SOL    HW134243   2.272   6.190   6.066
10934SOL    HW234244   2.161   6.292   6.072
10935SOL     OW34245   3.390   5.809   7.310
10935SOL    HW134246   3.387   5.831   7.403
10935SOL    HW234247   3.359   5.718   7.306
10936SOL     OW34248   2.506   5.699   5.692
10936SOL    HW134249   2.556   5.624   5.723
10936SOL    HW234250   2.459   5.667   5.616
10937SOL     OW34251   2.626   5.867   7.354
10937SOL    HW134252   2.708   5.821   7.341
10937SOL    HW234253   2.580   5.817   7.422
10938SOL     OW34254   2.735   7.106   6.784
10938SOL    HW134255   2.719   7.069   6.697
10938SOL    HW234256   2.806   7.053   6.820
10939SOL     OW34257   3.198   6.182   7.023
10939SOL    HW134258   3.232   6.143   7.104
10939SOL    HW234259   3.245   6.264   7.015
10940SOL     OW34260   2.672   6.973   6.538
10940SOL    HW134261   2.759   6.959   6.501
10940SOL    HW234262   2.614   6.980   6.462
10941SOL     OW34263   2.787   6.095   6.484
10941SOL    HW134264   2.764   6.083   6.392
10941SOL    HW234265   2.819   6.010   6.512
10942SOL     OW34266   2.413   5.656   6.083
10942SOL    HW134267   2.334   5.653   6.137
10942SOL    HW234268   2.400   5.730   6.024
10943SOL     OW34269   3.297   6.791   5.623
10943SOL    HW134270   3.330   6.715   5.672
10943SOL    HW234271   3.211   6.809   5.661
10944SOL     OW34272   2.158   5.633   5.775
10944SOL    HW134273   2.227   5.692   5.745
10944SOL    HW234274   2.205   5.563   5.822
10945SOL     OW34275   2.811   5.853   6.046
10945SOL    HW134276   2.792   5.880   5.956
10945SOL    HW234277   2.907   5.854   6.051
10946SOL     OW34278   2.940   6.264   7.039
10946SOL    HW134279   2.886   6.185   7.040
10946SOL    HW234280   3.030   6.232   7.034
10947SOL     OW34281   3.057   7.162   6.388
10947SOL    HW134282   3.092   7.224   6.324
10947SOL    HW234283   3.135   7.120   6.426
10948SOL     OW34284   2.331   6.746   6.309
10948SOL    HW134285   2.267   6.720   6.376
10948SOL    HW234286   2.286   6.731   6.226
10949SOL     OW34287   3.126   7.376   6.199
10949SOL    HW134288   3.171   7.440   6.144
10949SOL    HW234289   3.057   7.427   6.242
10950SOL     OW34290   2.891   6.112   5.615
10950SOL    HW134291   2.851   6.197   5.602
10950SOL    HW234292   2.954   6.126   5.687
10951SOL     OW34293   1.955   6.138   6.975
10951SOL    HW134294   2.047   6.135   6.949
10951SOL    HW234295   1.953   6.205   7.044
10952SOL     OW34296   2.426   5.805   6.755
10952SOL    HW134297   2.471   5.727   6.787
10952SOL    HW234298   2.336   5.795   6.785
10953SOL     OW34299   2.724   6.050   6.223
10953SOL    HW134300   2.690   6.100   6.149
10953SOL    HW234301   2.755   5.968   6.183
10954SOL     OW34302   2.850   5.657   6.346
10954SOL    HW134303   2.821   5.631   6.258
10954SOL    HW234304   2.847   5.576   6.397
10955SOL     OW34305   3.304   6.740   6.441
10955SOL    HW134306   3.240   6.669   6.448
10955SOL    HW234307   3.324   6.745   6.348
10956SOL     OW34308   3.325   6.198   6.551
10956SOL    HW134309   3.269   6.120   6.549
10956SOL    HW234310   3.382   6.184   6.627
10957SOL     OW34311   3.699   6.397   5.975
10957SOL    HW134312   3.758   6.346   6.030
10957SOL    HW234313   3.667   6.335   5.910
10958SOL     OW34314   2.354   7.014   5.740
10958SOL    HW134315   2.274   6.981   5.783
10958SOL    HW234316   2.369   6.952   5.669
10959SOL     OW34317   3.547   6.859   6.215
10959SOL    HW134318   3.640   6.857   6.236
10959SOL    HW234319   3.518   6.945   6.245
10960SOL     OW34320   3.257   6.156   5.661
10960SOL    HW134321   3.192   6.132   5.727
10960SOL    HW234322   3.335   6.105   5.683
10961SOL     OW34323   2.381   5.851   5.892
10961SOL    HW134324   2.438   5.804   5.831
10961SOL    HW234325   2.355   5.930   5.845
10962SOL     OW34326   3.612   6.823   7.181
10962SOL    HW134327   3.694   6.777   7.199
10962SOL    HW234328   3.635   6.916   7.187
10963SOL     OW34329   2.907   6.925   6.908
10963SOL    HW134330   2.834   6.897   6.963
10963SOL    HW234331   2.985   6.898   6.957
10964SOL     OW34332   3.479   7.216   7.262
10964SOL    HW134333   3.463   7.249   7.173
10964SOL    HW234334   3.557   7.161   7.253
10965SOL     OW34335   3.009   6.808   6.685
10965SOL    HW134336   2.952   6.844   6.753
10965SOL    HW234337   2.972   6.840   6.603
10966SOL     OW34338   3.485   6.675   6.654
10966SOL    HW134339   3.470   6.734   6.728
10966SOL    HW234340   3.414   6.695   6.593
10967SOL     OW34341   2.762   5.725   6.953
10967SOL    HW134342   2.786   5.674   6.875
10967SOL    HW234343   2.846   5.742   6.997
10968SOL     OW34344   2.843   6.696   7.307
10968SOL    HW134345   2.751   6.710   7.327
10968SOL    HW234346   2.844   6.618   7.251
10969SOL     OW34347   2.574   6.650   5.958
10969SOL    HW134348   2.561   6.628   6.050
10969SOL    HW234349   2.649   6.597   5.930
10970SOL     OW34350   2.284   6.409   6.844
10970SOL    HW134351   2.353   6.418   6.909
10970SOL    HW234352   2.256   6.318   6.850
10971SOL     OW34353   3.126   5.961   6.872
10971SOL    HW134354   3.159   6.039   6.914
10971SOL    HW234355   3.038   5.984   6.842
10972SOL     OW34356   1.943   7.157   6.944
10972SOL    HW134357   1.919   7.228   6.885
10972SOL    HW234358   2.039   7.151   6.937
10973SOL     OW34359   2.182   6.708   6.077
10973SOL    HW134360   2.197   6.775   6.010
10973SOL    HW234361   2.183   6.626   6.029
10974SOL     OW34362   2.402   6.122   6.447
10974SOL    HW134363   2.417   6.181   6.373
10974SOL    HW234364   2.475   6.137   6.506
10975SOL     OW34365   3.111   6.938   5.975
10975SOL    HW134366   3.167   7.007   6.011
10975SOL    HW234367   3.024   6.957   6.011
10976SOL     OW34368   3.140   7.064   6.734
10976SOL    HW134369   3.187   7.070   6.817
10976SOL    HW234370   3.104   6.975   6.733
10977SOL     OW34371   3.434   6.199   6.081
10977SOL    HW134372   3.380   6.264   6.125
10977SOL    HW234373   3.476   6.247   6.010
10978SOL     OW34374   2.211   7.114   6.894
10978SOL    HW134375   2.201   7.069   6.810
10978SOL    HW234376   2.306   7.127   6.903
10979SOL     OW34377   2.278   6.329   7.191
10979SOL    HW134378   2.343   6.373   7.137
10979SOL    HW234379   2.310   6.239   7.200
10980SOL     OW34380   3.481   6.380   7.275
10980SOL    HW134381   3.393   6.416   7.264
10980SOL    HW234382   3.530   6.415   7.201
10981SOL     OW34383   2.855   5.729   7.336
10981SOL    HW134384   2.919   5.795   7.309
10981SOL    HW234385   2.892   5.646   7.306
10982SOL     OW34386   2.359   5.629   7.344
10982SOL    HW134387   2.319   5.571   7.279
10982SOL    HW234388   2.295   5.699   7.356
10983SOL     OW34389   2.438   6.471   6.614
10983SOL    HW134390   2.487   6.553   6.625
10983SOL    HW234391   2.393   6.459   6.698
10984SOL     OW34392   3.202   6.444   6.607
10984SOL    HW134393   3.117   6.423   6.566
10984SOL    HW234394   3.253   6.364   6.597
10985SOL     OW34395   3.054   6.114   5.844
10985SOL    HW134396   3.070   6.035   5.896
10985SOL    HW234397   3.014   6.175   5.906
10986SOL     OW34398   2.160   5.779   6.829
10986SOL    HW134399   2.130   5.802   6.917
10986SOL    HW234400   2.148   5.685   6.824
10987SOL     OW34401   1.891   6.898   6.859
10987SOL    HW134402   1.931   6.839   6.924
10987SOL    HW234403   1.909   6.986   6.892
10988SOL     OW34404   2.587   6.211   6.635
10988SOL    HW134405   2.662   6.184   6.582
10988SOL    HW234406   2.568   6.300   6.606
10989SOL     OW34407   3.606   6.553   7.451
10989SOL    HW134408   3.571   6.485   7.394
10989SOL    HW234409   3.540   6.562   7.521
10990SOL     OW34410   2.171   5.649   6.218
10990SOL    HW134411   2.152   5.740   6.242
10990SOL    HW234412   2.184   5.604   6.301
10991SOL     OW34413   3.495   5.963   5.944
10991SOL    HW134414   3.524   5.889   5.996
10991SOL    HW234415   3.465   6.028   6.008
10992SOL     OW34416   2.885   6.345   6.543
10992SOL    HW134417   2.877   6.360   6.637
10992SOL    HW234418   2.862   6.253   6.531
10993SOL     OW34419   2.834   7.142   7.317
10993SOL    HW134420   2.816   7.192   7.238
10993SOL    HW234421   2.886   7.067   7.288
10994SOL     OW34422   3.717   7.088   7.195
10994SOL    HW134423   3.733   7.108   7.102
10994SOL    HW234424   3.803   7.096   7.236
10995SOL     OW34425   2.212   6.501   7.397
10995SOL    HW134426   2.294   6.522   7.441
10995SOL    HW234427   2.236   6.437   7.329
10996SOL     OW34428   3.370   5.879   5.713
10996SOL    HW134429   3.320   5.800   5.735
10996SOL    HW234430   3.417   5.901   5.793
10997SOL     OW34431   3.146   6.406   5.614
10997SOL    HW134432   3.188   6.320   5.622
10997SOL    HW234433   3.180   6.443   5.533
10998SOL     OW34434   2.918   6.922   6.447
10998SOL    HW134435   2.928   6.850   6.385
10998SOL    HW234436   2.974   6.992   6.413
10999SOL     OW34437   2.174   6.401   6.530
10999SOL    HW134438   2.268   6.419   6.532
10999SOL    HW234439   2.167   6.310   6.558
11000SOL     OW34440   2.180   6.126   6.595
11000SOL    HW134441   2.146   6.037   6.588
11000SOL    HW234442   2.259   6.127   6.542
11001SOL     OW34443   2.995   5.968   7.266
11001SOL    HW134444   2.952   6.017   7.336
11001SOL    HW234445   3.084   6.003   7.264
11002SOL     OW34446   3.010   5.790   7.055
11002SOL    HW134447   3.006   5.854   7.126
11002SOL    HW234448   3.064   5.831   6.988
11003SOL     OW34449   1.864   6.903   5.783
11003SOL    HW134450   1.777   6.919   5.747
11003SOL    HW234451   1.861   6.813   5.815
11004SOL     OW34452   1.950   7.366   6.526
11004SOL    HW134453   1.922   7.286   6.482
11004SOL    HW234454   2.040   7.380   6.496
11005SOL     OW34455   2.352   7.161   6.490
11005SOL    HW134456   2.422   7.222   6.514
11005SOL    HW234457   2.393   7.098   6.431
11006SOL     OW34458   2.823   6.373   6.811
11006SOL    HW134459   2.884   6.351   6.881
11006SOL    HW234460   2.750   6.312   6.823
11007SOL     OW34461   1.900   6.150   6.700
11007SOL    HW134462   1.976   6.132   6.645
11007SOL    HW234463   1.933   6.142   6.790
11008SOL     OW34464   2.064   6.102   7.319
11008SOL    HW134465   2.113   6.052   7.253
11008SOL    HW234466   2.028   6.177   7.271
11009SOL     OW34467   3.241   6.522   7.245
11009SOL    HW134468   3.265   6.615   7.237
11009SOL    HW234469   3.238   6.490   7.155
11010SOL     OW34470   2.682   6.154   5.954
11010SOL    HW134471   2.695   6.077   5.899
11010SOL    HW234472   2.605   6.197   5.917
11011SOL     OW34473   3.501   6.190   6.769
11011SOL    HW134474   3.491   6.121   6.834
11011SOL    HW234475   3.588   6.175   6.731
11012SOL     OW34476   2.092   7.130   7.311
11012SOL    HW134477   2.077   7.184   7.389
11012SOL    HW234478   2.105   7.042   7.345
11013SOL     OW34479   2.558   6.034   6.843
11013SOL    HW134480   2.516   5.954   6.813
11013SOL    HW234481   2.561   6.090   6.765
11014SOL     OW34482   2.742   7.276   7.090
11014SOL    HW134483   2.762   7.219   7.015
11014SOL    HW234484   2.752   7.365   7.055
11015SOL     OW34485   2.310   6.074   5.748
11015SOL    HW134486   2.378   6.136   5.774
11015SOL    HW234487   2.229   6.126   5.749
11016SOL     OW34488   1.996   6.729   7.057
11016SOL    HW134489   2.005   6.686   7.142
11016SOL    HW234490   2.015   6.661   6.993
11017SOL     OW34491   3.176   6.627   6.806
11017SOL    HW134492   3.195   6.562   6.739
11017SOL    HW234493   3.116   6.689   6.763
11018SOL     OW34494   3.174   6.449   5.888
11018SOL    HW134495   3.108   6.403   5.941
11018SOL    HW234496   3.153   6.425   5.798
11019SOL     OW34497   3.682   7.381   6.755
11019SOL    HW134498   3.735   7.382   6.675
11019SOL    HW234499   3.623   7.307   6.743
11020SOL     OW34500   3.102   7.334   6.700
11020SOL    HW134501   3.188   7.353   6.661
11020SOL    HW234502   3.103   7.239   6.714
11021SOL     OW34503   1.935   6.872   6.586
11021SOL    HW134504   1.915   6.874   6.680
11021SOL    HW234505   1.883   6.799   6.552
11022SOL     OW34506   2.551   7.264   7.325
11022SOL    HW134507   2.493   7.337   7.306
11022SOL    HW234508   2.621   7.271   7.260
11023SOL     OW34509   3.595   5.752   6.094
11023SOL    HW134510   3.660   5.724   6.030
11023SOL    HW234511   3.565   5.671   6.135
11024SOL     OW34512   3.255   7.155   6.077
11024SOL    HW134513   3.311   7.192   6.008
11024SOL    HW234514   3.205   7.230   6.110
11025SOL     OW34515   1.990   7.394   7.431
11025SOL    HW134516   1.949   7.319   7.473
11025SOL    HW234517   2.043   7.434   7.499
11026SOL     OW34518   3.136   6.526   6.265
11026SOL    HW134519   3.208   6.464   6.281
11026SOL    HW234520   3.174   6.591   6.206
11027SOL     OW34521   2.658   6.860   7.008
11027SOL    HW134522   2.629   6.906   7.088
11027SOL    HW234523   2.587   6.875   6.945
11028SOL     OW34524   2.527   7.222   5.742
11028SOL    HW134525   2.547   7.233   5.649
11028SOL    HW234526   2.476   7.141   5.746
11029SOL     OW34527   3.495   7.312   7.004
11029SOL    HW134528   3.515   7.291   6.912
11029SOL    HW234529   3.476   7.406   7.003
11030SOL     OW34530   3.715   5.754   6.549
11030SOL    HW134531   3.742   5.665   6.529
11030SOL    HW234532   3.627   5.762   6.510
11031SOL     OW34533   2.121   5.903   6.304
11031SOL    HW134534   2.033   5.936   6.284
11031SOL    HW234535   2.123   5.896   6.399
11032SOL     OW34536   3.068   7.178   5.622
11032SOL    HW134537   3.058   7.087   5.651
11032SOL    HW234538   3.000   7.190   5.556
11033SOL     OW34539   2.684   6.588   6.965
11033SOL    HW134540   2.735   6.567   6.886
11033SOL    HW234541   2.687   6.683   6.970
11034SOL     OW34542   2.781   6.501   5.874
11034SOL    HW134543   2.844   6.533   5.809
11034SOL    HW234544   2.828   6.432   5.921
11035SOL     OW34545   3.343   7.234   5.634
11035SOL    HW134546   3.252   7.210   5.618
11035SOL    HW234547   3.384   7.233   5.547
11036SOL     OW34548   2.220   6.898   7.089
11036SOL    HW134549   2.221   6.967   7.023
11036SOL    HW234550   2.148   6.840   7.064
11037SOL     OW34551   3.472   6.868   6.859
11037SOL    HW134552   3.563   6.852   6.885
11037SOL    HW234553   3.476   6.949   6.808
11038SOL     OW34554   2.922   6.699   6.297
11038SOL    HW134555   2.851   6.645   6.333
11038SOL    HW234556   2.992   6.637   6.277
11039SOL     OW34557   2.880   5.831   6.562
11039SOL    HW134558   2.870   5.787   6.477
11039SOL    HW234559   2.881   5.760   6.626
11040SOL     OW34560   2.469   7.069   6.060
11040SOL    HW134561   2.527   7.019   6.002
11040SOL    HW234562   2.393   7.090   6.005
11041SOL     OW34563   3.597   5.974   6.964
11041SOL    HW134564   3.671   6.035   6.960
11041SOL    HW234565   3.622   5.901   6.908
11042SOL     OW34566   2.121   6.930   5.867
11042SOL    HW134567   2.028   6.923   5.846
11042SOL    HW234568   2.124   6.969   5.954
11043SOL     OW34569   1.982   6.635   7.322
11043SOL    HW134570   1.905   6.602   7.368
11043SOL    HW234571   2.055   6.582   7.355
11044SOL     OW34572   2.534   5.803   7.090
11044SOL    HW134573   2.612   5.781   7.039
11044SOL    HW234574   2.567   5.821   7.178
11045SOL     OW34575   1.940   5.919   5.633
11045SOL    HW134576   1.866   5.885   5.583
11045SOL    HW234577   1.971   5.994   5.581
11046SOL     OW34578   3.289   6.450   6.987
11046SOL    HW134579   3.237   6.507   6.931
11046SOL    HW234580   3.375   6.447   6.945
11047SOL     OW34581   1.923   5.740   5.877
11047SOL    HW134582   1.916   5.813   5.815
11047SOL    HW234583   2.010   5.703   5.861
11048SOL     OW34584   3.044   6.910   5.709
11048SOL    HW134585   2.971   6.848   5.714
11048SOL    HW234586   3.074   6.920   5.799
11049SOL     OW34587   2.479   6.422   7.029
11049SOL    HW134588   2.540   6.493   7.011
11049SOL    HW234589   2.533   6.343   7.033
11050SOL     OW34590   3.353   7.376   6.600
11050SOL    HW134591   3.392   7.399   6.515
11050SOL    HW234592   3.399   7.297   6.627
11051SOL     OW34593   2.575   6.138   7.298
11051SOL    HW134594   2.633   6.191   7.353
11051SOL    HW234595   2.596   6.048   7.322
11052SOL     OW34596   3.337   6.782   7.217
11052SOL    HW134597   3.333   6.797   7.311
11052SOL    HW234598   3.429   6.797   7.195
11053SOL     OW34599   2.228   7.329   7.159
11053SOL    HW134600   2.145   7.374   7.142
11053SOL    HW234601   2.203   7.244   7.195
11054SOL     OW34602   3.525   6.460   6.843
11054SOL    HW134603   3.522   6.372   6.807
11054SOL    HW234604   3.516   6.518   6.767
11055SOL     OW34605   3.088   5.911   6.035
11055SOL    HW134606   3.148   5.836   6.026
11055SOL    HW234607   3.118   5.956   6.114
11056SOL     OW34608   2.436   6.326   6.263
11056SOL    HW134609   2.483   6.406   6.245
11056SOL    HW234610   2.378   6.314   6.188
11057SOL     OW34611   3.607   5.966   7.243
11057SOL    HW134612   3.602   5.972   7.147
11057SOL    HW234613   3.542   5.900   7.267
11058SOL     OW34614   3.625   6.525   7.090
11058SOL    HW134615   3.599   6.617   7.098
11058SOL    HW234616   3.601   6.501   7.001
11059SOL     OW34617   2.689   6.960   5.625
11059SOL    HW134618   2.684   6.975   5.719
11059SOL    HW234619   2.735   7.037   5.590
11060SOL     OW34620   2.528   7.368   6.519
11060SOL    HW134621   2.517   7.461   6.500
11060SOL    HW234622   2.623   7.354   6.517
11061SOL     OW34623   2.730   6.556   6.437
11061SOL    HW134624   2.781   6.482   6.470
11061SOL    HW234625   2.690   6.594   6.515
11062SOL     OW34626   2.942   6.582   5.669
11062SOL    HW134627   2.921   6.623   5.585
11062SOL    HW234628   3.013   6.521   5.650
11063SOL     OW34629   3.691   7.154   6.440
11063SOL    HW134630   3.626   7.132   6.373
11063SOL    HW234631   3.651   7.125   6.522
11064SOL     OW34632   2.073   6.875   7.431
11064SOL    HW134633   2.039   6.797   7.387
11064SOL    HW234634   2.017   6.886   7.507
11065SOL     OW34635   1.965   6.811   6.250
11065SOL    HW134636   1.988   6.768   6.332
11065SOL    HW234637   2.025   6.773   6.185
11066SOL     OW34638   2.545   6.997   7.218
11066SOL    HW134639   2.467   6.959   7.258
11066SOL    HW234640   2.551   7.085   7.254
11067SOL     OW34641   3.676   5.762   6.821
11067SOL    HW134642   3.670   5.668   6.838
11067SOL    HW234643   3.688   5.768   6.726
11068SOL     OW34644   2.280   6.022   6.102
11068SOL    HW134645   2.321   5.953   6.049
11068SOL    HW234646   2.240   5.975   6.176
11069SOL     OW34647   2.208   6.146   6.881
11069SOL    HW134648   2.261   6.088   6.937
11069SOL    HW234649   2.224   6.114   6.792
11070SOL     OW34650   2.691   7.171   6.261
11070SOL    HW134651   2.666   7.237   6.197
11070SOL    HW234652   2.618   7.109   6.261
11071SOL     OW34653   3.289   5.804   6.680
11071SOL    HW134654   3.307   5.710   6.685
11071SOL    HW234655   3.250   5.825   6.765
11072SOL     OW34656   2.867   5.600   6.721
11072SOL    HW134657   2.820   5.534   6.669
11072SOL    HW234658   2.955   5.564   6.731
11073SOL     OW34659   2.645   6.919   5.909
11073SOL    HW134660   2.620   6.827   5.919
11073SOL    HW234661   2.726   6.927   5.960
11074SOL     OW34662   2.482   7.149   6.872
11074SOL    HW134663   2.480   7.235   6.914
11074SOL    HW234664   2.572   7.138   6.842
11075SOL     OW34665   3.233   5.641   5.749
11075SOL    HW134666   3.277   5.565   5.712
11075SOL    HW234667   3.143   5.612   5.764
11076SOL     OW34668   3.153   6.056   6.261
11076SOL    HW134669   3.097   6.134   6.268
11076SOL    HW234670   3.151   6.018   6.349
11077SOL     OW34671   3.465   5.794   6.461
11077SOL    HW134672   3.397   5.802   6.529
11077SOL    HW234673   3.453   5.871   6.406
11078SOL     OW34674   1.903   6.647   5.892
11078SOL    HW134675   1.996   6.637   5.871
11078SOL    HW234676   1.874   6.559   5.914
11079SOL     OW34677   2.757   7.249   5.916
11079SOL    HW134678   2.680   7.232   5.862
11079SOL    HW234679   2.727   7.314   5.980
11080SOL     OW34680   2.081   6.218   7.576
11080SOL    HW134681   1.990   6.199   7.601
11080SOL    HW234682   2.086   6.193   7.483
11081SOL     OW34683   2.080   5.882   8.449
11081SOL    HW134684   2.115   5.840   8.528
11081SOL    HW234685   2.000   5.834   8.429
11082SOL     OW34686   2.421   6.890   8.638
11082SOL    HW134687   2.340   6.903   8.589
11082SOL    HW234688   2.444   6.977   8.670
11083SOL     OW34689   3.449   7.113   8.158
11083SOL    HW134690   3.403   7.083   8.237
11083SOL    HW234691   3.381   7.114   8.091
11084SOL     OW34692   2.984   6.303   8.141
11084SOL    HW134693   3.045   6.376   8.133
11084SOL    HW234694   2.944   6.314   8.227
11085SOL     OW34695   3.604   6.193   7.690
11085SOL    HW134696   3.595   6.189   7.594
11085SOL    HW234697   3.586   6.103   7.719
11086SOL     OW34698   2.607   6.735   8.507
11086SOL    HW134699   2.536   6.769   8.562
11086SOL    HW234700   2.642   6.812   8.463
11087SOL     OW34701   2.744   6.344   9.276
11087SOL    HW134702   2.741   6.417   9.338
11087SOL    HW234703   2.764   6.385   9.192
11088SOL     OW34704   2.557   6.589   8.100
11088SOL    HW134705   2.602   6.569   8.182
11088SOL    HW234706   2.486   6.648   8.125
11089SOL     OW34707   2.575   6.734   9.272
11089SOL    HW134708   2.624   6.810   9.303
11089SOL    HW234709   2.498   6.771   9.230
11090SOL     OW34710   2.193   7.001   8.512
11090SOL    HW134711   2.118   6.962   8.466
11090SOL    HW234712   2.237   7.054   8.445
11091SOL     OW34713   3.320   7.089   8.814
11091SOL    HW134714   3.374   7.167   8.823
11091SOL    HW234715   3.251   7.101   8.880
11092SOL     OW34716   2.305   5.984   8.939
11092SOL    HW134717   2.386   5.933   8.939
11092SOL    HW234718   2.236   5.919   8.950
11093SOL     OW34719   3.434   6.079   8.217
11093SOL    HW134720   3.407   6.067   8.126
11093SOL    HW234721   3.529   6.076   8.215
11094SOL     OW34722   2.084   7.308   7.915
11094SOL    HW134723   2.108   7.382   7.970
11094SOL    HW234724   2.157   7.298   7.854
11095SOL     OW34725   2.999   6.928   9.144
11095SOL    HW134726   3.045   6.916   9.227
11095SOL    HW234727   2.948   6.848   9.133
11096SOL     OW34728   2.094   7.038   7.987
11096SOL    HW134729   2.077   7.132   7.985
11096SOL    HW234730   2.035   7.004   8.054
11097SOL     OW34731   2.132   6.680   8.341
11097SOL    HW134732   2.140   6.601   8.395
11097SOL    HW234733   2.073   6.737   8.390
11098SOL     OW34734   2.450   7.380   8.867
11098SOL    HW134735   2.373   7.362   8.921
11098SOL    HW234736   2.481   7.465   8.897
11099SOL     OW34737   2.434   6.576   7.593
11099SOL    HW134738   2.484   6.617   7.522
11099SOL    HW234739   2.477   6.606   7.673
11100SOL     OW34740   3.437   5.728   8.901
11100SOL    HW134741   3.484   5.795   8.851
11100SOL    HW234742   3.427   5.765   8.989
11101SOL     OW34743   1.989   6.262   8.011
11101SOL    HW134744   1.933   6.185   8.021
11101SOL    HW234745   1.979   6.310   8.093
11102SOL     OW34746   3.776   7.329   7.835
11102SOL    HW134747   3.701   7.322   7.893
11102SOL    HW234748   3.767   7.416   7.795
11103SOL     OW34749   1.908   7.176   7.567
11103SOL    HW134750   1.892   7.083   7.584
11103SOL    HW234751   1.880   7.221   7.647
11104SOL     OW34752   3.564   6.507   8.104
11104SOL    HW134753   3.640   6.449   8.094
11104SOL    HW234754   3.547   6.540   8.016
11105SOL     OW34755   3.513   6.686   7.878
11105SOL    HW134756   3.599   6.681   7.837
11105SOL    HW234757   3.523   6.750   7.948
11106SOL     OW34758   1.990   6.328   9.030
11106SOL    HW134759   2.081   6.357   9.032
11106SOL    HW234760   1.938   6.408   9.028
11107SOL     OW34761   2.469   6.974   8.191
11107SOL    HW134762   2.427   6.888   8.191
11107SOL    HW234763   2.460   7.005   8.100
11108SOL     OW34764   3.144   6.820   8.868
11108SOL    HW134765   3.169   6.749   8.808
11108SOL    HW234766   3.207   6.813   8.940
11109SOL     OW34767   2.683   5.610   7.965
11109SOL    HW134768   2.725   5.691   7.936
11109SOL    HW234769   2.590   5.632   7.970
11110SOL     OW34770   2.069   6.535   8.736
11110SOL    HW134771   2.154   6.502   8.708
11110SOL    HW234772   2.005   6.483   8.687
11111SOL     OW34773   3.393   6.587   7.648
11111SOL    HW134774   3.324   6.527   7.676
11111SOL    HW234775   3.436   6.613   7.730
11112SOL     OW34776   3.045   7.394   9.079
11112SOL    HW134777   3.048   7.457   9.008
11112SOL    HW234778   3.062   7.310   9.037
11113SOL     OW34779   2.204   5.837   9.296
11113SOL    HW134780   2.248   5.918   9.321
11113SOL    HW234781   2.111   5.853   9.313
11114SOL     OW34782   3.328   7.010   8.382
11114SOL    HW134783   3.266   7.023   8.454
11114SOL    HW234784   3.317   6.918   8.356
11115SOL     OW34785   3.549   7.325   7.987
11115SOL    HW134786   3.490   7.306   7.915
11115SOL    HW234787   3.521   7.267   8.058
11116SOL     OW34788   2.463   6.308   7.718
11116SOL    HW134789   2.469   6.386   7.662
11116SOL    HW234790   2.397   6.331   7.784
11117SOL     OW34791   3.119   5.947   8.375
11117SOL    HW134792   3.040   5.895   8.391
11117SOL    HW234793   3.186   5.905   8.430
11118SOL     OW34794   3.438   7.258   7.742
11118SOL    HW134795   3.527   7.245   7.710
11118SOL    HW234796   3.383   7.252   7.664
11119SOL     OW34797   2.638   6.211   8.882
11119SOL    HW134798   2.625   6.180   8.972
11119SOL    HW234799   2.600   6.142   8.828
11120SOL     OW34800   3.255   6.058   9.125
11120SOL    HW134801   3.265   6.100   9.210
11120SOL    HW234802   3.306   5.977   9.131
11121SOL     OW34803   2.810   6.465   9.037
11121SOL    HW134804   2.864   6.396   8.999
11121SOL    HW234805   2.761   6.501   8.963
11122SOL     OW34806   2.850   6.004   8.658
11122SOL    HW134807   2.791   5.958   8.718
11122SOL    HW234808   2.858   5.946   8.582
11123SOL     OW34809   2.917   6.286   7.872
11123SOL    HW134810   2.936   6.280   7.966
11123SOL    HW234811   2.835   6.236   7.862
11124SOL     OW34812   1.958   6.406   8.239
11124SOL    HW134813   2.042   6.423   8.283
11124SOL    HW234814   1.902   6.478   8.265
11125SOL     OW34815   1.983   7.457   9.029
11125SOL    HW134816   1.984   7.439   9.123
11125SOL    HW234817   1.907   7.409   8.997
11126SOL     OW34818   2.757   5.942   7.648
11126SOL    HW134819   2.803   5.998   7.586
11126SOL    HW234820   2.751   5.857   7.603
11127SOL     OW34821   3.565   6.165   9.288
11127SOL    HW134822   3.534   6.237   9.232
11127SOL    HW234823   3.590   6.097   9.226
11128SOL     OW34824   3.247   6.728   7.988
11128SOL    HW134825   3.324   6.706   7.935
11128SOL    HW234826   3.196   6.786   7.932
11129SOL     OW34827   2.377   5.778   8.336
11129SOL    HW134828   2.398   5.788   8.429
11129SOL    HW234829   2.447   5.824   8.290
11130SOL     OW34830   2.865   7.038   7.920
11130SOL    HW134831   2.835   7.107   7.862
11130SOL    HW234832   2.831   7.063   8.006
11131SOL     OW34833   2.217   7.405   8.322
11131SOL    HW134834   2.263   7.322   8.327
11131SOL    HW234835   2.285   7.471   8.339
11132SOL     OW34836   3.667   6.662   8.317
11132SOL    HW134837   3.623   6.622   8.242
11132SOL    HW234838   3.603   6.656   8.388
11133SOL     OW34839   3.083   7.127   8.963
11133SOL    HW134840   3.074   7.055   9.025
11133SOL    HW234841   3.026   7.103   8.890
11134SOL     OW34842   2.173   6.540   7.703
11134SOL    HW134843   2.256   6.564   7.662
11134SOL    HW234844   2.142   6.464   7.654
11135SOL     OW34845   3.344   6.353   8.185
11135SOL    HW134846   3.363   6.262   8.211
11135SOL    HW234847   3.430   6.394   8.176
11136SOL     OW34848   2.333   6.862   9.190
11136SOL    HW134849   2.308   6.867   9.098
11136SOL    HW234850   2.251   6.853   9.238
11137SOL     OW34851   2.992   7.357   7.678
11137SOL    HW134852   2.912   7.323   7.717
11137SOL    HW234853   3.013   7.295   7.608
11138SOL     OW34854   2.064   5.842   8.949
11138SOL    HW134855   1.984   5.892   8.967
11138SOL    HW234856   2.044   5.754   8.981
11139SOL     OW34857   3.498   6.985   7.552
11139SOL    HW134858   3.453   7.063   7.519
11139SOL    HW234859   3.440   6.913   7.530
11140SOL     OW34860   2.322   7.324   7.762
11140SOL    HW134861   2.372   7.374   7.826
11140SOL    HW234862   2.389   7.284   7.705
11141SOL     OW34863   3.266   5.699   7.884
11141SOL    HW134864   3.260   5.665   7.795
11141SOL    HW234865   3.360   5.705   7.901
11142SOL     OW34866   2.121   7.374   8.670
11142SOL    HW134867   2.169   7.300   8.705
11142SOL    HW234868   2.108   7.353   8.577
11143SOL     OW34869   2.806   7.282   8.339
11143SOL    HW134870   2.892   7.241   8.346
11143SOL    HW234871   2.761   7.232   8.270
11144SOL     OW34872   2.261   6.264   7.940
11144SOL    HW134873   2.274   6.170   7.927
11144SOL    HW234874   2.166   6.274   7.947
11145SOL     OW34875   3.389   5.811   9.174
11145SOL    HW134876   3.388   5.833   9.267
11145SOL    HW234877   3.358   5.720   9.170
11146SOL     OW34878   2.514   5.693   7.554
11146SOL    HW134879   2.568   5.616   7.573
11146SOL    HW234880   2.459   5.666   7.480
11147SOL     OW34881   2.622   5.868   9.208
11147SOL    HW134882   2.705   5.822   9.200
11147SOL    HW234883   2.578   5.827   9.282
11148SOL     OW34884   2.734   7.109   8.646
11148SOL    HW134885   2.720   7.074   8.558
11148SOL    HW234886   2.807   7.058   8.681
11149SOL     OW34887   3.200   6.182   8.885
11149SOL    HW134888   3.234   6.144   8.966
11149SOL    HW234889   3.250   6.263   8.873
11150SOL     OW34890   2.678   6.978   8.396
11150SOL    HW134891   2.763   6.963   8.355
11150SOL    HW234892   2.617   6.986   8.322
11151SOL     OW34893   2.753   6.075   8.345
11151SOL    HW134894   2.746   6.068   8.250
11151SOL    HW234895   2.800   5.996   8.372
11152SOL     OW34896   2.415   5.677   7.964
11152SOL    HW134897   2.326   5.660   7.995
11152SOL    HW234898   2.404   5.732   7.887
11153SOL     OW34899   3.306   6.796   7.492
11153SOL    HW134900   3.333   6.716   7.538
11153SOL    HW234901   3.216   6.811   7.521
11154SOL     OW34902   2.146   5.637   7.639
11154SOL    HW134903   2.196   5.692   7.579
11154SOL    HW234904   2.211   5.578   7.678
11155SOL     OW34905   2.808   5.848   7.904
11155SOL    HW134906   2.786   5.876   7.815
11155SOL    HW234907   2.904   5.853   7.908
11156SOL     OW34908   2.944   6.265   8.913
11156SOL    HW134909   2.894   6.183   8.912
11156SOL    HW234910   3.035   6.237   8.904
11157SOL     OW34911   3.065   7.170   8.250
11157SOL    HW134912   3.085   7.231   8.180
11157SOL    HW234913   3.144   7.167   8.304
11158SOL     OW34914   2.334   6.734   8.167
11158SOL    HW134915   2.267   6.717   8.233
11158SOL    HW234916   2.289   6.725   8.083
11159SOL     OW34917   3.124   7.379   8.064
11159SOL    HW134918   3.172   7.439   8.006
11159SOL    HW234919   3.055   7.433   8.102
11160SOL     OW34920   2.889   6.116   7.480
11160SOL    HW134921   2.851   6.202   7.460
11160SOL    HW234922   2.956   6.134   7.545
11161SOL     OW34923   1.953   6.142   8.833
11161SOL    HW134924   2.046   6.140   8.810
11161SOL    HW234925   1.948   6.208   8.903
11162SOL     OW34926   2.425   5.803   8.609
11162SOL    HW134927   2.473   5.726   8.642
11162SOL    HW234928   2.337   5.794   8.646
11163SOL     OW34929   2.703   6.040   8.078
11163SOL    HW134930   2.687   6.095   8.001
11163SOL    HW234931   2.744   5.961   8.043
11164SOL     OW34932   2.835   5.656   8.210
11164SOL    HW134933   2.802   5.636   8.122
11164SOL    HW234934   2.839   5.571   8.254
11165SOL     OW34935   3.300   6.750   8.296
11165SOL    HW134936   3.236   6.679   8.297
11165SOL    HW234937   3.329   6.754   8.205
11166SOL     OW34938   3.301   6.198   8.472
11166SOL    HW134939   3.310   6.129   8.407
11166SOL    HW234940   3.374   6.186   8.532
11167SOL     OW34941   3.692   6.406   7.831
11167SOL    HW134942   3.755   6.360   7.885
11167SOL    HW234943   3.659   6.340   7.770
11168SOL     OW34944   2.351   7.010   7.596
11168SOL    HW134945   2.277   6.975   7.646
11168SOL    HW234946   2.355   6.955   7.518
11169SOL     OW34947   3.555   6.862   8.076
11169SOL    HW134948   3.649   6.857   8.094
11169SOL    HW234949   3.529   6.949   8.106
11170SOL     OW34950   3.260   6.158   7.523
11170SOL    HW134951   3.196   6.133   7.589
11170SOL    HW234952   3.337   6.104   7.543
11171SOL     OW34953   2.385   5.843   7.753
11171SOL    HW134954   2.434   5.795   7.686
11171SOL    HW234955   2.361   5.926   7.710
11172SOL     OW34956   3.607   6.831   9.005
11172SOL    HW134957   3.693   6.789   9.001
11172SOL    HW234958   3.625   6.921   9.033
11173SOL     OW34959   2.917   6.949   8.787
11173SOL    HW134960   2.841   6.912   8.832
11173SOL    HW234961   2.992   6.900   8.822
11174SOL     OW34962   3.472   7.220   9.113
11174SOL    HW134963   3.460   7.253   9.024
11174SOL    HW234964   3.551   7.167   9.109
11175SOL     OW34965   3.003   6.811   8.553
11175SOL    HW134966   2.938   6.847   8.613
11175SOL    HW234967   2.972   6.839   8.466
11176SOL     OW34968   3.484   6.680   8.520
11176SOL    HW134969   3.474   6.742   8.592
11176SOL    HW234970   3.406   6.695   8.466
11177SOL     OW34971   2.767   5.724   8.813
11177SOL    HW134972   2.791   5.672   8.736
11177SOL    HW234973   2.850   5.740   8.858
11178SOL     OW34974   2.845   6.700   9.169
11178SOL    HW134975   2.753   6.714   9.193
11178SOL    HW234976   2.843   6.620   9.115
11179SOL     OW34977   2.575   6.646   7.822
11179SOL    HW134978   2.565   6.626   7.915
11179SOL    HW234979   2.652   6.597   7.794
11180SOL     OW34980   2.322   6.393   8.661
11180SOL    HW134981   2.374   6.416   8.738
11180SOL    HW234982   2.278   6.312   8.684
11181SOL     OW34983   3.126   5.960   8.737
11181SOL    HW134984   3.165   6.038   8.776
11181SOL    HW234985   3.047   5.991   8.693
11182SOL     OW34986   1.939   7.160   8.810
11182SOL    HW134987   1.907   7.226   8.748
11182SOL    HW234988   2.034   7.159   8.797
11183SOL     OW34989   2.192   6.707   7.933
11183SOL    HW134990   2.193   6.781   7.873
11183SOL    HW234991   2.191   6.630   7.875
11184SOL     OW34992   2.421   6.145   8.317
11184SOL    HW134993   2.423   6.197   8.237
11184SOL    HW234994   2.511   6.115   8.329
11185SOL     OW34995   3.110   6.938   7.845
11185SOL    HW134996   3.168   7.005   7.878
11185SOL    HW234997   3.023   6.963   7.875
11186SOL     OW34998   3.161   7.046   8.593
11186SOL    HW134999   3.214   7.050   8.673
11186SOL    HW235000   3.111   6.965   8.602
11187SOL     OW35001   3.428   6.197   7.931
11187SOL    HW135002   3.393   6.277   7.971
11187SOL    HW235003   3.483   6.228   7.859
11188SOL     OW35004   2.207   7.117   8.753
11188SOL    HW135005   2.197   7.071   8.670
11188SOL    HW235006   2.302   7.128   8.762
11189SOL     OW35007   2.279   6.331   9.052
11189SOL    HW135008   2.341   6.375   8.993
11189SOL    HW235009   2.317   6.244   9.066
11190SOL     OW35010   3.478   6.376   9.139
11190SOL    HW135011   3.391   6.414   9.127
11190SOL    HW235012   3.529   6.411   9.067
11191SOL     OW35013   2.854   5.730   9.203
11191SOL    HW135014   2.916   5.799   9.180
11191SOL    HW235015   2.895   5.649   9.171
11192SOL     OW35016   2.359   5.628   9.203
11192SOL    HW135017   2.314   5.571   9.140
11192SOL    HW235018   2.300   5.702   9.215
11193SOL     OW35019   3.200   6.447   8.465
11193SOL    HW135020   3.181   6.448   8.372
11193SOL    HW235021   3.238   6.361   8.482
11194SOL     OW35022   3.059   6.112   7.706
11194SOL    HW135023   3.072   6.031   7.755
11194SOL    HW235024   3.018   6.172   7.770
11195SOL     OW35025   2.160   5.778   8.692
11195SOL    HW135026   2.128   5.805   8.778
11195SOL    HW235027   2.148   5.683   8.690
11196SOL     OW35028   1.912   6.899   8.720
11196SOL    HW135029   1.942   6.841   8.791
11196SOL    HW235030   1.916   6.987   8.758
11197SOL     OW35031   2.620   6.248   8.507
11197SOL    HW135032   2.668   6.189   8.450
11197SOL    HW235033   2.687   6.291   8.560
11198SOL     OW35034   3.605   6.553   9.311
11198SOL    HW135035   3.569   6.483   9.257
11198SOL    HW235036   3.540   6.565   9.381
11199SOL     OW35037   2.158   5.650   8.079
11199SOL    HW135038   2.132   5.739   8.103
11199SOL    HW235039   2.178   5.607   8.162
11200SOL     OW35040   3.489   5.963   7.799
11200SOL    HW135041   3.513   5.885   7.851
11200SOL    HW235042   3.460   6.027   7.864
11201SOL     OW35043   2.877   6.336   8.394
11201SOL    HW135044   2.912   6.353   8.481
11201SOL    HW235045   2.867   6.241   8.390
11202SOL     OW35046   2.840   7.147   9.175
11202SOL    HW135047   2.822   7.192   9.092
11202SOL    HW235048   2.887   7.068   9.150
11203SOL     OW35049   3.708   7.088   9.054
11203SOL    HW135050   3.732   7.114   8.965
11203SOL    HW235051   3.789   7.097   9.104
11204SOL     OW35052   2.212   6.505   9.256
11204SOL    HW135053   2.291   6.521   9.307
11204SOL    HW235054   2.240   6.441   9.190
11205SOL     OW35055   3.363   5.873   7.572
11205SOL    HW135056   3.315   5.794   7.596
11205SOL    HW235057   3.411   5.897   7.651
11206SOL     OW35058   3.153   6.410   7.480
11206SOL    HW135059   3.194   6.324   7.485
11206SOL    HW235060   3.183   6.447   7.397
11207SOL     OW35061   2.926   6.920   8.308
11207SOL    HW135062   2.931   6.844   8.249
11207SOL    HW235063   2.982   6.986   8.266
11208SOL     OW35064   2.224   6.389   8.364
11208SOL    HW135065   2.261   6.372   8.278
11208SOL    HW235066   2.197   6.302   8.395
11209SOL     OW35067   2.189   6.125   8.453
11209SOL    HW135068   2.153   6.036   8.449
11209SOL    HW235069   2.273   6.119   8.408
11210SOL     OW35070   2.995   5.964   9.133
11210SOL    HW135071   2.952   6.016   9.201
11210SOL    HW235072   3.083   6.000   9.127
11211SOL     OW35073   3.010   5.790   8.918
11211SOL    HW135074   3.008   5.850   8.992
11211SOL    HW235075   3.064   5.834   8.852
11212SOL     OW35076   1.877   6.902   7.637
11212SOL    HW135077   1.788   6.921   7.607
11212SOL    HW235078   1.872   6.815   7.676
11213SOL     OW35079   1.954   7.363   8.394
11213SOL    HW135080   1.922   7.287   8.345
11213SOL    HW235081   2.042   7.378   8.359
11214SOL     OW35082   2.351   7.164   8.353
11214SOL    HW135083   2.422   7.224   8.376
11214SOL    HW235084   2.392   7.099   8.295
11215SOL     OW35085   2.802   6.356   8.685
11215SOL    HW135086   2.890   6.358   8.724
11215SOL    HW235087   2.750   6.306   8.747
11216SOL     OW35088   1.900   6.140   8.562
11216SOL    HW135089   1.981   6.131   8.513
11216SOL    HW235090   1.926   6.139   8.654
11217SOL     OW35091   2.056   6.108   9.184
11217SOL    HW135092   2.116   6.063   9.125
11217SOL    HW235093   2.023   6.183   9.133
11218SOL     OW35094   3.241   6.520   9.105
11218SOL    HW135095   3.265   6.613   9.098
11218SOL    HW235096   3.240   6.489   9.014
11219SOL     OW35097   2.678   6.153   7.822
11219SOL    HW135098   2.695   6.080   7.762
11219SOL    HW235099   2.609   6.204   7.779
11220SOL     OW35100   3.509   6.193   8.652
11220SOL    HW135101   3.507   6.118   8.713
11220SOL    HW235102   3.593   6.184   8.608
11221SOL     OW35103   2.094   7.131   9.174
11221SOL    HW135104   2.075   7.184   9.251
11221SOL    HW235105   2.106   7.042   9.208
11222SOL     OW35106   2.527   6.047   8.697
11222SOL    HW135107   2.500   5.959   8.669
11222SOL    HW235108   2.561   6.088   8.618
11223SOL     OW35109   2.765   7.265   8.933
11223SOL    HW135110   2.753   7.218   8.851
11223SOL    HW235111   2.768   7.357   8.908
11224SOL     OW35112   2.305   6.086   7.666
11224SOL    HW135113   2.373   6.154   7.666
11224SOL    HW235114   2.227   6.132   7.635
11225SOL     OW35115   2.001   6.727   8.921
11225SOL    HW135116   2.006   6.685   9.007
11225SOL    HW235117   2.025   6.658   8.860
11226SOL     OW35118   3.170   6.626   8.666
11226SOL    HW135119   3.188   6.560   8.598
11226SOL    HW235120   3.111   6.688   8.624
11227SOL     OW35121   3.169   6.449   7.753
11227SOL    HW135122   3.105   6.395   7.798
11227SOL    HW235123   3.154   6.431   7.660
11228SOL     OW35124   3.652   7.320   8.613
11228SOL    HW135125   3.710   7.344   8.540
11228SOL    HW235126   3.616   7.235   8.589
11229SOL     OW35127   3.104   7.317   8.559
11229SOL    HW135128   3.185   7.345   8.517
11229SOL    HW235129   3.115   7.223   8.575
11230SOL     OW35130   1.951   6.849   8.457
11230SOL    HW135131   1.932   6.866   8.549
11230SOL    HW235132   1.877   6.797   8.426
11231SOL     OW35133   2.549   7.261   9.191
11231SOL    HW135134   2.490   7.334   9.175
11231SOL    HW235135   2.621   7.274   9.129
11232SOL     OW35136   3.547   5.731   7.927
11232SOL    HW135137   3.634   5.728   7.887
11232SOL    HW235138   3.541   5.651   7.980
11233SOL     OW35139   3.266   7.158   7.948
11233SOL    HW135140   3.309   7.188   7.868
11233SOL    HW235141   3.208   7.231   7.972
11234SOL     OW35142   1.990   7.395   9.292
11234SOL    HW135143   1.949   7.320   9.335
11234SOL    HW235144   2.044   7.435   9.361
11235SOL     OW35145   3.147   6.529   8.145
11235SOL    HW135146   3.218   6.465   8.153
11235SOL    HW235147   3.177   6.590   8.079
11236SOL     OW35148   2.666   6.866   8.869
11236SOL    HW135149   2.638   6.907   8.951
11236SOL    HW235150   2.596   6.885   8.807
11237SOL     OW35151   2.529   7.214   7.601
11237SOL    HW135152   2.546   7.229   7.508
11237SOL    HW235153   2.473   7.137   7.603
11238SOL     OW35154   3.478   7.315   8.844
11238SOL    HW135155   3.535   7.317   8.767
11238SOL    HW235156   3.462   7.407   8.864
11239SOL     OW35157   3.713   5.756   8.424
11239SOL    HW135158   3.737   5.667   8.397
11239SOL    HW235159   3.632   5.774   8.375
11240SOL     OW35160   2.054   5.914   8.162
11240SOL    HW135161   2.123   5.948   8.104
11240SOL    HW235162   2.095   5.914   8.249
11241SOL     OW35163   3.064   7.179   7.483
11241SOL    HW135164   3.056   7.087   7.505
11241SOL    HW235165   3.002   7.193   7.411
11242SOL     OW35166   2.684   6.594   8.830
11242SOL    HW135167   2.730   6.578   8.748
11242SOL    HW235168   2.684   6.689   8.840
11243SOL     OW35169   2.793   6.508   7.754
11243SOL    HW135170   2.845   6.535   7.679
11243SOL    HW235171   2.839   6.432   7.790
11244SOL     OW35172   3.334   7.237   7.491
11244SOL    HW135173   3.243   7.212   7.472
11244SOL    HW235174   3.378   7.233   7.407
11245SOL     OW35175   2.223   6.897   8.947
11245SOL    HW135176   2.218   6.968   8.883
11245SOL    HW235177   2.150   6.840   8.926
11246SOL     OW35178   3.466   6.872   8.723
11246SOL    HW135179   3.526   6.850   8.794
11246SOL    HW235180   3.407   6.938   8.760
11247SOL     OW35181   2.913   6.681   8.172
11247SOL    HW135182   2.853   6.643   8.109
11247SOL    HW235183   2.992   6.627   8.167
11248SOL     OW35184   2.868   5.822   8.427
11248SOL    HW135185   2.861   5.780   8.342
11248SOL    HW235186   2.873   5.750   8.490
11249SOL     OW35187   2.470   7.077   7.938
11249SOL    HW135188   2.524   7.024   7.879
11249SOL    HW235189   2.394   7.102   7.885
11250SOL     OW35190   3.596   5.975   8.830
11250SOL    HW135191   3.671   6.034   8.830
11250SOL    HW235192   3.623   5.902   8.774
11251SOL     OW35193   2.135   6.920   7.751
11251SOL    HW135194   2.046   6.920   7.714
11251SOL    HW235195   2.126   6.968   7.834
11252SOL     OW35196   1.981   6.634   9.183
11252SOL    HW135197   1.904   6.601   9.230
11252SOL    HW235198   2.054   6.583   9.218
11253SOL     OW35199   2.534   5.795   8.947
11253SOL    HW135200   2.615   5.774   8.901
11253SOL    HW235201   2.563   5.819   9.035
11254SOL     OW35202   1.933   5.925   7.488
11254SOL    HW135203   1.864   5.887   7.433
11254SOL    HW235204   1.969   5.996   7.436
11255SOL     OW35205   3.289   6.451   8.847
11255SOL    HW135206   3.237   6.507   8.789
11255SOL    HW235207   3.375   6.448   8.806
11256SOL     OW35208   1.923   5.757   7.742
11256SOL    HW135209   1.910   5.821   7.672
11256SOL    HW235210   2.007   5.716   7.722
11257SOL     OW35211   3.046   6.911   7.569
11257SOL    HW135212   2.959   6.871   7.567
11257SOL    HW235213   3.070   6.913   7.662
11258SOL     OW35214   2.475   6.426   8.882
11258SOL    HW135215   2.536   6.499   8.873
11258SOL    HW235216   2.531   6.348   8.887
11259SOL     OW35217   3.344   7.383   8.441
11259SOL    HW135218   3.368   7.452   8.378
11259SOL    HW235219   3.427   7.340   8.461
11260SOL     OW35220   2.585   6.142   9.142
11260SOL    HW135221   2.633   6.196   9.205
11260SOL    HW235222   2.598   6.052   9.172
11261SOL     OW35223   3.336   6.781   9.074
11261SOL    HW135224   3.329   6.795   9.168
11261SOL    HW235225   3.428   6.798   9.053
11262SOL     OW35226   2.228   7.329   9.021
11262SOL    HW135227   2.146   7.374   9.003
11262SOL    HW235228   2.201   7.244   9.058
11263SOL     OW35229   3.525   6.464   8.707
11263SOL    HW135230   3.525   6.374   8.675
11263SOL    HW235231   3.518   6.517   8.628
11264SOL     OW35232   3.078   5.904   7.895
11264SOL    HW135233   3.142   5.833   7.888
11264SOL    HW235234   3.104   5.951   7.975
11265SOL     OW35235   2.400   6.362   8.149
11265SOL    HW135236   2.462   6.427   8.118
11265SOL    HW235237   2.355   6.331   8.070
11266SOL     OW35238   3.610   5.962   9.109
11266SOL    HW135239   3.607   5.971   9.014
11266SOL    HW235240   3.542   5.898   9.130
11267SOL     OW35241   3.622   6.519   8.956
11267SOL    HW135242   3.601   6.612   8.963
11267SOL    HW235243   3.600   6.497   8.865
11268SOL     OW35244   2.718   6.956   7.493
11268SOL    HW135245   2.685   7.003   7.570
11268SOL    HW235246   2.748   7.024   7.433
11269SOL     OW35247   2.529   7.368   8.384
11269SOL    HW135248   2.513   7.460   8.364
11269SOL    HW235249   2.623   7.357   8.376
11270SOL     OW35250   2.645   6.508   8.355
11270SOL    HW135251   2.730   6.464   8.357
11270SOL    HW235252   2.659   6.589   8.404
11271SOL     OW35253   2.935   6.570   7.533
11271SOL    HW135254   2.915   6.619   7.453
11271SOL    HW235255   3.011   6.516   7.511
11272SOL     OW35256   3.725   7.126   8.261
11272SOL    HW135257   3.632   7.122   8.239
11272SOL    HW235258   3.738   7.055   8.323
11273SOL     OW35259   2.080   6.876   9.293
11273SOL    HW135260   2.038   6.800   9.251
11273SOL    HW235261   2.034   6.885   9.376
11274SOL     OW35262   1.953   6.816   8.112
11274SOL    HW135263   1.970   6.765   8.192
11274SOL    HW235264   2.016   6.782   8.048
11275SOL     OW35265   2.549   6.997   9.079
11275SOL    HW135266   2.471   6.956   9.117
11275SOL    HW235267   2.551   7.085   9.117
11276SOL     OW35268   3.672   5.759   8.692
11276SOL    HW135269   3.674   5.664   8.706
11276SOL    HW235270   3.684   5.770   8.597
11277SOL     OW35271   2.273   5.972   7.992
11277SOL    HW135272   2.279   5.943   7.901
11277SOL    HW235273   2.355   5.944   8.032
11278SOL     OW35274   3.550   7.082   8.539
11278SOL    HW135275   3.476   7.057   8.483
11278SOL    HW235276   3.560   7.008   8.599
11279SOL     OW35277   2.210   6.152   8.742
11279SOL    HW135278   2.259   6.099   8.805
11279SOL    HW235279   2.227   6.110   8.658
11280SOL     OW35280   2.692   7.178   8.112
11280SOL    HW135281   2.685   7.259   8.061
11280SOL    HW235282   2.615   7.128   8.086
11281SOL     OW35283   3.285   5.812   8.548
11281SOL    HW135284   3.302   5.719   8.561
11281SOL    HW235285   3.247   5.842   8.631
11282SOL     OW35286   2.865   5.593   8.585
11282SOL    HW135287   2.820   5.527   8.532
11282SOL    HW235288   2.954   5.560   8.593
11283SOL     OW35289   2.631   6.920   7.788
11283SOL    HW135290   2.608   6.827   7.783
11283SOL    HW235291   2.722   6.920   7.818
11284SOL     OW35292   2.481   7.142   8.737
11284SOL    HW135293   2.479   7.226   8.783
11284SOL    HW235294   2.569   7.136   8.702
11285SOL     OW35295   3.231   5.631   7.619
11285SOL    HW135296   3.274   5.557   7.575
11285SOL    HW235297   3.141   5.601   7.631
11286SOL     OW35298   3.124   6.049   8.120
11286SOL    HW135299   3.084   6.135   8.135
11286SOL    HW235300   3.136   6.013   8.208
11287SOL     OW35301   3.458   5.802   8.332
11287SOL    HW135302   3.398   5.816   8.404
11287SOL    HW235303   3.452   5.882   8.280
11288SOL     OW35304   1.904   6.654   7.759
11288SOL    HW135305   1.997   6.644   7.736
11288SOL    HW235306   1.874   6.565   7.776
11289SOL     OW35307   2.752   7.247   7.777
11289SOL    HW135308   2.677   7.231   7.721
11289SOL    HW235309   2.722   7.312   7.840
11290SOL     OW35310   2.080   6.219   9.442
11290SOL    HW135311   1.992   6.204   9.476
11290SOL    HW235312   2.076   6.193   9.350
11291SOL     OW35313   2.082   5.876  10.305
11291SOL    HW135314   2.113   5.836  10.387
11291SOL    HW235315   1.995   5.839  10.292
11292SOL     OW35316   1.861   5.972   9.949
11292SOL    HW135317   1.779   5.995   9.993
11292SOL    HW235318   1.838   5.896   9.895
11293SOL     OW35319   2.432   6.888  10.503
11293SOL    HW135320   2.349   6.893  10.455
11293SOL    HW235321   2.449   6.979  10.530
11294SOL     OW35322   3.443   7.103  10.017
11294SOL    HW135323   3.397   7.075  10.096
11294SOL    HW235324   3.375   7.106   9.949
11295SOL     OW35325   2.995   6.290  10.003
11295SOL    HW135326   3.043   6.372   9.991
11295SOL    HW235327   2.948   6.302  10.085
11296SOL     OW35328   3.605   6.189   9.552
11296SOL    HW135329   3.594   6.189   9.457
11296SOL    HW235330   3.588   6.098   9.578
11297SOL     OW35331   2.601   6.721  10.364
11297SOL    HW135332   2.538   6.762  10.423
11297SOL    HW235333   2.641   6.794  10.316
11298SOL     OW35334   2.742   6.342  11.134
11298SOL    HW135335   2.726   6.414  11.195
11298SOL    HW235336   2.763   6.385  11.051
11299SOL     OW35337   2.547   6.580   9.952
11299SOL    HW135338   2.614   6.574  10.020
11299SOL    HW235339   2.480   6.637   9.990
11300SOL     OW35340   2.577   6.736  11.137
11300SOL    HW135341   2.627   6.811  11.167
11300SOL    HW235342   2.500   6.773  11.094
11301SOL     OW35343   2.194   6.999  10.375
11301SOL    HW135344   2.120   6.958  10.330
11301SOL    HW235345   2.238   7.051  10.308
11302SOL     OW35346   3.320   7.085  10.679
11302SOL    HW135347   3.374   7.164  10.684
11302SOL    HW235348   3.249   7.100  10.742
11303SOL     OW35349   2.312   5.977  10.793
11303SOL    HW135350   2.388   5.918  10.794
11303SOL    HW235351   2.237   5.919  10.805
11304SOL     OW35352   3.465   6.025  10.053
11304SOL    HW135353   3.396   6.034   9.986
11304SOL    HW235354   3.491   6.115  10.073
11305SOL     OW35355   2.081   7.310   9.777
11305SOL    HW135356   2.107   7.383   9.833
11305SOL    HW235357   2.155   7.298   9.718
11306SOL     OW35358   3.000   6.928  11.007
11306SOL    HW135359   3.041   6.917  11.093
11306SOL    HW235360   2.949   6.848  10.994
11307SOL     OW35361   2.097   7.037   9.846
11307SOL    HW135362   2.075   7.130   9.849
11307SOL    HW235363   2.041   6.997   9.912
11308SOL     OW35364   2.131   6.677  10.200
11308SOL    HW135365   2.133   6.588  10.234
11308SOL    HW235366   2.072   6.724  10.259
11309SOL     OW35367   2.453   7.381  10.734
11309SOL    HW135368   2.375   7.363  10.786
11309SOL    HW235369   2.482   7.468  10.764
11310SOL     OW35370   2.433   6.573   9.455
11310SOL    HW135371   2.484   6.614   9.385
11310SOL    HW235372   2.475   6.603   9.536
11311SOL     OW35373   3.450   5.714  10.771
11311SOL    HW135374   3.488   5.783  10.716
11311SOL    HW235375   3.432   5.758  10.854
11312SOL     OW35376   1.979   6.243   9.871
11312SOL    HW135377   1.953   6.153   9.892
11312SOL    HW235378   1.973   6.289   9.955
11313SOL     OW35379   3.705   7.338   9.638
11313SOL    HW135380   3.778   7.316   9.697
11313SOL    HW235381   3.722   7.428   9.612
11314SOL     OW35382   1.911   7.175   9.428
11314SOL    HW135383   1.892   7.082   9.444
11314SOL    HW235384   1.881   7.220   9.507
11315SOL     OW35385   3.561   6.506   9.959
11315SOL    HW135386   3.631   6.450   9.926
11315SOL    HW235387   3.531   6.556   9.883
11316SOL     OW35388   3.512   6.686   9.742
11316SOL    HW135389   3.599   6.683   9.701
11316SOL    HW235390   3.522   6.750   9.813
11317SOL     OW35391   1.984   6.329  10.894
11317SOL    HW135392   2.073   6.365  10.893
11317SOL    HW235393   1.928   6.406  10.884
11318SOL     OW35394   2.473   6.979  10.049
11318SOL    HW135395   2.431   6.893  10.053
11318SOL    HW235396   2.462   7.007   9.958
11319SOL     OW35397   3.142   6.818  10.733
11319SOL    HW135398   3.168   6.750  10.671
11319SOL    HW235399   3.206   6.812  10.804
11320SOL     OW35400   2.687   5.598   9.835
11320SOL    HW135401   2.728   5.679   9.803
11320SOL    HW235402   2.593   5.616   9.832
11321SOL     OW35403   2.046   6.544  10.596
11321SOL    HW135404   2.134   6.508  10.582
11321SOL    HW235405   1.992   6.502  10.530
11322SOL     OW35406   3.391   6.591   9.511
11322SOL    HW135407   3.323   6.530   9.541
11322SOL    HW235408   3.436   6.619   9.591
11323SOL     OW35409   3.044   7.394  10.943
11323SOL    HW135410   3.047   7.459  10.872
11323SOL    HW235411   3.061   7.310  10.900
11324SOL     OW35412   2.204   5.835  11.164
11324SOL    HW135413   2.246   5.921  11.172
11324SOL    HW235414   2.110   5.854  11.167
11325SOL     OW35415   3.325   7.009  10.246
11325SOL    HW135416   3.262   7.022  10.317
11325SOL    HW235417   3.315   6.917  10.222
11326SOL     OW35418   3.511   7.347   9.885
11326SOL    HW135419   3.492   7.313   9.798
11326SOL    HW235420   3.499   7.271   9.943
11327SOL     OW35421   2.456   6.297   9.582
11327SOL    HW135422   2.459   6.381   9.536
11327SOL    HW235423   2.390   6.310   9.651
11328SOL     OW35424   3.139   5.966  10.248
11328SOL    HW135425   3.052   5.926  10.253
11328SOL    HW235426   3.194   5.910  10.302
11329SOL     OW35427   3.439   7.262   9.623
11329SOL    HW135428   3.532   7.281   9.614
11329SOL    HW235429   3.409   7.246   9.534
11330SOL     OW35430   2.648   6.204  10.753
11330SOL    HW135431   2.622   6.176  10.840
11330SOL    HW235432   2.620   6.132  10.695
11331SOL     OW35433   3.251   6.062  10.986
11331SOL    HW135434   3.259   6.105  11.071
11331SOL    HW235435   3.306   5.984  10.993
11332SOL     OW35436   2.811   6.467  10.898
11332SOL    HW135437   2.864   6.399  10.857
11332SOL    HW235438   2.761   6.505  10.826
11333SOL     OW35439   2.858   5.994  10.535
11333SOL    HW135440   2.765   6.003  10.557
11333SOL    HW235441   2.858   5.952  10.449
11334SOL     OW35442   2.917   6.285   9.733
11334SOL    HW135443   2.936   6.279   9.827
11334SOL    HW235444   2.834   6.239   9.722
11335SOL     OW35445   1.950   6.405  10.092
11335SOL    HW135446   2.032   6.399  10.141
11335SOL    HW235447   1.907   6.483  10.127
11336SOL     OW35448   1.982   7.456  10.892
11336SOL    HW135449   1.982   7.438  10.987
11336SOL    HW235450   1.907   7.407  10.859
11337SOL     OW35451   2.762   5.937   9.508
11337SOL    HW135452   2.805   5.999   9.448
11337SOL    HW235453   2.763   5.853   9.461
11338SOL     OW35454   3.562   6.161  11.147
11338SOL    HW135455   3.532   6.235  11.094
11338SOL    HW235456   3.589   6.095  11.083
11339SOL     OW35457   3.246   6.729   9.846
11339SOL    HW135458   3.324   6.712   9.793
11339SOL    HW235459   3.194   6.789   9.793
11340SOL     OW35460   2.408   5.755  10.206
11340SOL    HW135461   2.414   5.794  10.294
11340SOL    HW235462   2.413   5.830  10.147
11341SOL     OW35463   2.863   7.035   9.779
11341SOL    HW135464   2.834   7.107   9.724
11341SOL    HW235465   2.833   7.058   9.867
11342SOL     OW35466   2.217   7.404  10.185
11342SOL    HW135467   2.263   7.320  10.190
11342SOL    HW235468   2.286   7.469  10.201
11343SOL     OW35469   3.668   6.639  10.186
11343SOL    HW135470   3.623   6.613  10.106
11343SOL    HW235471   3.599   6.640  10.253
11344SOL     OW35472   3.083   7.127  10.825
11344SOL    HW135473   3.074   7.054  10.887
11344SOL    HW235474   3.025   7.104  10.752
11345SOL     OW35475   2.169   6.545   9.566
11345SOL    HW135476   2.252   6.566   9.524
11345SOL    HW235477   2.143   6.461   9.529
11346SOL     OW35478   3.338   6.358  10.045
11346SOL    HW135479   3.343   6.303  10.123
11346SOL    HW235480   3.425   6.396  10.036
11347SOL     OW35481   2.331   6.862  11.055
11347SOL    HW135482   2.306   6.867  10.963
11347SOL    HW235483   2.249   6.851  11.102
11348SOL     OW35484   2.990   7.362   9.536
11348SOL    HW135485   2.912   7.325   9.577
11348SOL    HW235486   3.015   7.299   9.469
11349SOL     OW35487   2.066   5.849  10.812
11349SOL    HW135488   1.985   5.901  10.811
11349SOL    HW235489   2.039   5.763  10.844
11350SOL     OW35490   3.493   6.975   9.413
11350SOL    HW135491   3.451   7.058   9.389
11350SOL    HW235492   3.429   6.908   9.387
11351SOL     OW35493   2.321   7.326   9.624
11351SOL    HW135494   2.371   7.375   9.689
11351SOL    HW235495   2.388   7.285   9.569
11352SOL     OW35496   3.258   5.688   9.752
11352SOL    HW135497   3.249   5.663   9.660
11352SOL    HW235498   3.352   5.677   9.770
11353SOL     OW35499   2.121   7.372  10.530
11353SOL    HW135500   2.169   7.297  10.565
11353SOL    HW235501   2.107   7.350  10.437
11354SOL     OW35502   2.806   7.283  10.202
11354SOL    HW135503   2.892   7.242  10.209
11354SOL    HW235504   2.762   7.234  10.133
11355SOL     OW35505   2.258   6.279   9.783
11355SOL    HW135506   2.275   6.186   9.794
11355SOL    HW235507   2.164   6.289   9.796
11356SOL     OW35508   3.384   5.815  11.032
11356SOL    HW135509   3.389   5.835  11.125
11356SOL    HW235510   3.331   5.736  11.027
11357SOL     OW35511   2.513   5.697   9.414
11357SOL    HW135512   2.572   5.623   9.429
11357SOL    HW235513   2.458   5.669   9.341
11358SOL     OW35514   2.628   5.870  11.062
11358SOL    HW135515   2.708   5.818  11.061
11358SOL    HW235516   2.594   5.860  11.151
11359SOL     OW35517   2.735   7.111  10.508
11359SOL    HW135518   2.720   7.073  10.421
11359SOL    HW235519   2.807   7.059  10.545
11360SOL     OW35520   3.196   6.177  10.741
11360SOL    HW135521   3.229   6.145  10.825
11360SOL    HW235522   3.237   6.263  10.730
11361SOL     OW35523   2.678   6.972  10.260
11361SOL    HW135524   2.764   6.962  10.219
11361SOL    HW235525   2.618   6.982  10.186
11362SOL     OW35526   2.787   6.096  10.205
11362SOL    HW135527   2.764   6.087  10.113
11362SOL    HW235528   2.819   6.009  10.231
11363SOL     OW35529   2.420   5.652   9.805
11363SOL    HW135530   2.337   5.649   9.854
11363SOL    HW235531   2.410   5.726   9.745
11364SOL     OW35532   3.297   6.792   9.348
11364SOL    HW135533   3.326   6.715   9.397
11364SOL    HW235534   3.209   6.810   9.382
11365SOL     OW35535   2.150   5.633   9.496
11365SOL    HW135536   2.204   5.691   9.443
11365SOL    HW235537   2.212   5.572   9.536
11366SOL     OW35538   2.809   5.839   9.765
11366SOL    HW135539   2.785   5.872   9.678
11366SOL    HW235540   2.904   5.851   9.769
11367SOL     OW35541   2.940   6.270  10.764
11367SOL    HW135542   2.879   6.196  10.759
11367SOL    HW235543   3.026   6.230  10.755
11368SOL     OW35544   3.066   7.172  10.113
11368SOL    HW135545   3.085   7.232  10.041
11368SOL    HW235546   3.148   7.169  10.163
11369SOL     OW35547   2.335   6.742  10.031
11369SOL    HW135548   2.269   6.719  10.098
11369SOL    HW235549   2.289   6.730   9.948
11370SOL     OW35550   3.122   7.379   9.927
11370SOL    HW135551   3.172   7.436   9.869
11370SOL    HW235552   3.054   7.435   9.963
11371SOL     OW35553   2.889   6.117   9.342
11371SOL    HW135554   2.848   6.201   9.322
11371SOL    HW235555   2.956   6.137   9.406
11372SOL     OW35556   1.954   6.134  10.704
11372SOL    HW135557   2.045   6.137  10.676
11372SOL    HW235558   1.947   6.204  10.770
11373SOL     OW35559   2.421   5.816  10.480
11373SOL    HW135560   2.461   5.735  10.511
11373SOL    HW235561   2.329   5.808  10.507
11374SOL     OW35562   2.727   6.043   9.944
11374SOL    HW135563   2.690   6.098   9.874
11374SOL    HW235564   2.755   5.963   9.899
11375SOL     OW35565   2.863   5.655  10.064
11375SOL    HW135566   2.812   5.644   9.983
11375SOL    HW235567   2.849   5.573  10.112
11376SOL     OW35568   3.306   6.746  10.162
11376SOL    HW135569   3.235   6.683  10.153
11376SOL    HW235570   3.343   6.754  10.074
11377SOL     OW35571   3.323   6.205  10.280
11377SOL    HW135572   3.273   6.124  10.271
11377SOL    HW235573   3.383   6.188  10.353
11378SOL     OW35574   3.698   6.397   9.701
11378SOL    HW135575   3.759   6.345   9.754
11378SOL    HW235576   3.665   6.336   9.635
11379SOL     OW35577   2.351   7.010   9.459
11379SOL    HW135578   2.276   6.977   9.508
11379SOL    HW235579   2.356   6.955   9.381
11380SOL     OW35580   3.545   6.849   9.955
11380SOL    HW135581   3.640   6.846   9.966
11380SOL    HW235582   3.521   6.941   9.969
11381SOL     OW35583   3.258   6.158   9.383
11381SOL    HW135584   3.197   6.132   9.451
11381SOL    HW235585   3.339   6.110   9.403
11382SOL     OW35586   2.390   5.848   9.618
11382SOL    HW135587   2.440   5.801   9.551
11382SOL    HW235588   2.361   5.928   9.574
11383SOL     OW35589   3.610   6.828  10.872
11383SOL    HW135590   3.696   6.793  10.852
11383SOL    HW235591   3.626   6.919  10.899
11384SOL     OW35592   2.915   6.952  10.654
11384SOL    HW135593   2.838   6.913  10.696
11384SOL    HW235594   2.989   6.901  10.687
11385SOL     OW35595   3.475   7.218  10.975
11385SOL    HW135596   3.461   7.252  10.887
11385SOL    HW235597   3.555   7.166  10.969
11386SOL     OW35598   3.006   6.813  10.413
11386SOL    HW135599   2.932   6.838  10.469
11386SOL    HW235600   2.979   6.841  10.325
11387SOL     OW35601   3.477   6.672  10.383
11387SOL    HW135602   3.466   6.737  10.452
11387SOL    HW235603   3.406   6.690  10.322
11388SOL     OW35604   2.778   5.675  10.697
11388SOL    HW135605   2.798   5.654  10.606
11388SOL    HW235606   2.858   5.713  10.732
11389SOL     OW35607   2.846   6.698  11.034
11389SOL    HW135608   2.754   6.715  11.057
11389SOL    HW235609   2.844   6.620  10.979
11390SOL     OW35610   2.573   6.648   9.682
11390SOL    HW135611   2.559   6.625   9.773
11390SOL    HW235612   2.650   6.597   9.655
11391SOL     OW35613   2.284   6.411  10.566
11391SOL    HW135614   2.353   6.420  10.631
11391SOL    HW235615   2.253   6.321  10.575
11392SOL     OW35616   3.122   5.951  10.602
11392SOL    HW135617   3.156   6.032  10.640
11392SOL    HW235618   3.033   5.973  10.573
11393SOL     OW35619   1.940   7.160  10.671
11393SOL    HW135620   1.908   7.225  10.609
11393SOL    HW235621   2.035   7.158  10.659
11394SOL     OW35622   2.187   6.711   9.799
11394SOL    HW135623   2.192   6.781   9.734
11394SOL    HW235624   2.188   6.631   9.747
11395SOL     OW35625   2.404   6.119  10.175
11395SOL    HW135626   2.416   6.177  10.099
11395SOL    HW235627   2.477   6.139  10.232
11396SOL     OW35628   3.109   6.937   9.702
11396SOL    HW135629   3.166   7.006   9.735
11396SOL    HW235630   3.022   6.960   9.735
11397SOL     OW35631   3.158   7.048  10.456
11397SOL    HW135632   3.210   7.047  10.537
11397SOL    HW235633   3.106   6.968  10.461
11398SOL     OW35634   3.448   6.196   9.808
11398SOL    HW135635   3.384   6.262   9.834
11398SOL    HW235636   3.490   6.233   9.730
11399SOL     OW35637   2.208   7.117  10.615
11399SOL    HW135638   2.198   7.070  10.533
11399SOL    HW235639   2.303   7.129  10.624
11400SOL     OW35640   2.280   6.333  10.915
11400SOL    HW135641   2.344   6.375  10.858
11400SOL    HW235642   2.313   6.244  10.927
11401SOL     OW35643   3.481   6.376  11.001
11401SOL    HW135644   3.394   6.414  10.991
11401SOL    HW235645   3.531   6.411  10.929
11402SOL     OW35646   2.859   5.725  11.078
11402SOL    HW135647   2.916   5.796  11.050
11402SOL    HW235648   2.902   5.646  11.045
11403SOL     OW35649   2.355   5.621  11.070
11403SOL    HW135650   2.308   5.570  11.005
11403SOL    HW235651   2.301   5.699  11.083
11404SOL     OW35652   2.452   6.460  10.346
11404SOL    HW135653   2.488   6.549  10.348
11404SOL    HW235654   2.392   6.456  10.420
11405SOL     OW35655   3.199   6.445  10.335
11405SOL    HW135656   3.121   6.433  10.281
11405SOL    HW235657   3.250   6.365  10.322
11406SOL     OW35658   3.061   6.112   9.571
11406SOL    HW135659   3.070   6.032   9.622
11406SOL    HW235660   3.017   6.173   9.630
11407SOL     OW35661   2.160   5.779  10.555
11407SOL    HW135662   2.122   5.807  10.638
11407SOL    HW235663   2.144   5.685  10.552
11408SOL     OW35664   1.909   6.898  10.581
11408SOL    HW135665   1.940   6.841  10.651
11408SOL    HW235666   1.913   6.986  10.618
11409SOL     OW35667   2.586   6.214  10.364
11409SOL    HW135668   2.659   6.199  10.304
11409SOL    HW235669   2.556   6.303  10.343
11410SOL     OW35670   3.611   6.548  11.176
11410SOL    HW135671   3.572   6.481  11.120
11410SOL    HW235672   3.545   6.565  11.243
11411SOL     OW35673   2.175   5.645   9.935
11411SOL    HW135674   2.150   5.735   9.956
11411SOL    HW235675   2.184   5.602  10.021
11412SOL     OW35676   3.485   5.956   9.671
11412SOL    HW135677   3.523   5.887   9.726
11412SOL    HW235678   3.465   6.027   9.733
11413SOL     OW35679   2.884   6.346  10.264
11413SOL    HW135680   2.877   6.361  10.358
11413SOL    HW235681   2.861   6.254  10.252
11414SOL     OW35682   2.842   7.148  11.036
11414SOL    HW135683   2.823   7.193  10.954
11414SOL    HW235684   2.888   7.069  11.011
11415SOL     OW35685   3.711   7.086  10.913
11415SOL    HW135686   3.732   7.112  10.823
11415SOL    HW235687   3.793   7.099  10.960
11416SOL     OW35688   2.212   6.503  11.120
11416SOL    HW135689   2.293   6.519  11.169
11416SOL    HW235690   2.237   6.440  11.052
11417SOL     OW35691   3.365   5.871   9.437
11417SOL    HW135692   3.316   5.792   9.460
11417SOL    HW235693   3.411   5.895   9.518
11418SOL     OW35694   3.151   6.409   9.340
11418SOL    HW135695   3.193   6.323   9.344
11418SOL    HW235696   3.182   6.446   9.257
11419SOL     OW35697   2.931   6.929  10.172
11419SOL    HW135698   2.935   6.857  10.109
11419SOL    HW235699   2.983   6.999  10.132
11420SOL     OW35700   2.173   6.399  10.256
11420SOL    HW135701   2.267   6.413  10.242
11420SOL    HW235702   2.168   6.308  10.287
11421SOL     OW35703   2.183   6.122  10.325
11421SOL    HW135704   2.148   6.034  10.313
11421SOL    HW235705   2.261   6.124  10.270
11422SOL     OW35706   2.995   5.956  11.002
11422SOL    HW135707   2.949   6.014  11.063
11422SOL    HW235708   3.081   5.997  10.991
11423SOL     OW35709   3.017   5.777  10.790
11423SOL    HW135710   3.008   5.843  10.858
11423SOL    HW235711   3.063   5.823  10.719
11424SOL     OW35712   1.875   6.900   9.502
11424SOL    HW135713   1.786   6.919   9.471
11424SOL    HW235714   1.869   6.812   9.538
11425SOL     OW35715   1.954   7.363  10.256
11425SOL    HW135716   1.922   7.287  10.208
11425SOL    HW235717   2.042   7.378  10.221
11426SOL     OW35718   2.352   7.163  10.215
11426SOL    HW135719   2.423   7.223  10.238
11426SOL    HW235720   2.393   7.100  10.156
11427SOL     OW35721   2.825   6.375  10.532
11427SOL    HW135722   2.885   6.355  10.604
11427SOL    HW235723   2.747   6.322  10.551
11428SOL     OW35724   1.898   6.142  10.428
11428SOL    HW135725   1.976   6.133  10.373
11428SOL    HW235726   1.931   6.137  10.518
11429SOL     OW35727   2.058   6.109  11.042
11429SOL    HW135728   2.108   6.063  10.974
11429SOL    HW235729   2.022   6.185  10.998
11430SOL     OW35730   3.246   6.518  10.966
11430SOL    HW135731   3.267   6.611  10.959
11430SOL    HW235732   3.240   6.487  10.876
11431SOL     OW35733   2.680   6.154   9.681
11431SOL    HW135734   2.692   6.080   9.621
11431SOL    HW235735   2.606   6.203   9.646
11432SOL     OW35736   3.501   6.187  10.494
11432SOL    HW135737   3.492   6.120  10.562
11432SOL    HW235738   3.589   6.172  10.457
11433SOL     OW35739   2.095   7.130  11.039
11433SOL    HW135740   2.071   7.180  11.117
11433SOL    HW235741   2.106   7.040  11.070
11434SOL     OW35742   2.580   6.027  10.560
11434SOL    HW135743   2.522   5.955  10.533
11434SOL    HW235744   2.572   6.091  10.489
11435SOL     OW35745   2.766   7.264  10.795
11435SOL    HW135746   2.755   7.217  10.712
11435SOL    HW235747   2.767   7.357  10.769
11436SOL     OW35748   2.313   6.076   9.487
11436SOL    HW135749   2.378   6.142   9.510
11436SOL    HW235750   2.231   6.124   9.481
11437SOL     OW35751   1.999   6.731  10.786
11437SOL    HW135752   2.004   6.688  10.871
11437SOL    HW235753   2.016   6.662  10.723
11438SOL     OW35754   3.174   6.629  10.531
11438SOL    HW135755   3.192   6.563  10.463
11438SOL    HW235756   3.115   6.691  10.488
11439SOL     OW35757   3.177   6.441   9.614
11439SOL    HW135758   3.103   6.401   9.661
11439SOL    HW235759   3.158   6.425   9.522
11440SOL     OW35760   3.655   7.317  10.480
11440SOL    HW135761   3.712   7.341  10.407
11440SOL    HW235762   3.616   7.234  10.453
11441SOL     OW35763   3.106   7.320  10.424
11441SOL    HW135764   3.187   7.347  10.381
11441SOL    HW235765   3.116   7.225  10.438
11442SOL     OW35766   1.945   6.859  10.313
11442SOL    HW135767   1.926   6.869  10.406
11442SOL    HW235768   1.881   6.795  10.283
11443SOL     OW35769   2.549   7.259  11.051
11443SOL    HW135770   2.489   7.333  11.036
11443SOL    HW235771   2.620   7.272  10.989
11444SOL     OW35772   3.604   5.752   9.814
11444SOL    HW135773   3.666   5.733   9.744
11444SOL    HW235774   3.579   5.666   9.848
11445SOL     OW35775   3.259   7.154   9.808
11445SOL    HW135776   3.314   7.186   9.736
11445SOL    HW235777   3.205   7.229   9.833
11446SOL     OW35778   1.987   7.397  11.155
11446SOL    HW135779   1.948   7.320  11.196
11446SOL    HW235780   2.042   7.436  11.224
11447SOL     OW35781   3.137   6.527   9.990
11447SOL    HW135782   3.210   6.466  10.005
11447SOL    HW235783   3.172   6.591   9.929
11448SOL     OW35784   2.661   6.865  10.727
11448SOL    HW135785   2.632   6.907  10.808
11448SOL    HW235786   2.589   6.880  10.666
11449SOL     OW35787   2.528   7.215   9.466
11449SOL    HW135788   2.545   7.230   9.372
11449SOL    HW235789   2.474   7.137   9.469
11450SOL     OW35790   3.478   7.311  10.707
11450SOL    HW135791   3.535   7.314  10.629
11450SOL    HW235792   3.461   7.404  10.726
11451SOL     OW35793   3.706   5.753  10.279
11451SOL    HW135794   3.736   5.665  10.255
11451SOL    HW235795   3.620   5.761  10.237
11452SOL     OW35796   2.117   5.895  10.024
11452SOL    HW135797   2.032   5.930  10.000
11452SOL    HW235798   2.117   5.894  10.120
11453SOL     OW35799   3.070   7.182   9.345
11453SOL    HW135800   3.059   7.090   9.370
11453SOL    HW235801   3.005   7.196   9.276
11454SOL     OW35802   2.685   6.592  10.690
11454SOL    HW135803   2.727   6.576  10.606
11454SOL    HW235804   2.682   6.688  10.698
11455SOL     OW35805   2.785   6.503   9.606
11455SOL    HW135806   2.843   6.532   9.536
11455SOL    HW235807   2.833   6.431   9.648
11456SOL     OW35808   3.346   7.229   9.359
11456SOL    HW135809   3.254   7.209   9.341
11456SOL    HW235810   3.387   7.231   9.272
11457SOL     OW35811   2.225   6.898  10.810
11457SOL    HW135812   2.219   6.969  10.746
11457SOL    HW235813   2.151   6.841  10.790
11458SOL     OW35814   3.460   6.867  10.581
11458SOL    HW135815   3.533   6.856  10.642
11458SOL    HW235816   3.404   6.933  10.622
11459SOL     OW35817   2.924   6.702  10.029
11459SOL    HW135818   2.851   6.649  10.060
11459SOL    HW235819   2.991   6.639  10.003
11460SOL     OW35820   2.885   5.832  10.282
11460SOL    HW135821   2.879   5.789  10.196
11460SOL    HW235822   2.882   5.760  10.345
11461SOL     OW35823   2.470   7.075   9.794
11461SOL    HW135824   2.525   7.023   9.735
11461SOL    HW235825   2.392   7.095   9.742
11462SOL     OW35826   3.599   5.972  10.695
11462SOL    HW135827   3.671   6.035  10.690
11462SOL    HW235828   3.623   5.902  10.635
11463SOL     OW35829   2.131   6.925   9.607
11463SOL    HW135830   2.041   6.921   9.576
11463SOL    HW235831   2.126   6.969   9.692
11464SOL     OW35832   1.981   6.635  11.047
11464SOL    HW135833   1.903   6.603  11.092
11464SOL    HW235834   2.053   6.582  11.082
11465SOL     OW35835   2.537   5.779  10.810
11465SOL    HW135836   2.618   5.757  10.765
11465SOL    HW235837   2.564   5.815  10.894
11466SOL     OW35838   1.937   5.918   9.346
11466SOL    HW135839   1.863   5.889   9.294
11466SOL    HW235840   1.971   5.994   9.299
11467SOL     OW35841   3.285   6.444  10.707
11467SOL    HW135842   3.233   6.503  10.652
11467SOL    HW235843   3.372   6.444  10.666
11468SOL     OW35844   1.920   5.741   9.600
11468SOL    HW135845   1.908   5.813   9.539
11468SOL    HW235846   2.006   5.705   9.579
11469SOL     OW35847   3.043   6.914   9.430
11469SOL    HW135848   2.957   6.874   9.430
11469SOL    HW235849   3.070   6.916   9.522
11470SOL     OW35850   2.483   6.419  10.749
11470SOL    HW135851   2.541   6.493  10.734
11470SOL    HW235852   2.540   6.342  10.751
11471SOL     OW35853   3.345   7.385  10.302
11471SOL    HW135854   3.368   7.446  10.232
11471SOL    HW235855   3.425   7.333  10.315
11472SOL     OW35856   2.577   6.145  11.007
11472SOL    HW135857   2.627   6.201  11.067
11472SOL    HW235858   2.599   6.056  11.034
11473SOL     OW35859   3.338   6.777  10.937
11473SOL    HW135860   3.331   6.796  11.030
11473SOL    HW235861   3.429   6.797  10.916
11474SOL     OW35862   2.230   7.330  10.888
11474SOL    HW135863   2.148   7.375  10.867
11474SOL    HW235864   2.202   7.246  10.925
11475SOL     OW35865   3.523   6.461  10.568
11475SOL    HW135866   3.520   6.374  10.527
11475SOL    HW235867   3.512   6.522  10.495
11476SOL     OW35868   3.080   5.904   9.766
11476SOL    HW135869   3.141   5.831   9.757
11476SOL    HW235870   3.112   5.953   9.842
11477SOL     OW35871   2.436   6.324   9.992
11477SOL    HW135872   2.483   6.405   9.972
11477SOL    HW235873   2.378   6.311   9.917
11478SOL     OW35874   3.614   5.955  10.972
11478SOL    HW135875   3.609   5.968  10.877
11478SOL    HW235876   3.540   5.897  10.992
11479SOL     OW35877   3.626   6.517  10.817
11479SOL    HW135878   3.604   6.609  10.828
11479SOL    HW235879   3.601   6.497  10.726
11480SOL     OW35880   2.718   6.953   9.354
11480SOL    HW135881   2.688   6.989   9.438
11480SOL    HW235882   2.744   7.030   9.303
11481SOL     OW35883   2.529   7.370  10.247
11481SOL    HW135884   2.514   7.462  10.225
11481SOL    HW235885   2.623   7.358  10.239
11482SOL     OW35886   2.729   6.559  10.163
11482SOL    HW135887   2.779   6.484  10.196
11482SOL    HW235888   2.690   6.597  10.242
11483SOL     OW35889   2.939   6.574   9.396
11483SOL    HW135890   2.919   6.622   9.316
11483SOL    HW235891   3.013   6.518   9.373
11484SOL     OW35892   3.710   7.138  10.150
11484SOL    HW135893   3.630   7.126  10.099
11484SOL    HW235894   3.721   7.057  10.199
11485SOL     OW35895   2.074   6.874  11.153
11485SOL    HW135896   2.039   6.797  11.110
11485SOL    HW235897   2.017   6.887  11.229
11486SOL     OW35898   1.960   6.815   9.973
11486SOL    HW135899   1.979   6.769  10.055
11486SOL    HW235900   2.021   6.779   9.910
11487SOL     OW35901   2.550   6.994  10.944
11487SOL    HW135902   2.470   6.954  10.979
11487SOL    HW235903   2.550   7.083  10.978
11488SOL     OW35904   3.668   5.757  10.549
11488SOL    HW135905   3.672   5.662  10.558
11488SOL    HW235906   3.681   5.773  10.455
11489SOL     OW35907   2.288   6.018   9.832
11489SOL    HW135908   2.324   5.950   9.774
11489SOL    HW235909   2.240   5.968   9.899
11490SOL     OW35910   3.542   7.081  10.409
11490SOL    HW135911   3.472   7.060  10.347
11490SOL    HW235912   3.547   7.005  10.467
11491SOL     OW35913   2.205   6.150  10.604
11491SOL    HW135914   2.258   6.090  10.656
11491SOL    HW235915   2.217   6.121  10.514
11492SOL     OW35916   2.694   7.176   9.978
11492SOL    HW135917   2.680   7.252   9.921
11492SOL    HW235918   2.617   7.120   9.963
11493SOL     OW35919   3.287   5.816  10.420
11493SOL    HW135920   3.299   5.723  10.442
11493SOL    HW235921   3.239   5.852  10.495
11494SOL     OW35922   2.869   5.597  10.441
11494SOL    HW135923   2.821   5.536  10.386
11494SOL    HW235924   2.957   5.560  10.448
11495SOL     OW35925   2.636   6.920   9.643
11495SOL    HW135926   2.611   6.827   9.644
11495SOL    HW235927   2.723   6.922   9.684
11496SOL     OW35928   2.481   7.145  10.599
11496SOL    HW135929   2.480   7.229  10.646
11496SOL    HW235930   2.570   7.139  10.563
11497SOL     OW35931   3.228   5.632   9.486
11497SOL    HW135932   3.273   5.562   9.438
11497SOL    HW235933   3.138   5.601   9.496
11498SOL     OW35934   3.156   6.054   9.986
11498SOL    HW135935   3.104   6.134   9.988
11498SOL    HW235936   3.153   6.021  10.075
11499SOL     OW35937   3.450   5.784  10.194
11499SOL    HW135938   3.392   5.809  10.266
11499SOL    HW235939   3.450   5.860  10.136
11500SOL     OW35940   1.904   6.648   9.621
11500SOL    HW135941   1.996   6.638   9.599
11500SOL    HW235942   1.875   6.559   9.642
11501SOL     OW35943   2.753   7.247   9.640
11501SOL    HW135944   2.677   7.231   9.584
11501SOL    HW235945   2.723   7.313   9.703
11502SOL     OW35946   2.082   6.205  11.306
11502SOL    HW135947   1.992   6.201  11.340
11502SOL    HW235948   2.073   6.186  11.213
11503SOL     OW35949   2.086   5.871  12.164
11503SOL    HW135950   2.117   5.834  12.247
11503SOL    HW235951   1.998   5.835  12.153
11504SOL     OW35952   1.855   5.971  11.813
11504SOL    HW135953   1.775   6.002  11.856
11504SOL    HW235954   1.827   5.895  11.762
11505SOL     OW35955   2.407   6.835  12.331
11505SOL    HW135956   2.329   6.871  12.289
11505SOL    HW235957   2.408   6.875  12.418
11506SOL     OW35958   3.440   7.106  11.884
11506SOL    HW135959   3.395   7.078  11.965
11506SOL    HW235960   3.370   7.109  11.819
11507SOL     OW35961   2.997   6.287  11.864
11507SOL    HW135962   3.042   6.371  11.856
11507SOL    HW235963   2.946   6.294  11.945
11508SOL     OW35964   3.624   6.188  11.407
11508SOL    HW135965   3.604   6.186  11.313
11508SOL    HW235966   3.595   6.103  11.440
11509SOL     OW35967   2.636   6.731  12.238
11509SOL    HW135968   2.550   6.755  12.273
11509SOL    HW235969   2.663   6.807  12.186
11510SOL     OW35970   2.547   6.579  11.817
11510SOL    HW135971   2.612   6.574  11.887
11510SOL    HW235972   2.478   6.635  11.852
11511SOL     OW35973   2.196   6.991  12.228
11511SOL    HW135974   2.115   6.955  12.192
11511SOL    HW235975   2.232   7.044  12.156
11512SOL     OW35976   3.464   6.022  11.916
11512SOL    HW135977   3.399   6.037  11.847
11512SOL    HW235978   3.462   6.103  11.968
11513SOL     OW35979   2.078   7.310  11.633
11513SOL    HW135980   2.105   7.382  11.690
11513SOL    HW235981   2.153   7.296  11.575
11514SOL     OW35982   2.098   7.036  11.714
11514SOL    HW135983   2.067   7.126  11.720
11514SOL    HW235984   2.042   6.987  11.775
11515SOL     OW35985   2.139   6.677  12.071
11515SOL    HW135986   2.136   6.587  12.103
11515SOL    HW235987   2.081   6.725  12.130
11516SOL     OW35988   2.436   6.571  11.316
11516SOL    HW135989   2.485   6.615  11.247
11516SOL    HW235990   2.475   6.602  11.398
11517SOL     OW35991   1.984   6.244  11.735
11517SOL    HW135992   1.950   6.157  11.757
11517SOL    HW235993   1.975   6.294  11.816
11518SOL     OW35994   3.709   7.338  11.500
11518SOL    HW135995   3.780   7.316  11.560
11518SOL    HW235996   3.725   7.429  11.477
11519SOL     OW35997   1.914   7.174  11.289
11519SOL    HW135998   1.893   7.082  11.305
11519SOL    HW235999   1.881   7.220  11.366
11520SOL     OW36000   3.558   6.507  11.824
11520SOL    HW136001   3.632   6.455  11.793
11520SOL    HW236002   3.530   6.557  11.747
11521SOL     OW36003   3.510   6.685  11.606
11521SOL    HW136004   3.596   6.688  11.564
11521SOL    HW236005   3.516   6.751  11.675
11522SOL     OW36006   2.034   6.338   0.223
11522SOL    HW136007   2.012   6.302   0.308
11522SOL    HW236008   1.954   6.382   0.193
11523SOL     OW36009   2.474   6.980  11.900
11523SOL    HW136010   2.430   6.895  11.908
11523SOL    HW236011   2.458   7.007  11.810
11524SOL     OW36012   2.686   5.604  11.688
11524SOL    HW136013   2.728   5.686  11.660
11524SOL    HW236014   2.593   5.625  11.693
11525SOL     OW36015   2.059   6.582  12.403
11525SOL    HW136016   2.136   6.525  12.406
11525SOL    HW236017   1.988   6.529  12.439
11526SOL     OW36018   3.394   6.588  11.373
11526SOL    HW136019   3.325   6.529  11.402
11526SOL    HW236020   3.435   6.618  11.454
11527SOL     OW36021   3.328   7.000  12.116
11527SOL    HW136022   3.263   7.013  12.185
11527SOL    HW236023   3.314   6.909  12.088
11528SOL     OW36024   3.513   7.349  11.748
11528SOL    HW136025   3.489   7.317  11.661
11528SOL    HW236026   3.502   7.274  11.805
11529SOL     OW36027   2.456   6.301  11.447
11529SOL    HW136028   2.455   6.384  11.401
11529SOL    HW236029   2.390   6.311  11.516
11530SOL     OW36030   3.142   5.961  12.107
11530SOL    HW136031   3.054   5.924  12.115
11530SOL    HW236032   3.196   5.907  12.165
11531SOL     OW36033   3.441   7.261  11.486
11531SOL    HW136034   3.533   7.282  11.477
11531SOL    HW236035   3.410   7.246  11.397
11532SOL     OW36036   2.851   5.949  12.378
11532SOL    HW136037   2.767   5.984  12.408
11532SOL    HW236038   2.834   5.916  12.290
11533SOL     OW36039   2.918   6.283  11.594
11533SOL    HW136040   2.936   6.277  11.688
11533SOL    HW236041   2.834   6.239  11.583
11534SOL     OW36042   1.951   6.412  11.950
11534SOL    HW136043   2.032   6.405  12.001
11534SOL    HW236044   1.905   6.486  11.989
11535SOL     OW36045   2.768   5.922  11.355
11535SOL    HW136046   2.801   5.995  11.304
11535SOL    HW236047   2.809   5.845  11.316
11536SOL     OW36048   3.241   6.726  11.708
11536SOL    HW136049   3.320   6.713  11.654
11536SOL    HW236050   3.189   6.789  11.658
11537SOL     OW36051   2.415   5.770  12.066
11537SOL    HW136052   2.419   5.816  12.150
11537SOL    HW236053   2.409   5.840  12.001
11538SOL     OW36054   2.864   7.036  11.642
11538SOL    HW136055   2.833   7.108  11.587
11538SOL    HW236056   2.830   7.057  11.730
11539SOL     OW36057   2.218   7.398  12.035
11539SOL    HW136058   2.260   7.313  12.044
11539SOL    HW236059   2.286   7.461  12.061
11540SOL     OW36060   3.661   6.638  12.053
11540SOL    HW136061   3.615   6.610  11.974
11540SOL    HW236062   3.593   6.642  12.120
11541SOL     OW36063   2.170   6.546  11.428
11541SOL    HW136064   2.253   6.566  11.384
11541SOL    HW236065   2.142   6.463  11.390
11542SOL     OW36066   3.342   6.347  11.894
11542SOL    HW136067   3.342   6.300  11.978
11542SOL    HW236068   3.424   6.395  11.894
11543SOL     OW36069   2.989   7.362  11.399
11543SOL    HW136070   2.911   7.325  11.440
11543SOL    HW236071   3.014   7.298  11.332
11544SOL     OW36072   3.497   6.975  11.275
11544SOL    HW136073   3.456   7.059  11.253
11544SOL    HW236074   3.432   6.909  11.249
11545SOL     OW36075   2.322   7.330  11.483
11545SOL    HW136076   2.372   7.379  11.548
11545SOL    HW236077   2.389   7.285  11.431
11546SOL     OW36078   3.260   5.691  11.616
11546SOL    HW136079   3.256   5.667  11.524
11546SOL    HW236080   3.354   5.689  11.637
11547SOL     OW36081   2.119   7.367  12.388
11547SOL    HW136082   2.127   7.291  12.447
11547SOL    HW236083   2.067   7.335  12.315
11548SOL     OW36084   2.805   7.282  12.066
11548SOL    HW136085   2.888   7.234  12.073
11548SOL    HW236086   2.757   7.236  11.998
11549SOL     OW36087   2.261   6.279  11.647
11549SOL    HW136088   2.276   6.185  11.661
11549SOL    HW236089   2.167   6.290  11.662
11550SOL     OW36090   2.489   5.651  11.302
11550SOL    HW136091   2.582   5.639  11.280
11550SOL    HW236092   2.443   5.642  11.219
11551SOL     OW36093   2.673   6.960  12.101
11551SOL    HW136094   2.760   6.962  12.063
11551SOL    HW236095   2.613   6.969  12.026
11552SOL     OW36096   2.795   6.098  12.063
11552SOL    HW136097   2.766   6.088  11.972
11552SOL    HW236098   2.823   6.011  12.090
11553SOL     OW36099   2.413   5.650  11.669
11553SOL    HW136100   2.332   5.651  11.721
11553SOL    HW236101   2.406   5.726  11.613
11554SOL     OW36102   3.299   6.794  11.212
11554SOL    HW136103   3.325   6.716  11.261
11554SOL    HW236104   3.210   6.813  11.243
11555SOL     OW36105   2.153   5.642  11.353
11555SOL    HW136106   2.180   5.713  11.294
11555SOL    HW236107   2.235   5.598  11.376
11556SOL     OW36108   2.808   5.842  11.621
11556SOL    HW136109   2.785   5.874  11.534
11556SOL    HW236110   2.902   5.857  11.628
11557SOL     OW36111   3.071   7.170  11.972
11557SOL    HW136112   3.085   7.231  11.900
11557SOL    HW236113   3.154   7.171  12.021
11558SOL     OW36114   2.336   6.741  11.894
11558SOL    HW136115   2.272   6.720  11.962
11558SOL    HW236116   2.288   6.730  11.812
11559SOL     OW36117   3.122   7.376  11.788
11559SOL    HW136118   3.172   7.433  11.730
11559SOL    HW236119   3.051   7.431  11.821
11560SOL     OW36120   2.885   6.117  11.203
11560SOL    HW136121   2.843   6.200  11.180
11560SOL    HW236122   2.953   6.141  11.266
11561SOL     OW36123   2.425   5.797  12.352
11561SOL    HW136124   2.441   5.706  12.330
11561SOL    HW236125   2.332   5.801  12.373
11562SOL     OW36126   2.728   6.044  11.805
11562SOL    HW136127   2.683   6.100  11.741
11562SOL    HW236128   2.754   5.966  11.754
11563SOL     OW36129   2.880   5.636  11.911
11563SOL    HW136130   2.819   5.632  11.837
11563SOL    HW236131   2.857   5.560  11.965
11564SOL     OW36132   3.303   6.739  12.024
11564SOL    HW136133   3.231   6.679  12.009
11564SOL    HW236134   3.341   6.754  11.937
11565SOL     OW36135   3.328   6.201  12.134
11565SOL    HW136136   3.273   6.123  12.136
11565SOL    HW236137   3.389   6.190  12.207
11566SOL     OW36138   3.707   6.396  11.561
11566SOL    HW136139   3.762   6.343  11.619
11566SOL    HW236140   3.674   6.335  11.496
11567SOL     OW36141   2.351   7.010  11.322
11567SOL    HW136142   2.276   6.977  11.372
11567SOL    HW236143   2.351   6.957  11.242
11568SOL     OW36144   3.529   6.851  11.818
11568SOL    HW136145   3.623   6.846  11.835
11568SOL    HW236146   3.506   6.942  11.833
11569SOL     OW36147   3.256   6.159  11.243
11569SOL    HW136148   3.196   6.134  11.313
11569SOL    HW236149   3.340   6.118  11.267
11570SOL     OW36150   2.387   5.846  11.485
11570SOL    HW136151   2.428   5.793  11.417
11570SOL    HW236152   2.362   5.927  11.440
11571SOL     OW36153   2.967   6.829  12.285
11571SOL    HW136154   2.881   6.835  12.327
11571SOL    HW236155   2.951   6.853  12.194
11572SOL     OW36156   3.467   6.675  12.250
11572SOL    HW136157   3.428   6.714  12.328
11572SOL    HW236158   3.402   6.690  12.181
11573SOL     OW36159   2.574   6.649  11.544
11573SOL    HW136160   2.558   6.625  11.636
11573SOL    HW236161   2.650   6.597  11.519
11574SOL     OW36162   2.293   6.411  12.444
11574SOL    HW136163   2.340   6.445  12.520
11574SOL    HW236164   2.267   6.323  12.469
11575SOL     OW36165   3.112   5.950  12.433
11575SOL    HW136166   3.140   6.034  12.468
11575SOL    HW236167   3.020   5.962  12.412
11576SOL     OW36168   2.192   6.710  11.660
11576SOL    HW136169   2.190   6.782  11.597
11576SOL    HW236170   2.191   6.631  11.607
11577SOL     OW36171   2.403   6.109  12.035
11577SOL    HW136172   2.418   6.168  11.961
11577SOL    HW236173   2.467   6.137  12.100
11578SOL     OW36174   3.109   6.936  11.566
11578SOL    HW136175   3.166   7.006  11.597
11578SOL    HW236176   3.022   6.960  11.597
11579SOL     OW36177   3.150   7.032  12.322
11579SOL    HW136178   3.190   7.017  12.407
11579SOL    HW236179   3.084   6.963  12.314
11580SOL     OW36180   3.436   6.196  11.665
11580SOL    HW136181   3.383   6.252  11.721
11580SOL    HW236182   3.470   6.254  11.597
11581SOL     OW36183   2.241   7.120  12.463
11581SOL    HW136184   2.201   7.063  12.398
11581SOL    HW236185   2.305   7.172  12.413
11582SOL     OW36186   2.439   6.457  12.214
11582SOL    HW136187   2.450   6.552  12.210
11582SOL    HW236188   2.387   6.443  12.293
11583SOL     OW36189   3.184   6.436  12.192
11583SOL    HW136190   3.101   6.414  12.151
11583SOL    HW236191   3.240   6.360  12.175
11584SOL     OW36192   3.062   6.110  11.433
11584SOL    HW136193   3.072   6.033  11.489
11584SOL    HW236194   3.019   6.175  11.490
11585SOL     OW36195   2.160   5.770  12.410
11585SOL    HW136196   2.136   5.796  12.499
11585SOL    HW236197   2.143   5.676  12.407
11586SOL     OW36198   1.935   6.918  12.433
11586SOL    HW136199   1.955   6.840  12.484
11586SOL    HW236200   1.929   6.988  12.498
11587SOL     OW36201   2.577   6.215  12.221
11587SOL    HW136202   2.654   6.208  12.163
11587SOL    HW236203   2.546   6.304  12.207
11588SOL     OW36204   2.170   5.646  11.794
11588SOL    HW136205   2.142   5.736  11.813
11588SOL    HW236206   2.178   5.605  11.880
11589SOL     OW36207   3.488   5.963  11.529
11589SOL    HW136208   3.521   5.895  11.588
11589SOL    HW236209   3.463   6.035  11.587
11590SOL     OW36210   2.893   6.341  12.138
11590SOL    HW136211   2.883   6.350  12.233
11590SOL    HW236212   2.864   6.252  12.119
11591SOL     OW36213   3.375   5.866  11.297
11591SOL    HW136214   3.321   5.793  11.325
11591SOL    HW236215   3.418   5.897  11.377
11592SOL     OW36216   3.151   6.410  11.200
11592SOL    HW136217   3.192   6.324  11.204
11592SOL    HW236218   3.182   6.448  11.118
11593SOL     OW36219   2.935   6.930  12.031
11593SOL    HW136220   2.939   6.857  11.969
11593SOL    HW236221   2.987   6.999  11.990
11594SOL     OW36222   2.174   6.398  12.111
11594SOL    HW136223   2.269   6.412  12.114
11594SOL    HW236224   2.162   6.308  12.140
11595SOL     OW36225   2.167   6.126  12.164
11595SOL    HW136226   2.140   6.035  12.166
11595SOL    HW236227   2.251   6.126  12.119
11596SOL     OW36228   3.030   5.801   0.150
11596SOL    HW136229   3.015   5.865   0.219
11596SOL    HW236230   3.057   5.854   0.074
11597SOL     OW36231   1.879   6.898  11.357
11597SOL    HW136232   1.790   6.917  11.328
11597SOL    HW236233   1.874   6.811  11.397
11598SOL     OW36234   1.955   7.366  12.111
11598SOL    HW136235   1.923   7.288  12.066
11598SOL    HW236236   2.044   7.377  12.079
11599SOL     OW36237   2.360   7.167  12.073
11599SOL    HW136238   2.434   7.219  12.103
11599SOL    HW236239   2.399   7.101  12.016
11600SOL     OW36240   2.837   6.368  12.408
11600SOL    HW136241   2.869   6.442  12.461
11600SOL    HW236242   2.743   6.366  12.424
11601SOL     OW36243   1.929   6.161  12.306
11601SOL    HW136244   2.002   6.155  12.245
11601SOL    HW236245   1.916   6.071  12.337
11602SOL     OW36246   2.680   6.156  11.538
11602SOL    HW136247   2.680   6.082  11.477
11602SOL    HW236248   2.605   6.209  11.510
11603SOL     OW36249   3.521   6.200  12.338
11603SOL    HW136250   3.510   6.140  12.411
11603SOL    HW236251   3.614   6.195  12.316
11604SOL     OW36252   2.593   6.020  12.415
11604SOL    HW136253   2.522   5.958  12.397
11604SOL    HW236254   2.575   6.093  12.356
11605SOL     OW36255   2.754   7.234   0.031
11605SOL    HW136256   2.765   7.306  -0.030
11605SOL    HW236257   2.775   7.272   0.117
11606SOL     OW36258   2.321   6.075  11.353
11606SOL    HW136259   2.380   6.147  11.377
11606SOL    HW236260   2.235   6.117  11.344
11607SOL     OW36261   3.160   6.642  12.368
11607SOL    HW136262   3.172   6.575  12.300
11607SOL    HW236263   3.098   6.704  12.329
11608SOL     OW36264   3.180   6.439  11.475
11608SOL    HW136265   3.105   6.406  11.523
11608SOL    HW236266   3.157   6.427  11.383
11609SOL     OW36267   3.604   7.327  12.289
11609SOL    HW136268   3.682   7.346  12.237
11609SOL    HW236269   3.596   7.231  12.286
11610SOL     OW36270   3.114   7.309  12.283
11610SOL    HW136271   3.194   7.343  12.244
11610SOL    HW236272   3.128   7.214  12.288
11611SOL     OW36273   1.946   6.872  12.167
11611SOL    HW136274   1.936   6.886  12.261
11611SOL    HW236275   1.885   6.802  12.146
11612SOL     OW36276   3.594   5.751  11.675
11612SOL    HW136277   3.660   5.732  11.608
11612SOL    HW236278   3.573   5.665  11.713
11613SOL     OW36279   3.260   7.153  11.670
11613SOL    HW136280   3.316   7.185  11.600
11613SOL    HW236281   3.205   7.228  11.694
11614SOL     OW36282   3.139   6.522  11.852
11614SOL    HW136283   3.211   6.460  11.861
11614SOL    HW236284   3.172   6.589  11.791
11615SOL     OW36285   2.529   7.215  11.327
11615SOL    HW136286   2.544   7.230  11.234
11615SOL    HW236287   2.473   7.137  11.330
11616SOL     OW36288   3.519   7.386   0.043
11616SOL    HW136289   3.555   7.360  -0.042
11616SOL    HW236290   3.543   7.478   0.052
11617SOL     OW36291   3.705   5.754  12.141
11617SOL    HW136292   3.737   5.667  12.118
11617SOL    HW236293   3.619   5.760  12.100
11618SOL     OW36294   2.113   5.897  11.882
11618SOL    HW136295   2.027   5.932  11.859
11618SOL    HW236296   2.115   5.899  11.977
11619SOL     OW36297   3.072   7.183  11.208
11619SOL    HW136298   3.060   7.091  11.231
11619SOL    HW236299   3.008   7.198  11.138
11620SOL     OW36300   2.651   6.607  12.488
11620SOL    HW136301   2.655   6.648  12.401
11620SOL    HW236302   2.726   6.643  12.535
11621SOL     OW36303   2.785   6.502  11.468
11621SOL    HW136304   2.842   6.533  11.399
11621SOL    HW236305   2.834   6.431  11.510
11622SOL     OW36306   3.350   7.225  11.221
11622SOL    HW136307   3.257   7.207  11.204
11622SOL    HW236308   3.390   7.228  11.135
11623SOL     OW36309   2.926   6.701  11.891
11623SOL    HW136310   2.851   6.650  11.924
11623SOL    HW236311   2.990   6.635  11.864
11624SOL     OW36312   2.887   5.822  12.126
11624SOL    HW136313   2.886   5.776  12.042
11624SOL    HW236314   2.887   5.752  12.192
11625SOL     OW36315   2.466   7.078  11.647
11625SOL    HW136316   2.522   7.026  11.588
11625SOL    HW236317   2.384   7.087  11.599
11626SOL     OW36318   3.632   6.016   0.034
11626SOL    HW136319   3.716   5.992   0.073
11626SOL    HW236320   3.597   5.933   0.000
11627SOL     OW36321   2.136   6.924  11.475
11627SOL    HW136322   2.048   6.920  11.439
11627SOL    HW236323   2.125   6.969  11.559
11628SOL     OW36324   1.940   5.911  11.196
11628SOL    HW136325   1.857   5.891  11.152
11628SOL    HW236326   1.971   5.992  11.154
11629SOL     OW36327   1.920   5.738  11.468
11629SOL    HW136328   1.903   5.815  11.413
11629SOL    HW236329   2.007   5.709  11.442
11630SOL     OW36330   3.042   6.914  11.290
11630SOL    HW136331   2.951   6.883  11.289
11630SOL    HW236332   3.066   6.915  11.383
11631SOL     OW36333   3.355   7.397  12.179
11631SOL    HW136334   3.378   7.437  12.095
11631SOL    HW236335   3.439   7.367  12.214
11632SOL     OW36336   3.551   6.462  12.429
11632SOL    HW136337   3.529   6.377  12.390
11632SOL    HW236338   3.529   6.526  12.362
11633SOL     OW36339   3.079   5.905  11.629
11633SOL    HW136340   3.141   5.832  11.623
11633SOL    HW236341   3.109   5.955  11.704
11634SOL     OW36342   2.447   6.316  11.851
11634SOL    HW136343   2.487   6.402  11.835
11634SOL    HW236344   2.382   6.307  11.781
11635SOL     OW36345   2.730   6.952  11.220
11635SOL    HW136346   2.689   6.987  11.299
11635SOL    HW236347   2.747   7.029  11.166
11636SOL     OW36348   2.531   7.392  12.132
11636SOL    HW136349   2.516   7.475  12.086
11636SOL    HW236350   2.621   7.370  12.112
11637SOL     OW36351   2.732   6.558  12.030
11637SOL    HW136352   2.779   6.483  12.066
11637SOL    HW236353   2.697   6.604  12.107
11638SOL     OW36354   2.942   6.577  11.262
11638SOL    HW136355   2.918   6.625  11.183
11638SOL    HW236356   3.015   6.521  11.235
11639SOL     OW36357   3.713   7.137  12.011
11639SOL    HW136358   3.629   7.124  11.967
11639SOL    HW236359   3.725   7.058  12.064
11640SOL     OW36360   1.959   6.819  11.838
11640SOL    HW136361   1.961   6.775  11.923
11640SOL    HW236362   2.023   6.771  11.784
11641SOL     OW36363   3.668   5.763  12.414
11641SOL    HW136364   3.707   5.677  12.433
11641SOL    HW236365   3.672   5.770  12.319
11642SOL     OW36366   2.293   6.017  11.700
11642SOL    HW136367   2.319   5.949  11.639
11642SOL    HW236368   2.237   5.973  11.763
11643SOL     OW36369   3.562   7.063  12.281
11643SOL    HW136370   3.487   7.027  12.234
11643SOL    HW236371   3.586   6.995  12.343
11644SOL     OW36372   2.688   7.174  11.846
11644SOL    HW136373   2.669   7.242  11.781
11644SOL    HW236374   2.614   7.113  11.839
11645SOL     OW36375   3.302   5.824  12.286
11645SOL    HW136376   3.345   5.754  12.335
11645SOL    HW236377   3.241   5.863  12.348
11646SOL     OW36378   2.874   5.586  12.289
11646SOL    HW136379   2.834   5.527  12.224
11646SOL    HW236380   2.962   5.551  12.302
11647SOL     OW36381   2.636   6.920  11.502
11647SOL    HW136382   2.608   6.828  11.505
11647SOL    HW236383   2.722   6.920  11.544
11648SOL     OW36384   3.228   5.633  11.348
11648SOL    HW136385   3.267   5.561  11.299
11648SOL    HW236386   3.135   5.610  11.354
11649SOL     OW36387   3.157   6.052  11.847
11649SOL    HW136388   3.105   6.133  11.850
11649SOL    HW236389   3.153   6.018  11.936
11650SOL     OW36390   3.447   5.777  12.054
11650SOL    HW136391   3.391   5.803  12.127
11650SOL    HW236392   3.447   5.853  11.996
11651SOL     OW36393   1.906   6.648  11.482
11651SOL    HW136394   1.998   6.638  11.461
11651SOL    HW236395   1.876   6.560  11.504
11652SOL     OW36396   2.752   7.248  11.504
11652SOL    HW136397   2.677   7.231  11.448
11652SOL    HW236398   2.722   7.315  11.565
11653SOL     OW36399   2.088   7.721   0.997
11653SOL    HW136400   2.115   7.690   1.083
11653SOL    HW236401   1.999   7.687   0.986
11654SOL     OW36402   1.837   7.816   0.654
11654SOL    HW136403   1.755   7.859   0.679
11654SOL    HW236404   1.810   7.737   0.608
11655SOL     OW36405   3.481   0.033   0.191
11655SOL    HW136406   3.524  -0.037   0.141
11655SOL    HW236407   3.514   0.022   0.280
11656SOL     OW36408   2.315   7.839   1.472
11656SOL    HW136409   2.385   7.777   1.492
11656SOL    HW236410   2.235   7.791   1.492
11657SOL     OW36411   3.453   7.930   0.698
11657SOL    HW136412   3.362   7.909   0.676
11657SOL    HW236413   3.449   7.964   0.787
11658SOL     OW36414   1.934   0.075   0.624
11658SOL    HW136415   1.915  -0.018   0.630
11658SOL    HW236416   1.931   0.106   0.715
11659SOL     OW36417   2.679   7.438   0.528
11659SOL    HW136418   2.723   7.518   0.502
11659SOL    HW236419   2.586   7.460   0.528
11660SOL     OW36420   2.212   7.704   1.821
11660SOL    HW136421   2.247   7.793   1.811
11660SOL    HW236422   2.121   7.716   1.847
11661SOL     OW36423   3.128   7.778   0.916
11661SOL    HW136424   3.038   7.750   0.934
11661SOL    HW236425   3.181   7.729   0.980
11662SOL     OW36426   3.266   7.952   1.714
11662SOL    HW136427   3.246   7.967   1.807
11662SOL    HW236428   3.318   7.872   1.713
11663SOL     OW36429   2.759   0.385   1.551
11663SOL    HW136430   2.849   0.396   1.580
11663SOL    HW236431   2.767   0.348   1.463
11664SOL     OW36432   2.829   7.815   1.259
11664SOL    HW136433   2.793   7.799   1.346
11664SOL    HW236434   2.819   7.731   1.213
11665SOL     OW36435   2.749   7.785   0.226
11665SOL    HW136436   2.836   7.797   0.188
11665SOL    HW236437   2.720   7.701   0.192
11666SOL     OW36438   3.624   0.031   1.801
11666SOL    HW136439   3.551   0.083   1.766
11666SOL    HW236440   3.627  -0.046   1.745
11667SOL     OW36441   2.416   7.623   0.901
11667SOL    HW136442   2.415   7.639   0.995
11667SOL    HW236443   2.420   7.710   0.862
11668SOL     OW36444   2.061   7.715   1.508
11668SOL    HW136445   2.017   7.771   1.571
11668SOL    HW236446   2.037   7.626   1.533
11669SOL     OW36447   3.276   7.543   0.451
11669SOL    HW136448   3.267   7.513   0.361
11669SOL    HW236449   3.363   7.583   0.455
11670SOL     OW36450   3.395   7.714   1.735
11670SOL    HW136451   3.382   7.701   1.829
11670SOL    HW236452   3.379   7.628   1.696
11671SOL     OW36453   2.495   7.554   0.133
11671SOL    HW136454   2.589   7.536   0.131
11671SOL    HW236455   2.459   7.503   0.060
11672SOL     OW36456   2.630   7.710   1.752
11672SOL    HW136457   2.713   7.662   1.749
11672SOL    HW236458   2.591   7.685   1.836
11673SOL     OW36459   3.205  -0.012   1.435
11673SOL    HW136460   3.242  -0.038   1.520
11673SOL    HW236461   3.228   0.080   1.426
11674SOL     OW36462   2.416   7.507   0.499
11674SOL    HW136463   2.337   7.508   0.553
11674SOL    HW236464   2.411   7.587   0.447
11675SOL     OW36465   2.169   7.533   0.210
11675SOL    HW136466   2.251   7.582   0.201
11675SOL    HW236467   2.197   7.445   0.238
11676SOL     OW36468   2.812   7.662   0.464
11676SOL    HW136469   2.780   7.722   0.396
11676SOL    HW236470   2.904   7.687   0.475
11677SOL     OW36471   1.963  -0.006   1.381
11677SOL    HW136472   2.025  -0.050   1.440
11677SOL    HW236473   1.945   0.078   1.422
11678SOL     OW36474   2.417   7.664   1.169
11678SOL    HW136475   2.460   7.603   1.230
11678SOL    HW236476   2.327   7.668   1.200
11679SOL     OW36477   2.890   7.487   0.735
11679SOL    HW136478   2.824   7.490   0.666
11679SOL    HW236479   2.861   7.418   0.794
11680SOL     OW36480   3.356   7.945   0.954
11680SOL    HW136481   3.269   7.911   0.974
11680SOL    HW236482   3.390   7.976   1.038
11681SOL     OW36483   2.403   7.720   0.325
11681SOL    HW136484   2.439   7.666   0.255
11681SOL    HW236485   2.452   7.802   0.321
11682SOL     OW36486   2.787   7.548   1.389
11682SOL    HW136487   2.813   7.513   1.304
11682SOL    HW236488   2.869   7.580   1.427
11683SOL     OW36489   3.111   7.855   1.222
11683SOL    HW136490   3.150   7.900   1.297
11683SOL    HW236491   3.024   7.827   1.254
11684SOL     OW36492   2.417   7.956   0.867
11684SOL    HW136493   2.409   7.964   0.772
11684SOL    HW236494   2.443   8.044   0.895
11685SOL     OW36495   2.868   7.583   1.738
11685SOL    HW136496   2.932   7.653   1.727
11685SOL    HW236497   2.913   7.504   1.710
11686SOL     OW36498   2.361   7.484   1.748
11686SOL    HW136499   2.310   7.430   1.688
11686SOL    HW236500   2.307   7.561   1.764
11687SOL     OW36501   2.155   7.641   1.250
11687SOL    HW136502   2.118   7.674   1.332
11687SOL    HW236503   2.138   7.547   1.252
11688SOL     OW36504   2.175   7.513   0.629
11688SOL    HW136505   2.144   7.600   0.654
11688SOL    HW236506   2.183   7.466   0.712
11689SOL     OW36507   3.446   7.807   0.384
11689SOL    HW136508   3.506   7.747   0.429
11689SOL    HW236509   3.418   7.868   0.453
11690SOL     OW36510   3.317   7.705   0.085
11690SOL    HW136511   3.302   7.630   0.142
11690SOL    HW236512   3.370   7.765   0.138
11691SOL     OW36513   2.176   7.972   1.019
11691SOL    HW136514   2.154   7.879   1.012
11691SOL    HW236515   2.259   7.981   0.970
11692SOL     OW36516   3.009   7.831   1.686
11692SOL    HW136517   2.951   7.900   1.717
11692SOL    HW236518   3.097   7.870   1.689
11693SOL     OW36519   3.028   7.665   1.461
11693SOL    HW136520   3.023   7.724   1.536
11693SOL    HW236521   3.120   7.667   1.434
11694SOL     OW36522   1.896   7.960   1.117
11694SOL    HW136523   1.978   7.939   1.072
11694SOL    HW236524   1.921   7.967   1.210
11695SOL     OW36525   2.043   7.969   1.678
11695SOL    HW136526   2.137   7.958   1.689
11695SOL    HW236527   2.023   8.052   1.721
11696SOL     OW36528   2.654   0.033   0.264
11696SOL    HW136529   2.690  -0.055   0.265
11696SOL    HW236530   2.602   0.039   0.344
11697SOL     OW36531   3.487   0.029   1.179
11697SOL    HW136532   3.477   0.005   1.272
11697SOL    HW236533   3.565  -0.017   1.151
11698SOL     OW36534   2.537   7.920   1.192
11698SOL    HW136535   2.509   7.916   1.283
11698SOL    HW236536   2.502   7.840   1.152
11699SOL     OW36537   2.770   7.528   0.115
11699SOL    HW136538   2.815   7.578   0.046
11699SOL    HW236539   2.841   7.498   0.172
11700SOL     OW36540   3.598   7.624   0.515
11700SOL    HW136541   3.664   7.596   0.452
11700SOL    HW236542   3.603   7.559   0.586
11701SOL     OW36543   3.701   7.614   0.974
11701SOL    HW136544   3.728   7.526   0.948
11701SOL    HW236545   3.611   7.623   0.943
11702SOL     OW36546   2.101   7.760   0.719
11702SOL    HW136547   2.008   7.781   0.706
11702SOL    HW236548   2.111   7.752   0.813
11703SOL     OW36549   2.884   7.665   0.954
11703SOL    HW136550   2.884   7.617   0.872
11703SOL    HW236551   2.878   7.598   1.022
11704SOL     OW36552   3.586   7.857   1.378
11704SOL    HW136553   3.660   7.821   1.330
11704SOL    HW236554   3.521   7.786   1.380
11705SOL     OW36555   2.544   7.643   1.494
11705SOL    HW136556   2.629   7.613   1.460
11705SOL    HW236557   2.563   7.668   1.585
11706SOL     OW36558   1.920   7.593   0.304
11706SOL    HW136559   1.908   7.685   0.278
11706SOL    HW236560   2.009   7.571   0.275
11707SOL     OW36561   2.591   7.970   1.676
11707SOL    HW136562   2.659   8.021   1.720
11707SOL    HW236563   2.609   7.880   1.701
11708SOL     OW36564   3.081   7.740   0.452
11708SOL    HW136565   3.147   7.672   0.458
11708SOL    HW236566   3.106   7.805   0.518
11709SOL     OW36567   2.481   0.249   0.675
11709SOL    HW136568   2.462   0.336   0.638
11709SOL    HW236569   2.402   0.198   0.657
11710SOL     OW36570   3.630   7.814   1.640
11710SOL    HW136571   3.612   7.838   1.549
11710SOL    HW236572   3.552   7.766   1.668
11711SOL     OW36573   3.714   7.642   1.254
11711SOL    HW136574   3.632   7.607   1.289
11711SOL    HW236575   3.705   7.632   1.159
11712SOL     OW36576   2.223   7.863   0.488
11712SOL    HW136577   2.269   7.793   0.441
11712SOL    HW236578   2.184   7.819   0.564
11713SOL     OW36579   3.290   7.676   1.121
11713SOL    HW136580   3.337   7.635   1.193
11713SOL    HW236581   3.231   7.738   1.163
11714SOL     OW36582   2.870   7.457   1.140
11714SOL    HW136583   2.812   7.391   1.102
11714SOL    HW236584   2.957   7.419   1.132
11715SOL     OW36585   3.219   7.470   0.193
11715SOL    HW136586   3.220   7.448   0.100
11715SOL    HW236587   3.129   7.452   0.221
11716SOL     OW36588   3.179   7.888   0.671
11716SOL    HW136589   3.139   7.974   0.679
11716SOL    HW236590   3.162   7.846   0.756
11717SOL     OW36591   3.439   7.643   0.896
11717SOL    HW136592   3.391   7.654   0.978
11717SOL    HW236593   3.426   7.726   0.850
11718SOL     OW36594   2.094   7.716   2.859
11718SOL    HW136595   2.117   7.687   2.947
11718SOL    HW236596   2.004   7.687   2.847
11719SOL     OW36597   1.861   7.822   2.515
11719SOL    HW136598   1.806   7.829   2.594
11719SOL    HW236599   1.855   7.730   2.490
11720SOL     OW36600   3.505   0.026   2.060
11720SOL    HW136601   3.573   0.020   1.992
11720SOL    HW236602   3.527  -0.044   2.122
11721SOL     OW36603   2.281   7.865   3.298
11721SOL    HW136604   2.365   7.852   3.343
11721SOL    HW236605   2.220   7.808   3.345
11722SOL     OW36606   3.455   7.934   2.554
11722SOL    HW136607   3.363   7.918   2.531
11722SOL    HW236608   3.452   7.969   2.643
11723SOL     OW36609   3.444   7.583   3.320
11723SOL    HW136610   3.487   7.658   3.279
11723SOL    HW236611   3.424   7.613   3.409
11724SOL     OW36612   1.933   0.115   2.470
11724SOL    HW136613   1.947   0.020   2.473
11724SOL    HW236614   2.021   0.152   2.481
11725SOL     OW36615   2.680   7.437   2.378
11725SOL    HW136616   2.724   7.517   2.349
11725SOL    HW236617   2.588   7.460   2.381
11726SOL     OW36618   2.211   7.720   3.667
11726SOL    HW136619   2.242   7.810   3.656
11726SOL    HW236620   2.123   7.728   3.702
11727SOL     OW36621   3.121   7.801   2.796
11727SOL    HW136622   3.034   7.765   2.808
11727SOL    HW236623   3.178   7.744   2.849
11728SOL     OW36624   3.262   7.939   3.571
11728SOL    HW136625   3.248   7.959   3.664
11728SOL    HW236626   3.318   7.861   3.572
11729SOL     OW36627   2.766   0.361   3.432
11729SOL    HW136628   2.854   0.393   3.453
11729SOL    HW236629   2.767   0.349   3.337
11730SOL     OW36630   2.849   7.824   3.101
11730SOL    HW136631   2.764   7.846   3.140
11730SOL    HW236632   2.829   7.756   3.037
11731SOL     OW36633   2.755   7.790   2.046
11731SOL    HW136634   2.824   7.788   1.980
11731SOL    HW236635   2.775   7.715   2.103
11732SOL     OW36636   3.605   0.012   3.670
11732SOL    HW136637   3.616   0.090   3.616
11732SOL    HW236638   3.623  -0.061   3.611
11733SOL     OW36639   2.409   7.625   2.756
11733SOL    HW136640   2.407   7.648   2.849
11733SOL    HW236641   2.408   7.710   2.711
11734SOL     OW36642   2.052   7.722   3.373
11734SOL    HW136643   2.018   7.781   3.440
11734SOL    HW236644   2.037   7.634   3.409
11735SOL     OW36645   3.264   7.548   2.309
11735SOL    HW136646   3.259   7.522   2.217
11735SOL    HW236647   3.355   7.532   2.334
11736SOL     OW36648   3.387   7.673   3.593
11736SOL    HW136649   3.393   7.700   3.685
11736SOL    HW236650   3.337   7.591   3.596
11737SOL     OW36651   2.504   7.566   1.967
11737SOL    HW136652   2.558   7.491   1.992
11737SOL    HW236653   2.453   7.535   1.892
11738SOL     OW36654   2.636   7.711   3.617
11738SOL    HW136655   2.714   7.657   3.609
11738SOL    HW236656   2.633   7.735   3.710
11739SOL     OW36657   3.192   0.001   3.299
11739SOL    HW136658   3.239  -0.015   3.381
11739SOL    HW236659   3.136   0.077   3.319
11740SOL     OW36660   2.416   7.508   2.357
11740SOL    HW136661   2.337   7.512   2.411
11740SOL    HW236662   2.414   7.589   2.306
11741SOL     OW36663   2.153   7.498   2.049
11741SOL    HW136664   2.214   7.562   2.011
11741SOL    HW236665   2.210   7.434   2.092
11742SOL     OW36666   2.806   7.674   2.311
11742SOL    HW136667   2.767   7.761   2.324
11742SOL    HW236668   2.900   7.688   2.320
11743SOL     OW36669   1.963  -0.000   3.242
11743SOL    HW136670   2.025  -0.061   3.282
11743SOL    HW236671   1.960   0.074   3.302
11744SOL     OW36672   2.404   7.672   3.026
11744SOL    HW136673   2.453   7.616   3.086
11744SOL    HW236674   2.316   7.675   3.062
11745SOL     OW36675   2.882   7.497   2.603
11745SOL    HW136676   2.823   7.491   2.528
11745SOL    HW236677   2.858   7.423   2.658
11746SOL     OW36678   3.362   7.947   2.813
11746SOL    HW136679   3.272   7.917   2.831
11746SOL    HW236680   3.394   7.977   2.898
11747SOL     OW36681   2.415   7.724   2.188
11747SOL    HW136682   2.451   7.685   2.109
11747SOL    HW236683   2.447   7.814   2.188
11748SOL     OW36684   2.787   7.547   3.242
11748SOL    HW136685   2.815   7.521   3.154
11748SOL    HW236686   2.865   7.583   3.283
11749SOL     OW36687   3.120   7.801   3.137
11749SOL    HW136688   3.152   7.875   3.189
11749SOL    HW236689   3.026   7.817   3.127
11750SOL     OW36690   2.409   7.945   2.723
11750SOL    HW136691   2.424   8.009   2.653
11750SOL    HW236692   2.477   7.965   2.788
11751SOL     OW36693   2.864   7.574   3.603
11751SOL    HW136694   2.928   7.645   3.596
11751SOL    HW236695   2.909   7.497   3.567
11752SOL     OW36696   2.354   7.501   3.600
11752SOL    HW136697   2.282   7.438   3.591
11752SOL    HW236698   2.310   7.584   3.617
11753SOL     OW36699   2.147   7.638   3.116
11753SOL    HW136700   2.113   7.674   3.198
11753SOL    HW236701   2.128   7.544   3.121
11754SOL     OW36702   2.600   0.053   2.888
11754SOL    HW136703   2.675   0.083   2.837
11754SOL    HW236704   2.563   0.132   2.925
11755SOL     OW36705   2.173   7.511   2.491
11755SOL    HW136706   2.156   7.602   2.514
11755SOL    HW236707   2.182   7.467   2.576
11756SOL     OW36708   3.475   7.812   2.246
11756SOL    HW136709   3.522   7.739   2.285
11756SOL    HW236710   3.443   7.862   2.320
11757SOL     OW36711   3.351   7.737   2.008
11757SOL    HW136712   3.303   7.657   2.026
11757SOL    HW236713   3.399   7.756   2.088
11758SOL     OW36714   3.108   0.226   1.876
11758SOL    HW136715   3.156   0.159   1.924
11758SOL    HW236716   3.145   0.309   1.906
11759SOL     OW36717   2.161   7.976   2.868
11759SOL    HW136718   2.152   7.881   2.867
11759SOL    HW236719   2.250   7.992   2.836
11760SOL     OW36720   3.004   7.825   3.549
11760SOL    HW136721   2.948   7.899   3.572
11760SOL    HW236722   3.093   7.860   3.554
11761SOL     OW36723   3.027   7.639   3.342
11761SOL    HW136724   3.016   7.706   3.410
11761SOL    HW236725   3.075   7.683   3.272
11762SOL     OW36726   1.903   7.961   2.979
11762SOL    HW136727   1.987   7.963   2.932
11762SOL    HW236728   1.928   7.957   3.072
11763SOL     OW36729   2.027   7.970   3.526
11763SOL    HW136730   2.121   7.971   3.543
11763SOL    HW236731   1.992   8.037   3.585
11764SOL     OW36732   2.646   0.033   2.101
11764SOL    HW136733   2.687  -0.052   2.083
11764SOL    HW236734   2.636   0.034   2.196
11765SOL     OW36735   3.478   8.018   3.052
11765SOL    HW136736   3.468   8.004   3.146
11765SOL    HW236737   3.558   7.971   3.029
11766SOL     OW36738   2.580   7.876   3.098
11766SOL    HW136739   2.505   7.821   3.079
11766SOL    HW236740   2.582   7.940   3.026
11767SOL     OW36741   3.601   7.604   2.372
11767SOL    HW136742   3.669   7.586   2.307
11767SOL    HW236743   3.578   7.518   2.407
11768SOL     OW36744   3.709   7.626   2.816
11768SOL    HW136745   3.731   7.535   2.797
11768SOL    HW236746   3.620   7.637   2.781
11769SOL     OW36747   2.127   7.762   2.587
11769SOL    HW136748   2.041   7.802   2.572
11769SOL    HW236749   2.131   7.749   2.682
11770SOL     OW36750   2.885   7.668   2.827
11770SOL    HW136751   2.882   7.624   2.742
11770SOL    HW236752   2.881   7.596   2.891
11771SOL     OW36753   3.597   7.818   3.249
11771SOL    HW136754   3.663   7.887   3.248
11771SOL    HW236755   3.630   7.753   3.187
11772SOL     OW36756   2.546   7.609   3.368
11772SOL    HW136757   2.629   7.613   3.320
11772SOL    HW236758   2.561   7.661   3.447
11773SOL     OW36759   1.943   7.770   1.889
11773SOL    HW136760   1.882   7.761   1.816
11773SOL    HW236761   1.964   7.863   1.891
11774SOL     OW36762   1.915   7.609   2.141
11774SOL    HW136763   1.909   7.676   2.072
11774SOL    HW236764   2.004   7.576   2.135
11775SOL     OW36765   2.550   7.982   3.578
11775SOL    HW136766   2.608   8.058   3.586
11775SOL    HW236767   2.610   7.907   3.575
11776SOL     OW36768   3.071   7.746   2.334
11776SOL    HW136769   3.138   7.679   2.322
11776SOL    HW236770   3.108   7.804   2.401
11777SOL     OW36771   2.509   0.221   2.502
11777SOL    HW136772   2.558   0.304   2.500
11777SOL    HW236773   2.444   0.233   2.571
11778SOL     OW36774   3.626   7.788   3.517
11778SOL    HW136775   3.613   7.802   3.423
11778SOL    HW236776   3.549   7.739   3.545
11779SOL     OW36777   3.675   7.618   3.088
11779SOL    HW136778   3.679   7.523   3.096
11779SOL    HW236779   3.688   7.635   2.995
11780SOL     OW36780   2.175   7.821   2.309
11780SOL    HW136781   2.259   7.787   2.277
11780SOL    HW236782   2.182   7.816   2.404
11781SOL     OW36783   3.287   7.666   2.972
11781SOL    HW136784   3.315   7.587   3.017
11781SOL    HW236785   3.237   7.714   3.038
11782SOL     OW36786   2.870   7.451   2.997
11782SOL    HW136787   2.818   7.386   2.949
11782SOL    HW236788   2.959   7.414   2.998
11783SOL     OW36789   3.226   7.493   2.039
11783SOL    HW136790   3.265   7.419   1.993
11783SOL    HW236791   3.136   7.466   2.055
11784SOL     OW36792   3.178   7.898   2.542
11784SOL    HW136793   3.145   7.988   2.549
11784SOL    HW236794   3.161   7.860   2.628
11785SOL     OW36795   3.445   7.656   2.748
11785SOL    HW136796   3.393   7.665   2.828
11785SOL    HW236797   3.432   7.738   2.702
11786SOL     OW36798   2.090   7.724   4.720
11786SOL    HW136799   2.118   7.691   4.805
11786SOL    HW236800   2.001   7.691   4.709
11787SOL     OW36801   1.850   7.819   4.377
11787SOL    HW136802   1.768   7.860   4.404
11787SOL    HW236803   1.824   7.738   4.333
11788SOL     OW36804   3.499   0.033   3.919
11788SOL    HW136805   3.543   0.015   3.836
11788SOL    HW236806   3.570   0.037   3.983
11789SOL     OW36807   2.279   7.857   5.266
11789SOL    HW136808   2.367   7.840   5.231
11789SOL    HW236809   2.228   7.781   5.239
11790SOL     OW36810   3.458   7.923   4.422
11790SOL    HW136811   3.368   7.906   4.396
11790SOL    HW236812   3.451   7.963   4.509
11791SOL     OW36813   3.440   7.587   5.177
11791SOL    HW136814   3.487   7.661   5.138
11791SOL    HW236815   3.423   7.614   5.268
11792SOL     OW36816   1.926   0.099   4.337
11792SOL    HW136817   1.923   0.003   4.340
11792SOL    HW236818   2.018   0.119   4.321
11793SOL     OW36819   2.687   7.453   4.232
11793SOL    HW136820   2.724   7.536   4.202
11793SOL    HW236821   2.593   7.471   4.241
11794SOL     OW36822   2.205   7.704   5.540
11794SOL    HW136823   2.251   7.785   5.518
11794SOL    HW236824   2.119   7.733   5.571
11795SOL     OW36825   3.119   7.799   4.658
11795SOL    HW136826   3.032   7.761   4.669
11795SOL    HW236827   3.176   7.743   4.711
11796SOL     OW36828   3.266   7.942   5.434
11796SOL    HW136829   3.256   7.959   5.528
11796SOL    HW236830   3.319   7.862   5.430
11797SOL     OW36831   2.765   0.391   5.256
11797SOL    HW136832   2.855   0.393   5.290
11797SOL    HW236833   2.768   0.324   5.188
11798SOL     OW36834   2.836   7.827   4.970
11798SOL    HW136835   2.751   7.850   5.009
11798SOL    HW236836   2.817   7.750   4.916
11799SOL     OW36837   2.734   7.769   3.891
11799SOL    HW136838   2.820   7.793   3.856
11799SOL    HW236839   2.753   7.727   3.975
11800SOL     OW36840   3.595   0.017   5.530
11800SOL    HW136841   3.617   0.091   5.473
11800SOL    HW236842   3.614  -0.061   5.478
11801SOL     OW36843   2.410   7.631   4.627
11801SOL    HW136844   2.415   7.647   4.721
11801SOL    HW236845   2.406   7.718   4.588
11802SOL     OW36846   2.045   7.703   5.221
11802SOL    HW136847   1.954   7.734   5.221
11802SOL    HW236848   2.040   7.616   5.260
11803SOL     OW36849   3.258   7.547   4.168
11803SOL    HW136850   3.259   7.525   4.074
11803SOL    HW236851   3.350   7.556   4.191
11804SOL     OW36852   3.384   7.673   5.456
11804SOL    HW136853   3.387   7.698   5.548
11804SOL    HW236854   3.337   7.590   5.454
11805SOL     OW36855   2.474   7.561   3.847
11805SOL    HW136856   2.569   7.546   3.844
11805SOL    HW236857   2.444   7.543   3.758
11806SOL     OW36858   2.632   7.711   5.476
11806SOL    HW136859   2.715   7.662   5.472
11806SOL    HW236860   2.591   7.680   5.557
11807SOL     OW36861   3.192  -0.001   5.157
11807SOL    HW136862   3.247  -0.013   5.234
11807SOL    HW236863   3.138   0.076   5.179
11808SOL     OW36864   2.416   7.506   4.224
11808SOL    HW136865   2.338   7.510   4.280
11808SOL    HW236866   2.414   7.589   4.175
11809SOL     OW36867   2.163   7.498   3.909
11809SOL    HW136868   2.227   7.565   3.883
11809SOL    HW236869   2.215   7.432   3.956
11810SOL     OW36870   2.798   7.702   4.156
11810SOL    HW136871   2.765   7.777   4.205
11810SOL    HW236872   2.893   7.706   4.167
11811SOL     OW36873   1.963  -0.006   5.100
11811SOL    HW136874   2.035  -0.037   5.156
11811SOL    HW236875   1.952   0.086   5.125
11812SOL     OW36876   2.419   7.662   4.900
11812SOL    HW136877   2.462   7.599   4.958
11812SOL    HW236878   2.327   7.661   4.928
11813SOL     OW36879   2.876   7.494   4.461
11813SOL    HW136880   2.817   7.480   4.387
11813SOL    HW236881   2.856   7.422   4.521
11814SOL     OW36882   3.354   7.954   4.675
11814SOL    HW136883   3.268   7.916   4.695
11814SOL    HW236884   3.389   7.978   4.761
11815SOL     OW36885   2.409   7.725   4.063
11815SOL    HW136886   2.436   7.682   3.982
11815SOL    HW236887   2.438   7.815   4.054
11816SOL     OW36888   2.783   7.536   5.113
11816SOL    HW136889   2.810   7.510   5.025
11816SOL    HW236890   2.863   7.573   5.152
11817SOL     OW36891   3.114   7.803   4.994
11817SOL    HW136892   3.147   7.875   5.047
11817SOL    HW236893   3.019   7.819   4.988
11818SOL     OW36894   2.405   7.933   4.592
11818SOL    HW136895   2.398   7.998   4.522
11818SOL    HW236896   2.479   7.963   4.645
11819SOL     OW36897   2.869   7.582   5.474
11819SOL    HW136898   2.933   7.650   5.454
11819SOL    HW236899   2.913   7.500   5.449
11820SOL     OW36900   2.359   7.485   5.474
11820SOL    HW136901   2.312   7.428   5.413
11820SOL    HW236902   2.301   7.560   5.487
11821SOL     OW36903   2.156   7.639   4.974
11821SOL    HW136904   2.116   7.670   5.055
11821SOL    HW236905   2.139   7.545   4.973
11822SOL     OW36906   2.607   0.047   4.738
11822SOL    HW136907   2.684   0.065   4.683
11822SOL    HW236908   2.577   0.133   4.765
11823SOL     OW36909   2.170   7.512   4.354
11823SOL    HW136910   2.146   7.602   4.373
11823SOL    HW236911   2.180   7.470   4.440
11824SOL     OW36912   3.457   7.793   4.110
11824SOL    HW136913   3.510   7.728   4.157
11824SOL    HW236914   3.454   7.869   4.168
11825SOL     OW36915   3.370   7.733   3.855
11825SOL    HW136916   3.317   7.656   3.878
11825SOL    HW236917   3.409   7.760   3.938
11826SOL     OW36918   3.105   0.226   3.735
11826SOL    HW136919   3.153   0.158   3.783
11826SOL    HW236920   3.144   0.309   3.765
11827SOL     OW36921   2.167   7.980   4.754
11827SOL    HW136922   2.154   7.886   4.740
11827SOL    HW236923   2.249   8.000   4.711
11828SOL     OW36924   3.009   7.828   5.408
11828SOL    HW136925   2.951   7.898   5.438
11828SOL    HW236926   3.096   7.866   5.411
11829SOL     OW36927   3.023   7.640   5.200
11829SOL    HW136928   3.017   7.707   5.268
11829SOL    HW236929   3.071   7.681   5.129
11830SOL     OW36930   1.894   7.945   4.844
11830SOL    HW136931   1.976   7.942   4.795
11830SOL    HW236932   1.922   7.960   4.935
11831SOL     OW36933   2.053   8.004   5.372
11831SOL    HW136934   2.102   7.923   5.359
11831SOL    HW236935   1.972   7.977   5.414
11832SOL     OW36936   2.651   0.030   3.963
11832SOL    HW136937   2.679  -0.060   3.948
11832SOL    HW236938   2.632   0.033   4.057
11833SOL     OW36939   3.480   8.014   4.911
11833SOL    HW136940   3.472   7.992   5.004
11833SOL    HW236941   3.562   7.974   4.883
11834SOL     OW36942   2.562   7.894   4.964
11834SOL    HW136943   2.506   7.820   4.940
11834SOL    HW236944   2.572   7.944   4.882
11835SOL     OW36945   3.601   7.600   4.238
11835SOL    HW136946   3.669   7.581   4.173
11835SOL    HW236947   3.576   7.515   4.273
11836SOL     OW36948   3.706   7.616   4.682
11836SOL    HW136949   3.732   7.527   4.660
11836SOL    HW236950   3.618   7.626   4.645
11837SOL     OW36951   2.112   7.768   4.444
11837SOL    HW136952   2.019   7.788   4.429
11837SOL    HW236953   2.118   7.756   4.539
11838SOL     OW36954   2.884   7.665   4.686
11838SOL    HW136955   2.880   7.620   4.602
11838SOL    HW236956   2.880   7.596   4.751
11839SOL     OW36957   3.599   7.822   5.114
11839SOL    HW136958   3.665   7.892   5.111
11839SOL    HW236959   3.631   7.756   5.053
11840SOL     OW36960   2.545   7.628   5.220
11840SOL    HW136961   2.630   7.606   5.183
11840SOL    HW236962   2.564   7.662   5.307
11841SOL     OW36963   1.950   7.773   3.749
11841SOL    HW136964   1.878   7.760   3.687
11841SOL    HW236965   1.959   7.868   3.757
11842SOL     OW36966   1.926   7.593   4.021
11842SOL    HW136967   1.913   7.678   3.978
11842SOL    HW236968   2.013   7.566   3.994
11843SOL     OW36969   2.586   7.981   5.437
11843SOL    HW136970   2.672   8.021   5.443
11843SOL    HW236971   2.603   7.887   5.443
11844SOL     OW36972   3.066   7.748   4.194
11844SOL    HW136973   3.132   7.680   4.181
11844SOL    HW236974   3.104   7.805   4.260
11845SOL     OW36975   2.515   0.217   4.357
11845SOL    HW136976   2.544   0.307   4.368
11845SOL    HW236977   2.436   0.210   4.409
11846SOL     OW36978   3.625   7.788   5.383
11846SOL    HW136979   3.613   7.804   5.289
11846SOL    HW236980   3.549   7.737   5.409
11847SOL     OW36981   3.677   7.623   4.954
11847SOL    HW136982   3.684   7.528   4.967
11847SOL    HW236983   3.687   7.635   4.860
11848SOL     OW36984   2.178   7.836   4.176
11848SOL    HW136985   2.259   7.792   4.150
11848SOL    HW236986   2.169   7.817   4.269
11849SOL     OW36987   3.288   7.670   4.832
11849SOL    HW136988   3.316   7.588   4.874
11849SOL    HW236989   3.237   7.714   4.899
11850SOL     OW36990   2.869   7.453   4.863
11850SOL    HW136991   2.814   7.386   4.823
11850SOL    HW236992   2.957   7.417   4.861
11851SOL     OW36993   3.232   7.494   3.892
11851SOL    HW136994   3.274   7.414   3.863
11851SOL    HW236995   3.141   7.468   3.909
11852SOL     OW36996   3.176   7.897   4.405
11852SOL    HW136997   3.153   7.989   4.415
11852SOL    HW236998   3.160   7.858   4.491
11853SOL     OW36999   3.446   7.653   4.606
11853SOL    HW137000   3.393   7.667   4.685
11853SOL    HW237001   3.438   7.734   4.556
11854SOL     OW37002   2.086   7.726   6.583
11854SOL    HW137003   2.116   7.690   6.666
11854SOL    HW237004   1.998   7.691   6.572
11855SOL     OW37005   1.850   7.817   6.238
11855SOL    HW137006   1.767   7.856   6.265
11855SOL    HW237007   1.825   7.736   6.193
11856SOL     OW37008   3.508   0.032   5.788
11856SOL    HW137009   3.552   0.020   5.704
11856SOL    HW237010   3.537  -0.042   5.841
11857SOL     OW37011   2.287   7.857   7.098
11857SOL    HW137012   2.373   7.822   7.075
11857SOL    HW237013   2.227   7.783   7.084
11858SOL     OW37014   3.459   7.915   6.291
11858SOL    HW137015   3.368   7.908   6.261
11858SOL    HW237016   3.452   7.956   6.377
11859SOL     OW37017   3.459   7.583   7.042
11859SOL    HW137018   3.486   7.666   7.003
11859SOL    HW237019   3.427   7.607   7.129
11860SOL     OW37020   1.923   0.095   6.207
11860SOL    HW137021   1.921  -0.000   6.205
11860SOL    HW237022   2.016   0.117   6.195
11861SOL     OW37023   2.680   7.438   6.103
11861SOL    HW137024   2.724   7.518   6.076
11861SOL    HW237025   2.587   7.461   6.106
11862SOL     OW37026   2.210   7.706   7.423
11862SOL    HW137027   2.247   7.792   7.400
11862SOL    HW237028   2.118   7.724   7.441
11863SOL     OW37029   3.121   7.809   6.524
11863SOL    HW137030   3.034   7.769   6.533
11863SOL    HW237031   3.179   7.751   6.573
11864SOL     OW37032   3.267   7.933   7.284
11864SOL    HW137033   3.282   7.962   7.374
11864SOL    HW237034   3.316   7.851   7.277
11865SOL     OW37035   2.751   0.366   7.180
11865SOL    HW137036   2.846   0.375   7.173
11865SOL    HW237037   2.723   0.339   7.092
11866SOL     OW37038   2.847   7.817   6.831
11866SOL    HW137039   2.761   7.840   6.867
11866SOL    HW237040   2.828   7.748   6.767
11867SOL     OW37041   2.758   7.789   5.774
11867SOL    HW137042   2.811   7.791   5.694
11867SOL    HW237043   2.778   7.704   5.814
11868SOL     OW37044   3.607   0.027   7.396
11868SOL    HW137045   3.548   0.085   7.347
11868SOL    HW237046   3.618  -0.049   7.338
11869SOL     OW37047   2.407   7.629   6.487
11869SOL    HW137048   2.414   7.648   6.581
11869SOL    HW237049   2.404   7.715   6.445
11870SOL     OW37050   2.049   7.709   7.086
11870SOL    HW137051   2.004   7.764   7.151
11870SOL    HW237052   2.027   7.619   7.113
11871SOL     OW37053   3.262   7.550   6.025
11871SOL    HW137054   3.256   7.523   5.934
11871SOL    HW237055   3.355   7.539   6.048
11872SOL     OW37056   3.375   7.672   7.309
11872SOL    HW137057   3.375   7.692   7.403
11872SOL    HW237058   3.315   7.598   7.301
11873SOL     OW37059   2.505   7.564   5.689
11873SOL    HW137060   2.557   7.488   5.716
11873SOL    HW237061   2.454   7.533   5.614
11874SOL     OW37062   2.638   7.723   7.349
11874SOL    HW137063   2.719   7.672   7.344
11874SOL    HW237064   2.588   7.681   7.420
11875SOL     OW37065   3.199   0.007   7.016
11875SOL    HW137066   3.237  -0.012   7.101
11875SOL    HW237067   3.139   0.080   7.032
11876SOL     OW37068   2.416   7.508   6.082
11876SOL    HW137069   2.337   7.512   6.136
11876SOL    HW237070   2.413   7.588   6.029
11877SOL     OW37071   2.154   7.497   5.771
11877SOL    HW137072   2.216   7.557   5.730
11877SOL    HW237073   2.210   7.433   5.815
11878SOL     OW37074   2.808   7.671   6.039
11878SOL    HW137075   2.770   7.758   6.026
11878SOL    HW237076   2.901   7.687   6.050
11879SOL     OW37077   1.969  -0.002   6.979
11879SOL    HW137078   2.036  -0.052   7.026
11879SOL    HW237079   1.973   0.085   7.018
11880SOL     OW37080   2.418   7.665   6.761
11880SOL    HW137081   2.459   7.594   6.809
11880SOL    HW237082   2.327   7.664   6.789
11881SOL     OW37083   2.880   7.500   6.329
11881SOL    HW137084   2.822   7.492   6.253
11881SOL    HW237085   2.859   7.424   6.383
11882SOL     OW37086   3.355   7.961   6.540
11882SOL    HW137087   3.268   7.922   6.551
11882SOL    HW237088   3.367   8.015   6.618
11883SOL     OW37089   2.412   7.720   5.909
11883SOL    HW137090   2.449   7.679   5.831
11883SOL    HW237091   2.448   7.809   5.908
11884SOL     OW37092   2.780   7.534   6.977
11884SOL    HW137093   2.802   7.507   6.888
11884SOL    HW237094   2.861   7.570   7.012
11885SOL     OW37095   3.121   7.794   6.867
11885SOL    HW137096   3.153   7.873   6.911
11885SOL    HW237097   3.028   7.811   6.853
11886SOL     OW37098   2.400   7.936   6.456
11886SOL    HW137099   2.397   7.994   6.380
11886SOL    HW237100   2.476   7.966   6.506
11887SOL     OW37101   2.871   7.587   7.352
11887SOL    HW137102   2.930   7.658   7.326
11887SOL    HW237103   2.915   7.507   7.322
11888SOL     OW37104   2.354   7.484   7.344
11888SOL    HW137105   2.308   7.431   7.279
11888SOL    HW237106   2.300   7.563   7.354
11889SOL     OW37107   2.154   7.638   6.836
11889SOL    HW137108   2.112   7.669   6.916
11889SOL    HW237109   2.140   7.544   6.835
11890SOL     OW37110   2.608   0.049   6.595
11890SOL    HW137111   2.678   0.068   6.534
11890SOL    HW237112   2.572   0.135   6.618
11891SOL     OW37113   2.174   7.515   6.216
11891SOL    HW137114   2.150   7.605   6.239
11891SOL    HW237115   2.184   7.471   6.301
11892SOL     OW37116   3.477   7.807   5.962
11892SOL    HW137117   3.521   7.735   6.006
11892SOL    HW237118   3.447   7.864   6.033
11893SOL     OW37119   3.358   7.738   5.721
11893SOL    HW137120   3.309   7.658   5.740
11893SOL    HW237121   3.406   7.756   5.802
11894SOL     OW37122   3.093   0.220   5.605
11894SOL    HW137123   3.149   0.157   5.650
11894SOL    HW237124   3.133   0.305   5.625
11895SOL     OW37125   2.168   7.978   6.622
11895SOL    HW137126   2.150   7.885   6.607
11895SOL    HW237127   2.251   7.994   6.576
11896SOL     OW37128   3.011   7.820   7.270
11896SOL    HW137129   2.953   7.894   7.288
11896SOL    HW237130   3.099   7.858   7.270
11897SOL     OW37131   3.021   7.633   7.066
11897SOL    HW137132   3.013   7.702   7.133
11897SOL    HW237133   3.067   7.675   6.994
11898SOL     OW37134   1.893   7.949   6.722
11898SOL    HW137135   1.970   7.942   6.666
11898SOL    HW237136   1.929   7.955   6.811
11899SOL     OW37137   2.043   7.966   7.271
11899SOL    HW137138   2.135   7.941   7.258
11899SOL    HW237139   2.047   8.055   7.307
11900SOL     OW37140   2.645   0.031   5.827
11900SOL    HW137141   2.689  -0.052   5.810
11900SOL    HW237142   2.623   0.028   5.920
11901SOL     OW37143   3.486   8.029   6.790
11901SOL    HW137144   3.473   7.980   6.871
11901SOL    HW237145   3.539   7.971   6.735
11902SOL     OW37146   2.578   7.889   6.819
11902SOL    HW137147   2.516   7.818   6.800
11902SOL    HW237148   2.578   7.942   6.740
11903SOL     OW37149   3.600   7.601   6.092
11903SOL    HW137150   3.668   7.582   6.027
11903SOL    HW237151   3.576   7.515   6.127
11904SOL     OW37152   3.718   7.626   6.538
11904SOL    HW137153   3.735   7.535   6.516
11904SOL    HW237154   3.629   7.642   6.507
11905SOL     OW37155   2.113   7.769   6.307
11905SOL    HW137156   2.021   7.788   6.290
11905SOL    HW237157   2.117   7.757   6.402
11906SOL     OW37158   2.888   7.668   6.554
11906SOL    HW137159   2.884   7.625   6.468
11906SOL    HW237160   2.882   7.596   6.617
11907SOL     OW37161   3.601   7.823   6.980
11907SOL    HW137162   3.662   7.896   6.980
11907SOL    HW237163   3.635   7.763   6.914
11908SOL     OW37164   2.545   7.632   7.089
11908SOL    HW137165   2.628   7.610   7.048
11908SOL    HW237166   2.569   7.674   7.172
11909SOL     OW37167   1.960   7.815   5.612
11909SOL    HW137168   1.889   7.772   5.564
11909SOL    HW237169   1.930   7.905   5.625
11910SOL     OW37170   1.924   7.594   5.885
11910SOL    HW137171   1.925   7.685   5.857
11910SOL    HW237172   2.009   7.559   5.857
11911SOL     OW37173   2.570   7.984   7.268
11911SOL    HW137174   2.618   8.047   7.320
11911SOL    HW237175   2.608   7.899   7.291
11912SOL     OW37176   3.072   7.748   6.058
11912SOL    HW137177   3.137   7.680   6.043
11912SOL    HW237178   3.111   7.805   6.125
11913SOL     OW37179   2.502   0.227   6.214
11913SOL    HW137180   2.551   0.310   6.217
11913SOL    HW237181   2.449   0.228   6.295
11914SOL     OW37182   3.619   7.791   7.253
11914SOL    HW137183   3.615   7.808   7.159
11914SOL    HW237184   3.540   7.739   7.271
11915SOL     OW37185   3.703   7.636   6.818
11915SOL    HW137186   3.667   7.551   6.793
11915SOL    HW237187   3.711   7.684   6.735
11916SOL     OW37188   2.177   7.828   6.031
11916SOL    HW137189   2.257   7.783   6.004
11916SOL    HW237190   2.173   7.815   6.126
11917SOL     OW37191   3.285   7.661   6.683
11917SOL    HW137192   3.295   7.566   6.698
11917SOL    HW237193   3.239   7.692   6.761
11918SOL     OW37194   2.863   7.453   6.724
11918SOL    HW137195   2.814   7.385   6.679
11918SOL    HW237196   2.953   7.420   6.727
11919SOL     OW37197   3.230   7.493   5.754
11919SOL    HW137198   3.271   7.416   5.715
11919SOL    HW237199   3.140   7.467   5.769
11920SOL     OW37200   3.181   7.898   6.267
11920SOL    HW137201   3.148   7.988   6.269
11920SOL    HW237202   3.160   7.863   6.353
11921SOL     OW37203   3.462   7.668   6.468
11921SOL    HW137204   3.400   7.671   6.541
11921SOL    HW237205   3.441   7.745   6.415
11922SOL     OW37206   2.084   7.733   8.447
11922SOL    HW137207   2.116   7.697   8.529
11922SOL    HW237208   1.997   7.694   8.436
11923SOL     OW37209   1.847   7.809   8.098
11923SOL    HW137210   1.763   7.846   8.127
11923SOL    HW237211   1.823   7.730   8.049
11924SOL     OW37212   3.547   0.031   7.661
11924SOL    HW137213   3.573   0.037   7.569
11924SOL    HW237214   3.601  -0.039   7.697
11925SOL     OW37215   2.301   7.790   9.011
11925SOL    HW137216   2.378   7.760   8.962
11925SOL    HW237217   2.227   7.759   8.959
11926SOL     OW37218   3.465   7.894   8.165
11926SOL    HW137219   3.379   7.898   8.123
11926SOL    HW237220   3.453   7.938   8.249
11927SOL     OW37221   3.449   7.578   8.910
11927SOL    HW137222   3.492   7.650   8.864
11927SOL    HW237223   3.424   7.615   8.994
11928SOL     OW37224   1.933   0.073   8.089
11928SOL    HW137225   1.918  -0.021   8.080
11928SOL    HW237226   1.972   0.099   8.005
11929SOL     OW37227   2.680   7.432   7.973
11929SOL    HW137228   2.725   7.511   7.944
11929SOL    HW237229   2.587   7.456   7.973
11930SOL     OW37230   2.213   7.702   9.270
11930SOL    HW137231   2.234   7.752   9.191
11930SOL    HW237232   2.122   7.726   9.289
11931SOL     OW37233   3.118   7.813   8.388
11931SOL    HW137234   3.032   7.772   8.397
11931SOL    HW237235   3.177   7.755   8.436
11932SOL     OW37236   3.268   7.946   9.157
11932SOL    HW137237   3.273   7.966   9.250
11932SOL    HW237238   3.321   7.868   9.145
11933SOL     OW37239   2.766   0.334   9.032
11933SOL    HW137240   2.832   0.306   8.970
11933SOL    HW237241   2.734   0.418   8.998
11934SOL     OW37242   2.847   7.812   8.689
11934SOL    HW137243   2.761   7.838   8.722
11934SOL    HW237244   2.828   7.753   8.616
11935SOL     OW37245   2.764   7.780   7.645
11935SOL    HW137246   2.779   7.830   7.564
11935SOL    HW237247   2.786   7.689   7.621
11936SOL     OW37248   3.588   0.025   9.251
11936SOL    HW137249   3.583   0.089   9.180
11936SOL    HW237250   3.611  -0.057   9.208
11937SOL     OW37251   2.407   7.626   8.349
11937SOL    HW137252   2.413   7.649   8.442
11937SOL    HW237253   2.407   7.710   8.304
11938SOL     OW37254   2.038   7.711   8.944
11938SOL    HW137255   1.973   7.759   8.997
11938SOL    HW237256   2.025   7.619   8.968
11939SOL     OW37257   3.264   7.545   7.885
11939SOL    HW137258   3.250   7.518   7.794
11939SOL    HW237259   3.343   7.599   7.882
11940SOL     OW37260   3.377   7.675   9.176
11940SOL    HW137261   3.377   7.698   9.269
11940SOL    HW237262   3.321   7.598   9.170
11941SOL     OW37263   2.514   7.555   7.550
11941SOL    HW137264   2.570   7.479   7.563
11941SOL    HW237265   2.456   7.529   7.478
11942SOL     OW37266   2.637   7.706   9.197
11942SOL    HW137267   2.720   7.659   9.196
11942SOL    HW237268   2.590   7.672   9.273
11943SOL     OW37269   3.193   0.010   8.881
11943SOL    HW137270   3.239  -0.005   8.964
11943SOL    HW237271   3.133   0.082   8.900
11944SOL     OW37272   2.419   7.505   7.945
11944SOL    HW137273   2.338   7.511   7.995
11944SOL    HW237274   2.418   7.582   7.888
11945SOL     OW37275   2.151   7.501   7.630
11945SOL    HW137276   2.205   7.560   7.577
11945SOL    HW237277   2.214   7.440   7.668
11946SOL     OW37278   2.806   7.662   7.902
11946SOL    HW137279   2.780   7.718   7.829
11946SOL    HW237280   2.896   7.687   7.922
11947SOL     OW37281   1.970   7.990   8.823
11947SOL    HW137282   2.033   7.934   8.868
11947SOL    HW237283   1.975   8.074   8.868
11948SOL     OW37284   2.419   7.669   8.622
11948SOL    HW137285   2.461   7.597   8.670
11948SOL    HW237286   2.328   7.666   8.650
11949SOL     OW37287   2.883   7.504   8.195
11949SOL    HW137288   2.827   7.507   8.118
11949SOL    HW237289   2.855   7.426   8.242
11950SOL     OW37290   3.360   7.955   8.408
11950SOL    HW137291   3.269   7.926   8.417
11950SOL    HW237292   3.376   8.009   8.486
11951SOL     OW37293   2.415   7.708   7.761
11951SOL    HW137294   2.447   7.656   7.686
11951SOL    HW237295   2.451   7.796   7.746
11952SOL     OW37296   2.782   7.530   8.838
11952SOL    HW137297   2.805   7.507   8.748
11952SOL    HW237298   2.861   7.571   8.873
11953SOL     OW37299   3.119   7.798   8.730
11953SOL    HW137300   3.149   7.876   8.776
11953SOL    HW237301   3.026   7.812   8.716
11954SOL     OW37302   2.403   7.934   8.318
11954SOL    HW137303   2.385   7.989   8.242
11954SOL    HW237304   2.480   7.974   8.358
11955SOL     OW37305   2.876   7.581   9.213
11955SOL    HW137306   2.934   7.653   9.189
11955SOL    HW237307   2.921   7.503   9.182
11956SOL     OW37308   2.359   7.479   9.207
11956SOL    HW137309   2.311   7.427   9.142
11956SOL    HW237310   2.307   7.559   9.217
11957SOL     OW37311   2.157   7.641   8.699
11957SOL    HW137312   2.105   7.669   8.774
11957SOL    HW237313   2.143   7.546   8.694
11958SOL     OW37314   2.609   0.058   8.451
11958SOL    HW137315   2.682   0.068   8.390
11958SOL    HW237316   2.593   0.146   8.485
11959SOL     OW37317   2.174   7.515   8.075
11959SOL    HW137318   2.148   7.604   8.098
11959SOL    HW237319   2.184   7.470   8.158
11960SOL     OW37320   3.449   7.781   7.827
11960SOL    HW137321   3.508   7.740   7.890
11960SOL    HW237322   3.439   7.871   7.858
11961SOL     OW37323   3.343   7.734   7.575
11961SOL    HW137324   3.296   7.653   7.594
11961SOL    HW237325   3.391   7.753   7.655
11962SOL     OW37326   3.109   0.223   7.480
11962SOL    HW137327   3.186   0.231   7.536
11962SOL    HW237328   3.091   0.312   7.451
11963SOL     OW37329   2.158   7.990   8.446
11963SOL    HW137330   2.138   7.896   8.446
11963SOL    HW237331   2.245   7.996   8.407
11964SOL     OW37332   3.011   7.822   9.135
11964SOL    HW137333   2.951   7.895   9.149
11964SOL    HW237334   3.098   7.862   9.138
11965SOL     OW37335   3.022   7.633   8.930
11965SOL    HW137336   3.015   7.702   8.996
11965SOL    HW237337   3.067   7.676   8.857
11966SOL     OW37338   1.874   7.965   8.568
11966SOL    HW137339   1.941   7.962   8.501
11966SOL    HW237340   1.922   7.963   8.651
11967SOL     OW37341   2.032  -0.022   9.161
11967SOL    HW137342   2.125  -0.010   9.146
11967SOL    HW237343   1.990   0.054   9.121
11968SOL     OW37344   2.651   0.031   7.697
11968SOL    HW137345   2.701  -0.049   7.704
11968SOL    HW237346   2.608   0.041   7.782
11969SOL     OW37347   3.495   8.028   8.656
11969SOL    HW137348   3.481   7.970   8.730
11969SOL    HW237349   3.561   7.983   8.603
11970SOL     OW37350   2.580   7.892   8.673
11970SOL    HW137351   2.517   7.821   8.656
11970SOL    HW237352   2.577   7.945   8.593
11971SOL     OW37353   3.609   7.601   7.965
11971SOL    HW137354   3.668   7.591   7.890
11971SOL    HW237355   3.583   7.512   7.986
11972SOL     OW37356   3.709   7.615   8.413
11972SOL    HW137357   3.733   7.526   8.387
11972SOL    HW237358   3.623   7.630   8.375
11973SOL     OW37359   2.111   7.769   8.165
11973SOL    HW137360   2.017   7.782   8.149
11973SOL    HW237361   2.118   7.759   8.260
11974SOL     OW37362   2.886   7.669   8.422
11974SOL    HW137363   2.883   7.630   8.335
11974SOL    HW237364   2.882   7.594   8.482
11975SOL     OW37365   3.603   7.818   8.842
11975SOL    HW137366   3.668   7.889   8.837
11975SOL    HW237367   3.633   7.753   8.779
11976SOL     OW37368   2.543   7.630   8.942
11976SOL    HW137369   2.626   7.608   8.900
11976SOL    HW237370   2.568   7.664   9.028
11977SOL     OW37371   1.943   7.781   7.472
11977SOL    HW137372   1.876   7.758   7.408
11977SOL    HW237373   1.971   7.869   7.447
11978SOL     OW37374   1.921   7.601   7.737
11978SOL    HW137375   1.907   7.677   7.679
11978SOL    HW237376   2.008   7.569   7.713
11979SOL     OW37377   2.571   7.975   9.184
11979SOL    HW137378   2.651   8.028   9.177
11979SOL    HW237379   2.602   7.885   9.175
11980SOL     OW37380   3.066   7.737   7.935
11980SOL    HW137381   3.134   7.673   7.913
11980SOL    HW237382   3.110   7.799   7.993
11981SOL     OW37383   2.480   0.263   8.162
11981SOL    HW137384   2.547   0.327   8.138
11981SOL    HW237385   2.476   0.203   8.088
11982SOL     OW37386   3.621   7.788   9.114
11982SOL    HW137387   3.613   7.809   9.021
11982SOL    HW237388   3.542   7.739   9.136
11983SOL     OW37389   3.674   7.613   8.685
11983SOL    HW137390   3.674   7.517   8.686
11983SOL    HW237391   3.688   7.636   8.593
11984SOL     OW37392   2.223   7.852   7.911
11984SOL    HW137393   2.278   7.785   7.870
11984SOL    HW237394   2.197   7.813   7.995
11985SOL     OW37395   3.284   7.669   8.555
11985SOL    HW137396   3.301   7.581   8.588
11985SOL    HW237397   3.235   7.712   8.625
11986SOL     OW37398   2.867   7.447   8.585
11986SOL    HW137399   2.816   7.383   8.535
11986SOL    HW237400   2.956   7.411   8.587
11987SOL     OW37401   3.223   7.490   7.616
11987SOL    HW137402   3.259   7.420   7.562
11987SOL    HW237403   3.134   7.462   7.635
11988SOL     OW37404   3.187   7.896   8.127
11988SOL    HW137405   3.158   7.987   8.119
11988SOL    HW237406   3.161   7.870   8.216
11989SOL     OW37407   3.450   7.649   8.330
11989SOL    HW137408   3.397   7.676   8.405
11989SOL    HW237409   3.448   7.723   8.270
11990SOL     OW37410   2.080   7.751  10.315
11990SOL    HW137411   2.117   7.707  10.391
11990SOL    HW237412   1.998   7.705  10.297
11991SOL     OW37413   1.849   7.806   9.965
11991SOL    HW137414   1.769   7.850   9.994
11991SOL    HW237415   1.819   7.731   9.915
11992SOL     OW37416   3.543   0.041   9.522
11992SOL    HW137417   3.568   0.036   9.429
11992SOL    HW237418   3.558  -0.047   9.556
11993SOL     OW37419   2.278   7.857  10.847
11993SOL    HW137420   2.362   7.828  10.811
11993SOL    HW237421   2.217   7.787  10.823
11994SOL     OW37422   3.462   7.897  10.027
11994SOL    HW137423   3.375   7.896   9.988
11994SOL    HW237424   3.452   7.945  10.109
11995SOL     OW37425   3.450   7.574  10.772
11995SOL    HW137426   3.496   7.641  10.722
11995SOL    HW237427   3.425   7.618  10.853
11996SOL     OW37428   1.895   0.087   9.931
11996SOL    HW137429   1.916  -0.006   9.930
11996SOL    HW237430   1.980   0.131   9.937
11997SOL     OW37431   2.680   7.434   9.833
11997SOL    HW137432   2.725   7.513   9.804
11997SOL    HW237433   2.587   7.458   9.834
11998SOL     OW37434   2.209   7.704  11.149
11998SOL    HW137435   2.241   7.786  11.110
11998SOL    HW237436   2.116   7.719  11.164
11999SOL     OW37437   3.115   7.813  10.251
11999SOL    HW137438   3.030   7.771  10.261
11999SOL    HW237439   3.176   7.756  10.298
12000SOL     OW37440   3.268   7.945  11.017
12000SOL    HW137441   3.279   7.962  11.110
12000SOL    HW237442   3.319   7.866  11.000
12001SOL     OW37443   2.775   0.384  10.858
12001SOL    HW137444   2.845   0.337  10.812
12001SOL    HW237445   2.695   0.349  10.820
12002SOL     OW37446   2.844   7.812  10.549
12002SOL    HW137447   2.756   7.834  10.578
12002SOL    HW237448   2.831   7.755  10.473
12003SOL     OW37449   2.766   7.781   9.507
12003SOL    HW137450   2.782   7.830   9.426
12003SOL    HW237451   2.789   7.691   9.486
12004SOL     OW37452   3.574   0.028  11.112
12004SOL    HW137453   3.585   0.091  11.040
12004SOL    HW237454   3.599  -0.056  11.074
12005SOL     OW37455   2.407   7.628  10.212
12005SOL    HW137456   2.415   7.650  10.305
12005SOL    HW237457   2.406   7.713  10.167
12006SOL     OW37458   2.055   7.702  10.803
12006SOL    HW137459   1.991   7.759  10.846
12006SOL    HW237460   2.033   7.614  10.832
12007SOL     OW37461   3.262   7.544   9.751
12007SOL    HW137462   3.253   7.520   9.659
12007SOL    HW237463   3.356   7.550   9.765
12008SOL     OW37464   3.375   7.675  11.036
12008SOL    HW137465   3.374   7.697  11.129
12008SOL    HW237466   3.321   7.596  11.029
12009SOL     OW37467   2.513   7.558   9.414
12009SOL    HW137468   2.570   7.483   9.432
12009SOL    HW237469   2.457   7.529   9.342
12010SOL     OW37470   2.637   7.723  11.081
12010SOL    HW137471   2.715   7.667  11.074
12010SOL    HW237472   2.585   7.682  11.150
12011SOL     OW37473   3.196   0.008  10.740
12011SOL    HW137474   3.245  -0.005  10.821
12011SOL    HW237475   3.137   0.081  10.758
12012SOL     OW37476   2.418   7.507   9.806
12012SOL    HW137477   2.338   7.512   9.858
12012SOL    HW237478   2.415   7.586   9.751
12013SOL     OW37479   2.152   7.502   9.491
12013SOL    HW137480   2.207   7.560   9.438
12013SOL    HW237481   2.213   7.440   9.531
12014SOL     OW37482   2.806   7.665   9.765
12014SOL    HW137483   2.781   7.723   9.693
12014SOL    HW237484   2.898   7.688   9.783
12015SOL     OW37485   1.961  -0.009  10.701
12015SOL    HW137486   2.051  -0.039  10.718
12015SOL    HW237487   1.961   0.083  10.727
12016SOL     OW37488   2.423   7.669  10.485
12016SOL    HW137489   2.462   7.594  10.528
12016SOL    HW237490   2.331   7.666  10.510
12017SOL     OW37491   2.878   7.507  10.059
12017SOL    HW137492   2.824   7.508   9.981
12017SOL    HW237493   2.853   7.428  10.105
12018SOL     OW37494   3.350   7.970  10.265
12018SOL    HW137495   3.264   7.933  10.280
12018SOL    HW237496   3.381   7.996  10.352
12019SOL     OW37497   2.411   7.714   9.624
12019SOL    HW137498   2.441   7.663   9.549
12019SOL    HW237499   2.464   7.794   9.621
12020SOL     OW37500   2.782   7.531  10.702
12020SOL    HW137501   2.804   7.508  10.612
12020SOL    HW237502   2.862   7.571  10.736
12021SOL     OW37503   3.117   7.794  10.593
12021SOL    HW137504   3.148   7.874  10.637
12021SOL    HW237505   3.024   7.810  10.578
12022SOL     OW37506   2.406   7.920  10.178
12022SOL    HW137507   2.375   7.979  10.108
12022SOL    HW237508   2.480   7.966  10.217
12023SOL     OW37509   2.869   7.583  11.073
12023SOL    HW137510   2.928   7.654  11.046
12023SOL    HW237511   2.912   7.503  11.043
12024SOL     OW37512   2.356   7.484  11.073
12024SOL    HW137513   2.311   7.431  11.008
12024SOL    HW237514   2.302   7.563  11.081
12025SOL     OW37515   2.160   7.638  10.554
12025SOL    HW137516   2.118   7.666  10.636
12025SOL    HW237517   2.145   7.544  10.550
12026SOL     OW37518   2.613   0.053  10.311
12026SOL    HW137519   2.682   0.049  10.244
12026SOL    HW237520   2.594   0.147  10.319
12027SOL     OW37521   2.175   7.514   9.938
12027SOL    HW137522   2.148   7.602   9.963
12027SOL    HW237523   2.185   7.468  10.021
12028SOL     OW37524   3.472   7.798   9.680
12028SOL    HW137525   3.518   7.732   9.732
12028SOL    HW237526   3.447   7.866   9.743
12029SOL     OW37527   3.346   7.735   9.443
12029SOL    HW137528   3.300   7.653   9.463
12029SOL    HW237529   3.398   7.753   9.522
12030SOL     OW37530   3.085   0.218   9.354
12030SOL    HW137531   3.169   0.226   9.399
12030SOL    HW237532   3.081   0.295   9.298
12031SOL     OW37533   2.183   8.001  10.361
12031SOL    HW137534   2.163   7.910  10.337
12031SOL    HW237535   2.252   8.028  10.300
12032SOL     OW37536   3.007   7.829  10.997
12032SOL    HW137537   2.948   7.902  11.015
12032SOL    HW237538   3.094   7.869  10.998
12033SOL     OW37539   3.021   7.635  10.796
12033SOL    HW137540   3.013   7.706  10.859
12033SOL    HW237541   3.066   7.674  10.721
12034SOL     OW37542   1.887   7.940  10.436
12034SOL    HW137543   1.960   7.902  10.386
12034SOL    HW237544   1.924   7.957  10.522
12035SOL     OW37545   2.044   7.946  11.013
12035SOL    HW137546   2.132   7.934  10.977
12035SOL    HW237547   2.031   8.040  11.013
12036SOL     OW37548   2.666   0.031   9.577
12036SOL    HW137549   2.715  -0.051   9.574
12036SOL    HW237550   2.621   0.030   9.661
12037SOL     OW37551   3.489   8.018  10.513
12037SOL    HW137552   3.474   7.958  10.586
12037SOL    HW237553   3.563   7.981  10.466
12038SOL     OW37554   2.577   7.897  10.536
12038SOL    HW137555   2.517   7.824  10.520
12038SOL    HW237556   2.578   7.946  10.454
12039SOL     OW37557   3.600   7.598   9.818
12039SOL    HW137558   3.666   7.582   9.751
12039SOL    HW237559   3.579   7.511   9.851
12040SOL     OW37560   3.710   7.617  10.278
12040SOL    HW137561   3.736   7.528  10.253
12040SOL    HW237562   3.625   7.629  10.236
12041SOL     OW37563   2.109   7.762  10.030
12041SOL    HW137564   2.016   7.779  10.014
12041SOL    HW237565   2.119   7.765  10.125
12042SOL     OW37566   2.884   7.669  10.289
12042SOL    HW137567   2.878   7.632  10.201
12042SOL    HW237568   2.881   7.593  10.347
12043SOL     OW37569   3.608   7.819  10.710
12043SOL    HW137570   3.670   7.891  10.701
12043SOL    HW237571   3.635   7.755  10.644
12044SOL     OW37572   2.546   7.630  10.813
12044SOL    HW137573   2.629   7.607  10.772
12044SOL    HW237574   2.571   7.675  10.894
12045SOL     OW37575   1.952   7.785   9.339
12045SOL    HW137576   1.872   7.746   9.304
12045SOL    HW237577   1.968   7.861   9.284
12046SOL     OW37578   1.924   7.601   9.603
12046SOL    HW137579   1.914   7.682   9.552
12046SOL    HW237580   2.008   7.566   9.575
12047SOL     OW37581   2.579   7.977  10.991
12047SOL    HW137582   2.642   8.035  11.033
12047SOL    HW237583   2.608   7.889  11.015
12048SOL     OW37584   3.068   7.738   9.795
12048SOL    HW137585   3.135   7.673   9.774
12048SOL    HW237586   3.112   7.798   9.855
12049SOL     OW37587   2.495   0.250  10.036
12049SOL    HW137588   2.520   0.329   9.989
12049SOL    HW237589   2.441   0.200   9.974
12050SOL     OW37590   3.618   7.791  10.982
12050SOL    HW137591   3.614   7.811  10.888
12050SOL    HW237592   3.539   7.739  10.999
12051SOL     OW37593   3.669   7.610  10.549
12051SOL    HW137594   3.672   7.515  10.548
12051SOL    HW237595   3.684   7.636  10.459
12052SOL     OW37596   2.235   7.861   9.800
12052SOL    HW137597   2.274   7.796   9.742
12052SOL    HW237598   2.196   7.809   9.871
12053SOL     OW37599   3.286   7.673  10.413
12053SOL    HW137600   3.304   7.582  10.439
12053SOL    HW237601   3.236   7.709  10.487
12054SOL     OW37602   2.867   7.446  10.449
12054SOL    HW137603   2.816   7.382  10.399
12054SOL    HW237604   2.955   7.410  10.451
12055SOL     OW37605   3.226   7.491   9.481
12055SOL    HW137606   3.265   7.418   9.434
12055SOL    HW237607   3.136   7.464   9.498
12056SOL     OW37608   3.186   7.896   9.990
12056SOL    HW137609   3.156   7.987   9.983
12056SOL    HW237610   3.161   7.870  10.079
12057SOL     OW37611   3.454   7.653  10.189
12057SOL    HW137612   3.398   7.679  10.263
12057SOL    HW237613   3.449   7.727  10.129
12058SOL     OW37614   2.100   7.713  12.145
12058SOL    HW137615   2.128   7.679  12.230
12058SOL    HW237616   2.008   7.688  12.138
12059SOL     OW37617   1.830   7.809  11.832
12059SOL    HW137618   1.748   7.849  11.858
12059SOL    HW237619   1.804   7.730  11.783
12060SOL     OW37620   3.556   0.007  11.386
12060SOL    HW137621   3.551   0.011  11.291
12060SOL    HW237622   3.648   0.022  11.407
12061SOL     OW37623   3.470   7.928  11.905
12061SOL    HW137624   3.453   7.963  11.818
12061SOL    HW237625   3.466   8.005  11.963
12062SOL     OW37626   1.961   0.035  11.761
12062SOL    HW137627   1.907  -0.038  11.790
12062SOL    HW237628   1.935   0.108  11.819
12063SOL     OW37629   2.678   7.439  11.693
12063SOL    HW137630   2.724   7.517  11.665
12063SOL    HW237631   2.586   7.463  11.693
12064SOL     OW37632   2.819   7.791  12.436
12064SOL    HW137633   2.785   7.873  12.472
12064SOL    HW237634   2.774   7.781  12.352
12065SOL     OW37635   2.771   7.774  11.361
12065SOL    HW137636   2.775   7.811  11.272
12065SOL    HW237637   2.792   7.682  11.349
12066SOL     OW37638   2.423   7.643  12.053
12066SOL    HW137639   2.419   7.664  12.147
12066SOL    HW237640   2.423   7.727  12.009
12067SOL     OW37641   3.256   7.543  11.612
12067SOL    HW137642   3.249   7.519  11.520
12067SOL    HW237643   3.345   7.577  11.621
12068SOL     OW37644   2.493   7.572  11.290
12068SOL    HW137645   2.544   7.496  11.319
12068SOL    HW237646   2.443   7.540  11.215
12069SOL     OW37647   2.418   7.517  11.665
12069SOL    HW137648   2.338   7.510  11.718
12069SOL    HW237649   2.408   7.600  11.619
12070SOL     OW37650   2.152   7.503  11.352
12070SOL    HW137651   2.205   7.559  11.295
12070SOL    HW237652   2.214   7.442  11.391
12071SOL     OW37653   2.806   7.668  11.625
12071SOL    HW137654   2.782   7.724  11.551
12071SOL    HW237655   2.896   7.691  11.644
12072SOL     OW37656   1.975  -0.008   0.049
12072SOL    HW137657   2.053  -0.001   0.104
12072SOL    HW237658   1.903   0.023   0.105
12073SOL     OW37659   2.424   7.662  12.326
12073SOL    HW137660   2.449   7.570  12.320
12073SOL    HW237661   2.334   7.660  12.360
12074SOL     OW37662   2.881   7.503  11.918
12074SOL    HW137663   2.824   7.507  11.842
12074SOL    HW237664   2.854   7.424  11.965
12075SOL     OW37665   3.290   7.965  12.159
12075SOL    HW137666   3.357   7.951  12.226
12075SOL    HW237667   3.297   8.058  12.137
12076SOL     OW37668   2.373   7.747  11.514
12076SOL    HW137669   2.399   7.701  11.434
12076SOL    HW237670   2.422   7.829  11.512
12077SOL     OW37671   3.084   7.868  12.401
12077SOL    HW137672   3.132   7.902  12.476
12077SOL    HW237673   3.006   7.827  12.439
12078SOL     OW37674   2.419   7.930  12.041
12078SOL    HW137675   2.393   7.991  11.972
12078SOL    HW237676   2.491   7.975  12.086
12079SOL     OW37677   2.165   7.629  12.404
12079SOL    HW137678   2.114   7.660  12.479
12079SOL    HW237679   2.149   7.535  12.401
12080SOL     OW37680   2.611   0.057  12.191
12080SOL    HW137681   2.696   0.077  12.153
12080SOL    HW237682   2.572   0.142  12.209
12081SOL     OW37683   2.175   7.512  11.793
12081SOL    HW137684   2.144   7.600  11.814
12081SOL    HW237685   2.183   7.468  11.878
12082SOL     OW37686   3.444   7.786  11.555
12082SOL    HW137687   3.508   7.735  11.604
12082SOL    HW237688   3.489   7.868  11.534
12083SOL     OW37689   3.339   7.739  11.304
12083SOL    HW137690   3.291   7.657  11.318
12083SOL    HW237691   3.387   7.754  11.385
12084SOL     OW37692   3.079   0.237  11.257
12084SOL    HW137693   3.171   0.225  11.280
12084SOL    HW237694   3.081   0.294  11.181
12085SOL     OW37695   2.170   7.969  12.169
12085SOL    HW137696   2.153   7.876  12.161
12085SOL    HW237697   2.262   7.979  12.147
12086SOL     OW37698   3.026   7.721   0.176
12086SOL    HW137699   3.039   7.730   0.271
12086SOL    HW237700   3.112   7.738   0.138
12087SOL     OW37701   1.916   7.965  12.280
12087SOL    HW137702   2.003   7.964  12.239
12087SOL    HW237703   1.934   7.970  12.374
12088SOL     OW37704   2.659   8.016  11.431
12088SOL    HW137705   2.705   7.933  11.416
12088SOL    HW237706   2.662   8.028  11.526
12089SOL     OW37707   3.491   7.983  12.339
12089SOL    HW137708   3.501   7.934  12.421
12089SOL    HW237709   3.580   7.990  12.304
12090SOL     OW37710   2.519   7.911  12.408
12090SOL    HW137711   2.490   7.824  12.380
12090SOL    HW237712   2.552   7.952  12.328
12091SOL     OW37713   3.607   7.604  11.683
12091SOL    HW137714   3.671   7.587  11.613
12091SOL    HW237715   3.581   7.517  11.714
12092SOL     OW37716   3.700   7.615  12.150
12092SOL    HW137717   3.730   7.530  12.119
12092SOL    HW237718   3.618   7.631  12.102
12093SOL     OW37719   2.103   7.770  11.864
12093SOL    HW137720   2.008   7.782  11.860
12093SOL    HW237721   2.121   7.755  11.956
12094SOL     OW37722   2.930   7.667  12.140
12094SOL    HW137723   2.914   7.625  12.056
12094SOL    HW237724   2.903   7.603  12.205
12095SOL     OW37725   3.609   7.839   0.050
12095SOL    HW137726   3.693   7.885   0.052
12095SOL    HW237727   3.628   7.755   0.009
12096SOL     OW37728   1.940   7.776  11.205
12096SOL    HW137729   1.864   7.742  11.158
12096SOL    HW237730   1.968   7.852  11.154
12097SOL     OW37731   1.926   7.608  11.460
12097SOL    HW137732   1.911   7.679  11.397
12097SOL    HW237733   2.010   7.571  11.436
12098SOL     OW37734   3.066   7.739  11.662
12098SOL    HW137735   3.131   7.674  11.635
12098SOL    HW237736   3.112   7.792  11.728
12099SOL     OW37737   2.494   0.207  11.813
12099SOL    HW137738   2.523   0.295  11.789
12099SOL    HW237739   2.456   0.217  11.900
12100SOL     OW37740   3.680   7.606  12.425
12100SOL    HW137741   3.743   7.534  12.433
12100SOL    HW237742   3.677   7.625  12.331
12101SOL     OW37743   3.279   7.678  12.276
12101SOL    HW137744   3.312   7.588  12.282
12101SOL    HW237745   3.281   7.711  12.366
12102SOL     OW37746   2.871   7.436  12.296
12102SOL    HW137747   2.831   7.384  12.226
12102SOL    HW237748   2.960   7.403  12.303
12103SOL     OW37749   3.222   7.493  11.340
12103SOL    HW137750   3.262   7.420  11.293
12103SOL    HW237751   3.133   7.465  11.358
12104SOL     OW37752   3.119   7.896  11.941
12104SOL    HW137753   3.070   7.964  11.896
12104SOL    HW237754   3.208   7.930  11.947
12105SOL     OW37755   3.450   7.672  12.045
12105SOL    HW137756   3.391   7.694  12.117
12105SOL    HW237757   3.450   7.750  11.990
12106SOL     OW37758   3.959   0.563   0.035
12106SOL    HW137759   3.934   0.627   0.102
12106SOL    HW237760   3.956   0.612  -0.047
12107SOL     OW37761   3.935   0.311   0.990
12107SOL    HW137762   3.972   0.263   1.065
12107SOL    HW237763   3.852   0.266   0.972
12108SOL     OW37764   3.732   0.396   0.636
12108SOL    HW137765   3.647   0.418   0.676
12108SOL    HW237766   3.726   0.302   0.619
12109SOL     OW37767   4.294   1.302   1.188
12109SOL    HW137768   4.208   1.309   1.147
12109SOL    HW237769   4.312   1.390   1.221
12110SOL     OW37770   5.298   1.521   0.717
12110SOL    HW137771   5.256   1.495   0.799
12110SOL    HW237772   5.228   1.520   0.652
12111SOL     OW37773   4.853   0.702   0.693
12111SOL    HW137774   4.902   0.784   0.681
12111SOL    HW237775   4.809   0.714   0.777
12112SOL     OW37776   5.452   0.631   0.266
12112SOL    HW137777   5.445   0.619   0.171
12112SOL    HW237778   5.430   0.546   0.303
12113SOL     OW37779   4.459   1.133   1.048
12113SOL    HW137780   4.396   1.172   1.108
12113SOL    HW237781   4.504   1.207   1.008
12114SOL     OW37782   4.602   0.750   1.825
12114SOL    HW137783   4.591   0.816   1.893
12114SOL    HW237784   4.624   0.801   1.746
12115SOL     OW37785   4.408   0.991   0.645
12115SOL    HW137786   4.476   0.987   0.712
12115SOL    HW237787   4.342   1.049   0.682
12116SOL     OW37788   4.439   1.148   1.820
12116SOL    HW137789   4.486   1.224   1.854
12116SOL    HW237790   4.359   1.185   1.781
12117SOL     OW37791   4.059   1.411   1.067
12117SOL    HW137792   3.982   1.372   1.025
12117SOL    HW237793   4.099   1.464   0.999
12118SOL     OW37794   5.183   1.506   1.364
12118SOL    HW137795   5.237   1.584   1.377
12118SOL    HW237796   5.112   1.516   1.428
12119SOL     OW37797   4.171   0.376   1.458
12119SOL    HW137798   4.256   0.335   1.470
12119SOL    HW237799   4.109   0.317   1.501
12120SOL     OW37800   5.337   0.462   0.732
12120SOL    HW137801   5.296   0.501   0.655
12120SOL    HW237802   5.322   0.525   0.802
12121SOL     OW37803   3.940   1.719   0.471
12121SOL    HW137804   3.960   1.792   0.529
12121SOL    HW237805   4.018   1.708   0.417
12122SOL     OW37806   4.861   1.344   1.695
12122SOL    HW137807   4.902   1.339   1.781
12122SOL    HW237808   4.808   1.264   1.688
12123SOL     OW37809   3.942   1.451   0.543
12123SOL    HW137810   3.928   1.545   0.543
12123SOL    HW237811   3.889   1.419   0.616
12124SOL     OW37812   3.994   1.091   0.887
12124SOL    HW137813   3.991   1.003   0.924
12124SOL    HW237814   3.939   1.144   0.945
12125SOL     OW37815   4.318   1.793   1.421
12125SOL    HW137816   4.240   1.773   1.472
12125SOL    HW237817   4.347   1.879   1.452
12126SOL     OW37818   4.302   0.967   0.151
12126SOL    HW137819   4.370   0.984   0.086
12126SOL    HW237820   4.333   1.011   0.230
12127SOL     OW37821   5.369   0.124   1.483
12127SOL    HW137822   5.349   0.196   1.422
12127SOL    HW237823   5.327   0.150   1.565
12128SOL     OW37824   3.845   0.650   0.567
12128SOL    HW137825   3.811   0.564   0.589
12128SOL    HW237826   3.837   0.701   0.647
12129SOL     OW37827   5.577   1.744   0.309
12129SOL    HW137828   5.644   1.717   0.372
12129SOL    HW237829   5.593   1.837   0.296
12130SOL     OW37830   3.755   1.528   0.125
12130SOL    HW137831   3.667   1.491   0.118
12130SOL    HW237832   3.745   1.602   0.184
12131SOL     OW37833   5.407   0.934   0.655
12131SOL    HW137834   5.480   0.884   0.617
12131SOL    HW237835   5.379   0.991   0.584
12132SOL     OW37836   5.374   1.115   0.434
12132SOL    HW137837   5.460   1.114   0.394
12132SOL    HW237838   5.381   1.178   0.506
12133SOL     OW37839   3.855   0.756   1.583
12133SOL    HW137840   3.946   0.782   1.591
12133SOL    HW237841   3.805   0.836   1.599
12134SOL     OW37842   4.345   1.393   0.733
12134SOL    HW137843   4.301   1.309   0.744
12134SOL    HW237844   4.328   1.418   0.642
12135SOL     OW37845   5.007   1.236   1.415
12135SOL    HW137846   5.039   1.166   1.358
12135SOL    HW237847   5.064   1.230   1.492
12136SOL     OW37848   4.558   0.036   0.572
12136SOL    HW137849   4.604   0.108   0.529
12136SOL    HW237850   4.473   0.073   0.595
12137SOL     OW37851   3.911   0.961   1.280
12137SOL    HW137852   3.997   0.923   1.265
12137SOL    HW237853   3.852   0.909   1.226
12138SOL     OW37854   5.229   1.008   0.227
12138SOL    HW137855   5.162   0.951   0.265
12138SOL    HW237856   5.280   1.039   0.302
12139SOL     OW37857   4.909   1.822   1.628
12139SOL    HW137858   4.913   1.884   1.555
12139SOL    HW237859   4.931   1.737   1.589
12140SOL     OW37860   4.041   0.252   1.768
12140SOL    HW137861   4.106   0.305   1.814
12140SOL    HW237862   3.964   0.254   1.826
12141SOL     OW37863   5.193   1.417   0.948
12141SOL    HW137864   5.127   1.433   1.016
12141SOL    HW237865   5.178   1.326   0.922
12142SOL     OW37866   5.374   1.764   0.583
12142SOL    HW137867   5.351   1.724   0.500
12142SOL    HW237868   5.360   1.695   0.648
12143SOL     OW37869   4.304   0.713   0.275
12143SOL    HW137870   4.315   0.801   0.240
12143SOL    HW237871   4.242   0.723   0.347
12144SOL     OW37872   5.018   0.377   0.934
12144SOL    HW137873   4.927   0.348   0.939
12144SOL    HW237874   5.065   0.321   0.996
12145SOL     OW37875   5.314   1.674   0.328
12145SOL    HW137876   5.409   1.688   0.322
12145SOL    HW237877   5.283   1.681   0.237
12146SOL     OW37878   4.496   0.642   1.439
12146SOL    HW137879   4.485   0.610   1.529
12146SOL    HW237880   4.486   0.565   1.384
12147SOL     OW37881   5.133   0.487   1.678
12147SOL    HW137882   5.131   0.534   1.762
12147SOL    HW237883   5.206   0.426   1.686
12148SOL     OW37884   4.671   0.882   1.588
12148SOL    HW137885   4.723   0.812   1.548
12148SOL    HW237886   4.622   0.921   1.515
12149SOL     OW37887   4.731   0.412   1.211
12149SOL    HW137888   4.645   0.433   1.245
12149SOL    HW237889   4.715   0.376   1.124
12150SOL     OW37890   4.778   0.703   0.425
12150SOL    HW137891   4.793   0.698   0.520
12150SOL    HW237892   4.694   0.660   0.412
12151SOL     OW37893   3.815   0.819   0.778
12151SOL    HW137894   3.895   0.815   0.830
12151SOL    HW237895   3.767   0.894   0.813
12152SOL     OW37896   3.842   1.852   1.582
12152SOL    HW137897   3.852   1.832   1.675
12152SOL    HW237898   3.748   1.863   1.570
12153SOL     OW37899   4.612   0.361   0.211
12153SOL    HW137900   4.652   0.436   0.167
12153SOL    HW237901   4.583   0.304   0.139
12154SOL     OW37902   5.420   0.572   1.831
12154SOL    HW137903   5.389   0.648   1.782
12154SOL    HW237904   5.451   0.512   1.764
12155SOL     OW37905   5.107   1.143   0.539
12155SOL    HW137906   5.188   1.139   0.488
12155SOL    HW237907   5.051   1.204   0.491
12156SOL     OW37908   4.230   0.237   0.915
12156SOL    HW137909   4.244   0.246   1.009
12156SOL    HW237910   4.256   0.322   0.878
12157SOL     OW37911   4.717   1.437   0.472
12157SOL    HW137912   4.681   1.514   0.429
12157SOL    HW237913   4.696   1.450   0.565
12158SOL     OW37914   4.076   1.815   0.876
12158SOL    HW137915   4.122   1.732   0.881
12158SOL    HW237916   4.142   1.881   0.898
12159SOL     OW37917   5.528   1.050   0.879
12159SOL    HW137918   5.476   1.028   0.802
12159SOL    HW237919   5.464   1.058   0.949
12160SOL     OW37920   4.950   1.544   1.512
12160SOL    HW137921   4.937   1.472   1.574
12160SOL    HW237922   4.866   1.551   1.466
12161SOL     OW37923   4.038   0.983   0.261
12161SOL    HW137924   4.119   0.992   0.210
12161SOL    HW237925   4.003   0.898   0.235
12162SOL     OW37926   5.202   0.762   0.725
12162SOL    HW137927   5.201   0.719   0.811
12162SOL    HW237928   5.279   0.818   0.728
12163SOL     OW37929   4.199   1.266   1.734
12163SOL    HW137930   4.171   1.270   1.643
12163SOL    HW237931   4.117   1.265   1.784
12164SOL     OW37932   4.805   1.786   0.233
12164SOL    HW137933   4.762   1.740   0.305
12164SOL    HW237934   4.867   1.722   0.197
12165SOL     OW37935   3.911   0.241   1.518
12165SOL    HW137936   3.845   0.311   1.517
12165SOL    HW237937   3.946   0.242   1.607
12166SOL     OW37938   5.382   1.408   0.049
12166SOL    HW137939   5.312   1.471   0.034
12166SOL    HW237940   5.336   1.325   0.067
12167SOL     OW37941   4.178   1.728   0.330
12167SOL    HW137942   4.224   1.787   0.390
12167SOL    HW237943   4.247   1.693   0.273
12168SOL     OW37944   5.121   0.109   0.423
12168SOL    HW137945   5.113   0.057   0.343
12168SOL    HW237946   5.215   0.120   0.435
12169SOL     OW37947   3.972   1.789   1.232
12169SOL    HW137948   4.025   1.727   1.282
12169SOL    HW237949   3.980   1.759   1.141
12170SOL     OW37950   4.663   1.703   0.896
12170SOL    HW137951   4.737   1.653   0.930
12170SOL    HW237952   4.626   1.649   0.826
12171SOL     OW37953   4.113   0.688   0.478
12171SOL    HW137954   4.135   0.596   0.487
12171SOL    HW237955   4.024   0.696   0.511
12172SOL     OW37956   5.276   0.220   1.736
12172SOL    HW137957   5.290   0.253   1.825
12172SOL    HW237958   5.186   0.188   1.737
12173SOL     OW37959   4.323   0.091   0.093
12173SOL    HW137960   4.393   0.081   0.157
12173SOL    HW237961   4.341   0.024   0.027
12174SOL     OW37962   4.456   0.292   1.764
12174SOL    HW137963   4.514   0.216   1.762
12174SOL    HW237964   4.397   0.275   1.837
12175SOL     OW37965   4.599   1.523   1.192
12175SOL    HW137966   4.579   1.481   1.109
12175SOL    HW237967   4.667   1.467   1.231
12176SOL     OW37968   5.062   0.597   1.435
12176SOL    HW137969   5.099   0.569   1.518
12176SOL    HW237970   5.098   0.685   1.421
12177SOL     OW37971   4.545   1.382   0.951
12177SOL    HW137972   4.631   1.373   0.909
12177SOL    HW237973   4.484   1.393   0.879
12178SOL     OW37974   4.647   0.520   0.887
12178SOL    HW137975   4.614   0.508   0.798
12178SOL    HW237976   4.685   0.435   0.910
12179SOL     OW37977   4.268   0.019   0.439
12179SOL    HW137978   4.213   0.020   0.517
12179SOL    HW237979   4.265   0.109   0.405
12180SOL     OW37980   5.187   1.220   0.061
12180SOL    HW137981   5.201   1.138   0.109
12180SOL    HW237982   5.094   1.239   0.073
12181SOL     OW37983   4.071   0.001   0.172
12181SOL    HW137984   4.156   0.038   0.149
12181SOL    HW237985   4.082  -0.033   0.261
12182SOL     OW37986   4.674   0.259   0.463
12182SOL    HW137987   4.643   0.283   0.375
12182SOL    HW237988   4.769   0.272   0.459
12183SOL     OW37989   4.800   0.674   1.460
12183SOL    HW137990   4.746   0.597   1.477
12183SOL    HW237991   4.889   0.641   1.455
12184SOL     OW37992   4.947   1.568   0.792
12184SOL    HW137993   4.957   1.637   0.726
12184SOL    HW237994   5.006   1.593   0.863
12185SOL     OW37995   4.202   1.157   0.725
12185SOL    HW137996   4.137   1.136   0.792
12185SOL    HW237997   4.154   1.148   0.642
12186SOL     OW37998   4.981   1.789   0.612
12186SOL    HW137999   5.031   1.856   0.565
12186SOL    HW238000   4.910   1.837   0.654
12187SOL     OW38001   4.733   0.579   0.106
12187SOL    HW138002   4.744   0.631   0.027
12187SOL    HW238003   4.820   0.577   0.146
12188SOL     OW38004   3.811   0.565   1.395
12188SOL    HW138005   3.903   0.561   1.368
12188SOL    HW238006   3.809   0.635   1.461
12189SOL     OW38007   4.296   0.228   1.194
12189SOL    HW138008   4.334   0.192   1.275
12189SOL    HW238009   4.201   0.224   1.209
12190SOL     OW38010   4.566   0.452   0.632
12190SOL    HW138011   4.542   0.513   0.562
12190SOL    HW238012   4.607   0.379   0.586
12191SOL     OW38013   4.697   0.036   0.805
12191SOL    HW138014   4.650   0.034   0.722
12191SOL    HW238015   4.730  -0.053   0.817
12192SOL     OW38016   5.163   1.157   0.859
12192SOL    HW138017   5.092   1.093   0.866
12192SOL    HW238018   5.182   1.163   0.766
12193SOL     OW38019   5.190   0.611   0.959
12193SOL    HW138020   5.133   0.534   0.962
12193SOL    HW238021   5.245   0.604   1.036
12194SOL     OW38022   5.552   0.830   0.423
12194SOL    HW138023   5.608   0.771   0.475
12194SOL    HW238024   5.508   0.772   0.361
12195SOL     OW38025   4.215   1.398   0.170
12195SOL    HW138026   4.150   1.355   0.226
12195SOL    HW238027   4.163   1.444   0.104
12196SOL     OW38028   5.405   1.273   0.644
12196SOL    HW138029   5.499   1.268   0.662
12196SOL    HW238030   5.380   1.361   0.672
12197SOL     OW38031   5.127   0.550   0.081
12197SOL    HW138032   5.073   0.548   0.160
12197SOL    HW238033   5.180   0.470   0.087
12198SOL     OW38034   4.234   0.258   0.311
12198SOL    HW138035   4.275   0.212   0.237
12198SOL    HW238036   4.212   0.344   0.276
12199SOL     OW38037   5.468   1.242   1.548
12199SOL    HW138038   5.557   1.206   1.539
12199SOL    HW238039   5.482   1.330   1.583
12200SOL     OW38040   4.774   1.345   1.320
12200SOL    HW138041   4.698   1.319   1.373
12200SOL    HW238042   4.849   1.311   1.368
12201SOL     OW38043   5.333   1.627   1.658
12201SOL    HW138044   5.326   1.664   1.570
12201SOL    HW238045   5.413   1.576   1.657
12202SOL     OW38046   4.855   1.204   1.096
12202SOL    HW138047   4.805   1.248   1.165
12202SOL    HW238048   4.830   1.248   1.015
12203SOL     OW38049   5.345   1.096   1.077
12203SOL    HW138050   5.338   1.160   1.149
12203SOL    HW238051   5.271   1.116   1.020
12204SOL     OW38052   4.644   0.123   1.399
12204SOL    HW138053   4.660   0.110   1.306
12204SOL    HW238054   4.731   0.124   1.439
12205SOL     OW38055   4.707   1.116   1.722
12205SOL    HW138056   4.617   1.134   1.749
12205SOL    HW238057   4.702   1.036   1.670
12206SOL     OW38058   4.435   1.062   0.375
12206SOL    HW138059   4.421   1.040   0.467
12206SOL    HW238060   4.513   1.013   0.350
12207SOL     OW38061   4.145   0.821   1.249
12207SOL    HW138062   4.208   0.837   1.319
12207SOL    HW238063   4.112   0.732   1.267
12208SOL     OW38064   4.990   0.379   1.288
12208SOL    HW138065   5.020   0.460   1.329
12208SOL    HW238066   4.902   0.399   1.256
12209SOL     OW38067   3.804   1.571   1.358
12209SOL    HW138068   3.787   1.658   1.323
12209SOL    HW238069   3.899   1.562   1.354
12210SOL     OW38070   4.054   1.128   0.496
12210SOL    HW138071   4.046   1.205   0.439
12210SOL    HW238072   4.060   1.054   0.435
12211SOL     OW38073   4.280   0.514   0.848
12211SOL    HW138074   4.287   0.577   0.777
12211SOL    HW238075   4.340   0.548   0.915
12212SOL     OW38076   4.967   1.349   0.398
12212SOL    HW138077   5.022   1.419   0.433
12212SOL    HW238078   4.879   1.368   0.431
12213SOL     OW38079   5.018   1.463   1.153
12213SOL    HW138080   5.075   1.474   1.229
12213SOL    HW238081   4.955   1.396   1.180
12214SOL     OW38082   5.273   0.612   0.504
12214SOL    HW138083   5.230   0.671   0.565
12214SOL    HW238084   5.300   0.668   0.431
12215SOL     OW38085   4.070   1.526   1.310
12215SOL    HW138086   4.061   1.481   1.226
12215SOL    HW238087   4.165   1.540   1.319
12216SOL     OW38088   4.158   0.734   1.617
12216SOL    HW138089   4.206   0.786   1.554
12216SOL    HW238090   4.220   0.666   1.645
12217SOL     OW38091   5.337   0.785   1.690
12217SOL    HW138092   5.252   0.827   1.683
12217SOL    HW238093   5.390   0.826   1.621
12218SOL     OW38094   4.771   0.073   1.751
12218SOL    HW138095   4.785   0.164   1.724
12218SOL    HW238096   4.677   0.058   1.737
12219SOL     OW38097   4.231   0.036   1.722
12219SOL    HW138098   4.206  -0.028   1.656
12219SOL    HW238099   4.152   0.087   1.737
12220SOL     OW38100   4.310   0.876   1.033
12220SOL    HW138101   4.347   0.964   1.038
12220SOL    HW238102   4.253   0.870   1.110
12221SOL     OW38103   5.059   0.857   1.012
12221SOL    HW138104   4.970   0.836   0.984
12221SOL    HW238105   5.107   0.775   1.002
12222SOL     OW38106   4.945   0.536   0.283
12222SOL    HW138107   4.952   0.458   0.337
12222SOL    HW238108   4.892   0.596   0.335
12223SOL     OW38109   4.026   0.204   1.231
12223SOL    HW138110   3.983   0.235   1.310
12223SOL    HW238111   3.997   0.113   1.222
12224SOL     OW38112   3.770   1.313   1.269
12224SOL    HW138113   3.800   1.257   1.341
12224SOL    HW238114   3.775   1.402   1.305
12225SOL     OW38115   4.434   0.627   1.044
12225SOL    HW138116   4.515   0.621   0.993
12225SOL    HW238117   4.405   0.717   1.035
12226SOL     OW38118   5.470   0.960   1.863
12226SOL    HW138119   5.424   0.893   1.812
12226SOL    HW238120   5.409   0.982   1.934
12227SOL     OW38121   4.098   0.071   0.657
12227SOL    HW138122   4.071   0.153   0.698
12227SOL    HW238123   4.089   0.006   0.726
12228SOL     OW38124   5.359   0.389   0.367
12228SOL    HW138125   5.370   0.308   0.416
12228SOL    HW238126   5.318   0.449   0.429
12229SOL     OW38127   4.756   0.760   0.960
12229SOL    HW138128   4.742   0.774   1.054
12229SOL    HW238129   4.724   0.671   0.944
12230SOL     OW38130   4.706   1.571   1.724
12230SOL    HW138131   4.692   1.611   1.638
12230SOL    HW238132   4.744   1.485   1.704
12231SOL     OW38133   5.572   1.496   1.603
12231SOL    HW138134   5.597   1.526   1.516
12231SOL    HW238135   5.651   1.509   1.656
12232SOL     OW38136   4.077   0.918   1.810
12232SOL    HW138137   4.153   0.942   1.862
12232SOL    HW238138   4.109   0.851   1.749
12233SOL     OW38139   5.225   0.281   0.153
12233SOL    HW138140   5.273   0.198   0.148
12233SOL    HW238141   5.267   0.329   0.224
12234SOL     OW38142   5.016   0.805   0.055
12234SOL    HW138143   5.066   0.724   0.047
12234SOL    HW238144   5.060   0.867  -0.004
12235SOL     OW38145   4.795   1.343   0.857
12235SOL    HW138146   4.803   1.271   0.795
12235SOL    HW238147   4.854   1.410   0.823
12236SOL     OW38148   4.037   0.812   0.942
12236SOL    HW138149   4.130   0.836   0.942
12236SOL    HW238150   4.035   0.724   0.979
12237SOL     OW38151   4.066   0.540   1.015
12237SOL    HW138152   4.020   0.458   1.001
12237SOL    HW238153   4.140   0.537   0.954
12238SOL     OW38154   4.889   0.361   1.715
12238SOL    HW138155   4.825   0.419   1.757
12238SOL    HW238156   4.964   0.418   1.699
12239SOL     OW38157   4.892   0.217   1.483
12239SOL    HW138158   4.895   0.271   1.563
12239SOL    HW238159   4.928   0.274   1.415
12240SOL     OW38160   3.809   1.779   0.936
12240SOL    HW138161   3.783   1.700   0.890
12240SOL    HW238162   3.900   1.793   0.911
12241SOL     OW38163   4.212   1.573   0.900
12241SOL    HW138164   4.281   1.636   0.923
12241SOL    HW238165   4.255   1.510   0.843
12242SOL     OW38166   4.689   0.777   1.226
12242SOL    HW138167   4.751   0.756   1.295
12242SOL    HW238168   4.603   0.757   1.263
12243SOL     OW38169   3.757   0.555   1.120
12243SOL    HW138170   3.835   0.532   1.069
12243SOL    HW238171   3.787   0.555   1.211
12244SOL     OW38172   3.906   0.534   1.734
12244SOL    HW138173   3.992   0.524   1.695
12244SOL    HW238174   3.866   0.607   1.687
12245SOL     OW38175   5.109   0.929   1.652
12245SOL    HW138176   5.128   1.023   1.650
12245SOL    HW238177   5.104   0.904   1.560
12246SOL     OW38178   4.536   0.576   0.380
12246SOL    HW138179   4.550   0.502   0.320
12246SOL    HW238180   4.461   0.623   0.343
12247SOL     OW38181   5.361   0.606   1.173
12247SOL    HW138182   5.352   0.552   1.252
12247SOL    HW238183   5.450   0.590   1.142
12248SOL     OW38184   3.959   1.545   1.722
12248SOL    HW138185   3.938   1.613   1.786
12248SOL    HW238186   3.970   1.466   1.774
12249SOL     OW38187   4.457   0.451   1.250
12249SOL    HW138188   4.393   0.381   1.235
12249SOL    HW238189   4.439   0.514   1.180
12250SOL     OW38190   4.663   1.671   1.464
12250SOL    HW138191   4.622   1.636   1.385
12250SOL    HW238192   4.653   1.766   1.455
12251SOL     OW38193   4.174   0.485   0.190
12251SOL    HW138194   4.223   0.564   0.211
12251SOL    HW238195   4.102   0.514   0.134
12252SOL     OW38196   3.859   1.144   1.474
12252SOL    HW138197   3.861   1.097   1.557
12252SOL    HW238198   3.879   1.077   1.408
12253SOL     OW38199   5.042   1.041   1.213
12253SOL    HW138200   5.060   0.978   1.143
12253SOL    HW238201   4.975   1.098   1.176
12254SOL     OW38202   5.027   0.849   0.327
12254SOL    HW138203   4.952   0.812   0.373
12254SOL    HW238204   5.015   0.821   0.236
12255SOL     OW38205   5.499   1.735   1.155
12255SOL    HW138206   5.562   1.759   1.087
12255SOL    HW238207   5.475   1.645   1.135
12256SOL     OW38208   4.960   1.727   1.086
12256SOL    HW138209   5.046   1.755   1.054
12256SOL    HW238210   4.974   1.638   1.118
12257SOL     OW38211   3.818   1.260   1.010
12257SOL    HW138212   3.799   1.279   1.101
12257SOL    HW238213   3.744   1.208   0.980
12258SOL     OW38214   4.401   1.674   1.744
12258SOL    HW138215   4.341   1.748   1.737
12258SOL    HW238216   4.479   1.701   1.696
12259SOL     OW38217   4.665   0.087   0.049
12259SOL    HW138218   4.746   0.127   0.082
12259SOL    HW238219   4.613   0.070   0.127
12260SOL     OW38220   5.392   0.137   0.491
12260SOL    HW138221   5.486   0.128   0.476
12260SOL    HW238222   5.378   0.098   0.578
12261SOL     OW38223   5.115   1.566   0.497
12261SOL    HW138224   5.177   1.602   0.433
12261SOL    HW238225   5.066   1.642   0.528
12262SOL     OW38226   3.876   1.794   1.843
12262SOL    HW138227   3.825   1.730   1.892
12262SOL    HW238228   3.921   1.845   1.910
12263SOL     OW38229   4.997   0.932   0.668
12263SOL    HW138230   5.071   0.874   0.685
12263SOL    HW238231   5.033   1.002   0.614
12264SOL     OW38232   4.522   1.281   1.420
12264SOL    HW138233   4.497   1.324   1.502
12264SOL    HW238234   4.448   1.296   1.362
12265SOL     OW38235   4.386   1.608   0.192
12265SOL    HW138236   4.445   1.611   0.117
12265SOL    HW238237   4.339   1.525   0.183
12266SOL     OW38238   5.343   1.731   1.393
12266SOL    HW138239   5.395   1.736   1.313
12266SOL    HW238240   5.328   1.823   1.418
12267SOL     OW38241   5.567   0.172   0.957
12267SOL    HW138242   5.568   0.079   0.978
12267SOL    HW238243   5.484   0.186   0.911
12268SOL     OW38244   3.983   0.312   0.718
12268SOL    HW138245   3.902   0.357   0.697
12268SOL    HW238246   3.987   0.314   0.814
12269SOL     OW38247   4.927   1.600   0.073
12269SOL    HW138248   4.925   1.507   0.095
12269SOL    HW238249   4.857   1.611   0.009
12270SOL     OW38250   4.549   1.012   1.377
12270SOL    HW138251   4.592   1.009   1.291
12270SOL    HW238252   4.543   1.106   1.397
12271SOL     OW38253   4.653   0.925   0.295
12271SOL    HW138254   4.712   0.947   0.222
12271SOL    HW238255   4.696   0.852   0.339
12272SOL     OW38256   5.185   1.579  -0.002
12272SOL    HW138257   5.097   1.600   0.030
12272SOL    HW238258   5.234   1.661   0.010
12273SOL     OW38259   4.091   1.300   1.489
12273SOL    HW138260   4.077   1.379   1.437
12273SOL    HW238261   4.010   1.250   1.478
12274SOL     OW38262   5.332   1.287   1.282
12274SOL    HW138263   5.385   1.266   1.359
12274SOL    HW238264   5.271   1.354   1.313
12275SOL     OW38265   4.789   1.114   0.712
12275SOL    HW138266   4.716   1.065   0.750
12275SOL    HW238267   4.854   1.047   0.689
12276SOL     OW38268   4.753   0.267   0.952
12276SOL    HW138269   4.738   0.211   0.876
12276SOL    HW238270   4.756   0.207   1.026
12277SOL     OW38271   4.327   1.479   0.475
12277SOL    HW138272   4.368   1.431   0.403
12277SOL    HW238273   4.252   1.522   0.436
12278SOL     OW38274   5.446   0.423   1.384
12278SOL    HW138275   5.521   0.483   1.391
12278SOL    HW238276   5.476   0.355   1.324
12279SOL     OW38277   3.990   1.328   0.313
12279SOL    HW138278   3.910   1.343   0.262
12279SOL    HW238279   3.976   1.376   0.394
12280SOL     OW38280   3.836   1.018   1.714
12280SOL    HW138281   3.761   1.002   1.773
12280SOL    HW238282   3.912   0.988   1.764
12281SOL     OW38283   4.404   0.231   1.488
12281SOL    HW138284   4.477   0.173   1.464
12281SOL    HW238285   4.413   0.243   1.583
12282SOL     OW38286   5.146   0.858   1.391
12282SOL    HW138287   5.097   0.920   1.337
12282SOL    HW238288   5.235   0.862   1.356
12283SOL     OW38289   3.807   0.193   0.266
12283SOL    HW138290   3.783   0.276   0.307
12283SOL    HW238291   3.875   0.156   0.323
12284SOL     OW38292   4.917   1.331   0.123
12284SOL    HW138293   4.822   1.323   0.111
12284SOL    HW238294   4.931   1.322   0.217
12285SOL     OW38295   4.334   0.851   1.438
12285SOL    HW138296   4.393   0.925   1.425
12285SOL    HW238297   4.391   0.774   1.441
12286SOL     OW38298   5.211   1.789   0.984
12286SOL    HW138299   5.234   1.863   0.928
12286SOL    HW238300   5.293   1.762   1.025
12287SOL     OW38301   4.423   0.569   1.696
12287SOL    HW138302   4.477   0.625   1.753
12287SOL    HW238303   4.442   0.480   1.726
12288SOL     OW38304   5.195   1.190   1.626
12288SOL    HW138305   5.182   1.208   1.719
12288SOL    HW238306   5.287   1.213   1.610
12289SOL     OW38307   4.089   1.736   1.561
12289SOL    HW138308   4.005   1.781   1.550
12289SOL    HW238309   4.066   1.654   1.606
12290SOL     OW38310   5.386   0.880   1.255
12290SOL    HW138311   5.383   0.796   1.210
12290SOL    HW238312   5.377   0.945   1.185
12291SOL     OW38313   4.944   0.314   0.443
12291SOL    HW138314   5.006   0.241   0.440
12291SOL    HW238315   4.966   0.361   0.524
12292SOL     OW38316   4.306   0.730   0.674
12292SOL    HW138317   4.348   0.815   0.664
12292SOL    HW238318   4.241   0.726   0.604
12293SOL     OW38319   5.482   0.377   1.652
12293SOL    HW138320   5.471   0.394   1.558
12293SOL    HW238321   5.417   0.310   1.672
12294SOL     OW38322   5.476   0.934   1.510
12294SOL    HW138323   5.459   1.028   1.523
12294SOL    HW238324   5.455   0.919   1.418
12295SOL     OW38325   4.646   1.367   0.061
12295SOL    HW138326   4.588   1.347   0.134
12295SOL    HW238327   4.628   1.458   0.040
12296SOL     OW38328   4.386   1.779   0.926
12296SOL    HW138329   4.368   1.872   0.918
12296SOL    HW238330   4.482   1.773   0.928
12297SOL     OW38331   4.595   0.974   0.853
12297SOL    HW138332   4.647   0.903   0.892
12297SOL    HW238333   4.552   1.016   0.928
12298SOL     OW38334   4.809   0.985   0.069
12298SOL    HW138335   4.852   1.060   0.028
12298SOL    HW238336   4.879   0.920   0.077
12299SOL     OW38337   5.565   1.550   0.838
12299SOL    HW138338   5.482   1.542   0.792
12299SOL    HW238339   5.556   1.493   0.915
12300SOL     OW38340   3.963   1.302   1.863
12300SOL    HW138341   3.881   1.255   1.845
12300SOL    HW238342   3.961   1.316   1.958
12301SOL     OW38343   3.813   1.222   0.671
12301SOL    HW138344   3.835   1.182   0.755
12301SOL    HW238345   3.880   1.191   0.610
12302SOL     OW38346   4.409   1.415   1.630
12302SOL    HW138347   4.333   1.370   1.667
12302SOL    HW238348   4.407   1.502   1.669
12303SOL     OW38349   5.546   0.234   1.228
12303SOL    HW138350   5.525   0.143   1.249
12303SOL    HW238351   5.561   0.234   1.134
12304SOL     OW38352   4.150   0.425   0.526
12304SOL    HW138353   4.175   0.357   0.464
12304SOL    HW238354   4.095   0.381   0.591
12305SOL     OW38355   5.424   1.481   1.087
12305SOL    HW138356   5.343   1.463   1.040
12305SOL    HW238357   5.427   1.415   1.156
12306SOL     OW38358   4.061   0.562   1.293
12306SOL    HW138359   4.110   0.499   1.346
12306SOL    HW238360   4.080   0.538   1.203
12307SOL     OW38361   4.558   1.572   0.680
12307SOL    HW138362   4.530   1.636   0.614
12307SOL    HW238363   4.484   1.513   0.689
12308SOL     OW38364   5.152   0.226   1.117
12308SOL    HW138365   5.213   0.166   1.159
12308SOL    HW238366   5.106   0.269   1.190
12309SOL     OW38367   4.755   0.073   1.139
12309SOL    HW138368   4.700  -0.005   1.136
12309SOL    HW238369   4.843   0.039   1.152
12310SOL     OW38370   4.516   1.321   0.304
12310SOL    HW138371   4.480   1.234   0.325
12310SOL    HW238372   4.585   1.334   0.369
12311SOL     OW38373   4.344   1.558   1.285
12311SOL    HW138374   4.341   1.640   1.333
12311SOL    HW238375   4.433   1.553   1.251
12312SOL     OW38376   5.061  -0.008   0.154
12312SOL    HW138377   5.145   0.027   0.125
12312SOL    HW238378   5.001   0.067   0.151
12313SOL     OW38379   4.996   0.458   0.668
12313SOL    HW138380   4.952   0.543   0.676
12313SOL    HW238381   5.014   0.432   0.758
12314SOL     OW38382   5.326   0.214   0.847
12314SOL    HW138383   5.252   0.210   0.908
12314SOL    HW238384   5.318   0.300   0.805
12315SOL     OW38385   3.762   1.077   0.329
12315SOL    HW138386   3.855   1.083   0.310
12315SOL    HW238387   3.752   0.994   0.375
12316SOL     OW38388   4.599   1.658   0.365
12316SOL    HW138389   4.518   1.638   0.318
12316SOL    HW238390   4.578   1.735   0.417
12317SOL     OW38391   3.936   0.625   1.998
12317SOL    HW138392   3.851   0.616   2.041
12317SOL    HW238393   3.919   0.604   1.906
12318SOL     OW38394   3.944   0.295   2.850
12318SOL    HW138395   3.972   0.258   2.934
12318SOL    HW238396   3.864   0.247   2.829
12319SOL     OW38397   3.735   0.400   2.491
12319SOL    HW138398   3.649   0.416   2.530
12319SOL    HW238399   3.718   0.335   2.423
12320SOL     OW38400   4.292   1.299   3.045
12320SOL    HW138401   4.207   1.311   3.004
12320SOL    HW238402   4.313   1.384   3.083
12321SOL     OW38403   5.291   1.515   2.576
12321SOL    HW138404   5.250   1.504   2.662
12321SOL    HW238405   5.218   1.523   2.515
12322SOL     OW38406   4.860   0.694   2.553
12322SOL    HW138407   4.907   0.775   2.537
12322SOL    HW238408   4.815   0.708   2.637
12323SOL     OW38409   5.536   0.604   2.070
12323SOL    HW138410   5.495   0.599   1.984
12323SOL    HW238411   5.491   0.537   2.122
12324SOL     OW38412   4.459   1.131   2.908
12324SOL    HW138413   4.395   1.171   2.967
12324SOL    HW238414   4.506   1.205   2.869
12325SOL     OW38415   4.600   0.748   3.686
12325SOL    HW138416   4.592   0.809   3.760
12325SOL    HW238417   4.620   0.804   3.611
12326SOL     OW38418   4.409   0.987   2.508
12326SOL    HW138419   4.477   0.988   2.575
12326SOL    HW238420   4.341   1.046   2.542
12327SOL     OW38421   4.439   1.150   3.681
12327SOL    HW138422   4.485   1.225   3.718
12327SOL    HW238423   4.359   1.186   3.643
12328SOL     OW38424   4.062   1.409   2.927
12328SOL    HW138425   3.983   1.376   2.884
12328SOL    HW238426   4.102   1.467   2.861
12329SOL     OW38427   5.184   1.505   3.230
12329SOL    HW138428   5.235   1.585   3.240
12329SOL    HW238429   5.108   1.517   3.287
12330SOL     OW38430   4.175   0.378   3.313
12330SOL    HW138431   4.253   0.326   3.334
12330SOL    HW238432   4.102   0.330   3.350
12331SOL     OW38433   5.322   0.462   2.595
12331SOL    HW138434   5.238   0.484   2.553
12331SOL    HW238435   5.332   0.528   2.664
12332SOL     OW38436   3.945   1.715   2.331
12332SOL    HW138437   3.963   1.788   2.390
12332SOL    HW238438   4.023   1.708   2.276
12333SOL     OW38439   4.859   1.342   3.555
12333SOL    HW138440   4.899   1.341   3.642
12333SOL    HW238441   4.807   1.262   3.552
12334SOL     OW38442   3.953   1.443   2.392
12334SOL    HW138443   3.939   1.538   2.395
12334SOL    HW238444   3.901   1.410   2.466
12335SOL     OW38445   3.990   1.093   2.746
12335SOL    HW138446   3.988   1.006   2.784
12335SOL    HW238447   3.937   1.147   2.805
12336SOL     OW38448   4.321   1.786   3.285
12336SOL    HW138449   4.240   1.772   3.335
12336SOL    HW238450   4.352   1.872   3.313
12337SOL     OW38451   4.299   0.988   2.005
12337SOL    HW138452   4.349   1.031   1.936
12337SOL    HW238453   4.337   1.020   2.087
12338SOL     OW38454   5.369   0.132   3.327
12338SOL    HW138455   5.351   0.218   3.288
12338SOL    HW238456   5.338   0.140   3.417
12339SOL     OW38457   3.851   0.658   2.425
12339SOL    HW138458   3.816   0.573   2.450
12339SOL    HW238459   3.837   0.713   2.503
12340SOL     OW38460   5.567   1.748   2.181
12340SOL    HW138461   5.627   1.724   2.252
12340SOL    HW238462   5.581   1.842   2.170
12341SOL     OW38463   3.766   1.585   1.974
12341SOL    HW138464   3.746   1.494   1.996
12341SOL    HW238465   3.738   1.635   2.051
12342SOL     OW38466   5.404   0.911   2.497
12342SOL    HW138467   5.495   0.883   2.486
12342SOL    HW238468   5.388   0.970   2.423
12343SOL     OW38469   5.380   1.105   2.291
12343SOL    HW138470   5.467   1.106   2.251
12343SOL    HW238471   5.385   1.170   2.361
12344SOL     OW38472   3.855   0.755   3.445
12344SOL    HW138473   3.947   0.780   3.452
12344SOL    HW238474   3.807   0.835   3.466
12345SOL     OW38475   4.346   1.393   2.594
12345SOL    HW138476   4.301   1.309   2.604
12345SOL    HW238477   4.328   1.419   2.504
12346SOL     OW38478   5.006   1.227   3.280
12346SOL    HW138479   5.046   1.163   3.221
12346SOL    HW238480   5.062   1.228   3.357
12347SOL     OW38481   4.532   0.051   2.461
12347SOL    HW138482   4.580   0.121   2.416
12347SOL    HW238483   4.460   0.030   2.402
12348SOL     OW38484   3.912   0.959   3.148
12348SOL    HW138485   3.998   0.922   3.131
12348SOL    HW238486   3.854   0.917   3.084
12349SOL     OW38487   5.259   1.003   2.063
12349SOL    HW138488   5.191   0.944   2.096
12349SOL    HW238489   5.300   1.038   2.142
12350SOL     OW38490   4.921   1.820   3.477
12350SOL    HW138491   4.952   1.858   3.394
12350SOL    HW238492   4.943   1.727   3.471
12351SOL     OW38493   4.039   0.232   3.635
12351SOL    HW138494   4.109   0.284   3.674
12351SOL    HW238495   3.961   0.255   3.687
12352SOL     OW38496   5.197   1.410   2.822
12352SOL    HW138497   5.126   1.431   2.883
12352SOL    HW238498   5.177   1.322   2.791
12353SOL     OW38499   5.386   1.755   2.434
12353SOL    HW138500   5.353   1.718   2.353
12353SOL    HW238501   5.359   1.693   2.502
12354SOL     OW38502   4.320   0.716   2.138
12354SOL    HW138503   4.324   0.803   2.098
12354SOL    HW238504   4.255   0.725   2.207
12355SOL     OW38505   5.017   0.369   2.790
12355SOL    HW138506   4.926   0.341   2.797
12355SOL    HW238507   5.063   0.316   2.855
12356SOL     OW38508   5.299   1.676   2.173
12356SOL    HW138509   5.391   1.700   2.164
12356SOL    HW238510   5.271   1.659   2.083
12357SOL     OW38511   4.522   0.625   3.313
12357SOL    HW138512   4.488   0.601   3.399
12357SOL    HW238513   4.484   0.560   3.254
12358SOL     OW38514   5.145   0.489   3.545
12358SOL    HW138515   5.141   0.536   3.629
12358SOL    HW238516   5.211   0.421   3.559
12359SOL     OW38517   4.667   0.888   3.447
12359SOL    HW138518   4.727   0.825   3.407
12359SOL    HW238519   4.624   0.931   3.373
12360SOL     OW38520   4.723   0.407   3.085
12360SOL    HW138521   4.640   0.440   3.119
12360SOL    HW238522   4.709   0.397   2.991
12361SOL     OW38523   4.781   0.697   2.284
12361SOL    HW138524   4.801   0.696   2.378
12361SOL    HW238525   4.695   0.656   2.276
12362SOL     OW38526   3.808   0.828   2.635
12362SOL    HW138527   3.888   0.824   2.688
12362SOL    HW238528   3.757   0.899   2.674
12363SOL     OW38529   3.828   1.828   3.433
12363SOL    HW138530   3.836   1.812   3.527
12363SOL    HW238531   3.791   1.916   3.426
12364SOL     OW38532   4.614   0.351   2.074
12364SOL    HW138533   4.655   0.402   2.004
12364SOL    HW238534   4.595   0.267   2.033
12365SOL     OW38535   5.434   0.568   3.691
12365SOL    HW138536   5.398   0.644   3.646
12365SOL    HW238537   5.460   0.508   3.621
12366SOL     OW38538   5.105   1.142   2.402
12366SOL    HW138539   5.187   1.143   2.353
12366SOL    HW238540   5.051   1.208   2.360
12367SOL     OW38541   4.256   0.256   2.791
12367SOL    HW138542   4.248   0.266   2.886
12367SOL    HW238543   4.254   0.346   2.758
12368SOL     OW38544   4.715   1.444   2.325
12368SOL    HW138545   4.693   1.523   2.275
12368SOL    HW238546   4.690   1.466   2.415
12369SOL     OW38547   4.074   1.816   2.736
12369SOL    HW138548   4.124   1.735   2.744
12369SOL    HW238549   4.136   1.885   2.760
12370SOL     OW38550   5.520   1.041   2.730
12370SOL    HW138551   5.457   1.039   2.658
12370SOL    HW238552   5.466   1.057   2.808
12371SOL     OW38553   4.948   1.536   3.372
12371SOL    HW138554   4.923   1.464   3.429
12371SOL    HW238555   4.864   1.574   3.343
12372SOL     OW38556   4.037   0.965   2.121
12372SOL    HW138557   4.120   0.981   2.077
12372SOL    HW238558   4.007   0.881   2.087
12373SOL     OW38559   5.206   0.739   2.567
12373SOL    HW138560   5.201   0.715   2.659
12373SOL    HW238561   5.279   0.801   2.562
12374SOL     OW38562   4.198   1.261   3.593
12374SOL    HW138563   4.169   1.267   3.502
12374SOL    HW238564   4.117   1.262   3.644
12375SOL     OW38565   4.852   1.784   2.081
12375SOL    HW138566   4.776   1.749   2.128
12375SOL    HW238567   4.875   1.716   2.019
12376SOL     OW38568   3.915   0.265   3.366
12376SOL    HW138569   3.852   0.338   3.366
12376SOL    HW238570   3.935   0.250   3.458
12377SOL     OW38571   5.357   1.380   1.950
12377SOL    HW138572   5.316   1.466   1.941
12377SOL    HW238573   5.287   1.318   1.931
12378SOL     OW38574   4.187   1.728   2.185
12378SOL    HW138575   4.229   1.789   2.247
12378SOL    HW238576   4.259   1.701   2.128
12379SOL     OW38577   5.148   0.134   2.236
12379SOL    HW138578   5.091   0.080   2.182
12379SOL    HW238579   5.236   0.118   2.202
12380SOL     OW38580   3.971   1.793   3.102
12380SOL    HW138581   4.025   1.737   3.157
12380SOL    HW238582   3.981   1.757   3.014
12381SOL     OW38583   4.674   1.706   2.765
12381SOL    HW138584   4.753   1.668   2.802
12381SOL    HW238585   4.645   1.641   2.700
12382SOL     OW38586   4.124   0.686   2.335
12382SOL    HW138587   4.138   0.593   2.353
12382SOL    HW238588   4.031   0.700   2.353
12383SOL     OW38589   5.282   0.205   3.585
12383SOL    HW138590   5.291   0.236   3.675
12383SOL    HW238591   5.198   0.158   3.584
12384SOL     OW38592   4.324   0.143   1.957
12384SOL    HW138593   4.395   0.093   1.997
12384SOL    HW238594   4.294   0.088   1.885
12385SOL     OW38595   4.424   0.303   3.611
12385SOL    HW138596   4.519   0.296   3.614
12385SOL    HW238597   4.394   0.262   3.692
12386SOL     OW38598   4.596   1.513   3.050
12386SOL    HW138599   4.579   1.473   2.965
12386SOL    HW238600   4.669   1.462   3.086
12387SOL     OW38601   5.066   0.591   3.301
12387SOL    HW138602   5.105   0.566   3.385
12387SOL    HW238603   5.097   0.680   3.285
12388SOL     OW38604   4.550   1.374   2.807
12388SOL    HW138605   4.636   1.370   2.766
12388SOL    HW238606   4.490   1.391   2.735
12389SOL     OW38607   4.651   0.514   2.754
12389SOL    HW138608   4.616   0.508   2.665
12389SOL    HW238609   4.688   0.427   2.770
12390SOL     OW38610   4.314   0.029   2.295
12390SOL    HW138611   4.244  -0.027   2.329
12390SOL    HW238612   4.272   0.114   2.282
12391SOL     OW38613   5.150   1.203   1.899
12391SOL    HW138614   5.179   1.130   1.954
12391SOL    HW238615   5.067   1.230   1.938
12392SOL     OW38616   4.013   0.061   2.071
12392SOL    HW138617   4.086   0.123   2.072
12392SOL    HW238618   4.044  -0.015   2.120
12393SOL     OW38619   4.674   0.256   2.329
12393SOL    HW138620   4.645   0.286   2.243
12393SOL    HW238621   4.769   0.270   2.327
12394SOL     OW38622   4.807   0.692   3.314
12394SOL    HW138623   4.740   0.628   3.338
12394SOL    HW238624   4.889   0.644   3.322
12395SOL     OW38625   4.957   1.561   2.643
12395SOL    HW138626   4.968   1.633   2.582
12395SOL    HW238627   4.966   1.601   2.730
12396SOL     OW38628   4.201   1.153   2.582
12396SOL    HW138629   4.136   1.136   2.651
12396SOL    HW238630   4.151   1.144   2.501
12397SOL     OW38631   4.983   1.787   2.471
12397SOL    HW138632   5.030   1.856   2.423
12397SOL    HW238633   4.913   1.833   2.517
12398SOL     OW38634   4.746   0.522   1.892
12398SOL    HW138635   4.701   0.603   1.869
12398SOL    HW238636   4.808   0.547   1.961
12399SOL     OW38637   3.809   0.564   3.259
12399SOL    HW138638   3.900   0.562   3.231
12399SOL    HW238639   3.805   0.635   3.323
12400SOL     OW38640   4.298   0.217   3.070
12400SOL    HW138641   4.335   0.195   3.155
12400SOL    HW238642   4.203   0.214   3.083
12401SOL     OW38643   4.573   0.452   2.495
12401SOL    HW138644   4.546   0.518   2.431
12401SOL    HW238645   4.616   0.385   2.443
12402SOL     OW38646   4.747   0.036   2.632
12402SOL    HW138647   4.676   0.037   2.568
12402SOL    HW238648   4.740  -0.050   2.675
12403SOL     OW38649   5.165   1.152   2.722
12403SOL    HW138650   5.089   1.096   2.737
12403SOL    HW238651   5.168   1.165   2.627
12404SOL     OW38652   5.187   0.610   2.819
12404SOL    HW138653   5.129   0.534   2.829
12404SOL    HW238654   5.243   0.608   2.897
12405SOL     OW38655   5.566   0.810   2.245
12405SOL    HW138656   5.624   0.764   2.306
12405SOL    HW238657   5.556   0.750   2.171
12406SOL     OW38658   4.217   1.421   2.014
12406SOL    HW138659   4.140   1.398   2.067
12406SOL    HW238660   4.208   1.368   1.935
12407SOL     OW38661   5.407   1.271   2.497
12407SOL    HW138662   5.500   1.275   2.518
12407SOL    HW238663   5.371   1.354   2.528
12408SOL     OW38664   5.117   0.584   1.931
12408SOL    HW138665   5.057   0.561   2.001
12408SOL    HW238666   5.204   0.577   1.971
12409SOL     OW38667   4.213   0.268   2.167
12409SOL    HW138668   4.266   0.226   2.098
12409SOL    HW238669   4.196   0.356   2.133
12410SOL     OW38670   5.469   1.239   3.408
12410SOL    HW138671   5.558   1.205   3.401
12410SOL    HW238672   5.481   1.327   3.444
12411SOL     OW38673   4.779   1.333   3.171
12411SOL    HW138674   4.702   1.317   3.226
12411SOL    HW238675   4.853   1.304   3.226
12412SOL     OW38676   5.336   1.620   3.525
12412SOL    HW138677   5.328   1.658   3.437
12412SOL    HW238678   5.417   1.569   3.521
12413SOL     OW38679   4.842   1.180   2.950
12413SOL    HW138680   4.810   1.233   3.024
12413SOL    HW238681   4.830   1.236   2.874
12414SOL     OW38682   5.352   1.103   2.940
12414SOL    HW138683   5.346   1.167   3.011
12414SOL    HW238684   5.278   1.123   2.883
12415SOL     OW38685   4.638   0.106   3.250
12415SOL    HW138686   4.664   0.118   3.159
12415SOL    HW238687   4.719   0.116   3.300
12416SOL     OW38688   4.708   1.116   3.587
12416SOL    HW138689   4.619   1.137   3.616
12416SOL    HW238690   4.698   1.036   3.535
12417SOL     OW38691   4.434   1.061   2.236
12417SOL    HW138692   4.420   1.041   2.328
12417SOL    HW238693   4.508   1.006   2.210
12418SOL     OW38694   4.147   0.819   3.113
12418SOL    HW138695   4.214   0.832   3.181
12418SOL    HW238696   4.111   0.732   3.133
12419SOL     OW38697   4.992   0.384   3.140
12419SOL    HW138698   5.024   0.461   3.187
12419SOL    HW238699   4.902   0.405   3.116
12420SOL     OW38700   3.803   1.572   3.220
12420SOL    HW138701   3.788   1.666   3.216
12420SOL    HW238702   3.898   1.563   3.214
12421SOL     OW38703   4.050   1.127   2.352
12421SOL    HW138704   4.052   1.205   2.297
12421SOL    HW238705   4.050   1.054   2.290
12422SOL     OW38706   4.272   0.521   2.716
12422SOL    HW138707   4.282   0.580   2.641
12422SOL    HW238708   4.333   0.555   2.782
12423SOL     OW38709   4.968   1.352   2.256
12423SOL    HW138710   5.023   1.424   2.288
12423SOL    HW238711   4.880   1.372   2.289
12424SOL     OW38712   5.011   1.451   3.027
12424SOL    HW138713   5.074   1.470   3.097
12424SOL    HW238714   4.936   1.412   3.072
12425SOL     OW38715   5.317   0.624   2.320
12425SOL    HW138716   5.262   0.657   2.391
12425SOL    HW238717   5.362   0.702   2.288
12426SOL     OW38718   4.070   1.521   3.173
12426SOL    HW138719   4.062   1.478   3.088
12426SOL    HW238720   4.164   1.538   3.183
12427SOL     OW38721   4.164   0.728   3.480
12427SOL    HW138722   4.210   0.780   3.414
12427SOL    HW238723   4.230   0.667   3.514
12428SOL     OW38724   5.341   0.780   3.551
12428SOL    HW138725   5.254   0.821   3.546
12428SOL    HW238726   5.392   0.825   3.483
12429SOL     OW38727   4.769   0.076   3.594
12429SOL    HW138728   4.773   0.170   3.578
12429SOL    HW238729   4.675   0.055   3.592
12430SOL     OW38730   4.227   0.020   3.594
12430SOL    HW138731   4.208  -0.030   3.515
12430SOL    HW238732   4.164   0.092   3.592
12431SOL     OW38733   4.309   0.877   2.896
12431SOL    HW138734   4.347   0.965   2.898
12431SOL    HW238735   4.253   0.874   2.974
12432SOL     OW38736   5.059   0.857   2.864
12432SOL    HW138737   4.967   0.838   2.845
12432SOL    HW238738   5.104   0.773   2.856
12433SOL     OW38739   4.923   0.527   2.119
12433SOL    HW138740   4.928   0.450   2.175
12433SOL    HW238741   4.884   0.595   2.175
12434SOL     OW38742   4.024   0.202   3.100
12434SOL    HW138743   3.980   0.227   3.182
12434SOL    HW238744   4.000   0.111   3.087
12435SOL     OW38745   3.769   1.314   3.136
12435SOL    HW138746   3.799   1.261   3.209
12435SOL    HW238747   3.774   1.405   3.167
12436SOL     OW38748   4.429   0.629   2.907
12436SOL    HW138749   4.514   0.630   2.863
12436SOL    HW238750   4.397   0.719   2.902
12437SOL     OW38751   5.469   0.959   3.724
12437SOL    HW138752   5.423   0.891   3.676
12437SOL    HW238753   5.409   0.984   3.795
12438SOL     OW38754   4.118   0.067   2.583
12438SOL    HW138755   4.072   0.151   2.577
12438SOL    HW238756   4.068   0.009   2.526
12439SOL     OW38757   5.342   0.355   2.279
12439SOL    HW138758   5.264   0.321   2.323
12439SOL    HW238759   5.340   0.449   2.296
12440SOL     OW38760   4.764   0.755   2.818
12440SOL    HW138761   4.748   0.772   2.911
12440SOL    HW238762   4.728   0.667   2.803
12441SOL     OW38763   4.709   1.571   3.588
12441SOL    HW138764   4.693   1.611   3.503
12441SOL    HW238765   4.743   1.483   3.568
12442SOL     OW38766   5.576   1.489   3.469
12442SOL    HW138767   5.594   1.524   3.381
12442SOL    HW238768   5.655   1.509   3.519
12443SOL     OW38769   4.077   0.914   3.673
12443SOL    HW138770   4.151   0.944   3.725
12443SOL    HW238771   4.114   0.849   3.614
12444SOL     OW38772   5.294   0.309   1.996
12444SOL    HW138773   5.200   0.295   1.986
12444SOL    HW238774   5.306   0.325   2.090
12445SOL     OW38775   5.003   0.829   1.883
12445SOL    HW138776   5.046   0.744   1.891
12445SOL    HW238777   5.038   0.867   1.802
12446SOL     OW38778   4.804   1.340   2.716
12446SOL    HW138779   4.810   1.271   2.651
12446SOL    HW238780   4.862   1.409   2.683
12447SOL     OW38781   4.033   0.814   2.803
12447SOL    HW138782   4.126   0.839   2.807
12447SOL    HW238783   4.030   0.727   2.842
12448SOL     OW38784   4.052   0.538   2.877
12448SOL    HW138785   4.011   0.452   2.862
12448SOL    HW238786   4.126   0.539   2.816
12449SOL     OW38787   4.900   0.369   3.565
12449SOL    HW138788   4.836   0.424   3.611
12449SOL    HW238789   4.978   0.424   3.557
12450SOL     OW38790   4.887   0.223   3.335
12450SOL    HW138791   4.899   0.270   3.417
12450SOL    HW238792   4.928   0.279   3.269
12451SOL     OW38793   3.728   1.311   2.047
12451SOL    HW138794   3.641   1.329   2.012
12451SOL    HW238795   3.722   1.224   2.085
12452SOL     OW38796   3.807   1.778   2.795
12452SOL    HW138797   3.784   1.697   2.750
12452SOL    HW238798   3.898   1.793   2.772
12453SOL     OW38799   4.215   1.574   2.763
12453SOL    HW138800   4.283   1.639   2.782
12453SOL    HW238801   4.259   1.510   2.707
12454SOL     OW38802   4.693   0.774   3.078
12454SOL    HW138803   4.752   0.753   3.151
12454SOL    HW238804   4.609   0.790   3.120
12455SOL     OW38805   3.762   0.552   2.982
12455SOL    HW138806   3.846   0.556   2.936
12455SOL    HW238807   3.786   0.554   3.075
12456SOL     OW38808   3.910   0.531   3.590
12456SOL    HW138809   4.002   0.537   3.564
12456SOL    HW238810   3.868   0.604   3.545
12457SOL     OW38811   5.112   0.923   3.514
12457SOL    HW138812   5.129   1.018   3.514
12457SOL    HW238813   5.103   0.901   3.421
12458SOL     OW38814   4.541   0.572   2.240
12458SOL    HW138815   4.548   0.499   2.178
12458SOL    HW238816   4.468   0.625   2.207
12459SOL     OW38817   5.360   0.607   3.028
12459SOL    HW138818   5.351   0.557   3.109
12459SOL    HW238819   5.450   0.590   3.000
12460SOL     OW38820   3.964   1.546   3.583
12460SOL    HW138821   3.943   1.622   3.637
12460SOL    HW238822   3.973   1.473   3.645
12461SOL     OW38823   4.449   0.453   3.115
12461SOL    HW138824   4.385   0.383   3.102
12461SOL    HW238825   4.430   0.516   3.045
12462SOL     OW38826   4.684   1.665   3.326
12462SOL    HW138827   4.629   1.642   3.252
12462SOL    HW238828   4.688   1.761   3.326
12463SOL     OW38829   4.178   0.502   2.035
12463SOL    HW138830   4.237   0.572   2.062
12463SOL    HW238831   4.092   0.544   2.028
12464SOL     OW38832   3.856   1.143   3.339
12464SOL    HW138833   3.858   1.096   3.422
12464SOL    HW238834   3.877   1.076   3.273
12465SOL     OW38835   5.045   1.036   3.070
12465SOL    HW138836   5.064   0.976   2.998
12465SOL    HW238837   4.974   1.091   3.039
12466SOL     OW38838   5.051   0.850   2.159
12466SOL    HW138839   4.978   0.838   2.219
12466SOL    HW238840   5.012   0.846   2.072
12467SOL     OW38841   5.506   1.724   3.026
12467SOL    HW138842   5.556   1.759   2.952
12467SOL    HW238843   5.472   1.641   2.994
12468SOL     OW38844   4.945   1.681   2.888
12468SOL    HW138845   5.016   1.745   2.899
12468SOL    HW238846   4.963   1.613   2.952
12469SOL     OW38847   3.821   1.255   2.879
12469SOL    HW138848   3.806   1.277   2.971
12469SOL    HW238849   3.734   1.231   2.846
12470SOL     OW38850   4.397   1.674   3.604
12470SOL    HW138851   4.334   1.745   3.602
12470SOL    HW238852   4.474   1.709   3.559
12471SOL     OW38853   5.113   1.569   2.351
12471SOL    HW138854   5.170   1.609   2.285
12471SOL    HW238855   5.062   1.643   2.386
12472SOL     OW38856   3.885   1.784   3.699
12472SOL    HW138857   3.826   1.731   3.753
12472SOL    HW238858   3.928   1.843   3.760
12473SOL     OW38859   5.001   0.920   2.514
12473SOL    HW138860   5.077   0.865   2.530
12473SOL    HW238861   5.035   0.998   2.471
12474SOL     OW38862   4.526   1.281   3.287
12474SOL    HW138863   4.503   1.322   3.370
12474SOL    HW238864   4.457   1.308   3.226
12475SOL     OW38865   4.392   1.628   2.019
12475SOL    HW138866   4.403   1.643   1.925
12475SOL    HW238867   4.338   1.549   2.024
12476SOL     OW38868   5.360   1.718   3.262
12476SOL    HW138869   5.403   1.727   3.177
12476SOL    HW238870   5.332   1.807   3.284
12477SOL     OW38871   5.571   0.173   2.811
12477SOL    HW138872   5.571   0.084   2.847
12477SOL    HW238873   5.483   0.185   2.775
12478SOL     OW38874   3.984   0.313   2.578
12478SOL    HW138875   3.898   0.343   2.549
12478SOL    HW238876   3.979   0.316   2.674
12479SOL     OW38877   4.935   1.596   1.894
12479SOL    HW138878   4.921   1.507   1.926
12479SOL    HW238879   4.865   1.611   1.831
12480SOL     OW38880   4.552   1.015   3.228
12480SOL    HW138881   4.588   1.027   3.140
12480SOL    HW238882   4.541   1.104   3.261
12481SOL     OW38883   4.636   0.903   2.149
12481SOL    HW138884   4.694   0.941   2.084
12481SOL    HW238885   4.691   0.842   2.198
12482SOL     OW38886   5.213   1.626   1.909
12482SOL    HW138887   5.119   1.617   1.896
12482SOL    HW238888   5.249   1.633   1.821
12483SOL     OW38889   4.091   1.295   3.348
12483SOL    HW138890   4.079   1.377   3.300
12483SOL    HW238891   4.007   1.250   3.341
12484SOL     OW38892   5.341   1.292   3.148
12484SOL    HW138893   5.386   1.270   3.230
12484SOL    HW238894   5.277   1.359   3.174
12485SOL     OW38895   4.794   1.109   2.569
12485SOL    HW138896   4.720   1.065   2.612
12485SOL    HW238897   4.854   1.038   2.547
12486SOL     OW38898   4.756   0.261   2.801
12486SOL    HW138899   4.755   0.204   2.724
12486SOL    HW238900   4.739   0.202   2.874
12487SOL     OW38901   4.323   1.480   2.338
12487SOL    HW138902   4.371   1.437   2.267
12487SOL    HW238903   4.254   1.530   2.293
12488SOL     OW38904   5.441   0.424   3.237
12488SOL    HW138905   5.513   0.486   3.249
12488SOL    HW238906   5.477   0.357   3.178
12489SOL     OW38907   3.981   1.346   2.146
12489SOL    HW138908   3.888   1.339   2.124
12489SOL    HW238909   3.982   1.386   2.233
12490SOL     OW38910   3.834   1.009   3.575
12490SOL    HW138911   3.761   0.999   3.635
12490SOL    HW238912   3.911   0.986   3.627
12491SOL     OW38913   4.394   0.210   3.345
12491SOL    HW138914   4.470   0.155   3.326
12491SOL    HW238915   4.404   0.234   3.437
12492SOL     OW38916   3.807   0.329   1.896
12492SOL    HW138917   3.713   0.316   1.878
12492SOL    HW238918   3.831   0.406   1.845
12493SOL     OW38919   5.146   0.853   3.250
12493SOL    HW138920   5.095   0.915   3.197
12493SOL    HW238921   5.236   0.862   3.218
12494SOL     OW38922   3.780   0.199   2.158
12494SOL    HW138923   3.787   0.260   2.085
12494SOL    HW238924   3.855   0.140   2.147
12495SOL     OW38925   4.902   1.331   1.983
12495SOL    HW138926   4.809   1.305   1.985
12495SOL    HW238927   4.927   1.336   2.076
12496SOL     OW38928   4.347   0.835   3.294
12496SOL    HW138929   4.400   0.914   3.283
12496SOL    HW238930   4.412   0.766   3.308
12497SOL     OW38931   5.230   1.782   2.827
12497SOL    HW138932   5.241   1.866   2.783
12497SOL    HW238933   5.264   1.797   2.915
12498SOL     OW38934   4.409   0.581   3.556
12498SOL    HW138935   4.466   0.630   3.616
12498SOL    HW238936   4.412   0.491   3.589
12499SOL     OW38937   5.196   1.185   3.491
12499SOL    HW138938   5.179   1.207   3.582
12499SOL    HW238939   5.285   1.215   3.475
12500SOL     OW38940   4.084   1.736   3.415
12500SOL    HW138941   3.999   1.778   3.407
12500SOL    HW238942   4.066   1.655   3.464
12501SOL     OW38943   5.388   0.884   3.115
12501SOL    HW138944   5.381   0.802   3.066
12501SOL    HW238945   5.378   0.953   3.049
12502SOL     OW38946   4.945   0.319   2.314
12502SOL    HW138947   5.014   0.254   2.300
12502SOL    HW238948   4.973   0.368   2.391
12503SOL     OW38949   4.316   0.722   2.532
12503SOL    HW138950   4.353   0.810   2.528
12503SOL    HW238951   4.248   0.721   2.465
12504SOL     OW38952   5.480   0.378   3.501
12504SOL    HW138953   5.458   0.396   3.410
12504SOL    HW238954   5.419   0.309   3.528
12505SOL     OW38955   5.477   0.935   3.372
12505SOL    HW138956   5.458   1.027   3.389
12505SOL    HW238957   5.455   0.923   3.279
12506SOL     OW38958   4.590   1.360   1.912
12506SOL    HW138959   4.554   1.372   2.000
12506SOL    HW238960   4.597   1.449   1.876
12507SOL     OW38961   4.390   1.780   2.779
12507SOL    HW138962   4.366   1.872   2.778
12507SOL    HW238963   4.483   1.779   2.801
12508SOL     OW38964   4.598   0.974   2.715
12508SOL    HW138965   4.651   0.908   2.758
12508SOL    HW238966   4.555   1.021   2.788
12509SOL     OW38967   4.795   0.989   1.951
12509SOL    HW138968   4.775   1.044   1.876
12509SOL    HW238969   4.869   0.936   1.922
12510SOL     OW38970   5.556   1.548   2.705
12510SOL    HW138971   5.476   1.547   2.652
12510SOL    HW238972   5.529   1.510   2.789
12511SOL     OW38973   3.969   1.305   3.735
12511SOL    HW138974   3.879   1.277   3.718
12511SOL    HW238975   3.974   1.316   3.830
12512SOL     OW38976   3.826   1.215   2.529
12512SOL    HW138977   3.853   1.180   2.614
12512SOL    HW238978   3.893   1.182   2.468
12513SOL     OW38979   4.411   1.414   3.495
12513SOL    HW138980   4.333   1.370   3.531
12513SOL    HW238981   4.407   1.503   3.531
12514SOL     OW38982   5.549   0.235   3.086
12514SOL    HW138983   5.499   0.155   3.099
12514SOL    HW238984   5.565   0.238   2.992
12515SOL     OW38985   4.151   0.421   2.394
12515SOL    HW138986   4.150   0.360   2.321
12515SOL    HW238987   4.087   0.386   2.456
12516SOL     OW38988   5.433   1.472   2.943
12516SOL    HW138989   5.347   1.462   2.901
12516SOL    HW238990   5.429   1.414   3.019
12517SOL     OW38991   4.058   0.563   3.155
12517SOL    HW138992   4.109   0.501   3.207
12517SOL    HW238993   4.074   0.537   3.064
12518SOL     OW38994   4.568   1.573   2.535
12518SOL    HW138995   4.540   1.654   2.492
12518SOL    HW238996   4.487   1.522   2.545
12519SOL     OW38997   5.152   0.224   2.976
12519SOL    HW138998   5.214   0.167   3.022
12519SOL    HW238999   5.108   0.272   3.046
12520SOL     OW39000   4.731   0.053   2.978
12520SOL    HW139001   4.707  -0.029   3.022
12520SOL    HW239002   4.827   0.052   2.978
12521SOL     OW39003   4.504   1.331   2.175
12521SOL    HW139004   4.479   1.241   2.196
12521SOL    HW239005   4.577   1.349   2.235
12522SOL     OW39006   4.345   1.552   3.149
12522SOL    HW139007   4.342   1.634   3.197
12522SOL    HW239008   4.433   1.549   3.112
12523SOL     OW39009   5.050   7.972   2.014
12523SOL    HW139010   5.112   7.900   2.011
12523SOL    HW239011   4.966   7.932   2.039
12524SOL     OW39012   5.027   0.463   2.532
12524SOL    HW139013   4.977   0.545   2.535
12524SOL    HW239014   5.024   0.430   2.622
12525SOL     OW39015   5.324   0.217   2.719
12525SOL    HW139016   5.253   0.211   2.783
12525SOL    HW239017   5.310   0.302   2.677
12526SOL     OW39018   3.766   1.062   2.166
12526SOL    HW139019   3.861   1.057   2.152
12526SOL    HW239020   3.739   0.972   2.187
12527SOL     OW39021   4.619   1.666   2.189
12527SOL    HW139022   4.540   1.650   2.136
12527SOL    HW239023   4.592   1.731   2.253
12528SOL     OW39024   3.935   0.622   3.859
12528SOL    HW139025   3.850   0.615   3.903
12528SOL    HW239026   3.915   0.607   3.767
12529SOL     OW39027   3.949   0.299   4.709
12529SOL    HW139028   3.980   0.259   4.791
12529SOL    HW239029   3.862   0.261   4.695
12530SOL     OW39030   3.730   0.396   4.359
12530SOL    HW139031   3.644   0.421   4.393
12530SOL    HW239032   3.721   0.303   4.338
12531SOL     OW39033   4.286   1.294   4.903
12531SOL    HW139034   4.203   1.315   4.859
12531SOL    HW239035   4.313   1.377   4.943
12532SOL     OW39036   5.293   1.519   4.431
12532SOL    HW139037   5.254   1.499   4.516
12532SOL    HW239038   5.218   1.527   4.372
12533SOL     OW39039   4.860   0.691   4.416
12533SOL    HW139040   4.907   0.772   4.399
12533SOL    HW239041   4.815   0.707   4.500
12534SOL     OW39042   5.528   0.590   3.943
12534SOL    HW139043   5.490   0.587   3.855
12534SOL    HW239044   5.479   0.524   3.992
12535SOL     OW39045   4.457   1.130   4.768
12535SOL    HW139046   4.391   1.171   4.824
12535SOL    HW239047   4.506   1.204   4.731
12536SOL     OW39048   4.599   0.752   5.542
12536SOL    HW139049   4.590   0.818   5.611
12536SOL    HW239050   4.620   0.802   5.463
12537SOL     OW39051   4.408   0.987   4.370
12537SOL    HW139052   4.477   0.988   4.437
12537SOL    HW239053   4.341   1.047   4.404
12538SOL     OW39054   4.441   1.154   5.550
12538SOL    HW139055   4.489   1.230   5.583
12538SOL    HW239056   4.364   1.191   5.507
12539SOL     OW39057   4.061   1.412   4.788
12539SOL    HW139058   3.984   1.386   4.739
12539SOL    HW239059   4.109   1.471   4.728
12540SOL     OW39060   5.209   1.491   5.111
12540SOL    HW139061   5.233   1.583   5.097
12540SOL    HW239062   5.120   1.494   5.146
12541SOL     OW39063   4.172   0.377   5.185
12541SOL    HW139064   4.252   0.328   5.197
12541SOL    HW239065   4.102   0.316   5.209
12542SOL     OW39066   5.326   0.456   4.453
12542SOL    HW139067   5.247   0.468   4.400
12542SOL    HW239068   5.324   0.530   4.515
12543SOL     OW39069   3.949   1.693   4.176
12543SOL    HW139070   3.962   1.762   4.242
12543SOL    HW239071   4.029   1.696   4.123
12544SOL     OW39072   4.867   1.341   5.418
12544SOL    HW139073   4.900   1.338   5.508
12544SOL    HW239074   4.815   1.261   5.409
12545SOL     OW39075   3.933   1.437   4.265
12545SOL    HW139076   3.937   1.530   4.243
12545SOL    HW239077   3.890   1.435   4.351
12546SOL     OW39078   3.979   1.094   4.601
12546SOL    HW139079   3.986   1.006   4.639
12546SOL    HW239080   3.927   1.144   4.664
12547SOL     OW39081   4.322   1.782   5.151
12547SOL    HW139082   4.239   1.770   5.196
12547SOL    HW239083   4.349   1.871   5.173
12548SOL     OW39084   4.299   0.990   3.866
12548SOL    HW139085   4.349   1.035   3.798
12548SOL    HW239086   4.336   1.021   3.948
12549SOL     OW39087   5.388   0.118   5.213
12549SOL    HW139088   5.322   0.143   5.148
12549SOL    HW239089   5.347   0.138   5.297
12550SOL     OW39090   3.844   0.658   4.284
12550SOL    HW139091   3.811   0.571   4.308
12550SOL    HW239092   3.833   0.711   4.363
12551SOL     OW39093   5.567   1.748   4.039
12551SOL    HW139094   5.593   1.725   4.128
12551SOL    HW239095   5.585   1.842   4.032
12552SOL     OW39096   3.757   1.589   3.840
12552SOL    HW139097   3.740   1.500   3.870
12552SOL    HW239098   3.733   1.644   3.915
12553SOL     OW39099   5.408   0.918   4.359
12553SOL    HW139100   5.491   0.880   4.332
12553SOL    HW239101   5.385   0.977   4.288
12554SOL     OW39102   5.380   1.104   4.150
12554SOL    HW139103   5.467   1.105   4.110
12554SOL    HW239104   5.384   1.172   4.218
12555SOL     OW39105   3.854   0.752   5.310
12555SOL    HW139106   3.945   0.780   5.310
12555SOL    HW239107   3.804   0.833   5.325
12556SOL     OW39108   4.343   1.395   4.452
12556SOL    HW139109   4.299   1.310   4.461
12556SOL    HW239110   4.325   1.421   4.362
12557SOL     OW39111   4.996   1.205   5.164
12557SOL    HW139112   5.039   1.164   5.089
12557SOL    HW239113   5.065   1.212   5.230
12558SOL     OW39114   4.565   0.028   4.271
12558SOL    HW139115   4.610   0.105   4.238
12558SOL    HW239116   4.476   0.058   4.289
12559SOL     OW39117   3.908   0.953   5.013
12559SOL    HW139118   3.995   0.919   4.996
12559SOL    HW239119   3.861   0.940   4.931
12560SOL     OW39120   5.260   1.001   3.924
12560SOL    HW139121   5.191   0.944   3.956
12560SOL    HW239122   5.300   1.039   4.003
12561SOL     OW39123   4.916   1.819   5.351
12561SOL    HW139124   4.911   1.886   5.282
12561SOL    HW239125   4.922   1.736   5.303
12562SOL     OW39126   4.033   0.225   5.496
12562SOL    HW139127   4.099   0.288   5.523
12562SOL    HW239128   3.957   0.246   5.550
12563SOL     OW39129   5.222   1.401   4.675
12563SOL    HW139130   5.143   1.434   4.717
12563SOL    HW239131   5.198   1.314   4.643
12564SOL     OW39132   5.397   1.748   4.287
12564SOL    HW139133   5.351   1.721   4.207
12564SOL    HW239134   5.366   1.687   4.354
12565SOL     OW39135   4.319   0.717   3.997
12565SOL    HW139136   4.326   0.805   3.961
12565SOL    HW239137   4.254   0.725   4.067
12566SOL     OW39138   5.019   0.369   4.655
12566SOL    HW139139   4.927   0.342   4.658
12566SOL    HW239140   5.062   0.314   4.720
12567SOL     OW39141   5.297   1.682   4.030
12567SOL    HW139142   5.389   1.705   4.017
12567SOL    HW239143   5.264   1.662   3.943
12568SOL     OW39144   4.517   0.626   5.176
12568SOL    HW139145   4.480   0.601   5.260
12568SOL    HW239146   4.479   0.564   5.113
12569SOL     OW39147   5.137   0.492   5.404
12569SOL    HW139148   5.133   0.536   5.489
12569SOL    HW239149   5.214   0.435   5.410
12570SOL     OW39150   4.666   0.889   5.306
12570SOL    HW139151   4.725   0.823   5.268
12570SOL    HW239152   4.627   0.932   5.230
12571SOL     OW39153   4.724   0.410   4.948
12571SOL    HW139154   4.639   0.446   4.975
12571SOL    HW239155   4.709   0.377   4.860
12572SOL     OW39156   4.778   0.696   4.148
12572SOL    HW139157   4.798   0.693   4.241
12572SOL    HW239158   4.692   0.654   4.140
12573SOL     OW39159   3.806   0.817   4.501
12573SOL    HW139160   3.888   0.821   4.550
12573SOL    HW239161   3.753   0.887   4.539
12574SOL     OW39162   3.832   1.833   5.291
12574SOL    HW139163   3.834   1.820   5.386
12574SOL    HW239164   3.811   1.925   5.279
12575SOL     OW39165   4.611   0.350   3.933
12575SOL    HW139166   4.659   0.394   3.862
12575SOL    HW239167   4.605   0.259   3.905
12576SOL     OW39168   5.431   0.572   5.554
12576SOL    HW139169   5.397   0.648   5.508
12576SOL    HW239170   5.457   0.511   5.485
12577SOL     OW39171   5.106   1.144   4.271
12577SOL    HW139172   5.184   1.148   4.216
12577SOL    HW239173   5.046   1.209   4.233
12578SOL     OW39174   4.272   0.251   4.633
12578SOL    HW139175   4.257   0.258   4.727
12578SOL    HW239176   4.272   0.341   4.602
12579SOL     OW39177   4.713   1.442   4.190
12579SOL    HW139178   4.690   1.523   4.143
12579SOL    HW239179   4.695   1.462   4.282
12580SOL     OW39180   4.072   1.818   4.619
12580SOL    HW139181   4.138   1.748   4.620
12580SOL    HW239182   4.123   1.898   4.631
12581SOL     OW39183   5.524   1.046   4.585
12581SOL    HW139184   5.461   1.031   4.514
12581SOL    HW239185   5.469   1.060   4.663
12582SOL     OW39186   4.955   1.529   5.222
12582SOL    HW139187   4.935   1.462   5.287
12582SOL    HW239188   4.898   1.508   5.148
12583SOL     OW39189   4.037   0.967   3.982
12583SOL    HW139190   4.121   0.985   3.940
12583SOL    HW239191   4.009   0.883   3.946
12584SOL     OW39192   5.209   0.745   4.439
12584SOL    HW139193   5.201   0.717   4.530
12584SOL    HW239194   5.281   0.808   4.439
12585SOL     OW39195   4.193   1.260   5.461
12585SOL    HW139196   4.168   1.266   5.369
12585SOL    HW239197   4.110   1.263   5.509
12586SOL     OW39198   4.856   1.779   3.954
12586SOL    HW139199   4.777   1.747   3.998
12586SOL    HW239200   4.876   1.712   3.889
12587SOL     OW39201   3.908   0.254   5.224
12587SOL    HW139202   3.854   0.332   5.208
12587SOL    HW239203   3.923   0.255   5.319
12588SOL     OW39204   5.361   1.377   3.811
12588SOL    HW139205   5.321   1.463   3.804
12588SOL    HW239206   5.290   1.315   3.793
12589SOL     OW39207   4.200   1.721   4.053
12589SOL    HW139208   4.230   1.790   4.112
12589SOL    HW239209   4.272   1.711   3.990
12590SOL     OW39210   5.141   0.129   4.124
12590SOL    HW139211   5.170   0.113   4.035
12590SOL    HW239212   5.222   0.143   4.174
12591SOL     OW39213   3.958   1.783   4.953
12591SOL    HW139214   4.027   1.722   4.980
12591SOL    HW239215   3.968   1.789   4.858
12592SOL     OW39216   4.678   1.692   4.631
12592SOL    HW139217   4.734   1.627   4.675
12592SOL    HW239218   4.637   1.643   4.559
12593SOL     OW39219   4.122   0.689   4.193
12593SOL    HW139220   4.135   0.596   4.214
12593SOL    HW239221   4.029   0.704   4.212
12594SOL     OW39222   5.279   0.207   5.451
12594SOL    HW139223   5.294   0.240   5.539
12594SOL    HW239224   5.185   0.187   5.449
12595SOL     OW39225   4.329   0.148   3.817
12595SOL    HW139226   4.397   0.102   3.867
12595SOL    HW239227   4.294   0.081   3.758
12596SOL     OW39228   4.436   0.299   5.486
12596SOL    HW139229   4.524   0.260   5.487
12596SOL    HW239230   4.395   0.266   5.566
12597SOL     OW39231   4.599   1.504   4.922
12597SOL    HW139232   4.586   1.469   4.834
12597SOL    HW239233   4.684   1.468   4.950
12598SOL     OW39234   5.064   0.592   5.156
12598SOL    HW139235   5.101   0.568   5.241
12598SOL    HW239236   5.095   0.681   5.141
12599SOL     OW39237   4.544   1.377   4.670
12599SOL    HW139238   4.627   1.370   4.623
12599SOL    HW239239   4.480   1.395   4.602
12600SOL     OW39240   4.651   0.516   4.617
12600SOL    HW139241   4.617   0.509   4.528
12600SOL    HW239242   4.689   0.430   4.635
12601SOL     OW39243   4.288   0.019   4.134
12601SOL    HW139244   4.222  -0.012   4.195
12601SOL    HW239245   4.285   0.115   4.142
12602SOL     OW39246   5.148   1.204   3.763
12602SOL    HW139247   5.174   1.131   3.819
12602SOL    HW239248   5.065   1.235   3.800
12603SOL     OW39249   4.029   0.043   3.939
12603SOL    HW139250   4.096   0.111   3.947
12603SOL    HW239251   4.047  -0.017   4.011
12604SOL     OW39252   4.679   0.263   4.188
12604SOL    HW139253   4.645   0.297   4.105
12604SOL    HW239254   4.773   0.282   4.185
12605SOL     OW39255   4.805   0.687   5.183
12605SOL    HW139256   4.739   0.619   5.197
12605SOL    HW239257   4.888   0.640   5.179
12606SOL     OW39258   4.982   1.533   4.486
12606SOL    HW139259   4.980   1.625   4.461
12606SOL    HW239260   4.977   1.534   4.582
12607SOL     OW39261   4.199   1.151   4.444
12607SOL    HW139262   4.131   1.137   4.511
12607SOL    HW239263   4.152   1.144   4.361
12608SOL     OW39264   4.989   1.789   4.336
12608SOL    HW139265   5.030   1.859   4.286
12608SOL    HW239266   4.915   1.831   4.381
12609SOL     OW39267   4.752   0.518   3.746
12609SOL    HW139268   4.705   0.599   3.728
12609SOL    HW239269   4.808   0.539   3.821
12610SOL     OW39270   3.814   0.557   5.126
12610SOL    HW139271   3.904   0.559   5.094
12610SOL    HW239272   3.809   0.630   5.187
12611SOL     OW39273   4.294   0.225   4.918
12611SOL    HW139274   4.332   0.190   4.999
12611SOL    HW239275   4.200   0.222   4.932
12612SOL     OW39276   4.571   0.457   4.361
12612SOL    HW139277   4.543   0.517   4.292
12612SOL    HW239278   4.604   0.380   4.314
12613SOL     OW39279   4.700   0.036   4.510
12613SOL    HW139280   4.656   0.034   4.425
12613SOL    HW239281   4.711  -0.056   4.534
12614SOL     OW39282   5.170   1.146   4.575
12614SOL    HW139283   5.086   1.106   4.598
12614SOL    HW239284   5.165   1.159   4.480
12615SOL     OW39285   5.185   0.610   4.682
12615SOL    HW139286   5.128   0.534   4.688
12615SOL    HW239287   5.241   0.605   4.760
12616SOL     OW39288   5.573   0.806   4.107
12616SOL    HW139289   5.629   0.759   4.168
12616SOL    HW239290   5.551   0.741   4.040
12617SOL     OW39291   4.219   1.420   3.876
12617SOL    HW139292   4.146   1.401   3.936
12617SOL    HW239293   4.193   1.379   3.794
12618SOL     OW39294   5.408   1.278   4.348
12618SOL    HW139295   5.499   1.285   4.375
12618SOL    HW239296   5.367   1.359   4.378
12619SOL     OW39297   5.120   0.580   3.800
12619SOL    HW139298   5.051   0.558   3.863
12619SOL    HW239299   5.201   0.572   3.851
12620SOL     OW39300   4.218   0.278   4.029
12620SOL    HW139301   4.272   0.236   3.962
12620SOL    HW239302   4.199   0.365   3.993
12621SOL     OW39303   5.473   1.236   5.271
12621SOL    HW139304   5.562   1.204   5.261
12621SOL    HW239305   5.483   1.325   5.306
12622SOL     OW39306   4.776   1.338   5.076
12622SOL    HW139307   4.700   1.310   5.126
12622SOL    HW239308   4.850   1.293   5.117
12623SOL     OW39309   5.345   1.629   5.394
12623SOL    HW139310   5.334   1.663   5.306
12623SOL    HW239311   5.422   1.572   5.388
12624SOL     OW39312   4.830   1.191   4.839
12624SOL    HW139313   4.816   1.250   4.913
12624SOL    HW239314   4.840   1.250   4.764
12625SOL     OW39315   5.356   1.099   4.799
12625SOL    HW139316   5.349   1.164   4.869
12625SOL    HW239317   5.281   1.117   4.743
12626SOL     OW39318   4.648   0.123   5.120
12626SOL    HW139319   4.664   0.113   5.026
12626SOL    HW239320   4.734   0.115   5.161
12627SOL     OW39321   4.710   1.113   5.454
12627SOL    HW139322   4.621   1.137   5.477
12627SOL    HW239323   4.701   1.038   5.396
12628SOL     OW39324   4.432   1.057   4.098
12628SOL    HW139325   4.419   1.039   4.191
12628SOL    HW239326   4.506   1.002   4.073
12629SOL     OW39327   4.147   0.821   4.976
12629SOL    HW139328   4.215   0.834   5.042
12629SOL    HW239329   4.112   0.734   4.994
12630SOL     OW39330   4.989   0.380   5.003
12630SOL    HW139331   5.021   0.458   5.047
12630SOL    HW239332   4.899   0.400   4.978
12631SOL     OW39333   3.801   1.569   5.074
12631SOL    HW139334   3.781   1.658   5.047
12631SOL    HW239335   3.897   1.565   5.075
12632SOL     OW39336   4.058   1.127   4.210
12632SOL    HW139337   4.059   1.207   4.156
12632SOL    HW239338   4.054   1.056   4.146
12633SOL     OW39339   4.277   0.519   4.574
12633SOL    HW139340   4.285   0.579   4.500
12633SOL    HW239341   4.338   0.554   4.640
12634SOL     OW39342   4.966   1.352   4.118
12634SOL    HW139343   5.021   1.423   4.150
12634SOL    HW239344   4.878   1.372   4.152
12635SOL     OW39345   5.295   0.634   4.198
12635SOL    HW139346   5.250   0.664   4.277
12635SOL    HW239347   5.327   0.714   4.156
12636SOL     OW39348   4.074   1.516   5.037
12636SOL    HW139349   4.064   1.478   4.950
12636SOL    HW239350   4.167   1.534   5.045
12637SOL     OW39351   4.162   0.733   5.340
12637SOL    HW139352   4.208   0.786   5.275
12637SOL    HW239353   4.226   0.669   5.369
12638SOL     OW39354   5.340   0.784   5.413
12638SOL    HW139355   5.253   0.823   5.406
12638SOL    HW239356   5.391   0.826   5.343
12639SOL     OW39357   4.771   0.077   5.468
12639SOL    HW139358   4.783   0.168   5.440
12639SOL    HW239359   4.677   0.061   5.459
12640SOL     OW39360   4.233   0.029   5.455
12640SOL    HW139361   4.210  -0.029   5.383
12640SOL    HW239362   4.165   0.096   5.455
12641SOL     OW39363   4.312   0.878   4.757
12641SOL    HW139364   4.352   0.965   4.756
12641SOL    HW239365   4.255   0.879   4.835
12642SOL     OW39366   5.055   0.856   4.732
12642SOL    HW139367   4.963   0.837   4.710
12642SOL    HW239368   5.100   0.772   4.722
12643SOL     OW39369   4.914   0.529   3.976
12643SOL    HW139370   4.927   0.453   4.033
12643SOL    HW239371   4.876   0.595   4.033
12644SOL     OW39372   4.026   0.198   4.958
12644SOL    HW139373   3.972   0.217   5.035
12644SOL    HW239374   4.004   0.107   4.935
12645SOL     OW39375   3.745   1.313   5.010
12645SOL    HW139376   3.789   1.262   5.077
12645SOL    HW239377   3.764   1.404   5.032
12646SOL     OW39378   4.431   0.628   4.769
12646SOL    HW139379   4.515   0.627   4.723
12646SOL    HW239380   4.401   0.719   4.762
12647SOL     OW39381   5.471   0.956   5.590
12647SOL    HW139382   5.424   0.893   5.536
12647SOL    HW239383   5.408   0.981   5.658
12648SOL     OW39384   4.136   0.075   4.404
12648SOL    HW139385   4.084   0.154   4.419
12648SOL    HW239386   4.074   0.003   4.415
12649SOL     OW39387   5.363   0.399   4.079
12649SOL    HW139388   5.368   0.329   4.144
12649SOL    HW239389   5.332   0.475   4.129
12650SOL     OW39390   4.767   0.754   4.682
12650SOL    HW139391   4.751   0.771   4.775
12650SOL    HW239392   4.730   0.668   4.666
12651SOL     OW39393   4.710   1.565   5.450
12651SOL    HW139394   4.684   1.612   5.370
12651SOL    HW239395   4.754   1.486   5.418
12652SOL     OW39396   5.578   1.485   5.335
12652SOL    HW139397   5.592   1.517   5.246
12652SOL    HW239398   5.658   1.508   5.382
12653SOL     OW39399   4.075   0.906   5.543
12653SOL    HW139400   4.153   0.943   5.585
12653SOL    HW239401   4.109   0.847   5.476
12654SOL     OW39402   5.301   0.284   3.840
12654SOL    HW139403   5.205   0.285   3.841
12654SOL    HW239404   5.327   0.321   3.924
12655SOL     OW39405   5.004   0.825   3.745
12655SOL    HW139406   5.051   0.742   3.756
12655SOL    HW239407   5.041   0.862   3.664
12656SOL     OW39408   4.769   1.343   4.531
12656SOL    HW139409   4.790   1.263   4.482
12656SOL    HW239410   4.848   1.396   4.524
12657SOL     OW39411   4.035   0.818   4.666
12657SOL    HW139412   4.128   0.842   4.665
12657SOL    HW239413   4.034   0.730   4.703
12658SOL     OW39414   4.060   0.540   4.739
12658SOL    HW139415   4.018   0.456   4.723
12658SOL    HW239416   4.134   0.542   4.679
12659SOL     OW39417   4.895   0.362   5.435
12659SOL    HW139418   4.827   0.420   5.471
12659SOL    HW239419   4.969   0.421   5.419
12660SOL     OW39420   4.902   0.213   5.203
12660SOL    HW139421   4.894   0.268   5.280
12660SOL    HW239422   4.929   0.272   5.133
12661SOL     OW39423   3.730   1.311   3.910
12661SOL    HW139424   3.642   1.329   3.876
12661SOL    HW239425   3.723   1.224   3.949
12662SOL     OW39426   3.811   1.770   4.663
12662SOL    HW139427   3.799   1.691   4.610
12662SOL    HW239428   3.900   1.798   4.644
12663SOL     OW39429   4.224   1.568   4.634
12663SOL    HW139430   4.289   1.636   4.649
12663SOL    HW239431   4.264   1.510   4.570
12664SOL     OW39432   4.698   0.775   4.942
12664SOL    HW139433   4.752   0.750   5.017
12664SOL    HW239434   4.618   0.810   4.981
12665SOL     OW39435   3.761   0.548   4.846
12665SOL    HW139436   3.841   0.555   4.794
12665SOL    HW239437   3.792   0.553   4.937
12666SOL     OW39438   3.917   0.528   5.451
12666SOL    HW139439   4.006   0.533   5.416
12666SOL    HW239440   3.871   0.601   5.409
12667SOL     OW39441   5.109   0.924   5.376
12667SOL    HW139442   5.129   1.018   5.376
12667SOL    HW239443   5.096   0.902   5.284
12668SOL     OW39444   4.539   0.571   4.099
12668SOL    HW139445   4.543   0.498   4.037
12668SOL    HW239446   4.466   0.625   4.068
12669SOL     OW39447   5.360   0.604   4.893
12669SOL    HW139448   5.350   0.555   4.974
12669SOL    HW239449   5.449   0.584   4.863
12670SOL     OW39450   3.963   1.546   5.444
12670SOL    HW139451   3.942   1.624   5.495
12670SOL    HW239452   3.972   1.476   5.508
12671SOL     OW39453   4.445   0.456   4.978
12671SOL    HW139454   4.386   0.384   4.957
12671SOL    HW239455   4.432   0.519   4.907
12672SOL     OW39456   4.637   1.681   5.207
12672SOL    HW139457   4.621   1.636   5.124
12672SOL    HW239458   4.635   1.774   5.186
12673SOL     OW39459   4.180   0.506   3.886
12673SOL    HW139460   4.238   0.576   3.918
12673SOL    HW239461   4.094   0.547   3.884
12674SOL     OW39462   3.853   1.141   5.201
12674SOL    HW139463   3.858   1.096   5.285
12674SOL    HW239464   3.874   1.073   5.136
12675SOL     OW39465   5.042   1.040   4.935
12675SOL    HW139466   5.056   0.981   4.861
12675SOL    HW239467   4.968   1.096   4.908
12676SOL     OW39468   5.053   0.851   4.023
12676SOL    HW139469   4.984   0.841   4.088
12676SOL    HW239470   5.008   0.846   3.939
12677SOL     OW39471   5.481   1.742   4.866
12677SOL    HW139472   5.549   1.763   4.802
12677SOL    HW239473   5.462   1.650   4.852
12678SOL     OW39474   5.001   1.790   4.844
12678SOL    HW139475   5.071   1.791   4.780
12678SOL    HW239476   4.975   1.698   4.850
12679SOL     OW39477   3.814   1.243   4.755
12679SOL    HW139478   3.799   1.266   4.846
12679SOL    HW239479   3.733   1.268   4.710
12680SOL     OW39480   4.398   1.677   5.460
12680SOL    HW139481   4.335   1.748   5.464
12680SOL    HW239482   4.460   1.703   5.392
12681SOL     OW39483   5.392   0.160   4.232
12681SOL    HW139484   5.468   0.124   4.187
12681SOL    HW239485   5.390   0.115   4.317
12682SOL     OW39486   5.113   1.570   4.207
12682SOL    HW139487   5.165   1.616   4.141
12682SOL    HW239488   5.060   1.637   4.248
12683SOL     OW39489   3.876   1.781   5.561
12683SOL    HW139490   3.820   1.722   5.613
12683SOL    HW239491   3.917   1.838   5.625
12684SOL     OW39492   5.002   0.915   4.371
12684SOL    HW139493   5.079   0.863   4.392
12684SOL    HW239494   5.036   0.996   4.333
12685SOL     OW39495   4.519   1.268   5.167
12685SOL    HW139496   4.490   1.312   5.247
12685SOL    HW239497   4.475   1.316   5.096
12686SOL     OW39498   4.404   1.618   3.878
12686SOL    HW139499   4.406   1.639   3.785
12686SOL    HW239500   4.344   1.544   3.885
12687SOL     OW39501   5.394   1.745   5.129
12687SOL    HW139502   5.405   1.750   5.034
12687SOL    HW239503   5.362   1.832   5.154
12688SOL     OW39504   5.583   0.162   4.663
12688SOL    HW139505   5.574   0.078   4.707
12688SOL    HW239506   5.494   0.183   4.634
12689SOL     OW39507   3.977   0.295   4.436
12689SOL    HW139508   3.901   0.347   4.411
12689SOL    HW239509   3.982   0.303   4.532
12690SOL     OW39510   4.936   1.599   3.755
12690SOL    HW139511   4.922   1.510   3.788
12690SOL    HW239512   4.863   1.614   3.696
12691SOL     OW39513   4.557   1.013   5.081
12691SOL    HW139514   4.596   1.033   4.996
12691SOL    HW239515   4.539   1.099   5.120
12692SOL     OW39516   4.632   0.896   4.008
12692SOL    HW139517   4.692   0.937   3.946
12692SOL    HW239518   4.688   0.839   4.061
12693SOL     OW39519   5.215   1.617   3.772
12693SOL    HW139520   5.121   1.614   3.760
12693SOL    HW239521   5.251   1.627   3.683
12694SOL     OW39522   4.089   1.295   5.216
12694SOL    HW139523   4.084   1.375   5.163
12694SOL    HW239524   4.006   1.251   5.202
12695SOL     OW39525   5.352   1.283   5.010
12695SOL    HW139526   5.393   1.261   5.094
12695SOL    HW239527   5.287   1.350   5.033
12696SOL     OW39528   4.794   1.096   4.419
12696SOL    HW139529   4.720   1.056   4.466
12696SOL    HW239530   4.853   1.023   4.402
12697SOL     OW39531   4.760   0.262   4.666
12697SOL    HW139532   4.743   0.204   4.591
12697SOL    HW239533   4.762   0.202   4.741
12698SOL     OW39534   4.317   1.482   4.195
12698SOL    HW139535   4.364   1.442   4.122
12698SOL    HW239536   4.264   1.551   4.155
12699SOL     OW39537   5.447   0.426   5.101
12699SOL    HW139538   5.523   0.484   5.108
12699SOL    HW239539   5.477   0.352   5.049
12700SOL     OW39540   3.981   1.346   4.015
12700SOL    HW139541   3.889   1.342   3.989
12700SOL    HW239542   3.980   1.384   4.103
12701SOL     OW39543   3.837   1.010   5.440
12701SOL    HW139544   3.762   0.998   5.499
12701SOL    HW239545   3.913   0.983   5.491
12702SOL     OW39546   4.394   0.215   5.214
12702SOL    HW139547   4.473   0.168   5.188
12702SOL    HW239548   4.410   0.241   5.305
12703SOL     OW39549   3.808   0.327   3.748
12703SOL    HW139550   3.713   0.336   3.756
12703SOL    HW239551   3.835   0.404   3.698
12704SOL     OW39552   5.144   0.855   5.110
12704SOL    HW139553   5.093   0.917   5.060
12704SOL    HW239554   5.233   0.864   5.077
12705SOL     OW39555   3.774   0.159   3.996
12705SOL    HW139556   3.789   0.241   3.949
12705SOL    HW239557   3.857   0.112   3.988
12706SOL     OW39558   4.899   1.333   3.844
12706SOL    HW139559   4.805   1.316   3.844
12706SOL    HW239560   4.922   1.337   3.937
12707SOL     OW39561   4.348   0.839   5.156
12707SOL    HW139562   4.399   0.918   5.139
12707SOL    HW239563   4.413   0.770   5.167
12708SOL     OW39564   5.231   1.798   4.690
12708SOL    HW139565   5.248   1.879   4.642
12708SOL    HW239566   5.304   1.790   4.751
12709SOL     OW39567   4.413   0.573   5.420
12709SOL    HW139568   4.469   0.627   5.475
12709SOL    HW239569   4.425   0.484   5.454
12710SOL     OW39570   5.202   1.181   5.355
12710SOL    HW139571   5.186   1.208   5.446
12710SOL    HW239572   5.290   1.214   5.335
12711SOL     OW39573   4.087   1.737   5.282
12711SOL    HW139574   4.003   1.778   5.264
12711SOL    HW239575   4.066   1.655   5.326
12712SOL     OW39576   5.389   0.883   4.977
12712SOL    HW139577   5.378   0.801   4.929
12712SOL    HW239578   5.377   0.952   4.912
12713SOL     OW39579   4.946   0.325   4.169
12713SOL    HW139580   5.010   0.254   4.159
12713SOL    HW239581   4.975   0.372   4.247
12714SOL     OW39582   4.310   0.725   4.396
12714SOL    HW139583   4.350   0.812   4.390
12714SOL    HW239584   4.245   0.724   4.325
12715SOL     OW39585   5.479   0.379   5.367
12715SOL    HW139586   5.461   0.396   5.274
12715SOL    HW239587   5.420   0.307   5.389
12716SOL     OW39588   5.481   0.933   5.233
12716SOL    HW139589   5.460   1.025   5.251
12716SOL    HW239590   5.457   0.921   5.141
12717SOL     OW39591   4.598   1.358   3.776
12717SOL    HW139592   4.559   1.367   3.863
12717SOL    HW239593   4.597   1.447   3.740
12718SOL     OW39594   4.387   1.781   4.643
12718SOL    HW139595   4.355   1.871   4.637
12718SOL    HW239596   4.480   1.790   4.662
12719SOL     OW39597   4.599   0.973   4.577
12719SOL    HW139598   4.653   0.908   4.622
12719SOL    HW239599   4.558   1.023   4.647
12720SOL     OW39600   4.795   0.982   3.814
12720SOL    HW139601   4.776   1.043   3.742
12720SOL    HW239602   4.870   0.931   3.783
12721SOL     OW39603   5.553   1.549   4.569
12721SOL    HW139604   5.474   1.545   4.515
12721SOL    HW239605   5.526   1.512   4.653
12722SOL     OW39606   3.960   1.302   5.593
12722SOL    HW139607   3.874   1.272   5.566
12722SOL    HW239608   3.953   1.313   5.688
12723SOL     OW39609   3.809   1.193   4.394
12723SOL    HW139610   3.859   1.158   4.468
12723SOL    HW239611   3.873   1.205   4.325
12724SOL     OW39612   4.411   1.410   5.373
12724SOL    HW139613   4.326   1.375   5.400
12724SOL    HW239614   4.410   1.502   5.398
12725SOL     OW39615   5.552   0.227   4.952
12725SOL    HW139616   5.484   0.160   4.948
12725SOL    HW239617   5.570   0.248   4.861
12726SOL     OW39618   4.151   0.428   4.258
12726SOL    HW139619   4.179   0.363   4.194
12726SOL    HW239620   4.096   0.380   4.320
12727SOL     OW39621   5.440   1.476   4.814
12727SOL    HW139622   5.358   1.458   4.767
12727SOL    HW239623   5.437   1.418   4.890
12728SOL     OW39624   4.060   0.562   5.018
12728SOL    HW139625   4.112   0.501   5.069
12728SOL    HW239626   4.079   0.539   4.927
12729SOL     OW39627   4.561   1.589   4.396
12729SOL    HW139628   4.533   1.667   4.348
12729SOL    HW239629   4.483   1.535   4.402
12730SOL     OW39630   5.152   0.222   4.842
12730SOL    HW139631   5.211   0.167   4.893
12730SOL    HW239632   5.101   0.269   4.908
12731SOL     OW39633   4.735   0.071   4.856
12731SOL    HW139634   4.650   0.041   4.825
12731SOL    HW239635   4.780  -0.009   4.885
12732SOL     OW39636   4.508   1.327   4.036
12732SOL    HW139637   4.479   1.239   4.061
12732SOL    HW239638   4.577   1.349   4.098
12733SOL     OW39639   4.348   1.545   5.018
12733SOL    HW139640   4.346   1.629   5.064
12733SOL    HW239641   4.436   1.542   4.979
12734SOL     OW39642   5.070   7.974   3.840
12734SOL    HW139643   5.124   7.897   3.854
12734SOL    HW239644   5.010   7.975   3.915
12735SOL     OW39645   5.024   0.462   4.395
12735SOL    HW139646   4.972   0.542   4.397
12735SOL    HW239647   5.023   0.430   4.485
12736SOL     OW39648   5.331   0.223   4.596
12736SOL    HW139649   5.255   0.226   4.654
12736SOL    HW239650   5.323   0.303   4.543
12737SOL     OW39651   3.761   1.063   4.031
12737SOL    HW139652   3.856   1.060   4.020
12737SOL    HW239653   3.737   0.972   4.049
12738SOL     OW39654   4.619   1.665   4.054
12738SOL    HW139655   4.544   1.650   3.996
12738SOL    HW239656   4.589   1.731   4.116
12739SOL     OW39657   3.935   0.618   5.722
12739SOL    HW139658   3.847   0.615   5.760
12739SOL    HW239659   3.921   0.609   5.628
12740SOL     OW39660   3.949   0.296   6.562
12740SOL    HW139661   3.983   0.262   6.644
12740SOL    HW239662   3.862   0.257   6.553
12741SOL     OW39663   3.727   0.404   6.218
12741SOL    HW139664   3.644   0.432   6.257
12741SOL    HW239665   3.704   0.325   6.169
12742SOL     OW39666   4.293   1.297   6.774
12742SOL    HW139667   4.210   1.306   6.728
12742SOL    HW239668   4.308   1.383   6.813
12743SOL     OW39669   5.294   1.515   6.294
12743SOL    HW139670   5.248   1.496   6.375
12743SOL    HW239671   5.225   1.524   6.228
12744SOL     OW39672   4.865   0.694   6.280
12744SOL    HW139673   4.909   0.778   6.264
12744SOL    HW239674   4.815   0.709   6.360
12745SOL     OW39675   5.524   0.594   5.806
12745SOL    HW139676   5.489   0.592   5.717
12745SOL    HW239677   5.477   0.524   5.852
12746SOL     OW39678   4.469   1.135   6.643
12746SOL    HW139679   4.401   1.175   6.697
12746SOL    HW239680   4.509   1.209   6.597
12747SOL     OW39681   4.599   0.753   7.403
12747SOL    HW139682   4.583   0.822   7.468
12747SOL    HW239683   4.621   0.800   7.323
12748SOL     OW39684   4.411   0.988   6.232
12748SOL    HW139685   4.477   0.990   6.301
12748SOL    HW239686   4.343   1.047   6.263
12749SOL     OW39687   4.438   1.167   7.417
12749SOL    HW139688   4.480   1.251   7.437
12749SOL    HW239689   4.355   1.191   7.376
12750SOL     OW39690   4.066   1.402   6.649
12750SOL    HW139691   3.985   1.370   6.610
12750SOL    HW239692   4.102   1.462   6.584
12751SOL     OW39693   5.183   1.503   6.953
12751SOL    HW139694   5.235   1.582   6.964
12751SOL    HW239695   5.107   1.516   7.011
12752SOL     OW39696   4.172   0.383   7.067
12752SOL    HW139697   4.248   0.325   7.071
12752SOL    HW239698   4.097   0.324   7.069
12753SOL     OW39699   5.328   0.456   6.309
12753SOL    HW139700   5.248   0.465   6.256
12753SOL    HW239701   5.331   0.536   6.362
12754SOL     OW39702   3.952   1.710   6.048
12754SOL    HW139703   3.968   1.784   6.106
12754SOL    HW239704   4.028   1.708   5.990
12755SOL     OW39705   4.866   1.335   7.274
12755SOL    HW139706   4.905   1.332   7.362
12755SOL    HW239707   4.812   1.256   7.269
12756SOL     OW39708   3.943   1.448   6.126
12756SOL    HW139709   3.944   1.542   6.110
12756SOL    HW239710   3.890   1.437   6.205
12757SOL     OW39711   3.993   1.090   6.468
12757SOL    HW139712   3.985   1.003   6.506
12757SOL    HW239713   3.942   1.147   6.525
12758SOL     OW39714   4.344   1.770   7.038
12758SOL    HW139715   4.254   1.762   7.069
12758SOL    HW239716   4.364   1.863   7.046
12759SOL     OW39717   4.302   0.990   5.729
12759SOL    HW139718   4.349   1.037   5.660
12759SOL    HW239719   4.340   1.022   5.811
12760SOL     OW39720   5.391   0.115   7.081
12760SOL    HW139721   5.328   0.112   7.009
12760SOL    HW239722   5.341   0.146   7.156
12761SOL     OW39723   3.850   0.657   6.148
12761SOL    HW139724   3.811   0.573   6.172
12761SOL    HW239725   3.837   0.712   6.226
12762SOL     OW39726   5.570   1.749   5.906
12762SOL    HW139727   5.633   1.727   5.975
12762SOL    HW239728   5.582   1.843   5.892
12763SOL     OW39729   3.758   1.585   5.707
12763SOL    HW139730   3.742   1.495   5.736
12763SOL    HW239731   3.736   1.639   5.783
12764SOL     OW39732   5.413   0.921   6.223
12764SOL    HW139733   5.486   0.875   6.182
12764SOL    HW239734   5.383   0.983   6.156
12765SOL     OW39735   5.374   1.107   6.016
12765SOL    HW139736   5.460   1.107   5.975
12765SOL    HW239737   5.380   1.172   6.086
12766SOL     OW39738   3.836   0.751   7.175
12766SOL    HW139739   3.921   0.793   7.162
12766SOL    HW239740   3.772   0.823   7.168
12767SOL     OW39741   4.342   1.393   6.319
12767SOL    HW139742   4.297   1.308   6.325
12767SOL    HW239743   4.325   1.423   6.230
12768SOL     OW39744   5.004   1.229   7.007
12768SOL    HW139745   5.035   1.163   6.944
12768SOL    HW239746   5.067   1.225   7.079
12769SOL     OW39747   4.566   0.034   6.148
12769SOL    HW139748   4.602   0.115   6.112
12769SOL    HW239749   4.473   0.039   6.129
12770SOL     OW39750   3.872   0.890   6.844
12770SOL    HW139751   3.965   0.914   6.839
12770SOL    HW239752   3.826   0.973   6.850
12771SOL     OW39753   5.260   0.999   5.787
12771SOL    HW139754   5.190   0.942   5.820
12771SOL    HW239755   5.298   1.038   5.866
12772SOL     OW39756   4.913   1.825   7.220
12772SOL    HW139757   4.911   1.895   7.154
12772SOL    HW239758   4.931   1.746   7.170
12773SOL     OW39759   4.046   0.229   7.376
12773SOL    HW139760   4.101   0.306   7.386
12773SOL    HW239761   3.964   0.252   7.420
12774SOL     OW39762   5.196   1.415   6.536
12774SOL    HW139763   5.125   1.434   6.598
12774SOL    HW239764   5.178   1.325   6.507
12775SOL     OW39765   5.390   1.752   6.159
12775SOL    HW139766   5.359   1.725   6.072
12775SOL    HW239767   5.360   1.683   6.218
12776SOL     OW39768   4.319   0.721   5.858
12776SOL    HW139769   4.323   0.807   5.817
12776SOL    HW239770   4.255   0.730   5.929
12777SOL     OW39771   5.024   0.371   6.521
12777SOL    HW139772   4.932   0.346   6.521
12777SOL    HW239773   5.065   0.315   6.586
12778SOL     OW39774   5.303   1.671   5.900
12778SOL    HW139775   5.394   1.698   5.886
12778SOL    HW239776   5.268   1.659   5.811
12779SOL     OW39777   4.532   0.619   7.042
12779SOL    HW139778   4.483   0.602   7.123
12779SOL    HW239779   4.488   0.566   6.976
12780SOL     OW39780   5.138   0.494   7.263
12780SOL    HW139781   5.137   0.537   7.349
12780SOL    HW239782   5.211   0.432   7.268
12781SOL     OW39783   4.666   0.892   7.170
12781SOL    HW139784   4.725   0.827   7.132
12781SOL    HW239785   4.624   0.934   7.095
12782SOL     OW39786   4.719   0.408   6.814
12782SOL    HW139787   4.630   0.436   6.834
12782SOL    HW239788   4.715   0.378   6.722
12783SOL     OW39789   4.782   0.694   6.011
12783SOL    HW139790   4.800   0.689   6.104
12783SOL    HW239791   4.695   0.654   6.001
12784SOL     OW39792   3.803   0.820   6.364
12784SOL    HW139793   3.885   0.817   6.412
12784SOL    HW239794   3.755   0.893   6.403
12785SOL     OW39795   3.855   1.864   7.170
12785SOL    HW139796   3.853   1.842   7.263
12785SOL    HW239797   3.764   1.855   7.140
12786SOL     OW39798   4.610   0.354   5.793
12786SOL    HW139799   4.654   0.405   5.725
12786SOL    HW239800   4.607   0.265   5.759
12787SOL     OW39801   5.437   0.575   7.416
12787SOL    HW139802   5.401   0.650   7.370
12787SOL    HW239803   5.457   0.512   7.347
12788SOL     OW39804   5.104   1.144   6.126
12788SOL    HW139805   5.182   1.141   6.070
12788SOL    HW239806   5.047   1.208   6.084
12789SOL     OW39807   4.270   0.212   6.523
12789SOL    HW139808   4.255   0.283   6.585
12789SOL    HW239809   4.295   0.256   6.442
12790SOL     OW39810   4.717   1.448   6.052
12790SOL    HW139811   4.691   1.521   5.996
12790SOL    HW239812   4.686   1.473   6.139
12791SOL     OW39813   4.073   1.819   6.465
12791SOL    HW139814   4.126   1.739   6.470
12791SOL    HW239815   4.134   1.890   6.482
12792SOL     OW39816   5.527   1.039   6.454
12792SOL    HW139817   5.472   1.025   6.377
12792SOL    HW239818   5.465   1.054   6.526
12793SOL     OW39819   4.947   1.544   7.091
12793SOL    HW139820   4.931   1.466   7.143
12793SOL    HW239821   4.860   1.568   7.057
12794SOL     OW39822   4.039   0.965   5.843
12794SOL    HW139823   4.123   0.988   5.803
12794SOL    HW239824   4.008   0.889   5.793
12795SOL     OW39825   5.212   0.749   6.302
12795SOL    HW139826   5.204   0.719   6.392
12795SOL    HW239827   5.286   0.810   6.303
12796SOL     OW39828   4.183   1.248   7.335
12796SOL    HW139829   4.167   1.263   7.242
12796SOL    HW239830   4.096   1.253   7.376
12797SOL     OW39831   4.858   1.769   5.824
12797SOL    HW139832   4.774   1.739   5.859
12797SOL    HW239833   4.877   1.709   5.752
12798SOL     OW39834   3.905   0.276   7.085
12798SOL    HW139835   3.867   0.357   7.053
12798SOL    HW239836   3.907   0.286   7.180
12799SOL     OW39837   5.361   1.380   5.680
12799SOL    HW139838   5.321   1.467   5.669
12799SOL    HW239839   5.290   1.319   5.659
12800SOL     OW39840   4.202   1.721   5.917
12800SOL    HW139841   4.237   1.791   5.973
12800SOL    HW239842   4.267   1.712   5.847
12801SOL     OW39843   5.141   0.130   5.992
12801SOL    HW139844   5.153   0.105   5.900
12801SOL    HW239845   5.229   0.145   6.024
12802SOL     OW39846   3.972   1.787   6.812
12802SOL    HW139847   4.013   1.711   6.852
12802SOL    HW239848   3.976   1.769   6.718
12803SOL     OW39849   4.666   1.701   6.481
12803SOL    HW139850   4.745   1.652   6.500
12803SOL    HW239851   4.623   1.653   6.410
12804SOL     OW39852   4.127   0.684   6.060
12804SOL    HW139853   4.142   0.592   6.082
12804SOL    HW239854   4.033   0.697   6.077
12805SOL     OW39855   5.273   0.211   7.311
12805SOL    HW139856   5.284   0.244   7.400
12805SOL    HW239857   5.181   0.184   7.307
12806SOL     OW39858   4.321   0.139   5.687
12806SOL    HW139859   4.395   0.094   5.728
12806SOL    HW239860   4.297   0.083   5.613
12807SOL     OW39861   4.437   0.303   7.354
12807SOL    HW139862   4.529   0.279   7.351
12807SOL    HW239863   4.403   0.262   7.433
12808SOL     OW39864   4.595   1.515   6.777
12808SOL    HW139865   4.576   1.482   6.690
12808SOL    HW239866   4.667   1.461   6.809
12809SOL     OW39867   5.062   0.592   7.016
12809SOL    HW139868   5.100   0.568   7.101
12809SOL    HW239869   5.094   0.681   7.001
12810SOL     OW39870   4.547   1.378   6.530
12810SOL    HW139871   4.632   1.375   6.487
12810SOL    HW239872   4.485   1.395   6.460
12811SOL     OW39873   4.651   0.518   6.479
12811SOL    HW139874   4.623   0.513   6.388
12811SOL    HW239875   4.689   0.432   6.498
12812SOL     OW39876   4.315   0.038   6.016
12812SOL    HW139877   4.242  -0.009   6.057
12812SOL    HW239878   4.281   0.125   5.998
12813SOL     OW39879   5.151   1.208   5.627
12813SOL    HW139880   5.173   1.132   5.681
12813SOL    HW239881   5.065   1.236   5.659
12814SOL     OW39882   4.021   0.052   5.791
12814SOL    HW139883   4.095   0.110   5.778
12814SOL    HW239884   4.052  -0.013   5.854
12815SOL     OW39885   4.675   0.264   6.048
12815SOL    HW139886   4.644   0.299   5.964
12815SOL    HW239887   4.769   0.280   6.048
12816SOL     OW39888   4.807   0.695   7.049
12816SOL    HW139889   4.735   0.631   7.049
12816SOL    HW239890   4.886   0.642   7.038
12817SOL     OW39891   4.950   1.576   6.383
12817SOL    HW139892   4.954   1.637   6.310
12817SOL    HW239893   5.006   1.614   6.450
12818SOL     OW39894   4.202   1.151   6.304
12818SOL    HW139895   4.136   1.133   6.371
12818SOL    HW239896   4.155   1.145   6.221
12819SOL     OW39897   4.984   1.789   6.202
12819SOL    HW139898   5.030   1.852   6.147
12819SOL    HW239899   4.911   1.839   6.240
12820SOL     OW39900   4.744   0.522   5.613
12820SOL    HW139901   4.700   0.604   5.589
12820SOL    HW239902   4.806   0.547   5.681
12821SOL     OW39903   3.819   0.544   7.000
12821SOL    HW139904   3.905   0.556   6.960
12821SOL    HW239905   3.808   0.621   7.055
12822SOL     OW39906   4.296   0.242   6.809
12822SOL    HW139907   4.327   0.197   6.887
12822SOL    HW239908   4.201   0.229   6.810
12823SOL     OW39909   4.591   0.473   6.220
12823SOL    HW139910   4.554   0.527   6.149
12823SOL    HW239911   4.606   0.388   6.180
12824SOL     OW39912   4.684   0.036   6.390
12824SOL    HW139913   4.643   0.041   6.303
12824SOL    HW239914   4.715  -0.055   6.396
12825SOL     OW39915   5.167   1.156   6.442
12825SOL    HW139916   5.083   1.110   6.443
12825SOL    HW239917   5.187   1.168   6.349
12826SOL     OW39918   5.186   0.612   6.545
12826SOL    HW139919   5.132   0.533   6.546
12826SOL    HW239920   5.242   0.604   6.623
12827SOL     OW39921   5.568   0.805   5.978
12827SOL    HW139922   5.629   0.757   6.034
12827SOL    HW239923   5.546   0.744   5.907
12828SOL     OW39924   4.216   1.419   5.734
12828SOL    HW139925   4.143   1.397   5.792
12828SOL    HW239926   4.196   1.373   5.652
12829SOL     OW39927   5.401   1.266   6.229
12829SOL    HW139928   5.496   1.270   6.244
12829SOL    HW239929   5.370   1.354   6.249
12830SOL     OW39930   5.120   0.580   5.660
12830SOL    HW139931   5.054   0.557   5.725
12830SOL    HW239932   5.204   0.569   5.706
12831SOL     OW39933   4.221   0.275   5.898
12831SOL    HW139934   4.269   0.230   5.828
12831SOL    HW239935   4.202   0.362   5.862
12832SOL     OW39936   5.472   1.242   7.137
12832SOL    HW139937   5.560   1.210   7.120
12832SOL    HW239938   5.485   1.331   7.170
12833SOL     OW39939   4.774   1.337   6.901
12833SOL    HW139940   4.697   1.318   6.955
12833SOL    HW239941   4.848   1.305   6.953
12834SOL     OW39942   5.338   1.621   7.247
12834SOL    HW139943   5.325   1.661   7.161
12834SOL    HW239944   5.421   1.574   7.240
12835SOL     OW39945   4.856   1.196   6.679
12835SOL    HW139946   4.805   1.241   6.747
12835SOL    HW239947   4.835   1.243   6.598
12836SOL     OW39948   5.348   1.096   6.659
12836SOL    HW139949   5.338   1.163   6.727
12836SOL    HW239950   5.275   1.114   6.599
12837SOL     OW39951   4.648   0.123   6.984
12837SOL    HW139952   4.662   0.114   6.889
12837SOL    HW239953   4.736   0.117   7.021
12838SOL     OW39954   4.702   1.115   7.320
12838SOL    HW139955   4.611   1.136   7.343
12838SOL    HW239956   4.696   1.040   7.261
12839SOL     OW39957   4.434   1.058   5.960
12839SOL    HW139958   4.420   1.038   6.053
12839SOL    HW239959   4.509   1.005   5.936
12840SOL     OW39960   4.160   0.820   6.829
12840SOL    HW139961   4.219   0.830   6.903
12840SOL    HW239962   4.106   0.744   6.852
12841SOL     OW39963   4.985   0.377   6.869
12841SOL    HW139964   5.018   0.457   6.909
12841SOL    HW239965   4.896   0.398   6.843
12842SOL     OW39966   3.787   1.590   6.954
12842SOL    HW139967   3.768   1.662   6.893
12842SOL    HW239968   3.877   1.565   6.935
12843SOL     OW39969   4.057   1.128   6.071
12843SOL    HW139970   4.055   1.206   6.015
12843SOL    HW239971   4.056   1.054   6.010
12844SOL     OW39972   4.274   0.524   6.443
12844SOL    HW139973   4.284   0.584   6.368
12844SOL    HW239974   4.339   0.554   6.506
12845SOL     OW39975   4.966   1.351   5.985
12845SOL    HW139976   5.021   1.424   6.013
12845SOL    HW239977   4.878   1.375   6.014
12846SOL     OW39978   5.017   1.460   6.739
12846SOL    HW139979   5.072   1.469   6.817
12846SOL    HW239980   4.946   1.403   6.767
12847SOL     OW39981   5.294   0.633   6.062
12847SOL    HW139982   5.249   0.669   6.139
12847SOL    HW239983   5.321   0.710   6.012
12848SOL     OW39984   4.061   1.529   6.888
12848SOL    HW139985   4.052   1.478   6.807
12848SOL    HW239986   4.155   1.542   6.898
12849SOL     OW39987   4.154   0.733   7.203
12849SOL    HW139988   4.196   0.791   7.139
12849SOL    HW239989   4.219   0.665   7.220
12850SOL     OW39990   5.341   0.787   7.277
12850SOL    HW139991   5.253   0.825   7.270
12850SOL    HW239992   5.390   0.826   7.205
12851SOL     OW39993   4.770   0.081   7.336
12851SOL    HW139994   4.783   0.168   7.298
12851SOL    HW239995   4.677   0.062   7.323
12852SOL     OW39996   4.234   0.031   7.321
12852SOL    HW139997   4.208  -0.023   7.245
12852SOL    HW239998   4.166   0.098   7.326
12853SOL     OW39999   4.320   0.875   6.615
12853SOL    HW140000   4.345   0.967   6.614
12853SOL    HW240001   4.258   0.867   6.688
12854SOL     OW40002   5.061   0.853   6.605
12854SOL    HW140003   4.973   0.843   6.569
12854SOL    HW240004   5.104   0.769   6.587
12855SOL     OW40005   4.920   0.527   5.841
12855SOL    HW140006   4.929   0.450   5.897
12855SOL    HW240007   4.880   0.593   5.898
12856SOL     OW40008   4.026   0.199   6.817
12856SOL    HW140009   3.952   0.214   6.875
12856SOL    HW240010   4.008   0.114   6.776
12857SOL     OW40011   4.440   0.629   6.634
12857SOL    HW140012   4.517   0.622   6.577
12857SOL    HW240013   4.409   0.718   6.620
12858SOL     OW40014   5.474   0.956   7.454
12858SOL    HW140015   5.428   0.893   7.399
12858SOL    HW240016   5.410   0.981   7.520
12859SOL     OW40017   4.139   0.081   6.260
12859SOL    HW140018   4.077   0.153   6.273
12859SOL    HW240019   4.089   0.014   6.213
12860SOL     OW40020   5.365   0.400   5.944
12860SOL    HW140021   5.372   0.329   6.007
12860SOL    HW240022   5.332   0.474   5.994
12861SOL     OW40023   4.761   0.759   6.541
12861SOL    HW140024   4.749   0.774   6.635
12861SOL    HW240025   4.726   0.671   6.526
12862SOL     OW40026   4.711   1.556   7.307
12862SOL    HW140027   4.686   1.606   7.230
12862SOL    HW240028   4.759   1.481   7.272
12863SOL     OW40029   5.582   1.495   7.190
12863SOL    HW140030   5.596   1.527   7.101
12863SOL    HW240031   5.660   1.521   7.238
12864SOL     OW40032   4.072   0.886   7.420
12864SOL    HW140033   4.152   0.932   7.443
12864SOL    HW240034   4.095   0.834   7.343
12865SOL     OW40035   5.308   0.289   5.702
12865SOL    HW140036   5.213   0.287   5.701
12865SOL    HW240037   5.331   0.326   5.788
12866SOL     OW40038   5.012   0.829   5.612
12866SOL    HW140039   5.054   0.743   5.617
12866SOL    HW240040   5.043   0.866   5.529
12867SOL     OW40041   4.806   1.344   6.447
12867SOL    HW140042   4.809   1.275   6.381
12867SOL    HW240043   4.859   1.415   6.411
12868SOL     OW40044   4.035   0.808   6.516
12868SOL    HW140045   4.127   0.833   6.508
12868SOL    HW240046   4.036   0.730   6.571
12869SOL     OW40047   4.063   0.535   6.609
12869SOL    HW140048   4.017   0.454   6.586
12869SOL    HW240049   4.136   0.540   6.547
12870SOL     OW40050   4.898   0.363   7.297
12870SOL    HW140051   4.826   0.419   7.326
12870SOL    HW240052   4.970   0.423   7.278
12871SOL     OW40053   4.905   0.208   7.066
12871SOL    HW140054   4.894   0.265   7.142
12871SOL    HW240055   4.927   0.266   6.994
12872SOL     OW40056   3.732   1.312   5.782
12872SOL    HW140057   3.644   1.329   5.746
12872SOL    HW240058   3.726   1.223   5.817
12873SOL     OW40059   3.809   1.775   6.524
12873SOL    HW140060   3.786   1.698   6.472
12873SOL    HW240061   3.898   1.796   6.496
12874SOL     OW40062   4.215   1.574   6.490
12874SOL    HW140063   4.282   1.640   6.509
12874SOL    HW240064   4.257   1.514   6.429
12875SOL     OW40065   4.703   0.776   6.804
12875SOL    HW140066   4.758   0.765   6.881
12875SOL    HW240067   4.614   0.774   6.838
12876SOL     OW40068   3.763   0.531   6.714
12876SOL    HW140069   3.828   0.558   6.649
12876SOL    HW240070   3.796   0.566   6.796
12877SOL     OW40071   3.927   0.527   7.306
12877SOL    HW140072   4.012   0.534   7.262
12877SOL    HW240073   3.875   0.599   7.269
12878SOL     OW40074   5.109   0.926   7.240
12878SOL    HW140075   5.129   1.020   7.236
12878SOL    HW240076   5.100   0.900   7.148
12879SOL     OW40077   4.539   0.575   5.960
12879SOL    HW140078   4.544   0.502   5.898
12879SOL    HW240079   4.466   0.629   5.928
12880SOL     OW40080   5.359   0.604   6.759
12880SOL    HW140081   5.350   0.551   6.838
12880SOL    HW240082   5.447   0.584   6.727
12881SOL     OW40083   3.976   1.553   7.311
12881SOL    HW140084   3.948   1.628   7.364
12881SOL    HW240085   3.966   1.478   7.369
12882SOL     OW40086   4.449   0.462   6.844
12882SOL    HW140087   4.391   0.388   6.827
12882SOL    HW240088   4.435   0.521   6.769
12883SOL     OW40089   4.678   1.663   7.045
12883SOL    HW140090   4.629   1.629   6.970
12883SOL    HW240091   4.667   1.758   7.040
12884SOL     OW40092   4.179   0.504   5.763
12884SOL    HW140093   4.237   0.576   5.787
12884SOL    HW240094   4.093   0.544   5.753
12885SOL     OW40095   3.944   1.106   7.089
12885SOL    HW140096   3.893   1.078   7.165
12885SOL    HW240097   3.877   1.131   7.024
12886SOL     OW40098   5.041   1.039   6.802
12886SOL    HW140099   5.061   0.976   6.732
12886SOL    HW240100   4.975   1.097   6.764
12887SOL     OW40101   5.050   0.849   5.887
12887SOL    HW140102   4.974   0.834   5.942
12887SOL    HW240103   5.017   0.845   5.798
12888SOL     OW40104   5.504   1.729   6.751
12888SOL    HW140105   5.565   1.758   6.682
12888SOL    HW240106   5.473   1.644   6.720
12889SOL     OW40107   4.965   1.727   6.681
12889SOL    HW140108   5.048   1.753   6.641
12889SOL    HW240109   4.978   1.635   6.706
12890SOL     OW40110   3.826   1.259   6.597
12890SOL    HW140111   3.807   1.246   6.690
12890SOL    HW240112   3.745   1.232   6.552
12891SOL     OW40113   4.390   1.679   7.321
12891SOL    HW140114   4.324   1.746   7.338
12891SOL    HW240115   4.430   1.705   7.238
12892SOL     OW40116   5.405   0.157   6.082
12892SOL    HW140117   5.452   0.111   6.012
12892SOL    HW240118   5.399   0.092   6.152
12893SOL     OW40119   5.117   1.570   6.081
12893SOL    HW140120   5.172   1.605   6.011
12893SOL    HW240121   5.063   1.643   6.108
12894SOL     OW40122   3.875   1.782   7.430
12894SOL    HW140123   3.824   1.719   7.481
12894SOL    HW240124   3.915   1.839   7.495
12895SOL     OW40125   5.003   0.924   6.246
12895SOL    HW140126   5.079   0.869   6.258
12895SOL    HW240127   5.036   1.000   6.198
12896SOL     OW40128   4.523   1.283   7.016
12896SOL    HW140129   4.497   1.324   7.098
12896SOL    HW240130   4.456   1.310   6.953
12897SOL     OW40131   4.406   1.614   5.737
12897SOL    HW140132   4.409   1.639   5.645
12897SOL    HW240133   4.343   1.542   5.740
12898SOL     OW40134   5.343   1.727   6.983
12898SOL    HW140135   5.394   1.733   6.902
12898SOL    HW240136   5.329   1.819   7.009
12899SOL     OW40137   5.580   0.169   6.540
12899SOL    HW140138   5.572   0.079   6.570
12899SOL    HW240139   5.493   0.191   6.505
12900SOL     OW40140   3.970   0.295   6.288
12900SOL    HW140141   3.893   0.346   6.265
12900SOL    HW240142   3.978   0.304   6.383
12901SOL     OW40143   4.937   1.600   5.619
12901SOL    HW140144   4.920   1.509   5.644
12901SOL    HW240145   4.872   1.619   5.551
12902SOL     OW40146   4.548   1.018   6.953
12902SOL    HW140147   4.565   1.025   6.859
12902SOL    HW240148   4.538   1.108   6.983
12903SOL     OW40149   4.639   0.903   5.882
12903SOL    HW140150   4.695   0.939   5.813
12903SOL    HW240151   4.694   0.839   5.927
12904SOL     OW40152   5.216   1.621   5.638
12904SOL    HW140153   5.122   1.617   5.623
12904SOL    HW240154   5.254   1.632   5.550
12905SOL     OW40155   4.120   1.315   7.082
12905SOL    HW140156   4.084   1.385   7.028
12905SOL    HW240157   4.060   1.242   7.070
12906SOL     OW40158   5.336   1.291   6.864
12906SOL    HW140159   5.387   1.272   6.943
12906SOL    HW240160   5.272   1.356   6.892
12907SOL     OW40161   4.796   1.113   6.303
12907SOL    HW140162   4.719   1.069   6.339
12907SOL    HW240163   4.852   1.042   6.271
12908SOL     OW40164   4.766   0.267   6.533
12908SOL    HW140165   4.740   0.213   6.458
12908SOL    HW240166   4.769   0.206   6.607
12909SOL     OW40167   4.327   1.492   6.066
12909SOL    HW140168   4.372   1.444   5.997
12909SOL    HW240169   4.270   1.553   6.019
12910SOL     OW40170   5.449   0.426   6.967
12910SOL    HW140171   5.527   0.481   6.969
12910SOL    HW240172   5.475   0.350   6.914
12911SOL     OW40173   3.984   1.342   5.883
12911SOL    HW140174   3.891   1.339   5.858
12911SOL    HW240175   3.985   1.386   5.967
12912SOL     OW40176   3.838   1.018   7.331
12912SOL    HW140177   3.760   0.995   7.381
12912SOL    HW240178   3.909   0.971   7.374
12913SOL     OW40179   4.389   0.203   7.083
12913SOL    HW140180   4.472   0.164   7.053
12913SOL    HW240181   4.410   0.239   7.169
12914SOL     OW40182   3.808   0.328   5.613
12914SOL    HW140183   3.714   0.328   5.595
12914SOL    HW240184   3.841   0.406   5.568
12915SOL     OW40185   5.146   0.855   6.977
12915SOL    HW140186   5.093   0.915   6.925
12915SOL    HW240187   5.234   0.861   6.940
12916SOL     OW40188   3.792   0.184   5.893
12916SOL    HW140189   3.787   0.256   5.831
12916SOL    HW240190   3.865   0.130   5.861
12917SOL     OW40191   4.897   1.330   5.703
12917SOL    HW140192   4.802   1.321   5.698
12917SOL    HW240193   4.916   1.333   5.797
12918SOL     OW40194   4.349   0.835   7.027
12918SOL    HW140195   4.396   0.917   7.008
12918SOL    HW240196   4.418   0.769   7.036
12919SOL     OW40197   5.205   1.785   6.558
12919SOL    HW140198   5.207   1.856   6.495
12919SOL    HW240199   5.290   1.788   6.601
12920SOL     OW40200   4.416   0.573   7.280
12920SOL    HW140201   4.471   0.625   7.338
12920SOL    HW240202   4.422   0.484   7.315
12921SOL     OW40203   5.200   1.184   7.213
12921SOL    HW140204   5.185   1.209   7.304
12921SOL    HW240205   5.289   1.214   7.194
12922SOL     OW40206   4.096   1.739   7.142
12922SOL    HW140207   4.017   1.789   7.127
12922SOL    HW240208   4.066   1.659   7.186
12923SOL     OW40209   5.387   0.881   6.840
12923SOL    HW140210   5.378   0.798   6.793
12923SOL    HW240211   5.374   0.948   6.773
12924SOL     OW40212   4.945   0.322   6.036
12924SOL    HW140213   5.009   0.252   6.025
12924SOL    HW240214   4.975   0.370   6.113
12925SOL     OW40215   4.311   0.728   6.261
12925SOL    HW140216   4.352   0.815   6.252
12925SOL    HW240217   4.248   0.724   6.190
12926SOL     OW40218   5.481   0.379   7.232
12926SOL    HW140219   5.466   0.397   7.140
12926SOL    HW240220   5.420   0.308   7.253
12927SOL     OW40221   5.484   0.930   7.094
12927SOL    HW140222   5.463   1.022   7.110
12927SOL    HW240223   5.459   0.916   7.002
12928SOL     OW40224   4.609   1.366   5.642
12928SOL    HW140225   4.557   1.393   5.718
12928SOL    HW240226   4.613   1.443   5.586
12929SOL     OW40227   4.386   1.781   6.513
12929SOL    HW140228   4.359   1.872   6.503
12929SOL    HW240229   4.482   1.784   6.516
12930SOL     OW40230   4.597   0.977   6.442
12930SOL    HW140231   4.647   0.906   6.480
12930SOL    HW240232   4.556   1.021   6.516
12931SOL     OW40233   4.796   0.979   5.678
12931SOL    HW140234   4.774   1.040   5.607
12931SOL    HW240235   4.873   0.931   5.647
12932SOL     OW40236   5.559   1.552   6.430
12932SOL    HW140237   5.485   1.549   6.369
12932SOL    HW240238   5.525   1.513   6.510
12933SOL     OW40239   3.930   1.297   7.431
12933SOL    HW140240   3.883   1.241   7.368
12933SOL    HW240241   3.868   1.309   7.503
12934SOL     OW40242   3.810   1.207   6.252
12934SOL    HW140243   3.851   1.173   6.331
12934SOL    HW240244   3.879   1.201   6.185
12935SOL     OW40245   4.413   1.411   7.232
12935SOL    HW140246   4.321   1.385   7.227
12935SOL    HW240247   4.411   1.501   7.263
12936SOL     OW40248   5.552   0.223   6.820
12936SOL    HW140249   5.483   0.158   6.818
12936SOL    HW240250   5.574   0.238   6.728
12937SOL     OW40251   4.165   0.420   6.128
12937SOL    HW140252   4.174   0.363   6.051
12937SOL    HW240253   4.094   0.380   6.179
12938SOL     OW40254   5.426   1.478   6.666
12938SOL    HW140255   5.344   1.465   6.619
12938SOL    HW240256   5.424   1.415   6.737
12939SOL     OW40257   4.058   0.562   6.883
12939SOL    HW140258   4.119   0.505   6.930
12939SOL    HW240259   4.076   0.544   6.791
12940SOL     OW40260   4.562   1.588   6.253
12940SOL    HW140261   4.546   1.667   6.201
12940SOL    HW240262   4.480   1.538   6.246
12941SOL     OW40263   5.148   0.217   6.710
12941SOL    HW140264   5.210   0.167   6.763
12941SOL    HW240265   5.095   0.265   6.774
12942SOL     OW40266   4.737   0.074   6.721
12942SOL    HW140267   4.651   0.059   6.681
12942SOL    HW240268   4.769  -0.013   6.744
12943SOL     OW40269   4.496   1.331   5.909
12943SOL    HW140270   4.472   1.239   5.923
12943SOL    HW240271   4.576   1.343   5.962
12944SOL     OW40272   4.344   1.547   6.882
12944SOL    HW140273   4.344   1.626   6.936
12944SOL    HW240274   4.428   1.548   6.836
12945SOL     OW40275   5.066   7.975   5.719
12945SOL    HW140276   5.120   7.896   5.723
12945SOL    HW240277   4.994   7.958   5.780
12946SOL     OW40278   5.027   0.464   6.258
12946SOL    HW140279   4.974   0.543   6.259
12946SOL    HW240280   5.025   0.433   6.349
12947SOL     OW40281   5.334   0.229   6.458
12947SOL    HW140282   5.250   0.225   6.505
12947SOL    HW240283   5.327   0.306   6.402
12948SOL     OW40284   3.763   1.061   5.896
12948SOL    HW140285   3.857   1.057   5.882
12948SOL    HW240286   3.738   0.970   5.915
12949SOL     OW40287   4.615   1.664   5.916
12949SOL    HW140288   4.542   1.649   5.856
12949SOL    HW240289   4.585   1.734   5.974
12950SOL     OW40290   3.936   0.611   7.584
12950SOL    HW140291   3.846   0.616   7.616
12950SOL    HW240292   3.929   0.618   7.489
12951SOL     OW40293   3.946   0.300   8.428
12951SOL    HW140294   3.981   0.257   8.506
12951SOL    HW240295   3.859   0.262   8.416
12952SOL     OW40296   3.729   0.403   8.074
12952SOL    HW140297   3.644   0.423   8.114
12952SOL    HW240298   3.710   0.334   8.010
12953SOL     OW40299   4.285   1.298   8.630
12953SOL    HW140300   4.202   1.316   8.585
12953SOL    HW240301   4.308   1.382   8.671
12954SOL     OW40302   5.293   1.514   8.156
12954SOL    HW140303   5.249   1.500   8.240
12954SOL    HW240304   5.223   1.524   8.092
12955SOL     OW40305   4.859   0.698   8.143
12955SOL    HW140306   4.906   0.779   8.126
12955SOL    HW240307   4.815   0.713   8.226
12956SOL     OW40308   5.524   0.591   7.670
12956SOL    HW140309   5.490   0.590   7.581
12956SOL    HW240310   5.477   0.520   7.714
12957SOL     OW40311   4.444   1.142   8.479
12957SOL    HW140312   4.385   1.181   8.542
12957SOL    HW240313   4.492   1.215   8.442
12958SOL     OW40314   4.603   0.752   9.268
12958SOL    HW140315   4.611   0.818   9.336
12958SOL    HW240316   4.621   0.798   9.187
12959SOL     OW40317   4.436   1.150   9.270
12959SOL    HW140318   4.486   1.225   9.303
12959SOL    HW240319   4.360   1.188   9.228
12960SOL     OW40320   4.060   1.411   8.513
12960SOL    HW140321   3.982   1.380   8.467
12960SOL    HW240322   4.103   1.470   8.450
12961SOL     OW40323   5.183   1.499   8.813
12961SOL    HW140324   5.236   1.578   8.821
12961SOL    HW240325   5.110   1.512   8.873
12962SOL     OW40326   4.167   0.381   8.922
12962SOL    HW140327   4.249   0.331   8.928
12962SOL    HW240328   4.098   0.315   8.926
12963SOL     OW40329   5.334   0.455   8.172
12963SOL    HW140330   5.264   0.474   8.110
12963SOL    HW240331   5.336   0.530   8.231
12964SOL     OW40332   3.954   1.707   7.909
12964SOL    HW140333   3.971   1.783   7.966
12964SOL    HW240334   4.029   1.706   7.849
12965SOL     OW40335   4.858   1.344   9.132
12965SOL    HW140336   4.895   1.342   9.220
12965SOL    HW240337   4.809   1.262   9.125
12966SOL     OW40338   3.939   1.450   8.000
12966SOL    HW140339   3.945   1.542   7.974
12966SOL    HW240340   3.880   1.450   8.075
12967SOL     OW40341   3.987   1.094   8.332
12967SOL    HW140342   3.972   1.005   8.365
12967SOL    HW240343   3.934   1.150   8.389
12968SOL     OW40344   4.330   1.782   8.881
12968SOL    HW140345   4.245   1.772   8.924
12968SOL    HW240346   4.356   1.872   8.900
12969SOL     OW40347   4.312   0.980   7.586
12969SOL    HW140348   4.355   1.038   7.523
12969SOL    HW240349   4.346   1.008   7.671
12970SOL     OW40350   5.387   0.116   8.940
12970SOL    HW140351   5.340   0.152   8.864
12970SOL    HW240352   5.338   0.148   9.016
12971SOL     OW40353   3.854   0.650   8.015
12971SOL    HW140354   3.811   0.566   8.032
12971SOL    HW240355   3.837   0.702   8.093
12972SOL     OW40356   5.569   1.751   7.768
12972SOL    HW140357   5.627   1.730   7.841
12972SOL    HW240358   5.582   1.844   7.753
12973SOL     OW40359   3.773   1.584   7.579
12973SOL    HW140360   3.742   1.496   7.599
12973SOL    HW240361   3.742   1.638   7.651
12974SOL     OW40362   5.402   0.906   8.077
12974SOL    HW140363   5.495   0.884   8.066
12974SOL    HW240364   5.384   0.969   8.008
12975SOL     OW40365   5.368   1.105   7.884
12975SOL    HW140366   5.453   1.110   7.841
12975SOL    HW240367   5.373   1.169   7.956
12976SOL     OW40368   3.842   0.753   9.034
12976SOL    HW140369   3.929   0.793   9.034
12976SOL    HW240370   3.781   0.826   9.025
12977SOL     OW40371   4.330   1.382   8.191
12977SOL    HW140372   4.278   1.302   8.183
12977SOL    HW240373   4.325   1.422   8.104
12978SOL     OW40374   5.008   1.227   8.871
12978SOL    HW140375   5.044   1.164   8.808
12978SOL    HW240376   5.070   1.225   8.944
12979SOL     OW40377   4.564   0.032   8.009
12979SOL    HW140378   4.601   0.113   7.974
12979SOL    HW240379   4.471   0.037   7.989
12980SOL     OW40380   3.914   0.948   8.741
12980SOL    HW140381   4.001   0.917   8.714
12980SOL    HW240382   3.861   0.942   8.662
12981SOL     OW40383   5.260   1.001   7.650
12981SOL    HW140384   5.191   0.943   7.680
12981SOL    HW240385   5.296   1.040   7.730
12982SOL     OW40386   4.903   1.820   9.080
12982SOL    HW140387   4.907   1.889   9.013
12982SOL    HW240388   4.935   1.741   9.035
12983SOL     OW40389   4.032   0.227   9.222
12983SOL    HW140390   4.098   0.293   9.244
12983SOL    HW240391   3.957   0.248   9.277
12984SOL     OW40392   5.184   1.419   8.398
12984SOL    HW140393   5.118   1.435   8.465
12984SOL    HW240394   5.173   1.327   8.375
12985SOL     OW40395   5.395   1.748   8.019
12985SOL    HW140396   5.360   1.722   7.934
12985SOL    HW240397   5.362   1.682   8.080
12986SOL     OW40398   4.317   0.729   7.727
12986SOL    HW140399   4.322   0.807   7.672
12986SOL    HW240400   4.247   0.748   7.790
12987SOL     OW40401   5.020   0.373   8.383
12987SOL    HW140402   4.928   0.344   8.383
12987SOL    HW240403   5.063   0.316   8.447
12988SOL     OW40404   5.303   1.668   7.760
12988SOL    HW140405   5.392   1.699   7.747
12988SOL    HW240406   5.268   1.658   7.672
12989SOL     OW40407   4.513   0.639   8.892
12989SOL    HW140408   4.485   0.610   8.979
12989SOL    HW240409   4.485   0.568   8.833
12990SOL     OW40410   5.138   0.491   9.125
12990SOL    HW140411   5.138   0.537   9.209
12990SOL    HW240412   5.210   0.428   9.132
12991SOL     OW40413   4.666   0.884   9.034
12991SOL    HW140414   4.724   0.820   8.992
12991SOL    HW240415   4.622   0.927   8.960
12992SOL     OW40416   4.723   0.409   8.674
12992SOL    HW140417   4.634   0.436   8.695
12992SOL    HW240418   4.715   0.367   8.588
12993SOL     OW40419   4.781   0.690   7.873
12993SOL    HW140420   4.800   0.684   7.966
12993SOL    HW240421   4.695   0.651   7.863
12994SOL     OW40422   3.807   0.804   8.231
12994SOL    HW140423   3.885   0.811   8.286
12994SOL    HW240424   3.753   0.879   8.259
12995SOL     OW40425   3.840   1.834   9.021
12995SOL    HW140426   3.841   1.822   9.116
12995SOL    HW240427   3.753   1.868   9.002
12996SOL     OW40428   4.614   0.357   7.660
12996SOL    HW140429   4.657   0.409   7.593
12996SOL    HW240430   4.612   0.268   7.624
12997SOL     OW40431   5.432   0.574   9.280
12997SOL    HW140432   5.398   0.650   9.232
12997SOL    HW240433   5.457   0.512   9.211
12998SOL     OW40434   5.097   1.141   7.982
12998SOL    HW140435   5.178   1.137   7.933
12998SOL    HW240436   5.045   1.208   7.938
12999SOL     OW40437   4.264   0.209   8.385
12999SOL    HW140438   4.256   0.271   8.458
12999SOL    HW240439   4.285   0.263   8.310
13000SOL     OW40440   4.715   1.448   7.908
13000SOL    HW140441   4.691   1.524   7.855
13000SOL    HW240442   4.689   1.473   7.997
13001SOL     OW40443   4.077   1.822   8.329
13001SOL    HW140444   4.132   1.744   8.333
13001SOL    HW240445   4.138   1.895   8.341
13002SOL     OW40446   5.521   1.023   8.318
13002SOL    HW140447   5.459   1.039   8.247
13002SOL    HW240448   5.474   1.050   8.397
13003SOL     OW40449   4.948   1.546   8.956
13003SOL    HW140450   4.932   1.470   9.013
13003SOL    HW240451   4.863   1.566   8.917
13004SOL     OW40452   4.048   0.951   7.705
13004SOL    HW140453   4.128   0.983   7.663
13004SOL    HW240454   4.010   0.889   7.643
13005SOL     OW40455   5.199   0.750   8.166
13005SOL    HW140456   5.203   0.717   8.256
13005SOL    HW240457   5.277   0.806   8.159
13006SOL     OW40458   4.194   1.267   9.184
13006SOL    HW140459   4.170   1.272   9.092
13006SOL    HW240460   4.111   1.269   9.231
13007SOL     OW40461   4.859   1.763   7.691
13007SOL    HW140462   4.772   1.736   7.721
13007SOL    HW240463   4.877   1.707   7.616
13008SOL     OW40464   3.905   0.256   8.948
13008SOL    HW140465   3.856   0.335   8.925
13008SOL    HW240466   3.920   0.263   9.042
13009SOL     OW40467   5.359   1.380   7.539
13009SOL    HW140468   5.320   1.466   7.528
13009SOL    HW240469   5.289   1.319   7.517
13010SOL     OW40470   4.220   1.714   7.790
13010SOL    HW140471   4.243   1.788   7.846
13010SOL    HW240472   4.266   1.731   7.707
13011SOL     OW40473   5.140   0.128   7.853
13011SOL    HW140474   5.154   0.109   7.761
13011SOL    HW240475   5.228   0.145   7.888
13012SOL     OW40476   3.967   1.784   8.670
13012SOL    HW140477   4.028   1.714   8.694
13012SOL    HW240478   3.955   1.774   8.575
13013SOL     OW40479   4.666   1.699   8.340
13013SOL    HW140480   4.753   1.659   8.345
13013SOL    HW240481   4.622   1.651   8.269
13014SOL     OW40482   4.128   0.688   7.951
13014SOL    HW140483   4.145   0.594   7.959
13014SOL    HW240484   4.032   0.696   7.955
13015SOL     OW40485   5.269   0.212   9.169
13015SOL    HW140486   5.278   0.243   9.259
13015SOL    HW240487   5.186   0.164   9.168
13016SOL     OW40488   4.320   0.135   7.554
13016SOL    HW140489   4.396   0.089   7.590
13016SOL    HW240490   4.297   0.085   7.476
13017SOL     OW40491   4.440   0.302   9.212
13017SOL    HW140492   4.536   0.299   9.204
13017SOL    HW240493   4.424   0.281   9.304
13018SOL     OW40494   4.593   1.508   8.641
13018SOL    HW140495   4.579   1.482   8.550
13018SOL    HW240496   4.672   1.462   8.668
13019SOL     OW40497   5.064   0.595   8.881
13019SOL    HW140498   5.102   0.570   8.965
13019SOL    HW240499   5.098   0.683   8.865
13020SOL     OW40500   4.546   1.378   8.387
13020SOL    HW140501   4.633   1.376   8.347
13020SOL    HW240502   4.487   1.400   8.314
13021SOL     OW40503   4.644   0.517   8.341
13021SOL    HW140504   4.619   0.511   8.248
13021SOL    HW240505   4.684   0.432   8.360
13022SOL     OW40506   4.313   0.037   7.878
13022SOL    HW140507   4.242   0.000   7.931
13022SOL    HW240508   4.283   0.125   7.856
13023SOL     OW40509   5.151   1.207   7.486
13023SOL    HW140510   5.174   1.131   7.540
13023SOL    HW240511   5.065   1.235   7.520
13024SOL     OW40512   4.013   0.050   7.650
13024SOL    HW140513   4.067   0.101   7.590
13024SOL    HW240514   4.075   0.010   7.710
13025SOL     OW40515   4.673   0.263   7.914
13025SOL    HW140516   4.643   0.297   7.829
13025SOL    HW240517   4.768   0.278   7.913
13026SOL     OW40518   4.808   0.689   8.906
13026SOL    HW140519   4.747   0.616   8.916
13026SOL    HW240520   4.894   0.648   8.900
13027SOL     OW40521   4.935   1.582   8.247
13027SOL    HW140522   4.947   1.644   8.175
13027SOL    HW240523   5.000   1.608   8.313
13028SOL     OW40524   4.197   1.130   8.168
13028SOL    HW140525   4.121   1.129   8.226
13028SOL    HW240526   4.159   1.131   8.080
13029SOL     OW40527   4.982   1.790   8.064
13029SOL    HW140528   5.032   1.851   8.010
13029SOL    HW240529   4.913   1.843   8.103
13030SOL     OW40530   4.740   0.523   7.477
13030SOL    HW140531   4.698   0.605   7.452
13030SOL    HW240532   4.808   0.549   7.540
13031SOL     OW40533   3.824   0.549   8.857
13031SOL    HW140534   3.913   0.557   8.822
13031SOL    HW240535   3.814   0.623   8.916
13032SOL     OW40536   4.293   0.245   8.665
13032SOL    HW140537   4.330   0.194   8.737
13032SOL    HW240538   4.199   0.229   8.670
13033SOL     OW40539   4.579   0.477   8.079
13033SOL    HW140540   4.554   0.522   7.998
13033SOL    HW240541   4.597   0.387   8.052
13034SOL     OW40542   4.680   0.036   8.251
13034SOL    HW140543   4.639   0.040   8.165
13034SOL    HW240544   4.716  -0.053   8.257
13035SOL     OW40545   5.175   1.156   8.306
13035SOL    HW140546   5.094   1.106   8.293
13035SOL    HW240547   5.206   1.175   8.217
13036SOL     OW40548   5.188   0.610   8.408
13036SOL    HW140549   5.133   0.531   8.410
13036SOL    HW240550   5.244   0.602   8.485
13037SOL     OW40551   5.607   0.807   7.813
13037SOL    HW140552   5.646   0.755   7.884
13037SOL    HW240553   5.567   0.741   7.756
13038SOL     OW40554   4.217   1.404   7.599
13038SOL    HW140555   4.144   1.382   7.658
13038SOL    HW240556   4.189   1.372   7.514
13039SOL     OW40557   5.394   1.259   8.103
13039SOL    HW140558   5.489   1.260   8.116
13039SOL    HW240559   5.366   1.349   8.120
13040SOL     OW40560   5.123   0.579   7.520
13040SOL    HW140561   5.057   0.556   7.585
13040SOL    HW240562   5.207   0.560   7.564
13041SOL     OW40563   4.231   0.277   7.765
13041SOL    HW140564   4.266   0.227   7.691
13041SOL    HW240565   4.210   0.363   7.728
13042SOL     OW40566   5.474   1.235   9.015
13042SOL    HW140567   5.561   1.207   8.987
13042SOL    HW240568   5.487   1.325   9.047
13043SOL     OW40569   4.787   1.339   8.761
13043SOL    HW140570   4.709   1.321   8.814
13043SOL    HW240571   4.860   1.305   8.813
13044SOL     OW40572   5.336   1.617   9.117
13044SOL    HW140573   5.321   1.656   9.031
13044SOL    HW240574   5.419   1.571   9.109
13045SOL     OW40575   4.831   1.180   8.539
13045SOL    HW140576   4.806   1.238   8.610
13045SOL    HW240577   4.826   1.234   8.460
13046SOL     OW40578   5.347   1.091   8.524
13046SOL    HW140579   5.341   1.160   8.591
13046SOL    HW240580   5.278   1.113   8.461
13047SOL     OW40581   4.641   0.121   8.845
13047SOL    HW140582   4.656   0.110   8.751
13047SOL    HW240583   4.729   0.123   8.883
13048SOL     OW40584   4.707   1.115   9.171
13048SOL    HW140585   4.617   1.137   9.196
13048SOL    HW240586   4.699   1.036   9.118
13049SOL     OW40587   4.422   1.033   7.834
13049SOL    HW140588   4.439   1.127   7.834
13049SOL    HW240589   4.506   0.992   7.814
13050SOL     OW40590   4.159   0.819   8.683
13050SOL    HW140591   4.220   0.836   8.755
13050SOL    HW240592   4.121   0.734   8.704
13051SOL     OW40593   4.988   0.379   8.734
13051SOL    HW140594   5.021   0.459   8.774
13051SOL    HW240595   4.900   0.401   8.705
13052SOL     OW40596   3.796   1.569   8.798
13052SOL    HW140597   3.764   1.644   8.749
13052SOL    HW240598   3.891   1.579   8.798
13053SOL     OW40599   4.073   1.119   7.928
13053SOL    HW140600   4.059   1.196   7.873
13053SOL    HW240601   4.069   1.045   7.867
13054SOL     OW40602   4.270   0.521   8.307
13054SOL    HW140603   4.293   0.551   8.219
13054SOL    HW240604   4.338   0.558   8.363
13055SOL     OW40605   4.967   1.352   7.843
13055SOL    HW140606   5.022   1.425   7.872
13055SOL    HW240607   4.879   1.377   7.871
13056SOL     OW40608   5.009   1.459   8.608
13056SOL    HW140609   5.075   1.469   8.677
13056SOL    HW240610   4.934   1.418   8.653
13057SOL     OW40611   5.288   0.629   7.931
13057SOL    HW140612   5.243   0.670   8.004
13057SOL    HW240613   5.310   0.702   7.872
13058SOL     OW40614   4.072   1.523   8.757
13058SOL    HW140615   4.061   1.481   8.672
13058SOL    HW240616   4.166   1.538   8.765
13059SOL     OW40617   4.159   0.737   9.064
13059SOL    HW140618   4.205   0.790   8.998
13059SOL    HW240619   4.222   0.669   9.089
13060SOL     OW40620   5.339   0.785   9.138
13060SOL    HW140621   5.253   0.826   9.132
13060SOL    HW240622   5.390   0.827   9.069
13061SOL     OW40623   4.772   0.078   9.199
13061SOL    HW140624   4.785   0.165   9.163
13061SOL    HW240625   4.679   0.060   9.186
13062SOL     OW40626   4.237   0.035   9.177
13062SOL    HW140627   4.212  -0.024   9.106
13062SOL    HW240628   4.167   0.101   9.179
13063SOL     OW40629   4.304   0.902   8.460
13063SOL    HW140630   4.349   0.983   8.485
13063SOL    HW240631   4.256   0.876   8.538
13064SOL     OW40632   5.066   0.854   8.465
13064SOL    HW140633   4.982   0.844   8.420
13064SOL    HW240634   5.111   0.770   8.450
13065SOL     OW40635   4.924   0.526   7.702
13065SOL    HW140636   4.931   0.447   7.756
13065SOL    HW240637   4.883   0.591   7.760
13066SOL     OW40638   4.026   0.195   8.679
13066SOL    HW140639   3.958   0.204   8.746
13066SOL    HW240640   4.009   0.110   8.639
13067SOL     OW40641   3.746   1.311   8.733
13067SOL    HW140642   3.793   1.260   8.799
13067SOL    HW240643   3.765   1.402   8.755
13068SOL     OW40644   4.439   0.633   8.490
13068SOL    HW140645   4.521   0.613   8.444
13068SOL    HW240646   4.429   0.728   8.479
13069SOL     OW40647   5.474   0.952   9.318
13069SOL    HW140648   5.427   0.891   9.261
13069SOL    HW240649   5.409   0.977   9.384
13070SOL     OW40650   4.142   0.082   8.119
13070SOL    HW140651   4.078   0.152   8.131
13070SOL    HW240652   4.095   0.014   8.071
13071SOL     OW40653   5.361   0.400   7.804
13071SOL    HW140654   5.374   0.328   7.865
13071SOL    HW240655   5.329   0.472   7.858
13072SOL     OW40656   4.753   0.758   8.403
13072SOL    HW140657   4.744   0.773   8.497
13072SOL    HW240658   4.723   0.668   8.390
13073SOL     OW40659   4.702   1.565   9.172
13073SOL    HW140660   4.688   1.611   9.090
13073SOL    HW240661   4.747   1.484   9.148
13074SOL     OW40662   5.582   1.488   9.066
13074SOL    HW140663   5.589   1.531   8.981
13074SOL    HW240664   5.667   1.504   9.108
13075SOL     OW40665   4.073   0.904   9.269
13075SOL    HW140666   4.153   0.939   9.309
13075SOL    HW240667   4.104   0.845   9.200
13076SOL     OW40668   5.302   0.293   7.563
13076SOL    HW140669   5.206   0.290   7.565
13076SOL    HW240670   5.327   0.327   7.649
13077SOL     OW40671   5.011   0.828   7.474
13077SOL    HW140672   5.055   0.742   7.479
13077SOL    HW240673   5.042   0.866   7.392
13078SOL     OW40674   4.805   1.341   8.309
13078SOL    HW140675   4.809   1.274   8.240
13078SOL    HW240676   4.856   1.414   8.275
13079SOL     OW40677   4.026   0.813   8.398
13079SOL    HW140678   4.116   0.842   8.406
13079SOL    HW240679   4.027   0.723   8.429
13080SOL     OW40680   4.056   0.539   8.466
13080SOL    HW140681   4.012   0.456   8.448
13080SOL    HW240682   4.132   0.540   8.408
13081SOL     OW40683   4.899   0.363   9.160
13081SOL    HW140684   4.832   0.421   9.197
13081SOL    HW240685   4.974   0.419   9.144
13082SOL     OW40686   4.892   0.216   8.930
13082SOL    HW140687   4.899   0.270   9.008
13082SOL    HW240688   4.925   0.271   8.859
13083SOL     OW40689   3.742   1.307   7.635
13083SOL    HW140690   3.654   1.328   7.604
13083SOL    HW240691   3.733   1.222   7.677
13084SOL     OW40692   3.819   1.771   8.401
13084SOL    HW140693   3.792   1.698   8.345
13084SOL    HW240694   3.904   1.797   8.365
13085SOL     OW40695   4.218   1.574   8.358
13085SOL    HW140696   4.285   1.639   8.376
13085SOL    HW240697   4.259   1.513   8.297
13086SOL     OW40698   4.689   0.776   8.669
13086SOL    HW140699   4.758   0.765   8.734
13086SOL    HW240700   4.608   0.759   8.716
13087SOL     OW40701   3.757   0.541   8.574
13087SOL    HW140702   3.830   0.548   8.512
13087SOL    HW240703   3.798   0.549   8.660
13088SOL     OW40704   3.922   0.532   9.176
13088SOL    HW140705   4.006   0.528   9.130
13088SOL    HW240706   3.875   0.604   9.135
13089SOL     OW40707   5.109   0.927   9.102
13089SOL    HW140708   5.129   1.021   9.101
13089SOL    HW240709   5.102   0.903   9.010
13090SOL     OW40710   4.532   0.577   7.825
13090SOL    HW140711   4.543   0.504   7.764
13090SOL    HW240712   4.461   0.630   7.787
13091SOL     OW40713   5.360   0.599   8.619
13091SOL    HW140714   5.352   0.550   8.701
13091SOL    HW240715   5.449   0.581   8.589
13092SOL     OW40716   3.961   1.546   9.168
13092SOL    HW140717   3.941   1.619   9.226
13092SOL    HW240718   3.969   1.471   9.226
13093SOL     OW40719   4.452   0.460   8.702
13093SOL    HW140720   4.392   0.386   8.687
13093SOL    HW240721   4.434   0.520   8.629
13094SOL     OW40722   4.664   1.668   8.912
13094SOL    HW140723   4.622   1.634   8.833
13094SOL    HW240724   4.659   1.763   8.903
13095SOL     OW40725   4.180   0.506   7.639
13095SOL    HW140726   4.235   0.583   7.657
13095SOL    HW240727   4.094   0.542   7.621
13096SOL     OW40728   3.858   1.142   8.926
13096SOL    HW140729   3.863   1.100   9.012
13096SOL    HW240730   3.878   1.072   8.864
13097SOL     OW40731   5.033   1.035   8.664
13097SOL    HW140732   5.060   0.977   8.593
13097SOL    HW240733   4.964   1.089   8.626
13098SOL     OW40734   5.052   0.849   7.748
13098SOL    HW140735   4.974   0.835   7.801
13098SOL    HW240736   5.021   0.843   7.658
13099SOL     OW40737   5.457   1.762   8.552
13099SOL    HW140738   5.534   1.774   8.495
13099SOL    HW240739   5.486   1.701   8.619
13100SOL     OW40740   4.964   1.726   8.540
13100SOL    HW140741   5.048   1.756   8.505
13100SOL    HW240742   4.980   1.636   8.567
13101SOL     OW40743   3.819   1.249   8.475
13101SOL    HW140744   3.792   1.273   8.563
13101SOL    HW240745   3.738   1.230   8.429
13102SOL     OW40746   4.401   1.675   9.190
13102SOL    HW140747   4.336   1.745   9.185
13102SOL    HW240748   4.468   1.700   9.126
13103SOL     OW40749   5.403   0.159   7.939
13103SOL    HW140750   5.451   0.119   7.866
13103SOL    HW240751   5.413   0.097   8.011
13104SOL     OW40752   5.115   1.570   7.942
13104SOL    HW140753   5.172   1.604   7.873
13104SOL    HW240754   5.062   1.645   7.969
13105SOL     OW40755   3.864   1.787   9.290
13105SOL    HW140756   3.816   1.721   9.340
13105SOL    HW240757   3.910   1.839   9.355
13106SOL     OW40758   4.998   0.929   8.114
13106SOL    HW140759   5.073   0.872   8.127
13106SOL    HW240760   5.031   1.002   8.062
13107SOL     OW40761   4.532   1.284   8.872
13107SOL    HW140762   4.504   1.322   8.955
13107SOL    HW240763   4.473   1.322   8.807
13108SOL     OW40764   4.419   1.586   7.588
13108SOL    HW140765   4.411   1.628   7.501
13108SOL    HW240766   4.341   1.532   7.595
13109SOL     OW40767   5.331   1.721   8.861
13109SOL    HW140768   5.421   1.704   8.835
13109SOL    HW240769   5.325   1.817   8.866
13110SOL     OW40770   5.583   0.163   8.390
13110SOL    HW140771   5.573   0.077   8.432
13110SOL    HW240772   5.495   0.186   8.361
13111SOL     OW40773   3.968   0.292   8.151
13111SOL    HW140774   3.890   0.341   8.126
13111SOL    HW240775   3.974   0.302   8.246
13112SOL     OW40776   4.938   1.603   7.479
13112SOL    HW140777   4.921   1.511   7.502
13112SOL    HW240778   4.873   1.623   7.411
13113SOL     OW40779   4.552   1.016   8.820
13113SOL    HW140780   4.603   1.017   8.739
13113SOL    HW240781   4.542   1.109   8.844
13114SOL     OW40782   4.653   0.914   7.762
13114SOL    HW140783   4.702   0.947   7.686
13114SOL    HW240784   4.706   0.842   7.795
13115SOL     OW40785   5.218   1.616   7.496
13115SOL    HW140786   5.123   1.618   7.484
13115SOL    HW240787   5.253   1.628   7.408
13116SOL     OW40788   4.090   1.301   8.939
13116SOL    HW140789   4.083   1.379   8.884
13116SOL    HW240790   4.008   1.253   8.924
13117SOL     OW40791   5.331   1.283   8.722
13117SOL    HW140792   5.409   1.286   8.778
13117SOL    HW240793   5.273   1.350   8.758
13118SOL     OW40794   4.784   1.108   8.164
13118SOL    HW140795   4.710   1.053   8.192
13118SOL    HW240796   4.850   1.045   8.133
13119SOL     OW40797   4.760   0.267   8.394
13119SOL    HW140798   4.736   0.213   8.319
13119SOL    HW240799   4.763   0.205   8.468
13120SOL     OW40800   4.337   1.498   7.944
13120SOL    HW140801   4.365   1.434   7.879
13120SOL    HW240802   4.285   1.562   7.895
13121SOL     OW40803   5.449   0.421   8.830
13121SOL    HW140804   5.523   0.481   8.835
13121SOL    HW240805   5.480   0.350   8.773
13122SOL     OW40806   3.998   1.330   7.764
13122SOL    HW140807   3.916   1.336   7.716
13122SOL    HW240808   3.983   1.380   7.844
13123SOL     OW40809   3.842   1.030   9.177
13123SOL    HW140810   3.766   1.004   9.229
13123SOL    HW240811   3.916   0.987   9.220
13124SOL     OW40812   4.392   0.213   8.944
13124SOL    HW140813   4.471   0.167   8.916
13124SOL    HW240814   4.407   0.233   9.036
13125SOL     OW40815   3.810   0.330   7.472
13125SOL    HW140816   3.721   0.323   7.436
13125SOL    HW240817   3.845   0.411   7.435
13126SOL     OW40818   5.146   0.856   8.839
13126SOL    HW140819   5.094   0.917   8.786
13126SOL    HW240820   5.235   0.864   8.803
13127SOL     OW40821   3.799   0.196   7.755
13127SOL    HW140822   3.789   0.262   7.686
13127SOL    HW240823   3.869   0.139   7.724
13128SOL     OW40824   4.897   1.334   7.564
13128SOL    HW140825   4.801   1.329   7.564
13128SOL    HW240826   4.920   1.337   7.657
13129SOL     OW40827   4.340   0.846   8.882
13129SOL    HW140828   4.395   0.924   8.869
13129SOL    HW240829   4.403   0.774   8.890
13130SOL     OW40830   5.208   1.788   8.430
13130SOL    HW140831   5.225   1.862   8.372
13130SOL    HW240832   5.292   1.773   8.475
13131SOL     OW40833   4.416   0.579   9.141
13131SOL    HW140834   4.471   0.632   9.197
13131SOL    HW240835   4.425   0.490   9.174
13132SOL     OW40836   5.199   1.185   9.079
13132SOL    HW140837   5.187   1.210   9.171
13132SOL    HW240838   5.289   1.211   9.059
13133SOL     OW40839   4.095   1.739   9.012
13133SOL    HW140840   4.012   1.782   8.991
13133SOL    HW240841   4.069   1.655   9.050
13134SOL     OW40842   5.386   0.882   8.703
13134SOL    HW140843   5.380   0.800   8.653
13134SOL    HW240844   5.376   0.951   8.638
13135SOL     OW40845   4.943   0.319   7.899
13135SOL    HW140846   5.009   0.251   7.886
13135SOL    HW240847   4.973   0.368   7.975
13136SOL     OW40848   4.335   0.793   8.092
13136SOL    HW140849   4.400   0.775   8.024
13136SOL    HW240850   4.251   0.768   8.053
13137SOL     OW40851   5.479   0.378   9.097
13137SOL    HW140852   5.466   0.394   9.003
13137SOL    HW240853   5.414   0.310   9.119
13138SOL     OW40854   5.481   0.934   8.959
13138SOL    HW140855   5.464   1.026   8.977
13138SOL    HW240856   5.458   0.922   8.867
13139SOL     OW40857   4.601   1.398   7.510
13139SOL    HW140858   4.541   1.462   7.549
13139SOL    HW240859   4.636   1.441   7.432
13140SOL     OW40860   4.387   1.781   8.383
13140SOL    HW140861   4.361   1.872   8.367
13140SOL    HW240862   4.482   1.782   8.378
13141SOL     OW40863   4.583   0.959   8.310
13141SOL    HW140864   4.648   0.893   8.338
13141SOL    HW240865   4.578   1.020   8.384
13142SOL     OW40866   4.794   0.979   7.542
13142SOL    HW140867   4.771   1.038   7.470
13142SOL    HW240868   4.870   0.931   7.510
13143SOL     OW40869   5.572   1.552   8.283
13143SOL    HW140870   5.496   1.558   8.225
13143SOL    HW240871   5.536   1.515   8.364
13144SOL     OW40872   3.955   1.299   9.306
13144SOL    HW140873   3.883   1.245   9.274
13144SOL    HW240874   3.940   1.306   9.400
13145SOL     OW40875   3.800   1.214   8.120
13145SOL    HW140876   3.849   1.168   8.188
13145SOL    HW240877   3.864   1.224   8.049
13146SOL     OW40878   4.413   1.409   9.084
13146SOL    HW140879   4.330   1.372   9.115
13146SOL    HW240880   4.413   1.499   9.118
13147SOL     OW40881   5.554   0.226   8.677
13147SOL    HW140882   5.488   0.157   8.670
13147SOL    HW240883   5.575   0.248   8.586
13148SOL     OW40884   4.173   0.419   7.998
13148SOL    HW140885   4.182   0.370   7.916
13148SOL    HW240886   4.097   0.381   8.041
13149SOL     OW40887   5.444   1.438   8.494
13149SOL    HW140888   5.352   1.446   8.470
13149SOL    HW240889   5.443   1.419   8.588
13150SOL     OW40890   4.066   0.566   8.743
13150SOL    HW140891   4.117   0.503   8.794
13150SOL    HW240892   4.079   0.538   8.652
13151SOL     OW40893   4.555   1.601   8.103
13151SOL    HW140894   4.558   1.687   8.061
13151SOL    HW240895   4.477   1.559   8.067
13152SOL     OW40896   5.147   0.220   8.570
13152SOL    HW140897   5.210   0.167   8.619
13152SOL    HW240898   5.097   0.266   8.637
13153SOL     OW40899   4.735   0.076   8.582
13153SOL    HW140900   4.651   0.048   8.546
13153SOL    HW240901   4.779  -0.006   8.606
13154SOL     OW40902   4.491   1.299   7.798
13154SOL    HW140903   4.488   1.316   7.704
13154SOL    HW240904   4.573   1.339   7.827
13155SOL     OW40905   4.346   1.548   8.743
13155SOL    HW140906   4.345   1.631   8.791
13155SOL    HW240907   4.431   1.545   8.700
13156SOL     OW40908   5.070   7.976   7.573
13156SOL    HW140909   5.123   7.896   7.581
13156SOL    HW240910   4.998   7.962   7.634
13157SOL     OW40911   5.019   0.462   8.120
13157SOL    HW140912   4.970   0.544   8.123
13157SOL    HW240913   5.023   0.433   8.211
13158SOL     OW40914   5.334   0.227   8.321
13158SOL    HW140915   5.251   0.225   8.368
13158SOL    HW240916   5.328   0.303   8.264
13159SOL     OW40917   3.762   1.063   7.769
13159SOL    HW140918   3.855   1.059   7.748
13159SOL    HW240919   3.737   0.973   7.787
13160SOL     OW40920   4.611   1.663   7.776
13160SOL    HW140921   4.541   1.649   7.713
13160SOL    HW240922   4.580   1.734   7.832
13161SOL     OW40923   3.938   0.621   9.444
13161SOL    HW140924   3.848   0.621   9.476
13161SOL    HW240925   3.931   0.609   9.350
13162SOL     OW40926   3.936   0.314  10.298
13162SOL    HW140927   4.002   0.248  10.317
13162SOL    HW240928   3.856   0.264  10.281
13163SOL     OW40929   3.729   0.402   9.940
13163SOL    HW140930   3.643   0.416   9.978
13163SOL    HW240931   3.714   0.338   9.870
13164SOL     OW40932   4.244   1.244  10.488
13164SOL    HW140933   4.171   1.291  10.447
13164SOL    HW240934   4.320   1.299  10.472
13165SOL     OW40935   5.319   1.519  10.034
13165SOL    HW140936   5.269   1.491  10.111
13165SOL    HW240937   5.253   1.533   9.966
13166SOL     OW40938   4.855   0.690  10.008
13166SOL    HW140939   4.905   0.770   9.988
13166SOL    HW240940   4.809   0.710  10.089
13167SOL     OW40941   5.521   0.598   9.532
13167SOL    HW140942   5.488   0.597   9.442
13167SOL    HW240943   5.478   0.525   9.575
13168SOL     OW40944   4.454   1.099  10.364
13168SOL    HW140945   4.380   1.128  10.417
13168SOL    HW240946   4.499   1.180  10.339
13169SOL     OW40947   4.611   0.754  11.131
13169SOL    HW140948   4.624   0.824  11.195
13169SOL    HW240949   4.626   0.797  11.046
13170SOL     OW40950   4.409   0.988   9.951
13170SOL    HW140951   4.475   0.984  10.020
13170SOL    HW240952   4.343   1.048   9.985
13171SOL     OW40953   4.394   1.186  11.110
13171SOL    HW140954   4.452   1.231  11.172
13171SOL    HW240955   4.408   1.233  11.027
13172SOL     OW40956   4.052   1.420  10.380
13172SOL    HW140957   3.981   1.385  10.326
13172SOL    HW240958   4.105   1.471  10.320
13173SOL     OW40959   5.182   1.493  10.684
13173SOL    HW140960   5.235   1.573  10.683
13173SOL    HW240961   5.109   1.513  10.743
13174SOL     OW40962   4.159   0.377  10.796
13174SOL    HW140963   4.247   0.341  10.803
13174SOL    HW240964   4.105   0.303  10.767
13175SOL     OW40965   5.331   0.453  10.030
13175SOL    HW140966   5.256   0.463   9.971
13175SOL    HW240967   5.345   0.541  10.065
13176SOL     OW40968   3.952   1.712   9.772
13176SOL    HW140969   3.972   1.786   9.830
13176SOL    HW240970   4.026   1.709   9.711
13177SOL     OW40971   4.880   1.347  11.013
13177SOL    HW140972   4.914   1.330  11.101
13177SOL    HW240973   4.839   1.264  10.987
13178SOL     OW40974   3.937   1.447   9.839
13178SOL    HW140975   3.943   1.542   9.823
13178SOL    HW240976   3.900   1.440   9.927
13179SOL     OW40977   3.978   1.094  10.187
13179SOL    HW140978   3.986   1.007  10.225
13179SOL    HW240979   3.927   1.144  10.251
13180SOL     OW40980   4.334   1.800  10.760
13180SOL    HW140981   4.244   1.788  10.792
13180SOL    HW240982   4.351   1.894  10.771
13181SOL     OW40983   4.300   0.991   9.455
13181SOL    HW140984   4.348   1.034   9.384
13181SOL    HW240985   4.341   1.023   9.535
13182SOL     OW40986   5.380   0.120  10.819
13182SOL    HW140987   5.347   0.127  10.729
13182SOL    HW240988   5.315   0.167  10.871
13183SOL     OW40989   3.846   0.657   9.875
13183SOL    HW140990   3.813   0.569   9.895
13183SOL    HW240991   3.837   0.705   9.957
13184SOL     OW40992   5.585   1.756   9.623
13184SOL    HW140993   5.646   1.735   9.694
13184SOL    HW240994   5.595   1.850   9.610
13185SOL     OW40995   3.763   1.587   9.437
13185SOL    HW140996   3.746   1.495   9.459
13185SOL    HW240997   3.738   1.635   9.516
13186SOL     OW40998   5.421   0.921   9.950
13186SOL    HW140999   5.484   0.869   9.899
13186SOL    HW241000   5.386   0.984   9.887
13187SOL     OW41001   5.375   1.103   9.745
13187SOL    HW141002   5.460   1.105   9.702
13187SOL    HW241003   5.380   1.173   9.810
13188SOL     OW41004   3.845   0.751  10.895
13188SOL    HW141005   3.933   0.788  10.885
13188SOL    HW241006   3.786   0.823  10.873
13189SOL     OW41007   4.290   1.406  10.027
13189SOL    HW141008   4.269   1.313  10.031
13189SOL    HW241009   4.286   1.428   9.934
13190SOL     OW41010   5.008   1.218  10.746
13190SOL    HW141011   5.032   1.158  10.676
13190SOL    HW241012   5.081   1.212  10.809
13191SOL     OW41013   4.564   0.037   9.877
13191SOL    HW141014   4.600   0.116   9.837
13191SOL    HW241015   4.472   0.036   9.850
13192SOL     OW41016   3.899   0.956  10.597
13192SOL    HW141017   3.988   0.922  10.584
13192SOL    HW241018   3.852   0.930  10.518
13193SOL     OW41019   5.264   0.998   9.513
13193SOL    HW141020   5.194   0.940   9.544
13193SOL    HW241021   5.298   1.039   9.592
13194SOL     OW41022   4.914   1.814  10.944
13194SOL    HW141023   4.910   1.878  10.873
13194SOL    HW241024   4.928   1.730  10.901
13195SOL     OW41025   4.029   0.230  11.082
13195SOL    HW141026   4.098   0.293  11.103
13195SOL    HW241027   3.959   0.250  11.143
13196SOL     OW41028   5.191   1.424  10.258
13196SOL    HW141029   5.119   1.441  10.318
13196SOL    HW241030   5.175   1.336  10.225
13197SOL     OW41031   5.383   1.763   9.872
13197SOL    HW141032   5.352   1.738   9.785
13197SOL    HW241033   5.360   1.689   9.928
13198SOL     OW41034   4.321   0.722   9.584
13198SOL    HW141035   4.327   0.807   9.539
13198SOL    HW241036   4.256   0.736   9.652
13199SOL     OW41037   5.023   0.372  10.248
13199SOL    HW141038   4.931   0.346  10.248
13199SOL    HW241039   5.064   0.314  10.312
13200SOL     OW41040   5.312   1.712   9.613
13200SOL    HW141041   5.406   1.719   9.593
13200SOL    HW241042   5.274   1.676   9.533
13201SOL     OW41043   4.497   0.642  10.760
13201SOL    HW141044   4.482   0.605  10.848
13201SOL    HW241045   4.484   0.567  10.701
13202SOL     OW41046   5.137   0.494  10.985
13202SOL    HW141047   5.142   0.536  11.071
13202SOL    HW241048   5.188   0.414  10.994
13203SOL     OW41049   4.670   0.887  10.892
13203SOL    HW141050   4.721   0.815  10.856
13203SOL    HW241051   4.623   0.924  10.817
13204SOL     OW41052   4.727   0.411  10.526
13204SOL    HW141053   4.637   0.432  10.552
13204SOL    HW241054   4.719   0.381  10.436
13205SOL     OW41055   4.777   0.691   9.737
13205SOL    HW141056   4.795   0.687   9.831
13205SOL    HW241057   4.691   0.651   9.727
13206SOL     OW41058   3.808   0.811  10.098
13206SOL    HW141059   3.892   0.813  10.144
13206SOL    HW241060   3.762   0.889  10.128
13207SOL     OW41061   3.839   1.873  10.893
13207SOL    HW141062   3.843   1.845  10.984
13207SOL    HW241063   3.756   1.840  10.860
13208SOL     OW41064   4.614   0.349   9.510
13208SOL    HW141065   4.660   0.406   9.449
13208SOL    HW241066   4.634   0.261   9.481
13209SOL     OW41067   5.430   0.576  11.143
13209SOL    HW141068   5.397   0.650  11.093
13209SOL    HW241069   5.455   0.511  11.077
13210SOL     OW41070   5.118   1.135   9.875
13210SOL    HW141071   5.190   1.126   9.812
13210SOL    HW241072   5.060   1.200   9.836
13211SOL     OW41073   4.211   0.218  10.249
13211SOL    HW141074   4.248   0.286  10.305
13211SOL    HW241075   4.254   0.230  10.165
13212SOL     OW41076   4.682   1.457   9.801
13212SOL    HW141077   4.678   1.533   9.744
13212SOL    HW241078   4.769   1.420   9.786
13213SOL     OW41079   4.083   1.818  10.194
13213SOL    HW141080   4.136   1.738  10.198
13213SOL    HW241081   4.147   1.889  10.199
13214SOL     OW41082   5.532   1.049  10.177
13214SOL    HW141083   5.482   1.031  10.098
13214SOL    HW241084   5.465   1.057  10.246
13215SOL     OW41085   4.953   1.549  10.836
13215SOL    HW141086   4.947   1.474  10.895
13215SOL    HW241087   4.895   1.527  10.763
13216SOL     OW41088   4.038   0.963   9.565
13216SOL    HW141089   4.123   0.986   9.529
13216SOL    HW241090   4.008   0.890   9.511
13217SOL     OW41091   5.220   0.747  10.032
13217SOL    HW141092   5.212   0.718  10.123
13217SOL    HW241093   5.292   0.810  10.034
13218SOL     OW41094   4.853   1.780   9.541
13218SOL    HW141095   4.774   1.744   9.580
13218SOL    HW241096   4.880   1.715   9.476
13219SOL     OW41097   3.889   0.245  10.821
13219SOL    HW141098   3.854   0.331  10.796
13219SOL    HW241099   3.929   0.260  10.907
13220SOL     OW41100   5.364   1.384   9.408
13220SOL    HW141101   5.323   1.469   9.396
13220SOL    HW241102   5.295   1.321   9.387
13221SOL     OW41103   4.194   1.731   9.632
13221SOL    HW141104   4.239   1.791   9.691
13221SOL    HW241105   4.260   1.705   9.568
13222SOL     OW41106   5.148   0.130   9.718
13222SOL    HW141107   5.169   0.107   9.627
13222SOL    HW241108   5.232   0.147   9.759
13223SOL     OW41109   3.982   1.778  10.528
13223SOL    HW141110   4.050   1.713  10.546
13223SOL    HW241111   3.966   1.770  10.434
13224SOL     OW41112   4.661   1.707  10.212
13224SOL    HW141113   4.746   1.664  10.212
13224SOL    HW241114   4.608   1.655  10.151
13225SOL     OW41115   4.124   0.690   9.785
13225SOL    HW141116   4.140   0.597   9.803
13225SOL    HW241117   4.029   0.701   9.796
13226SOL     OW41118   5.241   0.234  11.033
13226SOL    HW141119   5.259   0.253  11.125
13226SOL    HW241120   5.190   0.153  11.036
13227SOL     OW41121   4.294   0.116   9.428
13227SOL    HW141122   4.379   0.083   9.459
13227SOL    HW241123   4.286   0.081   9.339
13228SOL     OW41124   4.448   0.301  11.080
13228SOL    HW141125   4.540   0.274  11.086
13228SOL    HW241126   4.407   0.264  11.158
13229SOL     OW41127   4.682   1.592  10.577
13229SOL    HW141128   4.624   1.560  10.508
13229SOL    HW241129   4.734   1.515  10.602
13230SOL     OW41130   5.060   0.598  10.743
13230SOL    HW141131   5.100   0.570  10.825
13230SOL    HW241132   5.097   0.685  10.726
13231SOL     OW41133   4.645   0.517  10.202
13231SOL    HW141134   4.615   0.511  10.111
13231SOL    HW241135   4.686   0.432  10.220
13232SOL     OW41136   4.315   0.047   9.757
13232SOL    HW141137   4.240   0.001   9.793
13232SOL    HW241138   4.280   0.129   9.724
13233SOL     OW41139   5.156   1.208   9.353
13233SOL    HW141140   5.179   1.133   9.409
13233SOL    HW241141   5.074   1.240   9.390
13234SOL     OW41142   4.019   0.055   9.521
13234SOL    HW141143   4.098   0.092   9.481
13234SOL    HW241144   4.051  -0.017   9.576
13235SOL     OW41145   4.671   0.266   9.771
13235SOL    HW141146   4.640   0.298   9.686
13235SOL    HW241147   4.766   0.278   9.769
13236SOL     OW41148   4.800   0.675  10.779
13236SOL    HW141149   4.746   0.597  10.789
13236SOL    HW241150   4.889   0.642  10.767
13237SOL     OW41151   4.920   1.602  10.127
13237SOL    HW141152   4.928   1.657  10.049
13237SOL    HW241153   5.011   1.584  10.152
13238SOL     OW41154   4.194   1.142  10.026
13238SOL    HW141155   4.124   1.127  10.090
13238SOL    HW241156   4.150   1.134   9.941
13239SOL     OW41157   4.975   1.810   9.939
13239SOL    HW141158   5.019   1.864   9.873
13239SOL    HW241159   4.898   1.862   9.964
13240SOL     OW41160   4.745   0.521   9.337
13240SOL    HW141161   4.702   0.603   9.313
13240SOL    HW241162   4.809   0.546   9.403
13241SOL     OW41163   3.829   0.535  10.730
13241SOL    HW141164   3.914   0.545  10.689
13241SOL    HW241165   3.819   0.612  10.785
13242SOL     OW41166   4.306   0.236  10.521
13242SOL    HW141167   4.344   0.178  10.586
13242SOL    HW241168   4.212   0.222  10.528
13243SOL     OW41169   4.573   0.461   9.943
13243SOL    HW141170   4.544   0.520   9.874
13243SOL    HW241171   4.609   0.386   9.897
13244SOL     OW41172   4.677   0.036  10.120
13244SOL    HW141173   4.636   0.043  10.034
13244SOL    HW241174   4.717  -0.051  10.121
13245SOL     OW41175   5.162   1.164  10.165
13245SOL    HW141176   5.067   1.161  10.164
13245SOL    HW241177   5.188   1.162  10.072
13246SOL     OW41178   5.184   0.617  10.277
13246SOL    HW141179   5.134   0.535  10.272
13246SOL    HW241180   5.243   0.604  10.352
13247SOL     OW41181   5.567   0.805   9.708
13247SOL    HW141182   5.630   0.755   9.760
13247SOL    HW241183   5.544   0.747   9.636
13248SOL     OW41184   4.215   1.422   9.454
13248SOL    HW141185   4.141   1.391   9.506
13248SOL    HW241186   4.211   1.370   9.373
13249SOL     OW41187   5.409   1.265   9.957
13249SOL    HW141188   5.504   1.272   9.965
13249SOL    HW241189   5.377   1.354   9.973
13250SOL     OW41190   5.121   0.578   9.381
13250SOL    HW141191   5.055   0.556   9.447
13250SOL    HW241192   5.205   0.556   9.422
13251SOL     OW41193   4.232   0.279   9.632
13251SOL    HW141194   4.258   0.224   9.558
13251SOL    HW241195   4.213   0.364   9.592
13252SOL     OW41196   5.473   1.243  10.869
13252SOL    HW141197   5.560   1.207  10.855
13252SOL    HW241198   5.489   1.333  10.897
13253SOL     OW41199   4.794   1.372  10.692
13253SOL    HW141200   4.714   1.320  10.700
13253SOL    HW241201   4.865   1.310  10.706
13254SOL     OW41202   5.339   1.632  10.979
13254SOL    HW141203   5.322   1.662  10.889
13254SOL    HW241204   5.418   1.580  10.972
13255SOL     OW41205   4.848   1.227  10.424
13255SOL    HW141206   4.758   1.257  10.439
13255SOL    HW241207   4.865   1.248  10.333
13256SOL     OW41208   5.343   1.092  10.377
13256SOL    HW141209   5.330   1.157  10.446
13256SOL    HW241210   5.272   1.109  10.315
13257SOL     OW41211   4.638   0.123  10.706
13257SOL    HW141212   4.653   0.108  10.613
13257SOL    HW241213   4.725   0.127  10.745
13258SOL     OW41214   4.724   1.114  11.031
13258SOL    HW141215   4.635   1.148  11.038
13258SOL    HW241216   4.716   1.038  10.974
13259SOL     OW41217   4.436   1.061   9.683
13259SOL    HW141218   4.422   1.041   9.776
13259SOL    HW241219   4.511   1.008   9.657
13260SOL     OW41220   4.137   0.829  10.571
13260SOL    HW141221   4.210   0.841  10.632
13260SOL    HW241222   4.113   0.737  10.580
13261SOL     OW41223   4.987   0.378  10.597
13261SOL    HW141224   5.019   0.460  10.636
13261SOL    HW241225   4.900   0.399  10.565
13262SOL     OW41226   3.805   1.569  10.662
13262SOL    HW141227   3.775   1.639  10.604
13262SOL    HW241228   3.901   1.570  10.652
13263SOL     OW41229   4.051   1.124   9.793
13263SOL    HW141230   4.063   1.201   9.737
13263SOL    HW241231   4.051   1.050   9.732
13264SOL     OW41232   4.272   0.537  10.174
13264SOL    HW141233   4.281   0.594  10.098
13264SOL    HW241234   4.346   0.560  10.231
13265SOL     OW41235   5.010   1.462  10.459
13265SOL    HW141236   5.059   1.454  10.541
13265SOL    HW241237   4.948   1.389  10.461
13266SOL     OW41238   5.294   0.630   9.790
13266SOL    HW141239   5.251   0.673   9.865
13266SOL    HW241240   5.314   0.702   9.730
13267SOL     OW41241   4.078   1.508  10.634
13267SOL    HW141242   4.069   1.472  10.545
13267SOL    HW241243   4.171   1.523  10.644
13268SOL     OW41244   4.147   0.762  10.925
13268SOL    HW141245   4.205   0.800  10.859
13268SOL    HW241246   4.190   0.681  10.952
13269SOL     OW41247   5.342   0.789  11.001
13269SOL    HW141248   5.254   0.826  10.990
13269SOL    HW241249   5.392   0.826  10.928
13270SOL     OW41250   4.767   0.072  11.052
13270SOL    HW141251   4.784   0.162  11.025
13270SOL    HW241252   4.674   0.059  11.037
13271SOL     OW41253   4.228   0.028  11.048
13271SOL    HW141254   4.205  -0.031  10.976
13271SOL    HW241255   4.158   0.093  11.049
13272SOL     OW41256   4.310   0.864  10.345
13272SOL    HW141257   4.356   0.947  10.338
13272SOL    HW241258   4.248   0.877  10.417
13273SOL     OW41259   5.062   0.856  10.341
13273SOL    HW141260   4.990   0.859  10.279
13273SOL    HW241261   5.106   0.773  10.323
13274SOL     OW41262   4.917   0.529   9.562
13274SOL    HW141263   4.928   0.450   9.616
13274SOL    HW241264   4.880   0.594   9.622
13275SOL     OW41265   4.040   0.182  10.563
13275SOL    HW141266   3.951   0.203  10.591
13275SOL    HW241267   4.030   0.115  10.495
13276SOL     OW41268   3.732   1.312  10.593
13276SOL    HW141269   3.785   1.257  10.651
13276SOL    HW241270   3.761   1.401  10.612
13277SOL     OW41271   4.448   0.629  10.369
13277SOL    HW141272   4.521   0.620  10.307
13277SOL    HW241273   4.412   0.716  10.351
13278SOL     OW41274   5.469   0.963  11.176
13278SOL    HW141275   5.431   0.895  11.120
13278SOL    HW241276   5.404   0.978  11.244
13279SOL     OW41277   4.127   0.077   9.990
13279SOL    HW141278   4.072   0.154  10.002
13279SOL    HW241279   4.066   0.008   9.964
13280SOL     OW41280   5.361   0.403   9.659
13280SOL    HW141281   5.377   0.331   9.720
13280SOL    HW241282   5.331   0.475   9.715
13281SOL     OW41283   4.753   0.758  10.269
13281SOL    HW141284   4.746   0.772  10.364
13281SOL    HW241285   4.723   0.669  10.256
13282SOL     OW41286   4.700   1.551  11.042
13282SOL    HW141287   4.679   1.605  10.966
13282SOL    HW241288   4.757   1.483  11.008
13283SOL     OW41289   5.574   1.499  10.917
13283SOL    HW141290   5.593   1.527  10.827
13283SOL    HW241291   5.656   1.511  10.964
13284SOL     OW41292   4.126   0.991  11.083
13284SOL    HW141293   4.173   0.965  11.162
13284SOL    HW241294   4.130   0.913  11.026
13285SOL     OW41295   5.289   0.293   9.420
13285SOL    HW141296   5.195   0.288   9.433
13285SOL    HW241297   5.323   0.324   9.504
13286SOL     OW41298   5.013   0.829   9.338
13286SOL    HW141299   5.057   0.744   9.342
13286SOL    HW241300   5.044   0.868   9.256
13287SOL     OW41301   4.893   1.310  10.173
13287SOL    HW141302   4.849   1.251  10.112
13287SOL    HW241303   4.878   1.397  10.137
13288SOL     OW41304   4.035   0.820  10.255
13288SOL    HW141305   4.128   0.837  10.238
13288SOL    HW241306   4.034   0.731  10.291
13289SOL     OW41307   4.061   0.546  10.334
13289SOL    HW141308   4.017   0.464  10.315
13289SOL    HW241309   4.136   0.547  10.274
13290SOL     OW41310   4.897   0.363  11.017
13290SOL    HW141311   4.832   0.420  11.059
13290SOL    HW241312   4.972   0.420  11.001
13291SOL     OW41313   4.889   0.214  10.789
13291SOL    HW141314   4.900   0.267  10.869
13291SOL    HW241315   4.924   0.269  10.719
13292SOL     OW41316   3.727   1.315   9.510
13292SOL    HW141317   3.640   1.334   9.475
13292SOL    HW241318   3.721   1.225   9.542
13293SOL     OW41319   3.822   1.776  10.264
13293SOL    HW141320   3.789   1.702  10.213
13293SOL    HW241321   3.908   1.794  10.227
13294SOL     OW41322   4.219   1.576  10.227
13294SOL    HW141323   4.302   1.600  10.267
13294SOL    HW241324   4.243   1.520  10.154
13295SOL     OW41325   4.694   0.775  10.538
13295SOL    HW141326   4.751   0.757  10.612
13295SOL    HW241327   4.608   0.743  10.566
13296SOL     OW41328   3.758   0.546  10.432
13296SOL    HW141329   3.816   0.524  10.360
13296SOL    HW241330   3.813   0.543  10.510
13297SOL     OW41331   3.924   0.533  11.045
13297SOL    HW141332   3.996   0.506  10.988
13297SOL    HW241333   3.882   0.605  10.999
13298SOL     OW41334   5.107   0.928  10.965
13298SOL    HW141335   5.131   1.020  10.960
13298SOL    HW241336   5.099   0.900  10.874
13299SOL     OW41337   4.535   0.569   9.684
13299SOL    HW141338   4.541   0.500   9.619
13299SOL    HW241339   4.466   0.627   9.652
13300SOL     OW41340   5.361   0.603  10.488
13300SOL    HW141341   5.354   0.548  10.566
13300SOL    HW241342   5.449   0.585  10.454
13301SOL     OW41343   3.975   1.548  11.044
13301SOL    HW141344   3.940   1.621  11.096
13301SOL    HW241345   3.954   1.470  11.095
13302SOL     OW41346   4.457   0.454  10.573
13302SOL    HW141347   4.400   0.380  10.553
13302SOL    HW241348   4.444   0.515  10.500
13303SOL     OW41349   4.623   1.695  10.820
13303SOL    HW141350   4.641   1.651  10.737
13303SOL    HW241351   4.613   1.787  10.796
13304SOL     OW41352   4.182   0.504   9.492
13304SOL    HW141353   4.240   0.577   9.514
13304SOL    HW241354   4.096   0.543   9.480
13305SOL     OW41355   3.854   1.144  10.785
13305SOL    HW141356   3.856   1.097  10.869
13305SOL    HW241357   3.871   1.076  10.720
13306SOL     OW41358   5.031   1.045  10.532
13306SOL    HW141359   5.049   0.983  10.462
13306SOL    HW241360   4.966   1.105  10.495
13307SOL     OW41361   5.057   0.844   9.612
13307SOL    HW141362   4.978   0.844   9.666
13307SOL    HW241363   5.024   0.841   9.522
13308SOL     OW41364   5.517   1.724  10.484
13308SOL    HW141365   5.571   1.753  10.411
13308SOL    HW241366   5.477   1.642  10.453
13309SOL     OW41367   4.976   1.746  10.446
13309SOL    HW141368   5.051   1.762  10.389
13309SOL    HW241369   4.968   1.650  10.447
13310SOL     OW41370   3.798   1.263  10.321
13310SOL    HW141371   3.768   1.271  10.412
13310SOL    HW241372   3.740   1.197  10.283
13311SOL     OW41373   4.405   1.662  11.040
13311SOL    HW141374   4.344   1.734  11.026
13311SOL    HW241375   4.472   1.674  10.972
13312SOL     OW41376   5.411   0.170   9.803
13312SOL    HW141377   5.459   0.141   9.725
13312SOL    HW241378   5.438   0.109   9.872
13313SOL     OW41379   5.127   1.569   9.859
13313SOL    HW141380   5.087   1.503   9.802
13313SOL    HW241381   5.073   1.647   9.847
13314SOL     OW41382   3.863   1.781  11.151
13314SOL    HW141383   3.811   1.718  11.202
13314SOL    HW241384   3.907   1.834  11.216
13315SOL     OW41385   5.004   0.909   9.969
13315SOL    HW141386   5.083   0.856   9.983
13315SOL    HW241387   5.036   0.992   9.934
13316SOL     OW41388   4.530   1.280  10.721
13316SOL    HW141389   4.485   1.339  10.781
13316SOL    HW241390   4.512   1.316  10.634
13317SOL     OW41391   4.391   1.630   9.464
13317SOL    HW141392   4.406   1.646   9.371
13317SOL    HW241393   4.338   1.550   9.466
13318SOL     OW41394   5.343   1.719  10.709
13318SOL    HW141395   5.396   1.721  10.629
13318SOL    HW241396   5.324   1.810  10.728
13319SOL     OW41397   5.583   0.164  10.254
13319SOL    HW141398   5.572   0.077  10.292
13319SOL    HW241399   5.495   0.189  10.224
13320SOL     OW41400   3.975   0.304  10.018
13320SOL    HW141401   3.892   0.344   9.993
13320SOL    HW241402   3.982   0.321  10.112
13321SOL     OW41403   4.940   1.607   9.342
13321SOL    HW141404   4.923   1.516   9.367
13321SOL    HW241405   4.874   1.626   9.274
13322SOL     OW41406   4.545   1.012  10.679
13322SOL    HW141407   4.581   1.000  10.591
13322SOL    HW241408   4.539   1.107  10.690
13323SOL     OW41409   4.638   0.902   9.609
13323SOL    HW141410   4.691   0.934   9.535
13323SOL    HW241411   4.695   0.837   9.652
13324SOL     OW41412   5.218   1.626   9.362
13324SOL    HW141413   5.124   1.618   9.349
13324SOL    HW241414   5.254   1.630   9.274
13325SOL     OW41415   4.075   1.301  10.833
13325SOL    HW141416   4.085   1.371  10.769
13325SOL    HW241417   4.002   1.249  10.801
13326SOL     OW41418   5.329   1.282  10.586
13326SOL    HW141419   5.390   1.267  10.657
13326SOL    HW241420   5.267   1.346  10.620
13327SOL     OW41421   4.784   1.106  10.035
13327SOL    HW141422   4.707   1.056  10.061
13327SOL    HW241423   4.827   1.052   9.969
13328SOL     OW41424   4.760   0.269  10.260
13328SOL    HW141425   4.736   0.216  10.185
13328SOL    HW241426   4.763   0.207  10.333
13329SOL     OW41427   4.291   1.466   9.764
13329SOL    HW141428   4.356   1.425   9.707
13329SOL    HW241429   4.255   1.538   9.712
13330SOL     OW41430   5.451   0.421  10.695
13330SOL    HW141431   5.527   0.479  10.700
13330SOL    HW241432   5.478   0.350  10.638
13331SOL     OW41433   3.984   1.338   9.598
13331SOL    HW141434   3.891   1.337   9.575
13331SOL    HW241435   3.987   1.382   9.683
13332SOL     OW41436   3.839   1.052  11.048
13332SOL    HW141437   3.759   1.021  11.090
13332SOL    HW241438   3.908   0.997  11.084
13333SOL     OW41439   4.395   0.222  10.813
13333SOL    HW141440   4.470   0.170  10.783
13333SOL    HW241441   4.416   0.243  10.904
13334SOL     OW41442   3.805   0.333   9.336
13334SOL    HW141443   3.719   0.322   9.295
13334SOL    HW241444   3.841   0.412   9.296
13335SOL     OW41445   5.146   0.860  10.703
13335SOL    HW141446   5.092   0.918  10.649
13335SOL    HW241447   5.232   0.862  10.662
13336SOL     OW41448   3.804   0.194   9.633
13336SOL    HW141449   3.784   0.255   9.562
13336SOL    HW241450   3.876   0.141   9.598
13337SOL     OW41451   4.891   1.339   9.411
13337SOL    HW141452   4.797   1.321   9.412
13337SOL    HW241453   4.916   1.343   9.503
13338SOL     OW41454   4.337   0.851  10.751
13338SOL    HW141455   4.396   0.923  10.727
13338SOL    HW241456   4.394   0.774  10.756
13339SOL     OW41457   5.202   1.800  10.298
13339SOL    HW141458   5.203   1.852  10.218
13339SOL    HW241459   5.286   1.754  10.298
13340SOL     OW41460   4.419   0.572  11.015
13340SOL    HW141461   4.480   0.622  11.069
13340SOL    HW241462   4.433   0.481  11.040
13341SOL     OW41463   5.208   1.183  10.940
13341SOL    HW141464   5.199   1.205  11.033
13341SOL    HW241465   5.298   1.208  10.919
13342SOL     OW41466   4.092   1.749  10.880
13342SOL    HW141467   4.010   1.793  10.856
13342SOL    HW241468   4.065   1.664  10.913
13343SOL     OW41469   5.384   0.880  10.563
13343SOL    HW141470   5.378   0.795  10.519
13343SOL    HW241471   5.371   0.944  10.493
13344SOL     OW41472   4.941   0.317   9.761
13344SOL    HW141473   5.009   0.251   9.746
13344SOL    HW241474   4.972   0.367   9.836
13345SOL     OW41475   4.303   0.735   9.989
13345SOL    HW141476   4.348   0.818   9.974
13345SOL    HW241477   4.243   0.726   9.915
13346SOL     OW41478   5.475   0.375  10.965
13346SOL    HW141479   5.465   0.391  10.871
13346SOL    HW241480   5.402   0.317  10.987
13347SOL     OW41481   5.485   0.931  10.815
13347SOL    HW141482   5.464   1.024  10.828
13347SOL    HW241483   5.460   0.914  10.724
13348SOL     OW41484   4.593   1.360   9.359
13348SOL    HW141485   4.556   1.384   9.444
13348SOL    HW241486   4.604   1.443   9.313
13349SOL     OW41487   4.402   1.817  10.305
13349SOL    HW141488   4.378   1.883  10.241
13349SOL    HW241489   4.482   1.778  10.271
13350SOL     OW41490   4.587   0.957  10.161
13350SOL    HW141491   4.646   0.892  10.199
13350SOL    HW241492   4.549   1.002  10.236
13351SOL     OW41493   4.782   0.964   9.391
13351SOL    HW141494   4.769   1.033   9.326
13351SOL    HW241495   4.866   0.924   9.368
13352SOL     OW41496   5.565   1.561  10.155
13352SOL    HW141497   5.490   1.556  10.096
13352SOL    HW241498   5.550   1.491  10.219
13353SOL     OW41499   3.962   1.283  11.153
13353SOL    HW141500   3.901   1.220  11.114
13353SOL    HW241501   3.937   1.286  11.245
13354SOL     OW41502   3.811   1.218   9.982
13354SOL    HW141503   3.862   1.171  10.048
13354SOL    HW241504   3.866   1.217   9.904
13355SOL     OW41505   4.342   1.400  10.935
13355SOL    HW141506   4.315   1.430  10.848
13355SOL    HW241507   4.371   1.479  10.980
13356SOL     OW41508   5.553   0.228  10.538
13356SOL    HW141509   5.490   0.157  10.536
13356SOL    HW241510   5.575   0.244  10.446
13357SOL     OW41511   4.158   0.429   9.850
13357SOL    HW141512   4.177   0.369   9.779
13357SOL    HW241513   4.096   0.382   9.906
13358SOL     OW41514   5.414   1.485  10.406
13358SOL    HW141515   5.337   1.472  10.350
13358SOL    HW241516   5.411   1.412  10.468
13359SOL     OW41517   4.064   0.564  10.606
13359SOL    HW141518   4.120   0.501  10.651
13359SOL    HW241519   4.078   0.547  10.513
13360SOL     OW41520   4.529   1.566  10.024
13360SOL    HW141521   4.579   1.534   9.948
13360SOL    HW241522   4.454   1.507  10.029
13361SOL     OW41523   5.143   0.213  10.437
13361SOL    HW141524   5.211   0.168  10.487
13361SOL    HW241525   5.094   0.263  10.502
13362SOL     OW41526   4.740   0.074  10.444
13362SOL    HW141527   4.661   0.034  10.408
13362SOL    HW241528   4.798  -0.000  10.461
13363SOL     OW41529   4.497   1.337   9.629
13363SOL    HW141530   4.482   1.244   9.644
13363SOL    HW241531   4.565   1.361   9.692
13364SOL     OW41532   4.344   1.540  10.666
13364SOL    HW141533   4.366   1.632  10.680
13364SOL    HW241534   4.392   1.516  10.587
13365SOL     OW41535   5.076   7.979   9.419
13365SOL    HW141536   5.137   7.907   9.437
13365SOL    HW241537   5.008   7.970   9.487
13366SOL     OW41538   5.019   0.461   9.983
13366SOL    HW141539   4.966   0.541   9.985
13366SOL    HW241540   5.024   0.433  10.075
13367SOL     OW41541   5.335   0.231  10.185
13367SOL    HW141542   5.246   0.224  10.221
13367SOL    HW241543   5.331   0.307  10.127
13368SOL     OW41544   3.759   1.063   9.627
13368SOL    HW141545   3.853   1.061   9.608
13368SOL    HW241546   3.736   0.972   9.645
13369SOL     OW41547   4.615   1.675   9.642
13369SOL    HW141548   4.538   1.661   9.587
13369SOL    HW241549   4.588   1.742   9.705
13370SOL     OW41550   3.940   0.652  11.300
13370SOL    HW141551   3.855   0.631  11.338
13370SOL    HW241552   3.936   0.618  11.211
13371SOL     OW41553   3.926   0.311  12.167
13371SOL    HW141554   3.970   0.259  12.235
13371SOL    HW241555   3.842   0.267  12.153
13372SOL     OW41556   3.733   0.411  11.802
13372SOL    HW141557   3.645   0.417  11.839
13372SOL    HW241558   3.732   0.331  11.750
13373SOL     OW41559   4.268   1.251  12.336
13373SOL    HW141560   4.192   1.292  12.295
13373SOL    HW241561   4.275   1.293  12.421
13374SOL     OW41562   5.299   1.523  11.884
13374SOL    HW141563   5.256   1.494  11.964
13374SOL    HW241564   5.230   1.524  11.818
13375SOL     OW41565   4.856   0.701  11.867
13375SOL    HW141566   4.902   0.785  11.856
13375SOL    HW241567   4.809   0.711  11.949
13376SOL     OW41568   5.502   0.607  11.399
13376SOL    HW141569   5.475   0.600  11.307
13376SOL    HW241570   5.466   0.528  11.440
13377SOL     OW41571   4.485   1.135  12.232
13377SOL    HW141572   4.405   1.165  12.272
13377SOL    HW241573   4.518   1.211  12.183
13378SOL     OW41574   4.410   0.998  11.814
13378SOL    HW141575   4.476   0.990  11.883
13378SOL    HW241576   4.342   1.053  11.853
13379SOL     OW41577   4.060   1.409  12.229
13379SOL    HW141578   3.981   1.373  12.190
13379SOL    HW241579   4.099   1.463  12.161
13380SOL     OW41580   5.326   0.452  11.895
13380SOL    HW141581   5.260   0.474  11.829
13380SOL    HW241582   5.329   0.528  11.952
13381SOL     OW41583   3.947   1.717  11.636
13381SOL    HW141584   3.968   1.791  11.692
13381SOL    HW241585   4.021   1.710  11.576
13382SOL     OW41586   3.956   1.444  11.700
13382SOL    HW141587   3.939   1.538  11.705
13382SOL    HW241588   3.902   1.406  11.770
13383SOL     OW41589   3.993   1.092  12.062
13383SOL    HW141590   3.996   1.002  12.096
13383SOL    HW241591   3.941   1.141  12.126
13384SOL     OW41592   4.293   0.994  11.318
13384SOL    HW141593   4.340   1.039  11.248
13384SOL    HW241594   4.337   1.022  11.398
13385SOL     OW41595   3.846   0.666  11.734
13385SOL    HW141596   3.816   0.577  11.755
13385SOL    HW241597   3.838   0.714  11.816
13386SOL     OW41598   5.564   1.754  11.502
13386SOL    HW141599   5.638   1.730  11.558
13386SOL    HW241600   5.583   1.843  11.474
13387SOL     OW41601   3.760   1.582  11.297
13387SOL    HW141602   3.745   1.490  11.321
13387SOL    HW241603   3.739   1.631  11.376
13388SOL     OW41604   5.433   0.922  11.817
13388SOL    HW141605   5.492   0.865  11.768
13388SOL    HW241606   5.394   0.979  11.751
13389SOL     OW41607   5.373   1.102  11.605
13389SOL    HW141608   5.459   1.099  11.563
13389SOL    HW241609   5.382   1.171  11.671
13390SOL     OW41610   3.901   0.747   0.220
13390SOL    HW141611   3.890   0.727   0.313
13390SOL    HW241612   3.820   0.792   0.195
13391SOL     OW41613   4.339   1.395  11.901
13391SOL    HW141614   4.294   1.311  11.909
13391SOL    HW241615   4.322   1.423  11.811
13392SOL     OW41616   4.558   0.027  11.722
13392SOL    HW141617   4.595   0.110  11.693
13392SOL    HW241618   4.464   0.037  11.712
13393SOL     OW41619   3.918   0.990  12.404
13393SOL    HW141620   3.997   0.937  12.410
13393SOL    HW241621   3.850   0.935  12.443
13394SOL     OW41622   5.255   1.002  11.374
13394SOL    HW141623   5.185   0.944  11.404
13394SOL    HW241624   5.297   1.033  11.454
13395SOL     OW41625   5.199   1.412  12.119
13395SOL    HW141626   5.129   1.429  12.181
13395SOL    HW241627   5.182   1.324  12.086
13396SOL     OW41628   5.363   1.773  11.745
13396SOL    HW141629   5.355   1.732  11.659
13396SOL    HW241630   5.352   1.701  11.807
13397SOL     OW41631   4.321   0.716  11.447
13397SOL    HW141632   4.327   0.803  11.406
13397SOL    HW241633   4.256   0.727  11.517
13398SOL     OW41634   5.015   0.378  12.107
13398SOL    HW141635   4.926   0.343  12.112
13398SOL    HW241636   5.065   0.323  12.168
13399SOL     OW41637   5.293   1.693  11.481
13399SOL    HW141638   5.388   1.705  11.473
13399SOL    HW241639   5.264   1.671  11.393
13400SOL     OW41640   4.717   0.389  12.371
13400SOL    HW141641   4.632   0.418  12.405
13400SOL    HW241642   4.696   0.345  12.288
13401SOL     OW41643   4.778   0.700  11.599
13401SOL    HW141644   4.797   0.693  11.692
13401SOL    HW241645   4.695   0.654  11.588
13402SOL     OW41646   3.810   0.831  11.951
13402SOL    HW141647   3.893   0.821  11.999
13402SOL    HW241648   3.767   0.905  11.993
13403SOL     OW41649   4.618   0.350  11.376
13403SOL    HW141650   4.665   0.404  11.312
13403SOL    HW241651   4.636   0.260  11.349
13404SOL     OW41652   5.110   1.146  11.716
13404SOL    HW141653   5.186   1.129  11.660
13404SOL    HW241654   5.054   1.205  11.665
13405SOL     OW41655   4.204   0.209  12.090
13405SOL    HW141656   4.244   0.250  12.167
13405SOL    HW241657   4.257   0.240  12.016
13406SOL     OW41658   4.720   1.449  11.639
13406SOL    HW141659   4.694   1.526  11.588
13406SOL    HW241660   4.693   1.469  11.728
13407SOL     OW41661   4.078   1.816  12.040
13407SOL    HW141662   4.122   1.732  12.049
13407SOL    HW241663   4.145   1.881  12.063
13408SOL     OW41664   5.549   1.017  12.050
13408SOL    HW141665   5.501   0.995  11.970
13408SOL    HW241666   5.482   1.050  12.110
13409SOL     OW41667   4.029   0.958  11.424
13409SOL    HW141668   4.116   0.973  11.387
13409SOL    HW241669   4.010   0.867  11.403
13410SOL     OW41670   5.206   0.766  11.895
13410SOL    HW141671   5.199   0.715  11.976
13410SOL    HW241672   5.291   0.809  11.901
13411SOL     OW41673   4.871   1.779  11.408
13411SOL    HW141674   4.789   1.749  11.446
13411SOL    HW241675   4.890   1.715  11.338
13412SOL     OW41676   5.356   1.392  11.278
13412SOL    HW141677   5.317   1.475  11.249
13412SOL    HW241678   5.293   1.325  11.252
13413SOL     OW41679   4.192   1.730  11.485
13413SOL    HW141680   4.235   1.789  11.548
13413SOL    HW241681   4.263   1.702  11.428
13414SOL     OW41682   5.145   0.135  11.583
13414SOL    HW141683   5.165   0.112  11.492
13414SOL    HW241684   5.230   0.143  11.625
13415SOL     OW41685   3.968   1.782  12.394
13415SOL    HW141686   3.970   1.709  12.455
13415SOL    HW241687   3.926   1.747  12.316
13416SOL     OW41688   4.664   1.696  12.070
13416SOL    HW141689   4.740   1.642  12.092
13416SOL    HW241690   4.619   1.649  12.000
13417SOL     OW41691   4.120   0.696  11.643
13417SOL    HW141692   4.138   0.603  11.659
13417SOL    HW241693   4.027   0.706  11.663
13418SOL     OW41694   4.320   0.140  11.276
13418SOL    HW141695   4.391   0.093  11.319
13418SOL    HW241696   4.297   0.086  11.200
13419SOL     OW41697   4.536   1.367  12.103
13419SOL    HW141698   4.624   1.370  12.065
13419SOL    HW241699   4.477   1.380  12.029
13420SOL     OW41700   4.646   0.521  12.058
13420SOL    HW141701   4.615   0.509  11.968
13420SOL    HW241702   4.683   0.436  12.082
13421SOL     OW41703   4.299   0.053  11.628
13421SOL    HW141704   4.220   0.023  11.673
13421SOL    HW241705   4.271   0.130  11.578
13422SOL     OW41706   5.162   1.208  11.214
13422SOL    HW141707   5.188   1.130  11.262
13422SOL    HW241708   5.074   1.228  11.246
13423SOL     OW41709   4.012   0.052  11.392
13423SOL    HW141710   4.093   0.087  11.353
13423SOL    HW241711   4.041  -0.015  11.453
13424SOL     OW41712   4.670   0.263  11.635
13424SOL    HW141713   4.644   0.294  11.548
13424SOL    HW241714   4.765   0.273  11.637
13425SOL     OW41715   4.944   1.575  11.967
13425SOL    HW141716   4.956   1.640  11.897
13425SOL    HW241717   5.010   1.597  12.032
13426SOL     OW41718   4.197   1.157  11.893
13426SOL    HW141719   4.133   1.135  11.962
13426SOL    HW241720   4.149   1.145  11.811
13427SOL     OW41721   4.982   1.791  11.786
13427SOL    HW141722   5.026   1.859  11.734
13427SOL    HW241723   4.906   1.835  11.823
13428SOL     OW41724   4.748   0.519  11.197
13428SOL    HW141725   4.708   0.603  11.176
13428SOL    HW241726   4.812   0.539  11.265
13429SOL     OW41727   4.294   0.249  12.355
13429SOL    HW141728   4.324   0.199  12.431
13429SOL    HW241729   4.198   0.248  12.363
13430SOL     OW41730   4.571   0.461  11.801
13430SOL    HW141731   4.546   0.517  11.727
13430SOL    HW241732   4.610   0.384  11.761
13431SOL     OW41733   4.696   0.036  11.958
13431SOL    HW141734   4.648   0.030  11.876
13431SOL    HW241735   4.730  -0.052  11.972
13432SOL     OW41736   5.158   1.156  12.020
13432SOL    HW141737   5.092   1.086  12.027
13432SOL    HW241738   5.171   1.167  11.925
13433SOL     OW41739   5.187   0.613  12.129
13433SOL    HW141740   5.134   0.534  12.129
13433SOL    HW241741   5.250   0.601  12.201
13434SOL     OW41742   5.559   0.808  11.571
13434SOL    HW141743   5.623   0.756  11.619
13434SOL    HW241744   5.533   0.753  11.498
13435SOL     OW41745   4.202   1.423  11.292
13435SOL    HW141746   4.141   1.382  11.355
13435SOL    HW241747   4.146   1.479  11.239
13436SOL     OW41748   5.406   1.275  11.807
13436SOL    HW141749   5.501   1.276  11.821
13436SOL    HW241750   5.378   1.363  11.831
13437SOL     OW41751   5.123   0.576  11.245
13437SOL    HW141752   5.055   0.551  11.308
13437SOL    HW241753   5.203   0.536  11.280
13438SOL     OW41754   4.232   0.279  11.488
13438SOL    HW141755   4.273   0.233  11.414
13438SOL    HW241756   4.205   0.363  11.450
13439SOL     OW41757   4.829   1.240  12.286
13439SOL    HW141758   4.747   1.256  12.332
13439SOL    HW241759   4.812   1.267  12.196
13440SOL     OW41760   5.349   1.104  12.221
13440SOL    HW141761   5.316   1.133  12.306
13440SOL    HW241762   5.277   1.123  12.160
13441SOL     OW41763   4.436   1.064  11.543
13441SOL    HW141764   4.421   1.043  11.636
13441SOL    HW241765   4.512   1.011  11.519
13442SOL     OW41766   4.158   0.829  12.448
13442SOL    HW141767   4.202   0.873  12.520
13442SOL    HW241768   4.185   0.737  12.455
13443SOL     OW41769   4.974   0.362  12.442
13443SOL    HW141770   5.008   0.447  12.470
13443SOL    HW241771   4.884   0.380  12.415
13444SOL     OW41772   4.049   1.124  11.661
13444SOL    HW141773   4.053   1.196  11.598
13444SOL    HW241774   4.048   1.045  11.606
13445SOL     OW41775   4.263   0.541  12.034
13445SOL    HW141776   4.282   0.599  11.960
13445SOL    HW241777   4.334   0.559  12.097
13446SOL     OW41778   4.970   1.350  11.569
13446SOL    HW141779   5.025   1.421  11.601
13446SOL    HW241780   4.882   1.373  11.599
13447SOL     OW41781   5.011   1.447  12.311
13447SOL    HW141782   5.061   1.444  12.392
13447SOL    HW241783   4.951   1.373  12.317
13448SOL     OW41784   5.289   0.628  11.659
13448SOL    HW141785   5.239   0.682  11.720
13448SOL    HW241786   5.331   0.690  11.600
13449SOL     OW41787   4.100   1.534  12.466
13449SOL    HW141788   4.072   1.481  12.391
13449SOL    HW241789   4.156   1.602  12.428
13450SOL     OW41790   4.302   0.880  12.210
13450SOL    HW141791   4.337   0.969  12.210
13450SOL    HW241792   4.248   0.875  12.288
13451SOL     OW41793   5.049   0.855  12.173
13451SOL    HW141794   4.962   0.828  12.143
13451SOL    HW241795   5.102   0.775  12.166
13452SOL     OW41796   4.915   0.535  11.422
13452SOL    HW141797   4.926   0.449  11.463
13452SOL    HW241798   4.876   0.589  11.491
13453SOL     OW41799   4.027   0.213  12.411
13453SOL    HW141800   4.001   0.258  12.491
13453SOL    HW241801   4.022   0.120  12.433
13454SOL     OW41802   3.788   1.329  12.432
13454SOL    HW141803   3.824   1.255  12.481
13454SOL    HW241804   3.787   1.401  12.496
13455SOL     OW41805   4.444   0.636  12.223
13455SOL    HW141806   4.517   0.621  12.164
13455SOL    HW241807   4.413   0.724  12.203
13456SOL     OW41808   4.102   0.074  11.829
13456SOL    HW141809   4.075   0.159  11.864
13456SOL    HW241810   4.077   0.011  11.895
13457SOL     OW41811   5.358   0.401  11.525
13457SOL    HW141812   5.376   0.326  11.581
13457SOL    HW241813   5.327   0.469  11.585
13458SOL     OW41814   4.756   0.758  12.136
13458SOL    HW141815   4.747   0.768  12.230
13458SOL    HW241816   4.724   0.670  12.117
13459SOL     OW41817   5.298   0.278  11.291
13459SOL    HW141818   5.319   0.189  11.319
13459SOL    HW241819   5.314   0.331  11.369
13460SOL     OW41820   5.015   0.826  11.202
13460SOL    HW141821   5.056   0.740  11.208
13460SOL    HW241822   5.045   0.862  11.119
13461SOL     OW41823   4.797   1.345  12.029
13461SOL    HW141824   4.803   1.271  11.968
13461SOL    HW241825   4.854   1.411  11.992
13462SOL     OW41826   4.038   0.817  12.107
13462SOL    HW141827   4.133   0.834  12.109
13462SOL    HW241828   4.029   0.727  12.138
13463SOL     OW41829   4.037   0.552  12.175
13463SOL    HW141830   4.003   0.463  12.174
13463SOL    HW241831   4.118   0.548  12.126
13464SOL     OW41832   4.892   0.203   0.147
13464SOL    HW141833   4.895   0.259   0.225
13464SOL    HW241834   4.927   0.258   0.077
13465SOL     OW41835   3.729   1.312  11.363
13465SOL    HW141836   3.640   1.328  11.332
13465SOL    HW241837   3.727   1.223  11.397
13466SOL     OW41838   3.817   1.780  12.116
13466SOL    HW141839   3.786   1.703  12.068
13466SOL    HW241840   3.906   1.795  12.084
13467SOL     OW41841   4.218   1.580  12.073
13467SOL    HW141842   4.288   1.639  12.100
13467SOL    HW241843   4.261   1.515  12.017
13468SOL     OW41844   4.702   0.786  12.404
13468SOL    HW141845   4.739   0.856  12.456
13468SOL    HW241846   4.609   0.782  12.429
13469SOL     OW41847   3.779   0.562  12.291
13469SOL    HW141848   3.854   0.568  12.232
13469SOL    HW241849   3.802   0.493  12.353
13470SOL     OW41850   4.542   0.569  11.542
13470SOL    HW141851   4.552   0.496  11.481
13470SOL    HW241852   4.468   0.619  11.508
13471SOL     OW41853   5.381   0.609  12.330
13471SOL    HW141854   5.365   0.560  12.411
13471SOL    HW241855   5.474   0.598  12.313
13472SOL     OW41856   4.459   0.456  12.426
13472SOL    HW141857   4.391   0.392  12.404
13472SOL    HW241858   4.447   0.526  12.363
13473SOL     OW41859   4.624   1.652   0.035
13473SOL    HW141860   4.623   1.723  -0.029
13473SOL    HW241861   4.653   1.694   0.116
13474SOL     OW41862   4.170   0.505  11.353
13474SOL    HW141863   4.236   0.571  11.374
13474SOL    HW241864   4.090   0.555  11.341
13475SOL     OW41865   5.014   1.042  12.367
13475SOL    HW141866   5.030   0.980  12.296
13475SOL    HW241867   4.957   1.109  12.329
13476SOL     OW41868   5.040   0.858  11.477
13476SOL    HW141869   4.969   0.816  11.526
13476SOL    HW241870   5.018   0.841  11.385
13477SOL     OW41871   5.474   1.754  12.295
13477SOL    HW141872   5.549   1.770  12.238
13477SOL    HW241873   5.464   1.659  12.296
13478SOL     OW41874   4.970   1.720  12.270
13478SOL    HW141875   5.053   1.751  12.234
13478SOL    HW241876   4.983   1.627  12.286
13479SOL     OW41877   3.811   1.280  12.168
13479SOL    HW141878   3.798   1.296  12.262
13479SOL    HW241879   3.748   1.211  12.147
13480SOL     OW41880   5.413   0.159  11.658
13480SOL    HW141881   5.492   0.155  11.604
13480SOL    HW241882   5.441   0.125  11.743
13481SOL     OW41883   5.119   1.570  11.668
13481SOL    HW141884   5.172   1.605  11.596
13481SOL    HW241885   5.064   1.643  11.695
13482SOL     OW41886   4.999   0.935  11.846
13482SOL    HW141887   5.072   0.875  11.860
13482SOL    HW241888   5.034   1.003  11.789
13483SOL     OW41889   4.399   1.619  11.321
13483SOL    HW141890   4.415   1.637  11.229
13483SOL    HW241891   4.349   1.537  11.322
13484SOL     OW41892   5.347   1.788   0.044
13484SOL    HW141893   5.405   1.777  -0.031
13484SOL    HW241894   5.379   1.866   0.088
13485SOL     OW41895   5.568   0.174  12.126
13485SOL    HW141896   5.590   0.085  12.096
13485SOL    HW241897   5.483   0.192  12.085
13486SOL     OW41898   3.979   0.311  11.890
13486SOL    HW141899   3.899   0.360  11.873
13486SOL    HW241900   3.990   0.315  11.985
13487SOL     OW41901   4.934   1.600  11.210
13487SOL    HW141902   4.922   1.507  11.230
13487SOL    HW241903   4.875   1.617  11.137
13488SOL     OW41904   4.515   1.018  12.488
13488SOL    HW141905   4.521   1.061  12.403
13488SOL    HW241906   4.596   1.042  12.533
13489SOL     OW41907   4.645   0.915  11.470
13489SOL    HW141908   4.702   0.942  11.398
13489SOL    HW241909   4.693   0.845  11.514
13490SOL     OW41910   5.210   1.649  11.219
13490SOL    HW141911   5.118   1.627  11.202
13490SOL    HW241912   5.252   1.647  11.133
13491SOL     OW41913   4.788   1.114  11.888
13491SOL    HW141914   4.714   1.064  11.922
13491SOL    HW241915   4.853   1.048  11.863
13492SOL     OW41916   4.749   0.259  12.114
13492SOL    HW141917   4.730   0.207  12.036
13492SOL    HW241918   4.767   0.194  12.182
13493SOL     OW41919   4.331   1.497  11.649
13493SOL    HW141920   4.381   1.443  11.587
13493SOL    HW241921   4.259   1.533  11.597
13494SOL     OW41922   5.460   0.446   0.048
13494SOL    HW141923   5.504   0.416   0.128
13494SOL    HW241924   5.481   0.380  -0.017
13495SOL     OW41925   3.988   1.341  11.456
13495SOL    HW141926   3.896   1.335  11.433
13495SOL    HW241927   3.989   1.382  11.542
13496SOL     OW41928   3.802   0.340  11.206
13496SOL    HW141929   3.718   0.325  11.162
13496SOL    HW241930   3.840   0.415  11.160
13497SOL     OW41931   3.778   0.181  11.461
13497SOL    HW141932   3.781   0.253  11.398
13497SOL    HW241933   3.861   0.135  11.450
13498SOL     OW41934   4.909   1.325  11.295
13498SOL    HW141935   4.822   1.286  11.295
13498SOL    HW241936   4.933   1.330  11.388
13499SOL     OW41937   5.216   1.788  12.161
13499SOL    HW141938   5.238   1.853  12.095
13499SOL    HW241939   5.300   1.768  12.204
13500SOL     OW41940   5.397   0.877  12.396
13500SOL    HW141941   5.380   0.787  12.369
13500SOL    HW241942   5.365   0.930  12.322
13501SOL     OW41943   4.938   0.320  11.627
13501SOL    HW141944   5.005   0.254  11.608
13501SOL    HW241945   4.973   0.369  11.701
13502SOL     OW41946   4.308   0.737  11.846
13502SOL    HW141947   4.349   0.822  11.830
13502SOL    HW241948   4.244   0.728  11.776
13503SOL     OW41949   5.562   0.904   0.108
13503SOL    HW141950   5.517   0.962   0.170
13503SOL    HW241951   5.498   0.891   0.037
13504SOL     OW41952   4.580   1.360  11.213
13504SOL    HW141953   4.556   1.397  11.297
13504SOL    HW241954   4.613   1.434  11.162
13505SOL     OW41955   4.388   1.792  12.122
13505SOL    HW141956   4.371   1.881  12.091
13505SOL    HW241957   4.482   1.780  12.111
13506SOL     OW41958   4.595   0.971  12.026
13506SOL    HW141959   4.644   0.897  12.062
13506SOL    HW241960   4.559   1.016  12.103
13507SOL     OW41961   4.796   0.979  11.257
13507SOL    HW141962   4.781   1.033  11.179
13507SOL    HW241963   4.874   0.928  11.236
13508SOL     OW41964   5.551   1.558  12.027
13508SOL    HW141965   5.478   1.548  11.966
13508SOL    HW241966   5.518   1.523  12.110
13509SOL     OW41967   3.820   1.224  11.836
13509SOL    HW141968   3.838   1.187  11.923
13509SOL    HW241969   3.886   1.184  11.779
13510SOL     OW41970   5.564   0.251  12.390
13510SOL    HW141971   5.564   0.166  12.435
13510SOL    HW241972   5.563   0.229  12.297
13511SOL     OW41973   4.149   0.435  11.703
13511SOL    HW141974   4.171   0.368  11.639
13511SOL    HW241975   4.100   0.389  11.770
13512SOL     OW41976   5.433   1.482  12.265
13512SOL    HW141977   5.349   1.454  12.230
13512SOL    HW241978   5.439   1.440  12.351
13513SOL     OW41979   4.552   1.585  11.848
13513SOL    HW141980   4.527   1.648  11.780
13513SOL    HW241981   4.479   1.522  11.851
13514SOL     OW41982   5.165   0.235  12.286
13514SOL    HW141983   5.228   0.175  12.326
13514SOL    HW241984   5.111   0.266  12.358
13515SOL     OW41985   4.773   0.059  12.294
13515SOL    HW141986   4.729   0.067  12.379
13515SOL    HW241987   4.845  -0.001  12.309
13516SOL     OW41988   4.496   1.336  11.499
13516SOL    HW141989   4.473   1.243  11.507
13516SOL    HW241990   4.580   1.344  11.545
13517SOL     OW41991   5.086   8.005  11.273
13517SOL    HW141992   5.164   7.959  11.305
13517SOL    HW241993   5.018   7.983  11.335
13518SOL     OW41994   5.019   0.469  11.845
13518SOL    HW141995   4.963   0.547  11.851
13518SOL    HW241996   5.020   0.434  11.934
13519SOL     OW41997   5.326   0.214  12.024
13519SOL    HW141998   5.252   0.207  12.084
13519SOL    HW241999   5.312   0.296  11.978
13520SOL     OW42000   3.766   1.061  11.478
13520SOL    HW142001   3.859   1.049  11.458
13520SOL    HW242002   3.735   0.973  11.501
13521SOL     OW42003   4.619   1.671  11.507
13521SOL    HW142004   4.546   1.653  11.448
13521SOL    HW242005   4.588   1.742  11.564
13522SOL     OW42006   3.996   2.455   0.028
13522SOL    HW142007   3.960   2.504   0.102
13522SOL    HW242008   3.934   2.472  -0.044
13523SOL     OW42009   3.949   2.144   0.992
13523SOL    HW142010   3.976   2.112   1.079
13523SOL    HW242011   3.859   2.113   0.981
13524SOL     OW42012   3.718   2.247   0.637
13524SOL    HW142013   3.643   2.279   0.688
13524SOL    HW242014   3.687   2.166   0.597
13525SOL     OW42015   4.295   3.164   1.186
13525SOL    HW142016   4.207   3.169   1.149
13525SOL    HW242017   4.312   3.251   1.221
13526SOL     OW42018   5.296   3.380   0.717
13526SOL    HW142019   5.253   3.356   0.799
13526SOL    HW242020   5.225   3.381   0.652
13527SOL     OW42021   4.858   2.560   0.691
13527SOL    HW142022   4.905   2.643   0.681
13527SOL    HW242023   4.811   2.569   0.774
13528SOL     OW42024   5.486   2.466   0.262
13528SOL    HW142025   5.441   2.486   0.180
13528SOL    HW242026   5.435   2.395   0.301
13529SOL     OW42027   4.459   2.995   1.044
13529SOL    HW142028   4.396   3.033   1.105
13529SOL    HW242029   4.506   3.070   1.007
13530SOL     OW42030   4.597   2.615   1.831
13530SOL    HW142031   4.586   2.675   1.905
13530SOL    HW242032   4.619   2.671   1.757
13531SOL     OW42033   4.409   2.853   0.644
13531SOL    HW142034   4.476   2.849   0.711
13531SOL    HW242035   4.341   2.910   0.681
13532SOL     OW42036   4.441   3.012   1.812
13532SOL    HW142037   4.484   3.089   1.849
13532SOL    HW242038   4.358   3.045   1.778
13533SOL     OW42039   4.057   3.274   1.067
13533SOL    HW142040   3.981   3.234   1.026
13533SOL    HW242041   4.098   3.326   0.998
13534SOL     OW42042   5.183   3.369   1.363
13534SOL    HW142043   5.237   3.447   1.378
13534SOL    HW242044   5.112   3.376   1.426
13535SOL     OW42045   4.184   2.241   1.453
13535SOL    HW142046   4.257   2.186   1.479
13535SOL    HW242047   4.107   2.199   1.492
13536SOL     OW42048   5.322   2.303   0.753
13536SOL    HW142049   5.250   2.322   0.693
13536SOL    HW242050   5.313   2.367   0.823
13537SOL     OW42051   3.939   3.582   0.472
13537SOL    HW142052   3.960   3.656   0.529
13537SOL    HW242053   4.018   3.569   0.419
13538SOL     OW42054   4.860   3.209   1.697
13538SOL    HW142055   4.897   3.208   1.785
13538SOL    HW242056   4.807   3.130   1.691
13539SOL     OW42057   3.944   3.312   0.543
13539SOL    HW142058   3.927   3.406   0.546
13539SOL    HW242059   3.890   3.276   0.614
13540SOL     OW42060   3.996   2.953   0.889
13540SOL    HW142061   3.992   2.865   0.927
13540SOL    HW242062   3.940   3.006   0.946
13541SOL     OW42063   4.311   3.663   1.411
13541SOL    HW142064   4.240   3.637   1.469
13541SOL    HW242065   4.345   3.744   1.450
13542SOL     OW42066   4.294   2.824   0.147
13542SOL    HW142067   4.359   2.848   0.081
13542SOL    HW242068   4.323   2.869   0.227
13543SOL     OW42069   5.321   1.994   1.463
13543SOL    HW142070   5.345   2.077   1.422
13543SOL    HW242071   5.296   2.018   1.552
13544SOL     OW42072   3.842   2.513   0.565
13544SOL    HW142073   3.812   2.425   0.589
13544SOL    HW242074   3.836   2.564   0.645
13545SOL     OW42075   5.582   3.599   0.311
13545SOL    HW142076   5.649   3.575   0.375
13545SOL    HW242077   5.594   3.693   0.297
13546SOL     OW42078   3.756   3.391   0.125
13546SOL    HW142079   3.668   3.353   0.116
13546SOL    HW242080   3.745   3.464   0.185
13547SOL     OW42081   5.401   2.794   0.648
13547SOL    HW142082   5.475   2.751   0.605
13547SOL    HW242083   5.370   2.858   0.584
13548SOL     OW42084   5.367   2.978   0.430
13548SOL    HW142085   5.452   2.977   0.386
13548SOL    HW242086   5.378   3.041   0.501
13549SOL     OW42087   3.862   2.615   1.579
13549SOL    HW142088   3.956   2.634   1.587
13549SOL    HW242089   3.819   2.696   1.607
13550SOL     OW42090   4.346   3.254   0.732
13550SOL    HW142091   4.302   3.170   0.744
13550SOL    HW242092   4.328   3.278   0.642
13551SOL     OW42093   5.010   3.099   1.412
13551SOL    HW142094   5.044   3.028   1.358
13551SOL    HW242095   5.061   3.094   1.493
13552SOL     OW42096   4.547   1.873   0.524
13552SOL    HW142097   4.584   1.957   0.499
13552SOL    HW242098   4.453   1.888   0.528
13553SOL     OW42099   3.914   2.826   1.274
13553SOL    HW142100   4.000   2.785   1.263
13553SOL    HW242101   3.852   2.763   1.236
13554SOL     OW42102   5.221   2.870   0.223
13554SOL    HW142103   5.156   2.814   0.265
13554SOL    HW242104   5.273   2.904   0.296
13555SOL     OW42105   4.920   3.687   1.626
13555SOL    HW142106   4.919   3.742   1.547
13555SOL    HW242107   4.937   3.599   1.593
13556SOL     OW42108   4.077   2.119   1.811
13556SOL    HW142109   4.121   2.189   1.859
13556SOL    HW242110   3.986   2.123   1.840
13557SOL     OW42111   5.191   3.279   0.952
13557SOL    HW142112   5.124   3.295   1.019
13557SOL    HW242113   5.176   3.188   0.926
13558SOL     OW42114   5.375   3.624   0.583
13558SOL    HW142115   5.353   3.586   0.499
13558SOL    HW242116   5.359   3.554   0.646
13559SOL     OW42117   4.304   2.571   0.277
13559SOL    HW142118   4.310   2.659   0.239
13559SOL    HW242119   4.240   2.580   0.348
13560SOL     OW42120   5.005   2.230   0.931
13560SOL    HW142121   4.915   2.200   0.942
13560SOL    HW242122   5.056   2.176   0.992
13561SOL     OW42123   5.315   3.539   0.326
13561SOL    HW142124   5.410   3.547   0.320
13561SOL    HW242125   5.284   3.563   0.239
13562SOL     OW42126   4.521   2.477   1.444
13562SOL    HW142127   4.493   2.454   1.532
13562SOL    HW242128   4.486   2.408   1.388
13563SOL     OW42129   5.118   2.335   1.682
13563SOL    HW142130   5.119   2.381   1.766
13563SOL    HW242131   5.174   2.259   1.695
13564SOL     OW42132   4.670   2.747   1.591
13564SOL    HW142133   4.728   2.683   1.550
13564SOL    HW242134   4.623   2.786   1.517
13565SOL     OW42135   4.724   2.267   1.229
13565SOL    HW142136   4.637   2.290   1.263
13565SOL    HW242137   4.707   2.226   1.144
13566SOL     OW42138   4.778   2.567   0.425
13566SOL    HW142139   4.796   2.563   0.519
13566SOL    HW242140   4.693   2.526   0.415
13567SOL     OW42141   3.816   2.682   0.776
13567SOL    HW142142   3.896   2.678   0.829
13567SOL    HW242143   3.768   2.757   0.812
13568SOL     OW42144   3.844   3.723   1.588
13568SOL    HW142145   3.857   3.704   1.680
13568SOL    HW242146   3.750   3.709   1.573
13569SOL     OW42147   4.612   2.220   0.217
13569SOL    HW142148   4.641   2.285   0.153
13569SOL    HW242149   4.599   2.140   0.166
13570SOL     OW42150   5.435   2.426   1.830
13570SOL    HW142151   5.397   2.501   1.784
13570SOL    HW242152   5.456   2.364   1.760
13571SOL     OW42153   5.104   3.003   0.536
13571SOL    HW142154   5.187   3.003   0.487
13571SOL    HW242155   5.049   3.067   0.491
13572SOL     OW42156   4.275   2.036   0.907
13572SOL    HW142157   4.277   2.060   1.000
13572SOL    HW242158   4.274   2.119   0.860
13573SOL     OW42159   4.715   3.295   0.472
13573SOL    HW142160   4.679   3.373   0.431
13573SOL    HW242161   4.697   3.306   0.565
13574SOL     OW42162   4.077   3.675   0.873
13574SOL    HW142163   4.119   3.590   0.879
13574SOL    HW242164   4.145   3.738   0.897
13575SOL     OW42165   5.526   2.902   0.876
13575SOL    HW142166   5.470   2.886   0.800
13575SOL    HW242167   5.465   2.916   0.949
13576SOL     OW42168   4.949   3.407   1.511
13576SOL    HW142169   4.936   3.338   1.575
13576SOL    HW242170   4.862   3.424   1.475
13577SOL     OW42171   4.036   2.845   0.265
13577SOL    HW142172   4.114   2.853   0.210
13577SOL    HW242173   3.999   2.760   0.243
13578SOL     OW42174   5.205   2.611   0.718
13578SOL    HW142175   5.202   2.574   0.807
13578SOL    HW242176   5.279   2.672   0.721
13579SOL     OW42177   4.200   3.120   1.727
13579SOL    HW142178   4.170   3.126   1.636
13579SOL    HW242179   4.119   3.120   1.778
13580SOL     OW42180   4.795   3.645   0.228
13580SOL    HW142181   4.759   3.600   0.304
13580SOL    HW242182   4.865   3.588   0.196
13581SOL     OW42183   3.927   2.141   1.509
13581SOL    HW142184   3.859   2.203   1.534
13581SOL    HW242185   3.921   2.070   1.573
13582SOL     OW42186   5.379   3.273   0.058
13582SOL    HW142187   5.311   3.338   0.040
13582SOL    HW242188   5.331   3.191   0.072
13583SOL     OW42189   4.179   3.588   0.333
13583SOL    HW142190   4.225   3.649   0.391
13583SOL    HW242191   4.247   3.554   0.275
13584SOL     OW42192   5.128   1.964   0.448
13584SOL    HW142193   5.124   1.930   0.359
13584SOL    HW242194   5.221   1.967   0.469
13585SOL     OW42195   3.979   3.657   1.233
13585SOL    HW142196   4.029   3.599   1.291
13585SOL    HW242197   3.984   3.614   1.147
13586SOL     OW42198   4.661   3.565   0.895
13586SOL    HW142199   4.730   3.513   0.935
13586SOL    HW242200   4.627   3.510   0.824
13587SOL     OW42201   4.113   2.554   0.477
13587SOL    HW142202   4.129   2.461   0.488
13587SOL    HW242203   4.024   2.567   0.509
13588SOL     OW42204   5.249   2.084   1.723
13588SOL    HW142205   5.266   2.102   1.815
13588SOL    HW242206   5.174   2.024   1.724
13589SOL     OW42207   4.357   1.982   0.118
13589SOL    HW142208   4.450   1.960   0.117
13589SOL    HW242209   4.343   2.025   0.033
13590SOL     OW42210   4.482   2.139   1.751
13590SOL    HW142211   4.565   2.091   1.752
13590SOL    HW242212   4.441   2.116   1.835
13591SOL     OW42213   4.601   3.387   1.190
13591SOL    HW142214   4.578   3.343   1.109
13591SOL    HW242215   4.666   3.330   1.231
13592SOL     OW42216   5.063   2.449   1.436
13592SOL    HW142217   5.093   2.421   1.522
13592SOL    HW242218   5.098   2.538   1.427
13593SOL     OW42219   4.547   3.245   0.951
13593SOL    HW142220   4.632   3.236   0.908
13593SOL    HW242221   4.485   3.255   0.878
13594SOL     OW42222   4.659   2.372   0.898
13594SOL    HW142223   4.630   2.362   0.807
13594SOL    HW242224   4.685   2.283   0.924
13595SOL     OW42225   4.277   1.917   0.503
13595SOL    HW142226   4.199   1.918   0.558
13595SOL    HW242227   4.269   1.995   0.449
13596SOL     OW42228   5.182   3.083   0.056
13596SOL    HW142229   5.195   3.002   0.105
13596SOL    HW242230   5.092   3.108   0.075
13597SOL     OW42231   4.034   1.942   0.205
13597SOL    HW142232   4.111   1.997   0.216
13597SOL    HW242233   4.063   1.854   0.230
13598SOL     OW42234   4.669   2.112   0.463
13598SOL    HW142235   4.643   2.151   0.379
13598SOL    HW242236   4.763   2.126   0.467
13599SOL     OW42237   4.806   2.553   1.450
13599SOL    HW142238   4.738   2.487   1.465
13599SOL    HW242239   4.888   2.504   1.453
13600SOL     OW42240   4.951   3.426   0.788
13600SOL    HW142241   4.960   3.497   0.724
13600SOL    HW242242   5.004   3.454   0.862
13601SOL     OW42243   4.202   3.018   0.725
13601SOL    HW142244   4.138   2.997   0.793
13601SOL    HW242245   4.154   3.010   0.643
13602SOL     OW42246   4.982   3.650   0.612
13602SOL    HW142247   5.032   3.716   0.564
13602SOL    HW242248   4.912   3.699   0.654
13603SOL     OW42249   4.753   2.413   0.065
13603SOL    HW142250   4.745   2.500   0.025
13603SOL    HW242251   4.814   2.426   0.138
13604SOL     OW42252   3.805   2.424   1.390
13604SOL    HW142253   3.898   2.418   1.368
13604SOL    HW242254   3.801   2.493   1.456
13605SOL     OW42255   4.277   2.086   1.179
13605SOL    HW142256   4.320   2.030   1.244
13605SOL    HW242257   4.185   2.088   1.207
13606SOL     OW42258   4.590   2.320   0.639
13606SOL    HW142259   4.546   2.379   0.577
13606SOL    HW242260   4.610   2.242   0.588
13607SOL     OW42261   4.750   1.909   0.738
13607SOL    HW142262   4.683   1.907   0.669
13607SOL    HW242263   4.724   1.840   0.799
13608SOL     OW42264   5.163   3.018   0.863
13608SOL    HW142265   5.093   2.954   0.873
13608SOL    HW242266   5.177   3.024   0.768
13609SOL     OW42267   5.189   2.468   0.959
13609SOL    HW142268   5.126   2.397   0.971
13609SOL    HW242269   5.245   2.465   1.037
13610SOL     OW42270   5.553   2.684   0.426
13610SOL    HW142271   5.606   2.624   0.480
13610SOL    HW242272   5.522   2.629   0.354
13611SOL     OW42273   4.219   3.258   0.173
13611SOL    HW142274   4.151   3.218   0.226
13611SOL    HW242275   4.172   3.302   0.102
13612SOL     OW42276   5.403   3.132   0.642
13612SOL    HW142277   5.497   3.127   0.661
13612SOL    HW242278   5.377   3.219   0.671
13613SOL     OW42279   5.127   2.414   0.089
13613SOL    HW142280   5.070   2.412   0.166
13613SOL    HW242281   5.184   2.338   0.100
13614SOL     OW42282   4.248   2.117   0.323
13614SOL    HW142283   4.301   2.070   0.259
13614SOL    HW242284   4.228   2.201   0.282
13615SOL     OW42285   5.467   3.103   1.546
13615SOL    HW142286   5.556   3.067   1.540
13615SOL    HW242287   5.480   3.191   1.582
13616SOL     OW42288   4.776   3.204   1.314
13616SOL    HW142289   4.700   3.180   1.367
13616SOL    HW242290   4.851   3.174   1.366
13617SOL     OW42291   5.333   3.491   1.657
13617SOL    HW142292   5.328   3.526   1.568
13617SOL    HW242293   5.412   3.438   1.658
13618SOL     OW42294   4.851   3.056   1.093
13618SOL    HW142295   4.808   3.103   1.165
13618SOL    HW242296   4.828   3.106   1.015
13619SOL     OW42297   5.349   2.962   1.077
13619SOL    HW142298   5.343   3.024   1.150
13619SOL    HW242299   5.274   2.982   1.022
13620SOL     OW42300   4.648   1.948   1.391
13620SOL    HW142301   4.670   1.937   1.299
13620SOL    HW242302   4.724   1.991   1.429
13621SOL     OW42303   4.709   2.981   1.721
13621SOL    HW142304   4.621   3.001   1.752
13621SOL    HW242305   4.700   2.899   1.673
13622SOL     OW42306   4.430   2.919   0.371
13622SOL    HW142307   4.415   2.900   0.464
13622SOL    HW242308   4.508   2.868   0.349
13623SOL     OW42309   4.147   2.679   1.252
13623SOL    HW142310   4.214   2.691   1.319
13623SOL    HW242311   4.111   2.592   1.269
13624SOL     OW42312   4.990   2.239   1.280
13624SOL    HW142313   5.020   2.315   1.329
13624SOL    HW242314   4.898   2.258   1.260
13625SOL     OW42315   3.805   3.436   1.361
13625SOL    HW142316   3.789   3.523   1.324
13625SOL    HW242317   3.900   3.425   1.356
13626SOL     OW42318   4.055   2.993   0.497
13626SOL    HW142319   4.046   3.070   0.441
13626SOL    HW242320   4.059   2.919   0.435
13627SOL     OW42321   4.267   2.383   0.851
13627SOL    HW142322   4.282   2.443   0.778
13627SOL    HW242323   4.330   2.409   0.918
13628SOL     OW42324   4.966   3.211   0.393
13628SOL    HW142325   5.021   3.281   0.427
13628SOL    HW242326   4.879   3.231   0.428
13629SOL     OW42327   5.014   3.326   1.156
13629SOL    HW142328   5.075   3.337   1.229
13629SOL    HW242329   4.945   3.270   1.191
13630SOL     OW42330   5.283   2.478   0.489
13630SOL    HW142331   5.237   2.515   0.565
13630SOL    HW242332   5.323   2.553   0.446
13631SOL     OW42333   4.069   3.390   1.310
13631SOL    HW142334   4.060   3.344   1.227
13631SOL    HW242335   4.163   3.402   1.321
13632SOL     OW42336   4.157   2.590   1.610
13632SOL    HW142337   4.212   2.639   1.548
13632SOL    HW242338   4.215   2.522   1.644
13633SOL     OW42339   5.340   2.638   1.689
13633SOL    HW142340   5.254   2.680   1.686
13633SOL    HW242341   5.391   2.684   1.622
13634SOL     OW42342   4.720   2.000   1.750
13634SOL    HW142343   4.777   2.075   1.734
13634SOL    HW242344   4.774   1.924   1.730
13635SOL     OW42345   4.222   1.892   1.746
13635SOL    HW142346   4.168   1.842   1.685
13635SOL    HW242347   4.171   1.971   1.763
13636SOL     OW42348   4.308   2.737   1.034
13636SOL    HW142349   4.346   2.825   1.038
13636SOL    HW242350   4.254   2.730   1.112
13637SOL     OW42351   5.059   2.719   1.004
13637SOL    HW142352   4.968   2.698   0.985
13637SOL    HW242353   5.105   2.636   0.998
13638SOL     OW42354   4.931   2.391   0.281
13638SOL    HW142355   4.944   2.318   0.341
13638SOL    HW242356   4.887   2.458   0.334
13639SOL     OW42357   4.010   2.060   1.249
13639SOL    HW142358   3.978   2.093   1.332
13639SOL    HW242359   3.992   1.966   1.253
13640SOL     OW42360   3.774   3.177   1.268
13640SOL    HW142361   3.799   3.119   1.340
13640SOL    HW242362   3.776   3.265   1.307
13641SOL     OW42363   4.432   2.486   1.042
13641SOL    HW142364   4.516   2.483   0.996
13641SOL    HW242365   4.404   2.577   1.034
13642SOL     OW42366   5.467   2.822   1.861
13642SOL    HW142367   5.421   2.752   1.814
13642SOL    HW242368   5.409   2.846   1.933
13643SOL     OW42369   4.032   1.922   0.629
13643SOL    HW142370   4.008   2.013   0.649
13643SOL    HW242371   4.041   1.880   0.715
13644SOL     OW42372   5.338   2.242   0.364
13644SOL    HW142373   5.367   2.175   0.426
13644SOL    HW242374   5.305   2.314   0.419
13645SOL     OW42375   4.761   2.618   0.958
13645SOL    HW142376   4.745   2.636   1.050
13645SOL    HW242377   4.731   2.528   0.945
13646SOL     OW42378   4.709   3.447   1.718
13646SOL    HW142379   4.696   3.476   1.627
13646SOL    HW242380   4.732   3.354   1.710
13647SOL     OW42381   5.572   3.357   1.603
13647SOL    HW142382   5.597   3.388   1.516
13647SOL    HW242383   5.649   3.372   1.658
13648SOL     OW42384   4.075   2.786   1.795
13648SOL    HW142385   4.144   2.812   1.856
13648SOL    HW242386   4.114   2.716   1.742
13649SOL     OW42387   5.265   2.119   0.130
13649SOL    HW142388   5.201   2.051   0.150
13649SOL    HW242389   5.286   2.157   0.215
13650SOL     OW42390   5.009   2.666   0.051
13650SOL    HW142391   5.066   2.589   0.045
13650SOL    HW242392   5.049   2.730  -0.008
13651SOL     OW42393   4.796   3.204   0.854
13651SOL    HW142394   4.804   3.131   0.793
13651SOL    HW242395   4.855   3.271   0.821
13652SOL     OW42396   4.037   2.671   0.941
13652SOL    HW142397   4.130   2.694   0.947
13652SOL    HW242398   4.032   2.582   0.976
13653SOL     OW42399   4.046   2.393   1.009
13653SOL    HW142400   4.011   2.305   1.000
13653SOL    HW242401   4.123   2.394   0.952
13654SOL     OW42402   4.861   2.234   1.687
13654SOL    HW142403   4.812   2.286   1.750
13654SOL    HW242404   4.947   2.274   1.684
13655SOL     OW42405   4.887   2.060   1.472
13655SOL    HW142406   4.874   2.121   1.544
13655SOL    HW242407   4.929   2.113   1.404
13656SOL     OW42408   3.809   3.641   0.935
13656SOL    HW142409   3.782   3.561   0.890
13656SOL    HW242410   3.901   3.652   0.910
13657SOL     OW42411   4.210   3.434   0.898
13657SOL    HW142412   4.279   3.495   0.924
13657SOL    HW242413   4.254   3.369   0.842
13658SOL     OW42414   4.691   2.644   1.218
13658SOL    HW142415   4.753   2.626   1.289
13658SOL    HW242416   4.605   2.622   1.255
13659SOL     OW42417   3.766   2.415   1.116
13659SOL    HW142418   3.851   2.416   1.072
13659SOL    HW242419   3.787   2.418   1.209
13660SOL     OW42420   3.902   2.390   1.728
13660SOL    HW142421   3.989   2.375   1.692
13660SOL    HW242422   3.870   2.468   1.683
13661SOL     OW42423   5.113   2.786   1.654
13661SOL    HW142424   5.129   2.881   1.654
13661SOL    HW242425   5.106   2.763   1.561
13662SOL     OW42426   4.538   2.443   0.376
13662SOL    HW142427   4.543   2.364   0.321
13662SOL    HW242428   4.459   2.488   0.346
13663SOL     OW42429   5.363   2.464   1.169
13663SOL    HW142430   5.352   2.411   1.249
13663SOL    HW242431   5.452   2.446   1.141
13664SOL     OW42432   3.957   3.407   1.722
13664SOL    HW142433   3.940   3.473   1.789
13664SOL    HW242434   3.972   3.326   1.771
13665SOL     OW42435   4.445   2.305   1.245
13665SOL    HW142436   4.380   2.237   1.229
13665SOL    HW242437   4.431   2.369   1.176
13666SOL     OW42438   4.678   3.531   1.452
13666SOL    HW142439   4.628   3.495   1.379
13666SOL    HW242440   4.658   3.625   1.452
13667SOL     OW42441   4.194   2.337   0.181
13667SOL    HW142442   4.239   2.416   0.211
13667SOL    HW242443   4.124   2.370   0.124
13668SOL     OW42444   3.858   3.005   1.470
13668SOL    HW142445   3.859   2.957   1.553
13668SOL    HW242446   3.880   2.939   1.404
13669SOL     OW42447   5.045   2.900   1.210
13669SOL    HW142448   5.062   2.839   1.139
13669SOL    HW242449   4.976   2.957   1.176
13670SOL     OW42450   5.026   2.707   0.325
13670SOL    HW142451   4.950   2.676   0.375
13670SOL    HW242452   5.007   2.681   0.235
13671SOL     OW42453   5.492   3.598   1.149
13671SOL    HW142454   5.558   3.621   1.084
13671SOL    HW242455   5.472   3.507   1.132
13672SOL     OW42456   4.960   3.590   1.083
13672SOL    HW142457   5.047   3.617   1.053
13672SOL    HW242458   4.973   3.502   1.118
13673SOL     OW42459   3.818   3.124   1.008
13673SOL    HW142460   3.801   3.143   1.101
13673SOL    HW242461   3.744   3.070   0.981
13674SOL     OW42462   4.400   3.533   1.727
13674SOL    HW142463   4.350   3.615   1.732
13674SOL    HW242464   4.491   3.562   1.720
13675SOL     OW42465   4.630   1.956   0.098
13675SOL    HW142466   4.679   1.976   0.018
13675SOL    HW242467   4.695   1.921   0.158
13676SOL     OW42468   5.443   2.018   0.502
13676SOL    HW142469   5.512   1.994   0.440
13676SOL    HW242470   5.424   1.937   0.549
13677SOL     OW42471   5.116   3.428   0.492
13677SOL    HW142472   5.178   3.464   0.429
13677SOL    HW242473   5.067   3.503   0.524
13678SOL     OW42474   3.881   3.661   1.846
13678SOL    HW142475   3.828   3.597   1.894
13678SOL    HW242476   3.926   3.710   1.914
13679SOL     OW42477   5.000   2.789   0.663
13679SOL    HW142478   5.075   2.731   0.678
13679SOL    HW242479   5.035   2.861   0.611
13680SOL     OW42480   4.524   3.141   1.416
13680SOL    HW142481   4.500   3.183   1.499
13680SOL    HW242482   4.447   3.152   1.361
13681SOL     OW42483   4.388   3.472   0.193
13681SOL    HW142484   4.444   3.479   0.116
13681SOL    HW242485   4.341   3.389   0.181
13682SOL     OW42486   5.344   3.594   1.392
13682SOL    HW142487   5.394   3.599   1.310
13682SOL    HW242488   5.329   3.685   1.417
13683SOL     OW42489   5.569   2.030   0.959
13683SOL    HW142490   5.596   1.940   0.940
13683SOL    HW242491   5.479   2.036   0.925
13684SOL     OW42492   3.976   2.173   0.714
13684SOL    HW142493   3.890   2.209   0.695
13684SOL    HW242494   3.980   2.169   0.810
13685SOL     OW42495   4.924   3.457   0.074
13685SOL    HW142496   4.920   3.364   0.092
13685SOL    HW242497   4.854   3.473   0.011
13686SOL     OW42498   4.550   2.871   1.375
13686SOL    HW142499   4.595   2.872   1.291
13686SOL    HW242500   4.542   2.963   1.399
13687SOL     OW42501   4.648   2.783   0.286
13687SOL    HW142502   4.713   2.808   0.221
13687SOL    HW242503   4.693   2.716   0.339
13688SOL     OW42504   5.182   3.444  -0.002
13688SOL    HW142505   5.097   3.467   0.036
13688SOL    HW242506   5.235   3.523   0.010
13689SOL     OW42507   4.090   3.160   1.483
13689SOL    HW142508   4.073   3.242   1.437
13689SOL    HW242509   4.008   3.110   1.475
13690SOL     OW42510   5.336   3.151   1.285
13690SOL    HW142511   5.384   3.128   1.364
13690SOL    HW242512   5.273   3.217   1.313
13691SOL     OW42513   4.791   2.973   0.710
13691SOL    HW142514   4.719   2.926   0.750
13691SOL    HW242515   4.856   2.905   0.689
13692SOL     OW42516   4.752   2.105   0.959
13692SOL    HW142517   4.751   2.056   0.877
13692SOL    HW242518   4.746   2.038   1.027
13693SOL     OW42519   4.321   3.340   0.475
13693SOL    HW142520   4.354   3.296   0.397
13693SOL    HW242521   4.246   3.391   0.444
13694SOL     OW42522   5.451   2.254   1.373
13694SOL    HW142523   5.523   2.316   1.378
13694SOL    HW242524   5.482   2.184   1.317
13695SOL     OW42525   3.991   3.192   0.311
13695SOL    HW142526   3.912   3.209   0.260
13695SOL    HW242527   3.977   3.240   0.393
13696SOL     OW42528   3.829   2.871   1.705
13696SOL    HW142529   3.757   2.862   1.767
13696SOL    HW242530   3.907   2.850   1.755
13697SOL     OW42531   4.404   2.050   1.496
13697SOL    HW142532   4.491   2.028   1.462
13697SOL    HW242533   4.421   2.083   1.584
13698SOL     OW42534   5.146   2.715   1.390
13698SOL    HW142535   5.096   2.778   1.337
13698SOL    HW242536   5.236   2.722   1.357
13699SOL     OW42537   3.788   2.008   0.307
13699SOL    HW142538   3.796   2.102   0.319
13699SOL    HW242539   3.873   1.981   0.273
13700SOL     OW42540   4.915   3.182   0.120
13700SOL    HW142541   4.819   3.186   0.109
13700SOL    HW242542   4.928   3.182   0.215
13701SOL     OW42543   4.348   2.691   1.432
13701SOL    HW142544   4.403   2.768   1.423
13701SOL    HW242545   4.410   2.618   1.441
13702SOL     OW42546   5.214   3.652   0.987
13702SOL    HW142547   5.238   3.725   0.929
13702SOL    HW242548   5.295   3.628   1.030
13703SOL     OW42549   4.435   2.425   1.695
13703SOL    HW142550   4.480   2.484   1.755
13703SOL    HW242551   4.450   2.338   1.731
13704SOL     OW42552   5.192   3.051   1.628
13704SOL    HW142553   5.175   3.069   1.721
13704SOL    HW242554   5.283   3.076   1.615
13705SOL     OW42555   4.088   3.599   1.561
13705SOL    HW142556   4.003   3.644   1.556
13705SOL    HW242557   4.069   3.517   1.607
13706SOL     OW42558   5.388   2.743   1.252
13706SOL    HW142559   5.382   2.659   1.206
13706SOL    HW242560   5.377   2.809   1.184
13707SOL     OW42561   4.946   2.177   0.452
13707SOL    HW142562   5.006   2.102   0.452
13707SOL    HW242563   4.969   2.225   0.532
13708SOL     OW42564   4.314   2.587   0.667
13708SOL    HW142565   4.352   2.675   0.661
13708SOL    HW242566   4.245   2.586   0.601
13709SOL     OW42567   5.477   2.225   1.645
13709SOL    HW142568   5.458   2.242   1.553
13709SOL    HW242569   5.405   2.169   1.674
13710SOL     OW42570   5.473   2.794   1.509
13710SOL    HW142571   5.457   2.887   1.526
13710SOL    HW242572   5.452   2.783   1.417
13711SOL     OW42573   4.650   3.234   0.055
13711SOL    HW142574   4.595   3.213   0.131
13711SOL    HW242575   4.630   3.326   0.037
13712SOL     OW42576   4.387   3.635   0.928
13712SOL    HW142577   4.370   3.729   0.919
13712SOL    HW242578   4.483   3.628   0.928
13713SOL     OW42579   4.597   2.835   0.852
13713SOL    HW142580   4.647   2.765   0.893
13713SOL    HW242581   4.553   2.879   0.926
13714SOL     OW42582   4.814   2.853   0.079
13714SOL    HW142583   4.852   2.937   0.054
13714SOL    HW242584   4.886   2.791   0.074
13715SOL     OW42585   5.562   3.410   0.841
13715SOL    HW142586   5.481   3.403   0.791
13715SOL    HW242587   5.545   3.363   0.922
13716SOL     OW42588   3.968   3.166   1.865
13716SOL    HW142589   3.883   3.122   1.863
13716SOL    HW242590   3.982   3.189   1.957
13717SOL     OW42591   3.814   3.087   0.672
13717SOL    HW142592   3.829   3.047   0.757
13717SOL    HW242593   3.882   3.051   0.615
13718SOL     OW42594   4.405   3.277   1.619
13718SOL    HW142595   4.335   3.229   1.664
13718SOL    HW242596   4.402   3.365   1.657
13719SOL     OW42597   5.538   2.043   1.231
13719SOL    HW142598   5.538   1.948   1.245
13719SOL    HW242599   5.550   2.053   1.137
13720SOL     OW42600   4.141   2.293   0.522
13720SOL    HW142601   4.182   2.221   0.473
13720SOL    HW242602   4.098   2.251   0.596
13721SOL     OW42603   5.427   3.340   1.084
13721SOL    HW142604   5.343   3.323   1.041
13721SOL    HW242605   5.430   3.277   1.156
13722SOL     OW42606   4.059   2.421   1.291
13722SOL    HW142607   4.112   2.362   1.346
13722SOL    HW242608   4.076   2.393   1.202
13723SOL     OW42609   4.558   3.431   0.680
13723SOL    HW142610   4.532   3.491   0.609
13723SOL    HW242611   4.483   3.373   0.691
13724SOL     OW42612   5.153   2.093   1.118
13724SOL    HW142613   5.173   2.013   1.167
13724SOL    HW242614   5.103   2.147   1.180
13725SOL     OW42615   4.736   1.882   1.129
13725SOL    HW142616   4.676   1.816   1.093
13725SOL    HW242617   4.822   1.840   1.128
13726SOL     OW42618   4.528   3.172   0.294
13726SOL    HW142619   4.484   3.092   0.324
13726SOL    HW242620   4.588   3.194   0.365
13727SOL     OW42621   4.343   3.422   1.281
13727SOL    HW142622   4.339   3.505   1.329
13727SOL    HW242623   4.433   3.416   1.250
13728SOL     OW42624   5.093   1.900   0.181
13728SOL    HW142625   5.087   1.837   0.109
13728SOL    HW242626   5.008   1.944   0.182
13729SOL     OW42627   5.015   2.323   0.673
13729SOL    HW142628   4.965   2.405   0.677
13729SOL    HW242629   5.012   2.289   0.762
13730SOL     OW42630   5.306   2.052   0.889
13730SOL    HW142631   5.253   2.077   0.965
13730SOL    HW242632   5.305   2.130   0.833
13731SOL     OW42633   3.760   2.938   0.331
13731SOL    HW142634   3.854   2.944   0.312
13731SOL    HW242635   3.750   2.853   0.375
13732SOL     OW42636   4.595   3.516   0.372
13732SOL    HW142637   4.517   3.501   0.319
13732SOL    HW242638   4.576   3.597   0.420
13733SOL     OW42639   3.942   2.475   1.996
13733SOL    HW142640   3.859   2.477   2.044
13733SOL    HW242641   3.917   2.461   1.905
13734SOL     OW42642   3.952   2.138   2.851
13734SOL    HW142643   3.976   2.112   2.940
13734SOL    HW242644   3.860   2.112   2.841
13735SOL     OW42645   3.718   2.249   2.498
13735SOL    HW142646   3.644   2.282   2.549
13735SOL    HW242647   3.686   2.167   2.459
13736SOL     OW42648   5.286   3.380   2.575
13736SOL    HW142649   5.248   3.365   2.662
13736SOL    HW242650   5.211   3.388   2.517
13737SOL     OW42651   4.859   2.552   2.552
13737SOL    HW142652   4.904   2.635   2.539
13737SOL    HW242653   4.813   2.562   2.635
13738SOL     OW42654   5.530   2.446   2.081
13738SOL    HW142655   5.493   2.444   1.993
13738SOL    HW242656   5.474   2.388   2.132
13739SOL     OW42657   4.434   2.974   2.883
13739SOL    HW142658   4.359   3.017   2.925
13739SOL    HW242659   4.470   3.040   2.823
13740SOL     OW42660   4.585   2.620   3.693
13740SOL    HW142661   4.549   2.677   3.761
13740SOL    HW242662   4.608   2.679   3.622
13741SOL     OW42663   4.391   2.882   2.509
13741SOL    HW142664   4.461   2.872   2.575
13741SOL    HW242665   4.348   2.964   2.533
13742SOL     OW42666   4.444   3.017   3.666
13742SOL    HW142667   4.487   3.097   3.698
13742SOL    HW242668   4.357   3.046   3.640
13743SOL     OW42669   5.185   3.366   3.223
13743SOL    HW142670   5.231   3.450   3.235
13743SOL    HW242671   5.111   3.370   3.284
13744SOL     OW42672   4.181   2.227   3.305
13744SOL    HW142673   4.257   2.182   3.342
13744SOL    HW242674   4.108   2.199   3.360
13745SOL     OW42675   5.314   2.304   2.617
13745SOL    HW142676   5.236   2.314   2.563
13745SOL    HW242677   5.299   2.362   2.692
13746SOL     OW42678   3.942   3.568   2.326
13746SOL    HW142679   3.953   3.642   2.386
13746SOL    HW242680   4.024   3.566   2.276
13747SOL     OW42681   4.879   3.185   3.564
13747SOL    HW142682   4.903   3.190   3.657
13747SOL    HW242683   4.820   3.110   3.559
13748SOL     OW42684   3.935   3.297   2.398
13748SOL    HW142685   3.930   3.391   2.383
13748SOL    HW242686   4.007   3.287   2.461
13749SOL     OW42687   4.306   2.847   1.996
13749SOL    HW142688   4.358   2.893   1.931
13749SOL    HW242689   4.339   2.878   2.080
13750SOL     OW42690   5.314   1.978   3.322
13750SOL    HW142691   5.227   1.974   3.282
13750SOL    HW242692   5.300   2.020   3.407
13751SOL     OW42693   3.838   2.521   2.413
13751SOL    HW142694   3.811   2.433   2.441
13751SOL    HW242695   3.832   2.573   2.493
13752SOL     OW42696   5.569   3.607   2.180
13752SOL    HW142697   5.625   3.582   2.253
13752SOL    HW242698   5.583   3.702   2.171
13753SOL     OW42699   3.758   3.453   1.969
13753SOL    HW142700   3.747   3.360   1.990
13753SOL    HW242701   3.737   3.498   2.050
13754SOL     OW42702   5.404   2.773   2.492
13754SOL    HW142703   5.495   2.748   2.476
13754SOL    HW242704   5.384   2.836   2.422
13755SOL     OW42705   5.382   2.968   2.288
13755SOL    HW142706   5.469   2.968   2.250
13755SOL    HW242707   5.385   3.035   2.356
13756SOL     OW42708   3.855   2.620   3.434
13756SOL    HW142709   3.948   2.638   3.447
13756SOL    HW242710   3.810   2.696   3.470
13757SOL     OW42711   5.011   3.087   3.284
13757SOL    HW142712   5.049   3.024   3.223
13757SOL    HW242713   5.065   3.081   3.362
13758SOL     OW42714   4.544   1.861   2.370
13758SOL    HW142715   4.585   1.945   2.350
13758SOL    HW242716   4.451   1.882   2.378
13759SOL     OW42717   3.919   2.826   3.132
13759SOL    HW142718   4.001   2.778   3.118
13759SOL    HW242719   3.852   2.774   3.088
13760SOL     OW42720   5.262   2.865   2.061
13760SOL    HW142721   5.193   2.806   2.093
13760SOL    HW242722   5.300   2.901   2.141
13761SOL     OW42723   5.012   3.669   3.508
13761SOL    HW142724   4.924   3.703   3.524
13761SOL    HW242725   4.998   3.578   3.481
13762SOL     OW42726   4.080   2.121   3.655
13762SOL    HW142727   4.124   2.189   3.705
13762SOL    HW242728   3.990   2.122   3.687
13763SOL     OW42729   5.206   3.268   2.818
13763SOL    HW142730   5.133   3.289   2.876
13763SOL    HW242731   5.186   3.181   2.784
13764SOL     OW42732   5.383   3.621   2.435
13764SOL    HW142733   5.348   3.578   2.357
13764SOL    HW242734   5.356   3.565   2.508
13765SOL     OW42735   4.318   2.568   2.132
13765SOL    HW142736   4.332   2.657   2.100
13765SOL    HW242737   4.254   2.578   2.203
13766SOL     OW42738   5.003   2.203   2.776
13766SOL    HW142739   4.911   2.186   2.793
13766SOL    HW242740   5.050   2.163   2.849
13767SOL     OW42741   5.297   3.546   2.170
13767SOL    HW142742   5.391   3.566   2.165
13767SOL    HW242743   5.272   3.525   2.081
13768SOL     OW42744   4.526   2.477   3.305
13768SOL    HW142745   4.495   2.456   3.393
13768SOL    HW242746   4.487   2.410   3.249
13769SOL     OW42747   5.114   2.342   3.538
13769SOL    HW142748   5.112   2.381   3.625
13769SOL    HW242749   5.168   2.264   3.548
13770SOL     OW42750   4.669   2.747   3.447
13770SOL    HW142751   4.726   2.681   3.407
13770SOL    HW242752   4.625   2.789   3.373
13771SOL     OW42753   4.732   2.270   3.092
13771SOL    HW142754   4.650   2.299   3.131
13771SOL    HW242755   4.706   2.221   3.014
13772SOL     OW42756   4.777   2.557   2.284
13772SOL    HW142757   4.797   2.554   2.378
13772SOL    HW242758   4.692   2.513   2.277
13773SOL     OW42759   3.816   2.669   2.637
13773SOL    HW142760   3.898   2.669   2.687
13773SOL    HW242761   3.762   2.736   2.680
13774SOL     OW42762   4.623   2.206   2.050
13774SOL    HW142763   4.659   2.273   1.993
13774SOL    HW242764   4.658   2.123   2.016
13775SOL     OW42765   5.451   2.428   3.685
13775SOL    HW142766   5.408   2.503   3.644
13775SOL    HW242767   5.458   2.363   3.615
13776SOL     OW42768   5.105   3.007   2.410
13776SOL    HW142769   5.184   3.014   2.357
13776SOL    HW242770   5.044   3.070   2.371
13777SOL     OW42771   4.273   2.035   2.772
13777SOL    HW142772   4.275   2.057   2.865
13777SOL    HW242773   4.274   2.119   2.727
13778SOL     OW42774   4.713   3.305   2.324
13778SOL    HW142775   4.695   3.386   2.275
13778SOL    HW242776   4.668   3.318   2.408
13779SOL     OW42777   4.157   3.654   2.642
13779SOL    HW142778   4.200   3.571   2.660
13779SOL    HW242779   4.185   3.711   2.714
13780SOL     OW42780   5.520   2.901   2.723
13780SOL    HW142781   5.452   2.893   2.656
13780SOL    HW242782   5.472   2.920   2.803
13781SOL     OW42783   4.960   3.392   3.379
13781SOL    HW142784   4.946   3.321   3.442
13781SOL    HW242785   4.874   3.408   3.341
13782SOL     OW42786   4.060   2.808   2.119
13782SOL    HW142787   4.142   2.822   2.072
13782SOL    HW242788   4.031   2.722   2.091
13783SOL     OW42789   5.203   2.603   2.577
13783SOL    HW142790   5.200   2.571   2.667
13783SOL    HW242791   5.278   2.662   2.576
13784SOL     OW42792   4.199   3.136   3.611
13784SOL    HW142793   4.152   3.148   3.529
13784SOL    HW242794   4.132   3.112   3.674
13785SOL     OW42795   4.852   3.654   2.073
13785SOL    HW142796   4.778   3.623   2.125
13785SOL    HW242797   4.875   3.580   2.017
13786SOL     OW42798   3.917   2.137   3.387
13786SOL    HW142799   3.848   2.202   3.395
13786SOL    HW242800   3.943   2.117   3.477
13787SOL     OW42801   5.353   3.242   1.941
13787SOL    HW142802   5.312   3.328   1.938
13787SOL    HW242803   5.282   3.180   1.928
13788SOL     OW42804   4.184   3.603   2.184
13788SOL    HW142805   4.224   3.664   2.247
13788SOL    HW242806   4.222   3.518   2.207
13789SOL     OW42807   5.123   1.970   2.308
13789SOL    HW142808   5.120   1.946   2.216
13789SOL    HW242809   5.216   1.981   2.328
13790SOL     OW42810   4.121   2.556   2.326
13790SOL    HW142811   4.130   2.463   2.345
13790SOL    HW242812   4.030   2.576   2.348
13791SOL     OW42813   5.247   2.091   3.582
13791SOL    HW142814   5.261   2.102   3.676
13791SOL    HW242815   5.164   2.044   3.576
13792SOL     OW42816   4.369   1.979   1.962
13792SOL    HW142817   4.427   1.907   1.988
13792SOL    HW242818   4.317   1.944   1.890
13793SOL     OW42819   4.485   2.136   3.611
13793SOL    HW142820   4.568   2.088   3.610
13793SOL    HW242821   4.461   2.139   3.704
13794SOL     OW42822   5.068   2.451   3.291
13794SOL    HW142823   5.092   2.419   3.378
13794SOL    HW242824   5.100   2.541   3.289
13795SOL     OW42825   4.662   2.373   2.761
13795SOL    HW142826   4.632   2.360   2.671
13795SOL    HW242827   4.687   2.285   2.790
13796SOL     OW42828   4.275   1.922   2.353
13796SOL    HW142829   4.201   1.925   2.414
13796SOL    HW242830   4.264   2.001   2.299
13797SOL     OW42831   5.145   3.064   1.901
13797SOL    HW142832   5.175   2.992   1.956
13797SOL    HW242833   5.062   3.092   1.940
13798SOL     OW42834   4.021   1.912   2.053
13798SOL    HW142835   4.080   1.987   2.055
13798SOL    HW242836   4.070   1.842   2.095
13799SOL     OW42837   4.663   2.107   2.313
13799SOL    HW142838   4.638   2.152   2.231
13799SOL    HW242839   4.756   2.127   2.324
13800SOL     OW42840   4.806   2.550   3.312
13800SOL    HW142841   4.735   2.487   3.323
13800SOL    HW242842   4.885   2.496   3.310
13801SOL     OW42843   4.938   3.420   2.664
13801SOL    HW142844   4.954   3.490   2.601
13801SOL    HW242845   4.878   3.458   2.728
13802SOL     OW42846   4.983   3.646   2.461
13802SOL    HW142847   5.020   3.725   2.423
13802SOL    HW242848   4.908   3.675   2.511
13803SOL     OW42849   4.750   2.390   1.887
13803SOL    HW142850   4.704   2.473   1.872
13803SOL    HW242851   4.809   2.409   1.960
13804SOL     OW42852   3.800   2.422   3.249
13804SOL    HW142853   3.894   2.417   3.230
13804SOL    HW242854   3.793   2.493   3.314
13805SOL     OW42855   4.274   2.082   3.043
13805SOL    HW142856   4.320   2.041   3.117
13805SOL    HW242857   4.183   2.089   3.073
13806SOL     OW42858   4.588   2.314   2.504
13806SOL    HW142859   4.539   2.377   2.450
13806SOL    HW242860   4.605   2.240   2.445
13807SOL     OW42861   4.757   1.906   2.600
13807SOL    HW142862   4.686   1.910   2.536
13807SOL    HW242863   4.729   1.841   2.664
13808SOL     OW42864   5.164   3.013   2.718
13808SOL    HW142865   5.080   2.977   2.746
13808SOL    HW242866   5.156   3.023   2.623
13809SOL     OW42867   5.188   2.459   2.829
13809SOL    HW142868   5.119   2.398   2.855
13809SOL    HW242869   5.245   2.465   2.906
13810SOL     OW42870   5.586   2.667   2.237
13810SOL    HW142871   5.636   2.618   2.303
13810SOL    HW242872   5.557   2.600   2.175
13811SOL     OW42873   4.225   3.286   2.000
13811SOL    HW142874   4.157   3.274   2.067
13811SOL    HW242875   4.202   3.223   1.932
13812SOL     OW42876   5.406   3.143   2.486
13812SOL    HW142877   5.497   3.148   2.515
13812SOL    HW242878   5.365   3.222   2.521
13813SOL     OW42879   5.114   2.435   1.935
13813SOL    HW142880   5.047   2.417   2.001
13813SOL    HW242881   5.197   2.424   1.980
13814SOL     OW42882   4.235   2.116   2.163
13814SOL    HW142883   4.296   2.081   2.098
13814SOL    HW242884   4.214   2.204   2.130
13815SOL     OW42885   5.471   3.102   3.410
13815SOL    HW142886   5.560   3.068   3.398
13815SOL    HW242887   5.483   3.190   3.446
13816SOL     OW42888   4.785   3.199   3.182
13816SOL    HW142889   4.709   3.178   3.235
13816SOL    HW242890   4.860   3.165   3.231
13817SOL     OW42891   5.345   3.488   3.525
13817SOL    HW142892   5.331   3.527   3.438
13817SOL    HW242893   5.422   3.433   3.514
13818SOL     OW42894   4.835   3.028   2.970
13818SOL    HW142895   4.809   3.091   3.037
13818SOL    HW242896   4.828   3.076   2.888
13819SOL     OW42897   5.358   2.966   2.938
13819SOL    HW142898   5.350   3.029   3.009
13819SOL    HW242899   5.281   2.982   2.883
13820SOL     OW42900   4.660   1.952   3.264
13820SOL    HW142901   4.678   1.948   3.171
13820SOL    HW242902   4.736   1.996   3.301
13821SOL     OW42903   4.711   2.969   3.594
13821SOL    HW142904   4.621   2.991   3.618
13821SOL    HW242905   4.702   2.891   3.539
13822SOL     OW42906   4.425   2.916   2.234
13822SOL    HW142907   4.409   2.907   2.328
13822SOL    HW242908   4.500   2.859   2.217
13823SOL     OW42909   4.147   2.674   3.112
13823SOL    HW142910   4.213   2.688   3.180
13823SOL    HW242911   4.110   2.588   3.132
13824SOL     OW42912   5.010   2.308   3.068
13824SOL    HW142913   5.035   2.357   3.146
13824SOL    HW242914   4.916   2.294   3.078
13825SOL     OW42915   4.011   2.980   2.327
13825SOL    HW142916   4.087   3.001   2.383
13825SOL    HW242917   4.045   2.917   2.264
13826SOL     OW42918   4.270   2.383   2.705
13826SOL    HW142919   4.283   2.447   2.636
13826SOL    HW242920   4.332   2.409   2.774
13827SOL     OW42921   4.965   3.215   2.257
13827SOL    HW142922   5.019   3.287   2.290
13827SOL    HW242923   4.878   3.233   2.292
13828SOL     OW42924   5.018   3.297   3.011
13828SOL    HW142925   5.071   3.324   3.086
13828SOL    HW242926   4.931   3.280   3.048
13829SOL     OW42927   5.302   2.492   2.337
13829SOL    HW142928   5.253   2.511   2.417
13829SOL    HW242929   5.327   2.577   2.304
13830SOL     OW42930   4.162   2.571   3.473
13830SOL    HW142931   4.208   2.628   3.412
13830SOL    HW242932   4.230   2.516   3.511
13831SOL     OW42933   5.346   2.643   3.553
13831SOL    HW142934   5.257   2.679   3.550
13831SOL    HW242935   5.392   2.686   3.481
13832SOL     OW42936   4.723   1.992   3.604
13832SOL    HW142937   4.774   2.073   3.594
13832SOL    HW242938   4.783   1.923   3.575
13833SOL     OW42939   4.222   1.890   3.603
13833SOL    HW142940   4.164   1.844   3.542
13833SOL    HW242941   4.175   1.971   3.623
13834SOL     OW42942   4.307   2.726   2.893
13834SOL    HW142943   4.347   2.813   2.892
13834SOL    HW242944   4.253   2.725   2.971
13835SOL     OW42945   5.058   2.712   2.872
13835SOL    HW142946   4.966   2.698   2.852
13835SOL    HW242947   5.097   2.625   2.866
13836SOL     OW42948   4.916   2.387   2.119
13836SOL    HW142949   4.925   2.312   2.177
13836SOL    HW242950   4.877   2.455   2.175
13837SOL     OW42951   4.003   2.063   3.112
13837SOL    HW142952   3.978   2.098   3.198
13837SOL    HW242953   3.988   1.969   3.119
13838SOL     OW42954   3.744   3.158   3.185
13838SOL    HW142955   3.787   3.092   3.240
13838SOL    HW242956   3.814   3.218   3.160
13839SOL     OW42957   4.431   2.481   2.902
13839SOL    HW142958   4.517   2.483   2.860
13839SOL    HW242959   4.399   2.571   2.896
13840SOL     OW42960   5.472   2.822   3.725
13840SOL    HW142961   5.428   2.754   3.674
13840SOL    HW242962   5.410   2.845   3.794
13841SOL     OW42963   4.034   1.922   2.488
13841SOL    HW142964   4.009   2.012   2.507
13841SOL    HW242965   4.042   1.881   2.574
13842SOL     OW42966   5.353   2.253   2.217
13842SOL    HW142967   5.372   2.188   2.285
13842SOL    HW242968   5.324   2.330   2.266
13843SOL     OW42969   4.769   2.616   2.821
13843SOL    HW142970   4.750   2.637   2.912
13843SOL    HW242971   4.737   2.527   2.809
13844SOL     OW42972   4.737   3.431   3.574
13844SOL    HW142973   4.701   3.440   3.485
13844SOL    HW242974   4.735   3.337   3.591
13845SOL     OW42975   5.582   3.352   3.467
13845SOL    HW142976   5.596   3.385   3.379
13845SOL    HW242977   5.662   3.373   3.514
13846SOL     OW42978   4.073   2.797   3.637
13846SOL    HW142979   4.073   2.791   3.732
13846SOL    HW242980   4.124   2.722   3.608
13847SOL     OW42981   5.265   2.126   1.987
13847SOL    HW142982   5.197   2.065   2.018
13847SOL    HW242983   5.293   2.172   2.066
13848SOL     OW42984   4.999   2.682   1.879
13848SOL    HW142985   5.045   2.599   1.892
13848SOL    HW242986   5.039   2.720   1.801
13849SOL     OW42987   4.819   3.164   2.736
13849SOL    HW142988   4.799   3.117   2.655
13849SOL    HW242989   4.851   3.249   2.707
13850SOL     OW42990   4.043   2.656   2.788
13850SOL    HW142991   4.131   2.692   2.801
13850SOL    HW242992   4.045   2.571   2.833
13851SOL     OW42993   4.057   2.385   2.875
13851SOL    HW142994   4.018   2.298   2.863
13851SOL    HW242995   4.130   2.388   2.814
13852SOL     OW42996   4.855   2.228   3.579
13852SOL    HW142997   4.812   2.291   3.637
13852SOL    HW242998   4.934   2.273   3.550
13853SOL     OW42999   3.726   3.178   2.038
13853SOL    HW143000   3.636   3.189   2.006
13853SOL    HW243001   3.725   3.093   2.083
13854SOL     OW43002   4.694   2.643   3.079
13854SOL    HW143003   4.754   2.622   3.151
13854SOL    HW243004   4.607   2.635   3.118
13855SOL     OW43005   3.767   2.406   2.976
13855SOL    HW143006   3.853   2.417   2.935
13855SOL    HW243007   3.785   2.412   3.070
13856SOL     OW43008   3.905   2.391   3.573
13856SOL    HW143009   3.999   2.407   3.563
13856SOL    HW243010   3.863   2.466   3.531
13857SOL     OW43011   5.114   2.783   3.518
13857SOL    HW143012   5.128   2.878   3.518
13857SOL    HW243013   5.103   2.760   3.426
13858SOL     OW43014   4.542   2.426   2.226
13858SOL    HW143015   4.541   2.354   2.163
13858SOL    HW243016   4.467   2.481   2.201
13859SOL     OW43017   5.365   2.473   3.036
13859SOL    HW143018   5.349   2.418   3.113
13859SOL    HW243019   5.452   2.448   3.005
13860SOL     OW43020   4.444   2.306   3.109
13860SOL    HW143021   4.376   2.240   3.094
13860SOL    HW243022   4.432   2.369   3.038
13861SOL     OW43023   4.182   2.349   2.025
13861SOL    HW143024   4.241   2.417   2.057
13861SOL    HW243025   4.096   2.390   2.024
13862SOL     OW43026   3.875   2.988   3.343
13862SOL    HW143027   3.863   2.937   3.423
13862SOL    HW243028   3.894   2.923   3.276
13863SOL     OW43029   5.052   2.898   3.073
13863SOL    HW143030   5.065   2.836   3.001
13863SOL    HW243031   4.976   2.949   3.047
13864SOL     OW43032   5.055   2.714   2.159
13864SOL    HW143033   4.992   2.705   2.230
13864SOL    HW243034   5.003   2.707   2.079
13865SOL     OW43035   5.518   3.587   3.035
13865SOL    HW143036   5.557   3.626   2.957
13865SOL    HW243037   5.468   3.512   3.001
13866SOL     OW43038   5.037   3.615   2.972
13866SOL    HW143039   5.016   3.553   2.902
13866SOL    HW243040   4.956   3.623   3.022
13867SOL     OW43041   5.444   2.022   2.367
13867SOL    HW143042   5.514   2.005   2.304
13867SOL    HW243043   5.428   1.937   2.407
13868SOL     OW43044   5.111   3.432   2.346
13868SOL    HW143045   5.167   3.476   2.282
13868SOL    HW243046   5.059   3.503   2.384
13869SOL     OW43047   4.998   2.779   2.510
13869SOL    HW143048   5.074   2.726   2.534
13869SOL    HW243049   5.036   2.859   2.474
13870SOL     OW43050   4.531   3.152   3.294
13870SOL    HW143051   4.508   3.180   3.383
13870SOL    HW243052   4.475   3.205   3.238
13871SOL     OW43053   4.426   3.472   1.999
13871SOL    HW143054   4.405   3.489   1.907
13871SOL    HW243055   4.360   3.407   2.026
13872SOL     OW43056   5.352   3.593   3.264
13872SOL    HW143057   5.400   3.598   3.182
13872SOL    HW243058   5.331   3.684   3.285
13873SOL     OW43059   5.567   2.028   2.831
13873SOL    HW143060   5.588   1.938   2.808
13873SOL    HW243061   5.478   2.041   2.801
13874SOL     OW43062   3.977   2.172   2.573
13874SOL    HW143063   3.892   2.212   2.554
13874SOL    HW243064   3.981   2.169   2.669
13875SOL     OW43065   4.936   3.456   1.893
13875SOL    HW143066   4.919   3.370   1.931
13875SOL    HW243067   4.863   3.471   1.833
13876SOL     OW43068   4.551   2.880   3.235
13876SOL    HW143069   4.595   2.887   3.151
13876SOL    HW243070   4.539   2.971   3.263
13877SOL     OW43071   4.628   2.755   2.141
13877SOL    HW143072   4.690   2.800   2.083
13877SOL    HW243073   4.683   2.700   2.197
13878SOL     OW43074   5.212   3.492   1.908
13878SOL    HW143075   5.118   3.479   1.896
13878SOL    HW243076   5.247   3.498   1.819
13879SOL     OW43077   4.068   3.178   3.375
13879SOL    HW143078   4.024   3.256   3.341
13879SOL    HW243079   4.002   3.109   3.369
13880SOL     OW43080   5.348   3.155   3.150
13880SOL    HW143081   5.382   3.131   3.236
13880SOL    HW243082   5.279   3.219   3.170
13881SOL     OW43083   4.780   2.960   2.546
13881SOL    HW143084   4.710   2.918   2.596
13881SOL    HW243085   4.846   2.891   2.535
13882SOL     OW43086   4.745   2.106   2.818
13882SOL    HW143087   4.749   2.054   2.737
13882SOL    HW243088   4.742   2.041   2.888
13883SOL     OW43089   4.286   3.388   2.322
13883SOL    HW143090   4.353   3.322   2.307
13883SOL    HW243091   4.276   3.392   2.418
13884SOL     OW43092   5.452   2.278   3.233
13884SOL    HW143093   5.532   2.331   3.235
13884SOL    HW243094   5.477   2.199   3.186
13885SOL     OW43095   3.980   3.232   2.129
13885SOL    HW143096   3.886   3.220   2.115
13885SOL    HW243097   3.989   3.237   2.224
13886SOL     OW43098   3.816   2.862   3.569
13886SOL    HW143099   3.746   2.857   3.634
13886SOL    HW243100   3.896   2.850   3.619
13887SOL     OW43101   4.409   2.042   3.357
13887SOL    HW143102   4.498   2.023   3.326
13887SOL    HW243103   4.421   2.076   3.446
13888SOL     OW43104   3.817   2.178   1.882
13888SOL    HW143105   3.721   2.174   1.882
13888SOL    HW243106   3.837   2.258   1.833
13889SOL     OW43107   5.152   2.718   3.255
13889SOL    HW143108   5.098   2.777   3.202
13889SOL    HW243109   5.240   2.725   3.218
13890SOL     OW43110   3.783   2.012   2.163
13890SOL    HW143111   3.780   2.102   2.130
13890SOL    HW243112   3.868   1.979   2.133
13891SOL     OW43113   4.898   3.195   1.987
13891SOL    HW143114   4.806   3.171   1.990
13891SOL    HW243115   4.924   3.199   2.079
13892SOL     OW43116   4.349   2.691   3.291
13892SOL    HW143117   4.401   2.771   3.285
13892SOL    HW243118   4.413   2.621   3.303
13893SOL     OW43119   5.287   3.640   2.818
13893SOL    HW143120   5.280   3.730   2.785
13893SOL    HW243121   5.214   3.631   2.878
13894SOL     OW43122   4.430   2.430   3.554
13894SOL    HW143123   4.473   2.490   3.614
13894SOL    HW243124   4.445   2.343   3.592
13895SOL     OW43125   5.198   3.045   3.494
13895SOL    HW143126   5.178   3.069   3.584
13895SOL    HW243127   5.287   3.076   3.480
13896SOL     OW43128   5.395   2.746   3.116
13896SOL    HW143129   5.381   2.662   3.072
13896SOL    HW243130   5.379   2.812   3.048
13897SOL     OW43131   4.937   2.182   2.315
13897SOL    HW143132   4.996   2.107   2.315
13897SOL    HW243133   4.963   2.234   2.391
13898SOL     OW43134   4.318   2.597   2.524
13898SOL    HW143135   4.344   2.689   2.530
13898SOL    HW243136   4.247   2.596   2.459
13899SOL     OW43137   5.475   2.224   3.500
13899SOL    HW143138   5.452   2.245   3.409
13899SOL    HW243139   5.401   2.171   3.531
13900SOL     OW43140   5.487   2.793   3.370
13900SOL    HW143141   5.459   2.883   3.390
13900SOL    HW243142   5.461   2.780   3.279
13901SOL     OW43143   4.591   3.226   1.903
13901SOL    HW143144   4.568   3.209   1.994
13901SOL    HW243145   4.579   3.321   1.893
13902SOL     OW43146   4.599   2.824   2.707
13902SOL    HW143147   4.655   2.757   2.748
13902SOL    HW243148   4.550   2.862   2.780
13903SOL     OW43149   4.797   2.849   1.951
13903SOL    HW143150   4.779   2.907   1.877
13903SOL    HW243151   4.869   2.793   1.920
13904SOL     OW43152   5.554   3.411   2.709
13904SOL    HW143153   5.473   3.418   2.658
13904SOL    HW243154   5.526   3.379   2.794
13905SOL     OW43155   4.403   3.294   3.496
13905SOL    HW143156   4.330   3.252   3.542
13905SOL    HW243157   4.379   3.386   3.494
13906SOL     OW43158   5.563   2.058   3.110
13906SOL    HW143159   5.498   1.992   3.137
13906SOL    HW243160   5.561   2.055   3.014
13907SOL     OW43161   4.140   2.294   2.379
13907SOL    HW143162   4.176   2.217   2.335
13907SOL    HW243163   4.096   2.258   2.456
13908SOL     OW43164   5.436   3.332   2.947
13908SOL    HW143165   5.353   3.324   2.902
13908SOL    HW243166   5.427   3.276   3.024
13909SOL     OW43167   4.056   2.418   3.154
13909SOL    HW143168   4.109   2.356   3.205
13909SOL    HW243169   4.074   2.393   3.063
13910SOL     OW43170   4.531   3.405   2.506
13910SOL    HW143171   4.525   3.500   2.496
13910SOL    HW243172   4.453   3.381   2.556
13911SOL     OW43173   5.149   2.091   2.985
13911SOL    HW143174   5.120   2.021   3.043
13911SOL    HW243175   5.114   2.171   3.025
13912SOL     OW43176   4.751   1.902   3.004
13912SOL    HW143177   4.734   1.817   2.964
13912SOL    HW243178   4.835   1.891   3.049
13913SOL     OW43179   4.540   3.164   2.157
13913SOL    HW143180   4.494   3.089   2.195
13913SOL    HW243181   4.594   3.198   2.228
13914SOL     OW43182   5.088   1.915   2.037
13914SOL    HW143183   5.121   1.840   1.988
13914SOL    HW243184   4.997   1.892   2.057
13915SOL     OW43185   5.027   2.322   2.533
13915SOL    HW143186   4.975   2.403   2.540
13915SOL    HW243187   5.017   2.280   2.619
13916SOL     OW43188   5.305   2.054   2.764
13916SOL    HW143189   5.251   2.073   2.840
13916SOL    HW243190   5.294   2.130   2.707
13917SOL     OW43191   3.763   2.942   2.183
13917SOL    HW143192   3.848   2.959   2.225
13917SOL    HW243193   3.755   2.847   2.184
13918SOL     OW43194   4.628   3.529   2.183
13918SOL    HW143195   4.552   3.508   2.129
13918SOL    HW243196   4.594   3.589   2.249
13919SOL     OW43197   3.947   2.440   3.855
13919SOL    HW143198   3.879   2.465   3.918
13919SOL    HW243199   3.908   2.458   3.769
13920SOL     OW43200   3.966   2.108   4.743
13920SOL    HW143201   3.972   2.101   4.838
13920SOL    HW243202   3.872   2.110   4.724
13921SOL     OW43203   3.645   2.190   4.281
13921SOL    HW143204   3.608   2.237   4.355
13921SOL    HW243205   3.739   2.188   4.298
13922SOL     OW43206   4.301   3.163   4.905
13922SOL    HW143207   4.216   3.166   4.862
13922SOL    HW243208   4.312   3.249   4.946
13923SOL     OW43209   5.300   3.386   4.435
13923SOL    HW143210   5.257   3.379   4.520
13923SOL    HW243211   5.229   3.388   4.372
13924SOL     OW43212   4.869   2.546   4.417
13924SOL    HW143213   4.906   2.632   4.398
13924SOL    HW243214   4.820   2.558   4.499
13925SOL     OW43215   5.536   2.449   3.941
13925SOL    HW143216   5.499   2.446   3.852
13925SOL    HW243217   5.476   2.395   3.993
13926SOL     OW43218   4.464   2.963   4.818
13926SOL    HW143219   4.396   3.013   4.862
13926SOL    HW243220   4.504   3.025   4.757
13927SOL     OW43221   4.579   2.630   5.550
13927SOL    HW143222   4.529   2.688   5.607
13927SOL    HW243223   4.608   2.686   5.478
13928SOL     OW43224   4.411   2.855   4.369
13928SOL    HW143225   4.476   2.849   4.439
13928SOL    HW243226   4.347   2.919   4.401
13929SOL     OW43227   4.064   3.260   4.790
13929SOL    HW143228   3.988   3.223   4.746
13929SOL    HW243229   4.103   3.320   4.726
13930SOL     OW43230   5.197   3.384   5.093
13930SOL    HW143231   5.177   3.472   5.060
13930SOL    HW243232   5.120   3.360   5.145
13931SOL     OW43233   4.186   2.242   5.204
13931SOL    HW143234   4.256   2.177   5.210
13931SOL    HW243235   4.106   2.193   5.224
13932SOL     OW43236   5.312   2.304   4.470
13932SOL    HW143237   5.232   2.309   4.419
13932SOL    HW243238   5.299   2.366   4.542
13933SOL     OW43239   4.915   3.156   5.392
13933SOL    HW143240   4.921   3.223   5.459
13933SOL    HW243241   4.838   3.105   5.415
13934SOL     OW43242   3.923   2.921   4.604
13934SOL    HW143243   3.987   2.867   4.651
13934SOL    HW243244   3.896   2.987   4.668
13935SOL     OW43245   4.328   3.651   5.155
13935SOL    HW143246   4.242   3.640   5.197
13935SOL    HW243247   4.347   3.745   5.164
13936SOL     OW43248   4.358   2.818   3.857
13936SOL    HW143249   4.376   2.884   3.789
13936SOL    HW243250   4.380   2.862   3.939
13937SOL     OW43251   5.325   1.999   5.190
13937SOL    HW143252   5.318   2.081   5.141
13937SOL    HW243253   5.294   2.020   5.278
13938SOL     OW43254   3.863   2.525   4.282
13938SOL    HW143255   3.873   2.435   4.314
13938SOL    HW243256   3.840   2.576   4.359
13939SOL     OW43257   5.610   3.603   4.084
13939SOL    HW143258   5.545   3.594   4.154
13939SOL    HW243259   5.613   3.698   4.067
13940SOL     OW43260   5.416   2.790   4.360
13940SOL    HW143261   5.474   2.734   4.310
13940SOL    HW243262   5.377   2.849   4.295
13941SOL     OW43263   5.377   2.973   4.148
13941SOL    HW143264   5.465   2.972   4.109
13941SOL    HW243265   5.382   3.041   4.215
13942SOL     OW43266   3.852   2.592   5.314
13942SOL    HW143267   3.945   2.608   5.296
13942SOL    HW243268   3.821   2.671   5.358
13943SOL     OW43269   5.086   3.080   5.179
13943SOL    HW143270   5.044   3.045   5.101
13943SOL    HW243271   5.013   3.115   5.232
13944SOL     OW43272   4.537   1.857   4.236
13944SOL    HW143273   4.581   1.939   4.213
13944SOL    HW243274   4.444   1.880   4.242
13945SOL     OW43275   3.916   2.771   4.987
13945SOL    HW143276   3.978   2.843   5.001
13945SOL    HW243277   3.832   2.815   4.972
13946SOL     OW43278   5.266   2.859   3.922
13946SOL    HW143279   5.197   2.800   3.952
13946SOL    HW243280   5.299   2.900   4.002
13947SOL     OW43281   4.980   3.671   5.328
13947SOL    HW143282   4.954   3.757   5.295
13947SOL    HW243283   4.900   3.618   5.321
13948SOL     OW43284   4.066   2.105   5.561
13948SOL    HW143285   4.106   2.191   5.552
13948SOL    HW243286   3.973   2.122   5.575
13949SOL     OW43287   5.227   3.255   4.694
13949SOL    HW143288   5.154   3.282   4.749
13949SOL    HW243289   5.192   3.182   4.642
13950SOL     OW43290   5.410   3.597   4.268
13950SOL    HW143291   5.346   3.570   4.203
13950SOL    HW243292   5.384   3.551   4.348
13951SOL     OW43293   4.323   2.569   3.986
13951SOL    HW143294   4.330   2.654   3.943
13951SOL    HW243295   4.257   2.582   4.055
13952SOL     OW43296   5.012   2.226   4.659
13952SOL    HW143297   4.919   2.203   4.663
13952SOL    HW243298   5.054   2.167   4.723
13953SOL     OW43299   5.300   3.537   4.014
13953SOL    HW143300   5.369   3.595   3.983
13953SOL    HW243301   5.253   3.511   3.935
13954SOL     OW43302   4.550   2.445   5.176
13954SOL    HW143303   4.501   2.441   5.258
13954SOL    HW243304   4.493   2.403   5.111
13955SOL     OW43305   5.116   2.338   5.402
13955SOL    HW143306   5.116   2.382   5.488
13955SOL    HW243307   5.172   2.262   5.414
13956SOL     OW43308   4.662   2.764   5.310
13956SOL    HW143309   4.722   2.697   5.276
13956SOL    HW243310   4.626   2.805   5.231
13957SOL     OW43311   4.726   2.268   4.965
13957SOL    HW143312   4.653   2.303   5.017
13957SOL    HW243313   4.690   2.259   4.877
13958SOL     OW43314   4.779   2.554   4.148
13958SOL    HW143315   4.791   2.549   4.242
13958SOL    HW243316   4.694   2.512   4.132
13959SOL     OW43317   3.808   2.657   4.512
13959SOL    HW143318   3.892   2.672   4.555
13959SOL    HW243319   3.757   2.736   4.530
13960SOL     OW43320   3.870   3.741   5.287
13960SOL    HW143321   3.832   3.654   5.293
13960SOL    HW243322   3.848   3.771   5.199
13961SOL     OW43323   4.619   2.192   3.891
13961SOL    HW143324   4.651   2.271   3.848
13961SOL    HW243325   4.682   2.124   3.868
13962SOL     OW43326   5.444   2.431   5.550
13962SOL    HW143327   5.405   2.506   5.504
13962SOL    HW243328   5.457   2.366   5.481
13963SOL     OW43329   5.112   3.005   4.275
13963SOL    HW143330   5.187   3.006   4.215
13963SOL    HW243331   5.050   3.066   4.236
13964SOL     OW43332   4.264   2.028   4.628
13964SOL    HW143333   4.267   2.062   4.717
13964SOL    HW243334   4.236   2.102   4.575
13965SOL     OW43335   4.068   3.664   4.605
13965SOL    HW143336   4.119   3.584   4.618
13965SOL    HW243337   4.125   3.734   4.636
13966SOL     OW43338   5.530   2.912   4.581
13966SOL    HW143339   5.469   2.886   4.511
13966SOL    HW243340   5.473   2.932   4.656
13967SOL     OW43341   4.923   3.369   5.186
13967SOL    HW143342   4.912   3.340   5.277
13967SOL    HW243343   4.859   3.439   5.175
13968SOL     OW43344   4.051   2.762   3.902
13968SOL    HW143345   4.121   2.788   3.962
13968SOL    HW243346   3.982   2.726   3.959
13969SOL     OW43347   5.216   2.606   4.436
13969SOL    HW143348   5.199   2.570   4.524
13969SOL    HW243349   5.282   2.674   4.450
13970SOL     OW43350   4.212   3.089   5.372
13970SOL    HW143351   4.177   3.088   5.283
13970SOL    HW243352   4.151   3.142   5.422
13971SOL     OW43353   4.868   3.664   3.966
13971SOL    HW143354   4.780   3.691   3.989
13971SOL    HW243355   4.855   3.588   3.908
13972SOL     OW43356   3.897   2.144   5.231
13972SOL    HW143357   3.861   2.218   5.182
13972SOL    HW243358   3.910   2.178   5.320
13973SOL     OW43359   5.363   3.244   3.807
13973SOL    HW143360   5.319   3.328   3.797
13973SOL    HW243361   5.294   3.178   3.795
13974SOL     OW43362   5.123   1.972   4.169
13974SOL    HW143363   5.115   1.947   4.077
13974SOL    HW243364   5.218   1.981   4.182
13975SOL     OW43365   3.984   3.656   4.960
13975SOL    HW143366   4.022   3.572   4.985
13975SOL    HW243367   3.945   3.640   4.874
13976SOL     OW43368   4.125   2.562   4.180
13976SOL    HW143369   4.147   2.471   4.199
13976SOL    HW243370   4.034   2.572   4.209
13977SOL     OW43371   5.245   2.086   5.446
13977SOL    HW143372   5.263   2.099   5.540
13977SOL    HW243373   5.163   2.037   5.443
13978SOL     OW43374   4.363   1.962   3.833
13978SOL    HW143375   4.449   1.921   3.825
13978SOL    HW243376   4.316   1.935   3.754
13979SOL     OW43377   4.482   2.118   5.478
13979SOL    HW143378   4.569   2.077   5.484
13979SOL    HW243379   4.462   2.145   5.568
13980SOL     OW43380   4.601   3.389   4.948
13980SOL    HW143381   4.583   3.406   4.855
13980SOL    HW243382   4.667   3.320   4.946
13981SOL     OW43383   5.073   2.442   5.149
13981SOL    HW143384   5.094   2.420   5.240
13981SOL    HW243385   5.093   2.535   5.141
13982SOL     OW43386   4.516   3.156   4.642
13982SOL    HW143387   4.526   3.249   4.662
13982SOL    HW243388   4.431   3.149   4.600
13983SOL     OW43389   4.677   2.367   4.623
13983SOL    HW143390   4.640   2.364   4.535
13983SOL    HW243391   4.692   2.275   4.646
13984SOL     OW43392   4.270   1.924   4.218
13984SOL    HW143393   4.196   1.921   4.279
13984SOL    HW243394   4.256   2.004   4.168
13985SOL     OW43395   5.153   3.068   3.767
13985SOL    HW143396   5.174   2.991   3.819
13985SOL    HW243397   5.067   3.096   3.800
13986SOL     OW43398   4.036   1.910   3.903
13986SOL    HW143399   4.086   1.990   3.922
13986SOL    HW243400   4.082   1.842   3.952
13987SOL     OW43401   4.660   2.098   4.169
13987SOL    HW143402   4.630   2.146   4.091
13987SOL    HW243403   4.750   2.129   4.183
13988SOL     OW43404   4.797   2.553   5.187
13988SOL    HW143405   4.714   2.506   5.188
13988SOL    HW243406   4.863   2.485   5.178
13989SOL     OW43407   5.026   3.374   4.501
13989SOL    HW143408   4.969   3.424   4.442
13989SOL    HW243409   4.973   3.361   4.580
13990SOL     OW43410   4.996   3.645   4.270
13990SOL    HW143411   5.046   3.717   4.232
13990SOL    HW243412   4.916   3.687   4.303
13991SOL     OW43413   4.744   2.403   3.760
13991SOL    HW143414   4.693   2.482   3.741
13991SOL    HW243415   4.798   2.426   3.835
13992SOL     OW43416   3.797   2.400   5.130
13992SOL    HW143417   3.884   2.401   5.090
13992SOL    HW243418   3.797   2.476   5.189
13993SOL     OW43419   4.274   2.083   4.902
13993SOL    HW143420   4.317   2.037   4.974
13993SOL    HW243421   4.182   2.089   4.928
13994SOL     OW43422   4.585   2.331   4.369
13994SOL    HW143423   4.512   2.389   4.347
13994SOL    HW243424   4.577   2.259   4.307
13995SOL     OW43425   4.759   1.900   4.467
13995SOL    HW143426   4.687   1.907   4.404
13995SOL    HW243427   4.732   1.830   4.526
13996SOL     OW43428   5.142   3.022   4.573
13996SOL    HW143429   5.051   3.037   4.599
13996SOL    HW243430   5.139   3.022   4.477
13997SOL     OW43431   5.190   2.456   4.676
13997SOL    HW143432   5.123   2.389   4.690
13997SOL    HW243433   5.238   2.458   4.759
13998SOL     OW43434   5.602   2.669   4.098
13998SOL    HW143435   5.641   2.615   4.166
13998SOL    HW243436   5.560   2.607   4.038
13999SOL     OW43437   5.415   3.151   4.341
13999SOL    HW143438   5.501   3.159   4.381
13999SOL    HW243439   5.364   3.223   4.377
14000SOL     OW43440   5.112   2.427   3.797
14000SOL    HW143441   5.042   2.413   3.861
14000SOL    HW243442   5.193   2.405   3.843
14001SOL     OW43443   4.230   2.112   4.016
14001SOL    HW143444   4.290   2.068   3.956
14001SOL    HW243445   4.216   2.198   3.976
14002SOL     OW43446   5.521   3.106   5.311
14002SOL    HW143447   5.435   3.091   5.350
14002SOL    HW243448   5.536   3.200   5.324
14003SOL     OW43449   4.787   3.186   5.036
14003SOL    HW143450   4.703   3.163   5.077
14003SOL    HW243451   4.827   3.247   5.098
14004SOL     OW43452   5.341   3.471   5.389
14004SOL    HW143453   5.316   3.512   5.307
14004SOL    HW243454   5.424   3.428   5.371
14005SOL     OW43455   4.843   3.010   4.836
14005SOL    HW143456   4.809   3.075   4.897
14005SOL    HW243457   4.839   3.053   4.751
14006SOL     OW43458   5.350   2.968   4.790
14006SOL    HW143459   5.338   3.033   4.860
14006SOL    HW243460   5.272   2.978   4.736
14007SOL     OW43461   4.649   1.947   5.116
14007SOL    HW143462   4.666   1.938   5.022
14007SOL    HW243463   4.726   1.993   5.150
14008SOL     OW43464   4.703   2.993   5.480
14008SOL    HW143465   4.623   3.027   5.520
14008SOL    HW243466   4.673   2.928   5.417
14009SOL     OW43467   4.441   2.922   4.095
14009SOL    HW143468   4.414   2.908   4.186
14009SOL    HW243469   4.513   2.860   4.082
14010SOL     OW43470   4.172   2.647   4.954
14010SOL    HW143471   4.221   2.664   5.035
14010SOL    HW243472   4.080   2.656   4.978
14011SOL     OW43473   4.991   2.230   5.002
14011SOL    HW143474   5.022   2.309   5.047
14011SOL    HW243475   4.900   2.249   4.981
14012SOL     OW43476   3.784   3.406   5.020
14012SOL    HW143477   3.738   3.488   5.037
14012SOL    HW243478   3.876   3.426   5.037
14013SOL     OW43479   4.284   2.390   4.570
14013SOL    HW143480   4.293   2.454   4.499
14013SOL    HW243481   4.339   2.423   4.641
14014SOL     OW43482   4.965   3.205   4.126
14014SOL    HW143483   5.020   3.279   4.153
14014SOL    HW243484   4.890   3.208   4.185
14015SOL     OW43485   5.015   3.305   4.856
14015SOL    HW143486   4.991   3.288   4.947
14015SOL    HW243487   4.931   3.317   4.812
14016SOL     OW43488   5.296   2.501   4.190
14016SOL    HW143489   5.268   2.520   4.279
14016SOL    HW243490   5.251   2.567   4.136
14017SOL     OW43491   4.066   3.396   5.025
14017SOL    HW143492   4.055   3.344   4.945
14017SOL    HW243493   4.161   3.404   5.035
14018SOL     OW43494   4.135   2.571   5.303
14018SOL    HW143495   4.189   2.628   5.249
14018SOL    HW243496   4.193   2.545   5.375
14019SOL     OW43497   5.347   2.641   5.402
14019SOL    HW143498   5.260   2.680   5.403
14019SOL    HW243499   5.390   2.680   5.327
14020SOL     OW43500   4.732   2.001   5.501
14020SOL    HW143501   4.782   2.077   5.470
14020SOL    HW243502   4.779   1.926   5.465
14021SOL     OW43503   4.214   1.888   5.476
14021SOL    HW143504   4.165   1.846   5.407
14021SOL    HW243505   4.165   1.968   5.496
14022SOL     OW43506   4.320   2.729   4.745
14022SOL    HW143507   4.348   2.820   4.756
14022SOL    HW243508   4.264   2.711   4.820
14023SOL     OW43509   5.069   2.708   4.741
14023SOL    HW143510   4.976   2.715   4.717
14023SOL    HW243511   5.092   2.617   4.722
14024SOL     OW43512   4.922   2.389   3.988
14024SOL    HW143513   4.927   2.312   4.045
14024SOL    HW243514   4.879   2.456   4.041
14025SOL     OW43515   4.020   2.043   5.007
14025SOL    HW143516   3.977   2.080   5.085
14025SOL    HW243517   3.992   1.952   5.005
14026SOL     OW43518   3.765   3.128   5.034
14026SOL    HW143519   3.785   3.107   5.126
14026SOL    HW243520   3.755   3.223   5.033
14027SOL     OW43521   4.443   2.489   4.769
14027SOL    HW143522   4.528   2.499   4.726
14027SOL    HW243523   4.404   2.577   4.765
14028SOL     OW43524   5.471   2.819   5.582
14028SOL    HW143525   5.419   2.759   5.531
14028SOL    HW243526   5.414   2.845   5.655
14029SOL     OW43527   4.029   1.882   4.352
14029SOL    HW143528   3.996   1.971   4.344
14029SOL    HW243529   4.034   1.866   4.446
14030SOL     OW43530   5.356   2.254   4.082
14030SOL    HW143531   5.371   2.190   4.152
14030SOL    HW243532   5.326   2.333   4.128
14031SOL     OW43533   4.778   2.611   4.683
14031SOL    HW143534   4.760   2.633   4.774
14031SOL    HW243535   4.743   2.523   4.671
14032SOL     OW43536   4.712   3.413   5.443
14032SOL    HW143537   4.670   3.463   5.373
14032SOL    HW243538   4.640   3.383   5.498
14033SOL     OW43539   5.589   3.367   5.320
14033SOL    HW143540   5.590   3.409   5.234
14033SOL    HW243541   5.666   3.403   5.365
14034SOL     OW43542   4.098   2.721   5.580
14034SOL    HW143543   4.172   2.774   5.550
14034SOL    HW243544   4.023   2.756   5.532
14035SOL     OW43545   5.265   2.123   3.851
14035SOL    HW143546   5.195   2.066   3.880
14035SOL    HW243547   5.292   2.170   3.930
14036SOL     OW43548   5.009   2.682   3.750
14036SOL    HW143549   5.047   2.595   3.755
14036SOL    HW243550   5.042   2.718   3.667
14037SOL     OW43551   4.873   3.122   4.589
14037SOL    HW143552   4.815   3.093   4.519
14037SOL    HW243553   4.841   3.209   4.613
14038SOL     OW43554   4.052   2.660   4.655
14038SOL    HW143555   4.143   2.690   4.654
14038SOL    HW243556   4.053   2.585   4.714
14039SOL     OW43557   4.065   2.367   4.733
14039SOL    HW143558   4.032   2.279   4.718
14039SOL    HW243559   4.134   2.379   4.668
14040SOL     OW43560   4.858   2.235   5.418
14040SOL    HW143561   4.804   2.293   5.471
14040SOL    HW243562   4.942   2.280   5.410
14041SOL     OW43563   4.889   2.060   5.202
14041SOL    HW143564   4.872   2.125   5.271
14041SOL    HW243565   4.925   2.111   5.130
14042SOL     OW43566   3.803   3.647   4.654
14042SOL    HW143567   3.780   3.564   4.612
14042SOL    HW243568   3.893   3.663   4.628
14043SOL     OW43569   4.206   3.428   4.628
14043SOL    HW143570   4.296   3.460   4.621
14043SOL    HW243571   4.194   3.371   4.552
14044SOL     OW43572   4.712   2.651   4.941
14044SOL    HW143573   4.753   2.620   5.022
14044SOL    HW243574   4.650   2.718   4.970
14045SOL     OW43575   3.763   2.390   4.836
14045SOL    HW143576   3.830   2.410   4.770
14045SOL    HW243577   3.804   2.410   4.920
14046SOL     OW43578   3.961   2.354   5.401
14046SOL    HW143579   4.040   2.390   5.360
14046SOL    HW243580   3.897   2.424   5.394
14047SOL     OW43581   5.120   2.789   5.383
14047SOL    HW143582   5.125   2.885   5.393
14047SOL    HW243583   5.094   2.775   5.292
14048SOL     OW43584   4.551   2.430   4.062
14048SOL    HW143585   4.524   2.351   4.014
14048SOL    HW243586   4.477   2.490   4.052
14049SOL     OW43587   5.357   2.465   4.895
14049SOL    HW143588   5.340   2.414   4.974
14049SOL    HW243589   5.445   2.439   4.868
14050SOL     OW43590   4.437   2.307   4.969
14050SOL    HW143591   4.371   2.242   4.943
14050SOL    HW243592   4.430   2.376   4.902
14051SOL     OW43593   4.713   3.540   5.162
14051SOL    HW143594   4.655   3.497   5.098
14051SOL    HW243595   4.679   3.629   5.168
14052SOL     OW43596   4.197   2.345   3.880
14052SOL    HW143597   4.248   2.418   3.915
14052SOL    HW243598   4.107   2.378   3.878
14053SOL     OW43599   5.054   2.892   4.942
14053SOL    HW143600   5.071   2.831   4.870
14053SOL    HW243601   4.975   2.939   4.916
14054SOL     OW43602   5.065   2.704   4.029
14054SOL    HW143603   4.997   2.705   4.097
14054SOL    HW243604   5.017   2.702   3.947
14055SOL     OW43605   5.515   3.590   4.882
14055SOL    HW143606   5.536   3.643   4.805
14055SOL    HW243607   5.455   3.523   4.850
14056SOL     OW43608   5.077   3.614   4.853
14056SOL    HW143609   5.018   3.688   4.869
14056SOL    HW243610   5.022   3.537   4.866
14057SOL     OW43611   3.811   3.110   4.766
14057SOL    HW143612   3.801   3.115   4.861
14057SOL    HW243613   3.750   3.177   4.733
14058SOL     OW43614   4.446   3.557   5.391
14058SOL    HW143615   4.382   3.598   5.450
14058SOL    HW243616   4.417   3.584   5.304
14059SOL     OW43617   5.447   2.022   4.235
14059SOL    HW143618   5.515   2.007   4.169
14059SOL    HW243619   5.431   1.935   4.272
14060SOL     OW43620   5.125   3.420   4.197
14060SOL    HW143621   5.178   3.456   4.127
14060SOL    HW243622   5.072   3.494   4.228
14061SOL     OW43623   4.998   2.776   4.365
14061SOL    HW143624   5.075   2.727   4.394
14061SOL    HW243625   5.032   2.861   4.337
14062SOL     OW43626   4.536   3.132   5.128
14062SOL    HW143627   4.511   3.175   5.210
14062SOL    HW243628   4.470   3.160   5.065
14063SOL     OW43629   5.450   3.629   5.154
14063SOL    HW143630   5.443   3.613   5.060
14063SOL    HW243631   5.389   3.701   5.171
14064SOL     OW43632   5.572   2.030   4.684
14064SOL    HW143633   5.590   1.939   4.663
14064SOL    HW243634   5.482   2.045   4.654
14065SOL     OW43635   4.933   3.457   3.763
14065SOL    HW143636   4.922   3.368   3.798
14065SOL    HW243637   4.866   3.463   3.694
14066SOL     OW43638   4.559   2.870   5.065
14066SOL    HW143639   4.532   2.886   4.974
14066SOL    HW243640   4.557   2.956   5.107
14067SOL     OW43641   4.643   2.761   4.008
14067SOL    HW143642   4.707   2.804   3.951
14067SOL    HW243643   4.695   2.700   4.060
14068SOL     OW43644   5.210   3.474   3.765
14068SOL    HW143645   5.115   3.475   3.756
14068SOL    HW243646   5.243   3.489   3.676
14069SOL     OW43647   4.075   3.100   5.134
14069SOL    HW143648   4.069   3.195   5.122
14069SOL    HW243649   3.994   3.077   5.180
14070SOL     OW43650   5.356   3.165   5.032
14070SOL    HW143651   5.327   3.109   5.104
14070SOL    HW243652   5.296   3.239   5.033
14071SOL     OW43653   4.764   2.961   4.386
14071SOL    HW143654   4.693   2.930   4.441
14071SOL    HW243655   4.827   2.889   4.385
14072SOL     OW43656   4.761   2.103   4.677
14072SOL    HW143657   4.759   2.048   4.599
14072SOL    HW243658   4.744   2.043   4.749
14073SOL     OW43659   5.455   2.257   5.099
14073SOL    HW143660   5.526   2.322   5.099
14073SOL    HW243661   5.488   2.186   5.044
14074SOL     OW43662   3.845   2.810   5.485
14074SOL    HW143663   3.762   2.817   5.533
14074SOL    HW243664   3.861   2.899   5.452
14075SOL     OW43665   4.398   2.040   5.221
14075SOL    HW143666   4.485   2.031   5.182
14075SOL    HW243667   4.415   2.074   5.309
14076SOL     OW43668   3.823   2.163   3.721
14076SOL    HW143669   3.763   2.174   3.794
14076SOL    HW243670   3.827   2.249   3.680
14077SOL     OW43671   5.151   2.707   5.114
14077SOL    HW143672   5.095   2.770   5.069
14077SOL    HW243673   5.235   2.712   5.068
14078SOL     OW43674   3.780   2.014   4.016
14078SOL    HW143675   3.782   2.087   4.078
14078SOL    HW243676   3.871   2.004   3.988
14079SOL     OW43677   4.902   3.191   3.851
14079SOL    HW143678   4.810   3.165   3.847
14079SOL    HW243679   4.923   3.191   3.944
14080SOL     OW43680   4.341   2.696   5.166
14080SOL    HW143681   4.375   2.785   5.157
14080SOL    HW243682   4.420   2.642   5.176
14081SOL     OW43683   5.293   3.630   4.682
14081SOL    HW143684   5.273   3.713   4.638
14081SOL    HW243685   5.217   3.614   4.738
14082SOL     OW43686   4.432   2.438   5.418
14082SOL    HW143687   4.472   2.506   5.472
14082SOL    HW243688   4.444   2.357   5.468
14083SOL     OW43689   5.266   3.048   5.378
14083SOL    HW143690   5.229   3.062   5.465
14083SOL    HW243691   5.199   3.080   5.317
14084SOL     OW43692   4.103   3.596   5.296
14084SOL    HW143693   4.024   3.650   5.286
14084SOL    HW243694   4.071   3.506   5.291
14085SOL     OW43695   5.386   2.743   4.963
14085SOL    HW143696   5.372   2.659   4.919
14085SOL    HW243697   5.367   2.809   4.896
14086SOL     OW43698   4.937   2.184   4.179
14086SOL    HW143699   4.995   2.108   4.180
14086SOL    HW243700   4.962   2.234   4.256
14087SOL     OW43701   4.332   2.588   4.377
14087SOL    HW143702   4.358   2.680   4.383
14087SOL    HW243703   4.254   2.589   4.320
14088SOL     OW43704   5.477   2.223   5.370
14088SOL    HW143705   5.459   2.240   5.277
14088SOL    HW243706   5.403   2.169   5.399
14089SOL     OW43707   5.467   2.823   5.211
14089SOL    HW143708   5.397   2.878   5.246
14089SOL    HW243709   5.435   2.795   5.125
14090SOL     OW43710   4.606   3.233   3.747
14090SOL    HW143711   4.581   3.210   3.837
14090SOL    HW243712   4.555   3.312   3.728
14091SOL     OW43713   4.399   3.648   4.680
14091SOL    HW143714   4.381   3.700   4.759
14091SOL    HW243715   4.462   3.583   4.709
14092SOL     OW43716   4.604   2.832   4.575
14092SOL    HW143717   4.657   2.766   4.620
14092SOL    HW243718   4.555   2.874   4.645
14093SOL     OW43719   4.819   2.862   3.825
14093SOL    HW143720   4.784   2.907   3.748
14093SOL    HW243721   4.882   2.799   3.790
14094SOL     OW43722   5.555   3.404   4.566
14094SOL    HW143723   5.472   3.408   4.519
14094SOL    HW243724   5.532   3.376   4.654
14095SOL     OW43725   3.802   3.078   4.421
14095SOL    HW143726   3.856   3.019   4.474
14095SOL    HW243727   3.858   3.154   4.407
14096SOL     OW43728   4.428   3.262   5.331
14096SOL    HW143729   4.359   3.205   5.366
14096SOL    HW243730   4.438   3.330   5.397
14097SOL     OW43731   5.557   2.047   4.959
14097SOL    HW143732   5.517   1.961   4.973
14097SOL    HW243733   5.562   2.056   4.864
14098SOL     OW43734   4.197   2.304   4.231
14098SOL    HW143735   4.202   2.234   4.167
14098SOL    HW243736   4.124   2.279   4.288
14099SOL     OW43737   5.455   3.317   4.809
14099SOL    HW143738   5.372   3.305   4.764
14099SOL    HW243739   5.439   3.283   4.898
14100SOL     OW43740   4.030   2.380   5.009
14100SOL    HW143741   4.108   2.365   5.063
14100SOL    HW243742   4.064   2.391   4.920
14101SOL     OW43743   5.145   2.070   4.847
14101SOL    HW143744   5.111   1.984   4.870
14101SOL    HW243745   5.102   2.130   4.908
14102SOL     OW43746   4.738   1.885   4.854
14102SOL    HW143747   4.697   1.813   4.806
14102SOL    HW243748   4.830   1.859   4.861
14103SOL     OW43749   4.535   3.161   3.990
14103SOL    HW143750   4.502   3.079   4.028
14103SOL    HW243751   4.503   3.229   4.050
14104SOL     OW43752   4.341   3.415   5.019
14104SOL    HW143753   4.334   3.498   5.067
14104SOL    HW243754   4.434   3.407   4.998
14105SOL     OW43755   5.080   1.920   3.898
14105SOL    HW143756   5.103   1.860   3.827
14105SOL    HW243757   4.993   1.892   3.926
14106SOL     OW43758   5.032   2.321   4.401
14106SOL    HW143759   4.979   2.401   4.400
14106SOL    HW243760   5.020   2.286   4.489
14107SOL     OW43761   5.311   2.061   4.621
14107SOL    HW143762   5.253   2.078   4.695
14107SOL    HW243763   5.299   2.135   4.562
14108SOL     OW43764   3.934   2.435   5.699
14108SOL    HW143765   3.864   2.470   5.754
14108SOL    HW243766   3.960   2.509   5.643
14109SOL     OW43767   3.951   2.138   6.570
14109SOL    HW143768   3.975   2.112   6.659
14109SOL    HW243769   3.858   2.116   6.563
14110SOL     OW43770   3.719   2.242   6.228
14110SOL    HW143771   3.643   2.277   6.275
14110SOL    HW243772   3.684   2.169   6.177
14111SOL     OW43773   5.288   3.379   6.291
14111SOL    HW143774   5.229   3.374   6.365
14111SOL    HW243775   5.231   3.394   6.215
14112SOL     OW43776   4.864   2.545   6.282
14112SOL    HW143777   4.908   2.627   6.259
14112SOL    HW243778   4.818   2.564   6.363
14113SOL     OW43779   5.533   2.450   5.804
14113SOL    HW143780   5.497   2.449   5.715
14113SOL    HW243781   5.473   2.395   5.854
14114SOL     OW43782   4.471   3.013   6.635
14114SOL    HW143783   4.383   3.037   6.665
14114SOL    HW243784   4.501   3.089   6.585
14115SOL     OW43785   4.576   2.631   7.414
14115SOL    HW143786   4.535   2.694   7.473
14115SOL    HW243787   4.606   2.684   7.340
14116SOL     OW43788   4.410   2.845   6.241
14116SOL    HW143789   4.479   2.857   6.307
14116SOL    HW243790   4.338   2.901   6.271
14117SOL     OW43791   5.213   3.356   6.942
14117SOL    HW143792   5.251   3.443   6.948
14117SOL    HW243793   5.131   3.362   6.990
14118SOL     OW43794   4.185   2.233   7.030
14118SOL    HW143795   4.252   2.173   7.064
14118SOL    HW243796   4.103   2.199   7.065
14119SOL     OW43797   5.313   2.301   6.331
14119SOL    HW143798   5.233   2.309   6.279
14119SOL    HW243799   5.310   2.377   6.391
14120SOL     OW43800   3.952   3.191   6.158
14120SOL    HW143801   4.030   3.246   6.172
14120SOL    HW243802   3.879   3.251   6.167
14121SOL     OW43803   3.949   2.952   6.499
14121SOL    HW143804   3.969   2.858   6.504
14121SOL    HW243805   3.931   2.977   6.589
14122SOL     OW43806   4.405   2.808   5.689
14122SOL    HW143807   4.425   2.889   5.643
14122SOL    HW243808   4.408   2.832   5.782
14123SOL     OW43809   5.327   1.988   7.055
14123SOL    HW143810   5.347   2.070   7.010
14123SOL    HW243811   5.296   2.014   7.141
14124SOL     OW43812   3.847   2.510   6.154
14124SOL    HW143813   3.812   2.425   6.181
14124SOL    HW243814   3.832   2.567   6.229
14125SOL     OW43815   5.581   3.609   5.910
14125SOL    HW143816   5.544   3.598   5.997
14125SOL    HW243817   5.597   3.703   5.901
14126SOL     OW43818   5.411   2.779   6.218
14126SOL    HW143819   5.486   2.738   6.175
14126SOL    HW243820   5.380   2.844   6.155
14127SOL     OW43821   5.378   2.968   6.017
14127SOL    HW143822   5.464   2.972   5.974
14127SOL    HW243823   5.382   3.036   6.084
14128SOL     OW43824   3.838   2.594   7.176
14128SOL    HW143825   3.925   2.632   7.176
14128SOL    HW243826   3.779   2.669   7.188
14129SOL     OW43827   4.989   3.076   7.018
14129SOL    HW143828   5.026   3.019   6.950
14129SOL    HW243829   5.058   3.080   7.085
14130SOL     OW43830   4.544   1.860   6.104
14130SOL    HW143831   4.585   1.942   6.075
14130SOL    HW243832   4.451   1.880   6.108
14131SOL     OW43833   3.895   2.816   6.772
14131SOL    HW143834   3.977   2.779   6.804
14131SOL    HW243835   3.856   2.858   6.848
14132SOL     OW43836   5.275   2.846   5.790
14132SOL    HW143837   5.201   2.793   5.820
14132SOL    HW243838   5.305   2.893   5.868
14133SOL     OW43839   4.059   2.110   7.428
14133SOL    HW143840   4.100   2.194   7.406
14133SOL    HW243841   3.966   2.130   7.436
14134SOL     OW43842   5.216   3.255   6.565
14134SOL    HW143843   5.136   3.287   6.606
14134SOL    HW243844   5.187   3.180   6.513
14135SOL     OW43845   5.408   3.600   6.131
14135SOL    HW143846   5.351   3.578   6.058
14135SOL    HW243847   5.375   3.547   6.204
14136SOL     OW43848   4.323   2.568   5.851
14136SOL    HW143849   4.339   2.649   5.802
14136SOL    HW243850   4.261   2.593   5.919
14137SOL     OW43851   5.012   2.230   6.523
14137SOL    HW143852   4.920   2.204   6.527
14137SOL    HW243853   5.056   2.172   6.585
14138SOL     OW43854   5.307   3.529   5.880
14138SOL    HW143855   5.391   3.566   5.852
14138SOL    HW243856   5.259   3.512   5.798
14139SOL     OW43857   4.542   2.456   7.034
14139SOL    HW143858   4.501   2.442   7.120
14139SOL    HW243859   4.490   2.403   6.974
14140SOL     OW43860   5.113   2.338   7.263
14140SOL    HW143861   5.113   2.381   7.349
14140SOL    HW243862   5.183   2.273   7.269
14141SOL     OW43863   4.656   2.747   7.162
14141SOL    HW143864   4.717   2.683   7.125
14141SOL    HW243865   4.622   2.795   7.086
14142SOL     OW43866   4.723   2.262   6.822
14142SOL    HW143867   4.639   2.287   6.860
14142SOL    HW243868   4.706   2.261   6.727
14143SOL     OW43869   4.780   2.541   6.010
14143SOL    HW143870   4.793   2.541   6.105
14143SOL    HW243871   4.692   2.505   5.998
14144SOL     OW43872   3.790   2.671   6.371
14144SOL    HW143873   3.876   2.679   6.412
14144SOL    HW243874   3.735   2.734   6.417
14145SOL     OW43875   3.838   3.756   7.167
14145SOL    HW143876   3.825   3.726   7.257
14145SOL    HW243877   3.798   3.688   7.113
14146SOL     OW43878   4.628   2.190   5.757
14146SOL    HW143879   4.655   2.272   5.716
14146SOL    HW243880   4.683   2.123   5.716
14147SOL     OW43881   5.438   2.431   7.415
14147SOL    HW143882   5.400   2.506   7.368
14147SOL    HW243883   5.458   2.368   7.346
14148SOL     OW43884   5.124   2.992   6.150
14148SOL    HW143885   5.197   2.987   6.088
14148SOL    HW243886   5.070   3.064   6.118
14149SOL     OW43887   4.274   2.032   6.488
14149SOL    HW143888   4.276   2.062   6.579
14149SOL    HW243889   4.270   2.113   6.436
14150SOL     OW43890   5.528   2.901   6.445
14150SOL    HW143891   5.465   2.889   6.373
14150SOL    HW243892   5.473   2.921   6.521
14151SOL     OW43893   4.979   3.384   7.068
14151SOL    HW143894   4.972   3.377   7.163
14151SOL    HW243895   4.889   3.398   7.038
14152SOL     OW43896   4.077   2.781   5.849
14152SOL    HW143897   4.167   2.813   5.858
14152SOL    HW243898   4.071   2.752   5.758
14153SOL     OW43899   5.220   2.597   6.295
14153SOL    HW143900   5.207   2.576   6.387
14153SOL    HW243901   5.287   2.665   6.295
14154SOL     OW43902   3.924   2.143   7.070
14154SOL    HW143903   3.887   2.229   7.090
14154SOL    HW243904   3.886   2.084   7.134
14155SOL     OW43905   5.354   3.232   5.666
14155SOL    HW143906   5.314   3.318   5.658
14155SOL    HW243907   5.282   3.171   5.655
14156SOL     OW43908   5.123   1.963   6.034
14156SOL    HW143909   5.112   1.943   5.941
14156SOL    HW243910   5.215   1.988   6.042
14157SOL     OW43911   4.137   2.547   6.064
14157SOL    HW143912   4.140   2.453   6.082
14157SOL    HW243913   4.045   2.571   6.074
14158SOL     OW43914   5.248   2.085   7.307
14158SOL    HW143915   5.265   2.095   7.401
14158SOL    HW243916   5.157   2.056   7.302
14159SOL     OW43917   4.346   1.945   5.713
14159SOL    HW143918   4.439   1.933   5.694
14159SOL    HW243919   4.303   1.929   5.629
14160SOL     OW43920   4.481   2.094   7.351
14160SOL    HW143921   4.570   2.060   7.352
14160SOL    HW243922   4.477   2.153   7.426
14161SOL     OW43923   4.697   3.363   6.746
14161SOL    HW143924   4.606   3.387   6.730
14161SOL    HW243925   4.693   3.296   6.815
14162SOL     OW43926   5.068   2.444   7.009
14162SOL    HW143927   5.091   2.426   7.100
14162SOL    HW243928   5.091   2.536   6.997
14163SOL     OW43929   4.537   3.246   6.505
14163SOL    HW143930   4.632   3.241   6.490
14163SOL    HW243931   4.514   3.336   6.480
14164SOL     OW43932   4.666   2.365   6.486
14164SOL    HW143933   4.634   2.362   6.396
14164SOL    HW243934   4.690   2.274   6.506
14165SOL     OW43935   4.277   1.921   6.085
14165SOL    HW143936   4.198   1.923   6.139
14165SOL    HW243937   4.271   1.999   6.030
14166SOL     OW43938   5.149   3.052   5.628
14166SOL    HW143939   5.165   2.980   5.689
14166SOL    HW243940   5.066   3.091   5.658
14167SOL     OW43941   4.012   1.913   5.767
14167SOL    HW143942   4.051   1.986   5.719
14167SOL    HW243943   4.087   1.868   5.808
14168SOL     OW43944   4.663   2.102   6.031
14168SOL    HW143945   4.636   2.140   5.947
14168SOL    HW243946   4.755   2.129   6.040
14169SOL     OW43947   4.799   2.548   7.041
14169SOL    HW143948   4.719   2.496   7.042
14169SOL    HW243949   4.870   2.484   7.030
14170SOL     OW43950   5.003   3.395   6.393
14170SOL    HW143951   4.934   3.424   6.334
14170SOL    HW243952   5.010   3.464   6.458
14171SOL     OW43953   4.187   2.970   6.340
14171SOL    HW143954   4.109   2.991   6.392
14171SOL    HW243955   4.156   2.968   6.250
14172SOL     OW43956   4.734   2.404   5.611
14172SOL    HW143957   4.685   2.483   5.590
14172SOL    HW243958   4.796   2.431   5.679
14173SOL     OW43959   3.806   2.411   6.982
14173SOL    HW143960   3.897   2.417   6.952
14173SOL    HW243961   3.797   2.481   7.046
14174SOL     OW43962   4.277   2.084   6.759
14174SOL    HW143963   4.315   2.037   6.834
14174SOL    HW243964   4.184   2.091   6.781
14175SOL     OW43965   4.587   2.316   6.229
14175SOL    HW143966   4.531   2.382   6.186
14175SOL    HW243967   4.600   2.249   6.162
14176SOL     OW43968   4.757   1.910   6.326
14176SOL    HW143969   4.692   1.925   6.257
14176SOL    HW243970   4.719   1.841   6.381
14177SOL     OW43971   5.162   3.013   6.437
14177SOL    HW143972   5.072   2.984   6.452
14177SOL    HW243973   5.169   3.020   6.342
14178SOL     OW43974   5.187   2.468   6.543
14178SOL    HW143975   5.123   2.397   6.551
14178SOL    HW243976   5.239   2.463   6.623
14179SOL     OW43977   5.587   2.668   5.968
14179SOL    HW143978   5.638   2.616   6.030
14179SOL    HW243979   5.556   2.605   5.903
14180SOL     OW43980   5.405   3.136   6.222
14180SOL    HW143981   5.497   3.150   6.244
14180SOL    HW243982   5.361   3.216   6.248
14181SOL     OW43983   5.115   2.430   5.657
14181SOL    HW143984   5.046   2.412   5.721
14181SOL    HW243985   5.196   2.431   5.709
14182SOL     OW43986   4.243   2.116   5.902
14182SOL    HW143987   4.283   2.064   5.833
14182SOL    HW243988   4.223   2.200   5.860
14183SOL     OW43989   5.472   3.099   7.136
14183SOL    HW143990   5.562   3.067   7.124
14183SOL    HW243991   5.482   3.187   7.171
14184SOL     OW43992   4.743   3.174   6.941
14184SOL    HW143993   4.708   3.226   7.013
14184SOL    HW243994   4.826   3.140   6.974
14185SOL     OW43995   5.332   3.482   7.242
14185SOL    HW143996   5.327   3.522   7.156
14185SOL    HW243997   5.413   3.431   7.240
14186SOL     OW43998   4.846   3.051   6.700
14186SOL    HW143999   4.789   3.094   6.764
14186SOL    HW244000   4.829   3.097   6.618
14187SOL     OW44001   5.355   2.961   6.657
14187SOL    HW144002   5.349   3.026   6.726
14187SOL    HW244003   5.281   2.980   6.599
14188SOL     OW44004   4.658   1.938   6.981
14188SOL    HW144005   4.670   1.933   6.886
14188SOL    HW244006   4.731   1.991   7.012
14189SOL     OW44007   4.680   2.918   7.371
14189SOL    HW144008   4.594   2.957   7.383
14189SOL    HW244009   4.673   2.871   7.288
14190SOL     OW44010   4.403   2.858   5.955
14190SOL    HW144011   4.386   2.869   6.049
14190SOL    HW244012   4.496   2.839   5.949
14191SOL     OW44013   4.138   2.685   6.842
14191SOL    HW144014   4.209   2.694   6.906
14191SOL    HW244015   4.099   2.600   6.861
14192SOL     OW44016   4.987   2.228   6.870
14192SOL    HW144017   5.019   2.308   6.910
14192SOL    HW244018   4.896   2.247   6.846
14193SOL     OW44019   3.808   3.584   6.948
14193SOL    HW144020   3.778   3.598   6.858
14193SOL    HW244021   3.904   3.581   6.940
14194SOL     OW44022   4.080   2.940   6.090
14194SOL    HW144023   4.050   3.030   6.073
14194SOL    HW244024   4.054   2.891   6.012
14195SOL     OW44025   4.275   2.379   6.442
14195SOL    HW144026   4.286   2.438   6.367
14195SOL    HW244027   4.337   2.412   6.507
14196SOL     OW44028   5.009   3.199   6.028
14196SOL    HW144029   5.047   3.286   6.040
14196SOL    HW244030   4.952   3.208   5.952
14197SOL     OW44031   4.998   3.338   6.720
14197SOL    HW144032   5.023   3.306   6.807
14197SOL    HW244033   4.904   3.322   6.715
14198SOL     OW44034   5.301   2.491   6.051
14198SOL    HW144035   5.266   2.514   6.137
14198SOL    HW244036   5.288   2.569   5.998
14199SOL     OW44037   4.134   2.574   7.175
14199SOL    HW144038   4.202   2.616   7.122
14199SOL    HW244039   4.144   2.614   7.261
14200SOL     OW44040   5.341   2.640   7.271
14200SOL    HW144041   5.254   2.681   7.266
14200SOL    HW244042   5.391   2.683   7.202
14201SOL     OW44043   4.739   2.003   7.369
14201SOL    HW144044   4.785   2.081   7.337
14201SOL    HW244045   4.786   1.930   7.330
14202SOL     OW44046   4.204   1.887   7.349
14202SOL    HW144047   4.162   1.847   7.273
14202SOL    HW244048   4.157   1.969   7.363
14203SOL     OW44049   4.315   2.726   6.627
14203SOL    HW144050   4.320   2.815   6.593
14203SOL    HW244051   4.247   2.730   6.694
14204SOL     OW44052   5.061   2.713   6.604
14204SOL    HW144053   4.971   2.706   6.571
14204SOL    HW244054   5.101   2.629   6.583
14205SOL     OW44055   4.925   2.380   5.844
14205SOL    HW144056   4.928   2.305   5.903
14205SOL    HW244057   4.883   2.449   5.896
14206SOL     OW44058   4.012   2.057   6.825
14206SOL    HW144059   3.978   2.096   6.905
14206SOL    HW244060   3.993   1.964   6.833
14207SOL     OW44061   4.440   2.487   6.634
14207SOL    HW144062   4.519   2.493   6.581
14207SOL    HW244063   4.402   2.575   6.630
14208SOL     OW44064   5.475   2.811   7.451
14208SOL    HW144065   5.423   2.753   7.395
14208SOL    HW244066   5.416   2.835   7.522
14209SOL     OW44067   4.031   1.913   6.211
14209SOL    HW144068   4.005   2.004   6.225
14209SOL    HW244069   4.038   1.877   6.299
14210SOL     OW44070   5.348   2.246   5.944
14210SOL    HW144071   5.374   2.187   6.016
14210SOL    HW244072   5.322   2.327   5.988
14211SOL     OW44073   4.772   2.611   6.543
14211SOL    HW144074   4.754   2.631   6.635
14211SOL    HW244075   4.736   2.523   6.530
14212SOL     OW44076   5.578   3.352   7.193
14212SOL    HW144077   5.592   3.386   7.105
14212SOL    HW244078   5.657   3.375   7.241
14213SOL     OW44079   4.120   2.702   7.419
14213SOL    HW144080   4.188   2.764   7.442
14213SOL    HW244081   4.047   2.757   7.390
14214SOL     OW44082   5.269   2.115   5.713
14214SOL    HW144083   5.196   2.061   5.743
14214SOL    HW244084   5.294   2.166   5.790
14215SOL     OW44085   5.016   2.686   5.612
14215SOL    HW144086   5.053   2.598   5.613
14215SOL    HW244087   5.049   2.726   5.531
14216SOL     OW44088   4.814   3.187   6.462
14216SOL    HW144089   4.808   3.121   6.393
14216SOL    HW244090   4.875   3.252   6.429
14217SOL     OW44091   4.034   2.682   6.504
14217SOL    HW144092   4.124   2.689   6.473
14217SOL    HW244093   4.038   2.620   6.577
14218SOL     OW44094   4.062   2.383   6.611
14218SOL    HW144095   4.020   2.299   6.590
14218SOL    HW244096   4.133   2.390   6.547
14219SOL     OW44097   4.857   2.236   7.283
14219SOL    HW144098   4.804   2.297   7.334
14219SOL    HW244099   4.941   2.280   7.272
14220SOL     OW44100   4.893   2.060   7.069
14220SOL    HW144101   4.874   2.126   7.136
14220SOL    HW244102   4.929   2.109   6.996
14221SOL     OW44103   4.703   2.644   6.800
14221SOL    HW144104   4.751   2.622   6.880
14221SOL    HW244105   4.617   2.672   6.831
14222SOL     OW44106   3.760   2.390   6.707
14222SOL    HW144107   3.834   2.421   6.654
14222SOL    HW244108   3.787   2.404   6.797
14223SOL     OW44109   3.965   2.367   7.265
14223SOL    HW144110   4.042   2.409   7.228
14223SOL    HW244111   3.894   2.431   7.252
14224SOL     OW44112   5.114   2.785   7.235
14224SOL    HW144113   5.125   2.881   7.236
14224SOL    HW244114   5.098   2.764   7.144
14225SOL     OW44115   4.538   2.425   5.949
14225SOL    HW144116   4.521   2.353   5.888
14225SOL    HW244117   4.469   2.489   5.931
14226SOL     OW44118   5.356   2.458   6.758
14226SOL    HW144119   5.339   2.411   6.839
14226SOL    HW244120   5.445   2.431   6.733
14227SOL     OW44121   3.991   3.382   7.340
14227SOL    HW144122   3.924   3.398   7.407
14227SOL    HW244123   4.058   3.331   7.385
14228SOL     OW44124   4.442   2.303   6.831
14228SOL    HW144125   4.374   2.240   6.810
14228SOL    HW244126   4.435   2.371   6.765
14229SOL     OW44127   4.189   2.343   5.767
14229SOL    HW144128   4.237   2.422   5.793
14229SOL    HW244129   4.100   2.374   5.749
14230SOL     OW44130   5.046   2.901   6.802
14230SOL    HW144131   5.063   2.840   6.730
14230SOL    HW244132   4.975   2.957   6.770
14231SOL     OW44133   5.060   2.706   5.887
14231SOL    HW144134   4.987   2.717   5.949
14231SOL    HW244135   5.019   2.708   5.801
14232SOL     OW44136   5.511   3.587   6.753
14232SOL    HW144137   5.562   3.621   6.680
14232SOL    HW244138   5.476   3.504   6.722
14233SOL     OW44139   5.058   3.618   6.741
14233SOL    HW144140   5.081   3.627   6.649
14233SOL    HW244141   5.021   3.530   6.748
14234SOL     OW44142   5.455   2.021   6.098
14234SOL    HW144143   5.519   2.007   6.029
14234SOL    HW244144   5.436   1.933   6.132
14235SOL     OW44145   5.134   3.445   6.075
14235SOL    HW144146   5.182   3.467   5.994
14235SOL    HW244147   5.051   3.492   6.067
14236SOL     OW44148   3.834   3.678   7.429
14236SOL    HW144149   3.809   3.594   7.468
14236SOL    HW244150   3.894   3.716   7.492
14237SOL     OW44151   5.004   2.766   6.229
14237SOL    HW144152   5.082   2.713   6.246
14237SOL    HW244153   5.038   2.851   6.201
14238SOL     OW44154   5.362   3.593   6.988
14238SOL    HW144155   5.404   3.599   6.902
14238SOL    HW244156   5.337   3.683   7.009
14239SOL     OW44157   5.568   2.029   6.551
14239SOL    HW144158   5.590   1.941   6.520
14239SOL    HW244159   5.481   2.046   6.516
14240SOL     OW44160   3.974   2.163   6.293
14240SOL    HW144161   3.890   2.203   6.272
14240SOL    HW244162   3.978   2.166   6.389
14241SOL     OW44163   4.950   3.425   5.582
14241SOL    HW144164   4.935   3.454   5.672
14241SOL    HW244165   4.867   3.438   5.537
14242SOL     OW44166   4.542   2.888   6.951
14242SOL    HW144167   4.562   2.917   6.862
14242SOL    HW244168   4.524   2.968   6.999
14243SOL     OW44169   4.658   2.777   5.912
14243SOL    HW144170   4.701   2.808   5.833
14243SOL    HW244171   4.709   2.700   5.938
14244SOL     OW44172   5.218   3.469   5.629
14244SOL    HW144173   5.124   3.457   5.613
14244SOL    HW244174   5.255   3.482   5.542
14245SOL     OW44175   5.358   3.141   6.874
14245SOL    HW144176   5.391   3.119   6.961
14245SOL    HW244177   5.295   3.211   6.889
14246SOL     OW44178   4.795   2.971   6.298
14246SOL    HW144179   4.715   2.933   6.335
14246SOL    HW244180   4.833   2.901   6.245
14247SOL     OW44181   4.762   2.104   6.543
14247SOL    HW144182   4.759   2.053   6.462
14247SOL    HW244183   4.746   2.041   6.612
14248SOL     OW44184   5.458   2.242   6.972
14248SOL    HW144185   5.522   2.313   6.966
14248SOL    HW244186   5.489   2.176   6.910
14249SOL     OW44187   3.890   2.833   7.350
14249SOL    HW144188   3.846   2.871   7.274
14249SOL    HW244189   3.905   2.906   7.409
14250SOL     OW44190   4.399   2.037   7.086
14250SOL    HW144191   4.486   2.036   7.046
14250SOL    HW244192   4.414   2.064   7.177
14251SOL     OW44193   3.810   2.185   5.624
14251SOL    HW144194   3.751   2.198   5.550
14251SOL    HW244195   3.844   2.272   5.644
14252SOL     OW44196   5.145   2.709   6.971
14252SOL    HW144197   5.092   2.771   6.921
14252SOL    HW244198   5.234   2.722   6.937
14253SOL     OW44199   3.776   2.013   5.878
14253SOL    HW144200   3.758   2.089   5.822
14253SOL    HW244201   3.864   1.986   5.854
14254SOL     OW44202   4.920   3.173   5.728
14254SOL    HW144203   4.828   3.162   5.703
14254SOL    HW244204   4.931   3.268   5.735
14255SOL     OW44205   4.350   2.686   7.018
14255SOL    HW144206   4.400   2.767   7.009
14255SOL    HW244207   4.416   2.620   7.037
14256SOL     OW44208   5.228   3.658   6.524
14256SOL    HW144209   5.249   3.742   6.483
14256SOL    HW244210   5.266   3.665   6.612
14257SOL     OW44211   4.450   2.428   7.282
14257SOL    HW144212   4.471   2.510   7.328
14257SOL    HW244213   4.459   2.360   7.349
14258SOL     OW44214   5.196   3.049   7.211
14258SOL    HW144215   5.183   3.063   7.305
14258SOL    HW244216   5.286   3.079   7.195
14259SOL     OW44217   4.076   3.600   7.203
14259SOL    HW144218   4.002   3.649   7.167
14259SOL    HW244219   4.036   3.521   7.240
14260SOL     OW44220   5.390   2.745   6.836
14260SOL    HW144221   5.375   2.665   6.785
14260SOL    HW244222   5.376   2.816   6.773
14261SOL     OW44223   4.935   2.177   6.044
14261SOL    HW144224   4.996   2.103   6.045
14261SOL    HW244225   4.962   2.231   6.118
14262SOL     OW44226   4.325   2.583   6.260
14262SOL    HW144227   4.359   2.673   6.254
14262SOL    HW244228   4.260   2.578   6.190
14263SOL     OW44229   5.482   2.213   7.242
14263SOL    HW144230   5.471   2.231   7.149
14263SOL    HW244231   5.404   2.164   7.267
14264SOL     OW44232   5.484   2.791   7.093
14264SOL    HW144233   5.462   2.882   7.113
14264SOL    HW244234   5.459   2.780   7.001
14265SOL     OW44235   4.600   2.843   6.448
14265SOL    HW144236   4.650   2.775   6.491
14265SOL    HW244237   4.562   2.894   6.519
14266SOL     OW44238   4.800   2.838   5.690
14266SOL    HW144239   4.767   2.900   5.625
14266SOL    HW244240   4.871   2.793   5.646
14267SOL     OW44241   5.549   3.416   6.433
14267SOL    HW144242   5.472   3.411   6.376
14267SOL    HW244243   5.519   3.378   6.516
14268SOL     OW44244   3.954   3.070   7.457
14268SOL    HW144245   3.893   3.125   7.410
14268SOL    HW244246   4.038   3.117   7.453
14269SOL     OW44247   3.774   3.020   6.290
14269SOL    HW144248   3.839   3.002   6.358
14269SOL    HW244249   3.826   3.047   6.214
14270SOL     OW44250   5.549   2.036   6.823
14270SOL    HW144251   5.534   1.942   6.828
14270SOL    HW244252   5.557   2.054   6.730
14271SOL     OW44253   4.157   2.284   6.120
14271SOL    HW144254   4.176   2.216   6.055
14271SOL    HW244255   4.098   2.241   6.182
14272SOL     OW44256   5.444   3.331   6.676
14272SOL    HW144257   5.360   3.315   6.633
14272SOL    HW244258   5.443   3.273   6.753
14273SOL     OW44259   4.055   2.424   6.880
14273SOL    HW144260   4.114   2.367   6.929
14273SOL    HW244261   4.070   2.401   6.789
14274SOL     OW44262   5.151   2.082   6.712
14274SOL    HW144263   5.154   1.999   6.760
14274SOL    HW244264   5.100   2.141   6.769
14275SOL     OW44265   4.735   1.876   6.713
14275SOL    HW144266   4.680   1.816   6.663
14275SOL    HW244267   4.821   1.835   6.714
14276SOL     OW44268   5.079   1.916   5.765
14276SOL    HW144269   5.103   1.858   5.692
14276SOL    HW244270   4.992   1.886   5.791
14277SOL     OW44271   5.029   2.319   6.262
14277SOL    HW144272   4.978   2.400   6.259
14277SOL    HW244273   5.020   2.288   6.352
14278SOL     OW44274   5.308   2.059   6.479
14278SOL    HW144275   5.252   2.083   6.553
14278SOL    HW244276   5.303   2.134   6.419
14279SOL     OW44277   3.746   2.929   5.965
14279SOL    HW144278   3.772   2.970   5.883
14279SOL    HW244279   3.754   2.835   5.948
14280SOL     OW44280   3.937   2.440   7.562
14280SOL    HW144281   3.896   2.507   7.616
14280SOL    HW244282   3.964   2.486   7.483
14281SOL     OW44283   3.947   2.131   8.432
14281SOL    HW144284   3.973   2.109   8.521
14281SOL    HW244285   3.853   2.112   8.429
14282SOL     OW44286   3.719   2.237   8.093
14282SOL    HW144287   3.641   2.277   8.131
14282SOL    HW244288   3.687   2.162   8.044
14283SOL     OW44289   5.281   3.374   8.161
14283SOL    HW144290   5.225   3.367   8.238
14283SOL    HW244291   5.221   3.393   8.089
14284SOL     OW44292   4.864   2.547   8.146
14284SOL    HW144293   4.914   2.624   8.119
14284SOL    HW244294   4.821   2.573   8.227
14285SOL     OW44295   5.534   2.455   7.666
14285SOL    HW144296   5.498   2.454   7.577
14285SOL    HW244297   5.471   2.405   7.718
14286SOL     OW44298   4.593   2.621   9.265
14286SOL    HW144299   4.574   2.693   9.325
14286SOL    HW244300   4.620   2.663   9.184
14287SOL     OW44301   4.399   2.868   8.123
14287SOL    HW144302   4.448   2.885   8.204
14287SOL    HW244303   4.347   2.947   8.109
14288SOL     OW44304   4.397   3.014   9.281
14288SOL    HW144305   4.461   3.073   9.242
14288SOL    HW244306   4.316   3.030   9.233
14289SOL     OW44307   5.211   3.341   8.883
14289SOL    HW144308   5.166   3.414   8.841
14289SOL    HW244309   5.148   3.268   8.876
14290SOL     OW44310   4.162   2.253   8.992
14290SOL    HW144311   4.240   2.206   8.963
14290SOL    HW244312   4.089   2.203   8.956
14291SOL     OW44313   5.313   2.300   8.187
14291SOL    HW144314   5.230   2.300   8.139
14291SOL    HW244315   5.318   2.388   8.225
14292SOL     OW44316   3.949   3.568   7.924
14292SOL    HW144317   3.973   3.650   7.968
14292SOL    HW244318   4.022   3.552   7.863
14293SOL     OW44319   4.957   3.124   9.193
14293SOL    HW144320   4.934   3.167   9.275
14293SOL    HW244321   4.875   3.082   9.164
14294SOL     OW44322   3.886   3.297   7.992
14294SOL    HW144323   3.909   3.389   7.981
14294SOL    HW244324   3.797   3.299   8.026
14295SOL     OW44325   4.360   2.822   7.564
14295SOL    HW144326   4.380   2.890   7.500
14295SOL    HW244327   4.374   2.864   7.649
14296SOL     OW44328   5.321   1.992   8.907
14296SOL    HW144329   5.349   2.074   8.865
14296SOL    HW244330   5.296   2.017   8.995
14297SOL     OW44331   3.856   2.505   8.014
14297SOL    HW144332   3.812   2.421   8.033
14297SOL    HW244333   3.841   2.558   8.092
14298SOL     OW44334   5.599   3.614   7.797
14298SOL    HW144335   5.545   3.601   7.875
14298SOL    HW244336   5.602   3.709   7.785
14299SOL     OW44337   3.787   3.452   7.578
14299SOL    HW144338   3.764   3.361   7.597
14299SOL    HW244339   3.748   3.502   7.650
14300SOL     OW44340   5.416   2.783   8.070
14300SOL    HW144341   5.476   2.737   8.011
14300SOL    HW244342   5.378   2.853   8.016
14301SOL     OW44343   5.372   2.976   7.877
14301SOL    HW144344   5.458   2.984   7.834
14301SOL    HW244345   5.374   3.042   7.946
14302SOL     OW44346   3.853   2.601   9.042
14302SOL    HW144347   3.940   2.636   9.021
14302SOL    HW244348   3.794   2.676   9.033
14303SOL     OW44349   4.332   3.147   8.147
14303SOL    HW144350   4.253   3.154   8.201
14303SOL    HW244351   4.319   3.211   8.077
14304SOL     OW44352   5.060   3.111   8.875
14304SOL    HW144353   5.048   3.049   8.802
14304SOL    HW244354   5.099   3.059   8.944
14305SOL     OW44355   4.543   1.859   7.969
14305SOL    HW144356   4.586   1.939   7.939
14305SOL    HW244357   4.450   1.881   7.972
14306SOL     OW44358   3.869   2.750   8.732
14306SOL    HW144359   3.965   2.742   8.733
14306SOL    HW244360   3.848   2.780   8.643
14307SOL     OW44361   5.278   2.844   7.653
14307SOL    HW144362   5.203   2.792   7.681
14307SOL    HW244363   5.303   2.895   7.730
14308SOL     OW44364   4.062   2.101   9.291
14308SOL    HW144365   4.103   2.182   9.263
14308SOL    HW244366   3.969   2.123   9.303
14309SOL     OW44367   5.214   3.253   8.418
14309SOL    HW144368   5.143   3.277   8.478
14309SOL    HW244369   5.178   3.180   8.368
14310SOL     OW44370   5.417   3.561   7.997
14310SOL    HW144371   5.357   3.557   7.922
14310SOL    HW244372   5.371   3.515   8.067
14311SOL     OW44373   4.320   2.585   7.714
14311SOL    HW144374   4.329   2.665   7.662
14311SOL    HW244375   4.255   2.607   7.781
14312SOL     OW44376   5.013   2.234   8.387
14312SOL    HW144377   4.921   2.206   8.392
14312SOL    HW244378   5.059   2.176   8.447
14313SOL     OW44379   5.315   3.539   7.742
14313SOL    HW144380   5.396   3.583   7.715
14313SOL    HW244381   5.277   3.505   7.661
14314SOL     OW44382   4.527   2.472   8.896
14314SOL    HW144383   4.491   2.447   8.981
14314SOL    HW244384   4.484   2.413   8.834
14315SOL     OW44385   5.111   2.341   9.120
14315SOL    HW144386   5.115   2.386   9.204
14315SOL    HW244387   5.170   2.266   9.130
14316SOL     OW44388   4.682   2.750   9.039
14316SOL    HW144389   4.734   2.674   9.013
14316SOL    HW244390   4.654   2.790   8.956
14317SOL     OW44391   4.717   2.260   8.677
14317SOL    HW144392   4.634   2.295   8.711
14317SOL    HW244393   4.708   2.266   8.582
14318SOL     OW44394   4.777   2.528   7.877
14318SOL    HW144395   4.791   2.536   7.971
14318SOL    HW244396   4.688   2.496   7.868
14319SOL     OW44397   3.793   2.629   8.252
14319SOL    HW144398   3.873   2.659   8.296
14319SOL    HW244399   3.732   2.702   8.260
14320SOL     OW44400   4.625   2.186   7.612
14320SOL    HW144401   4.653   2.271   7.578
14320SOL    HW244402   4.686   2.123   7.573
14321SOL     OW44403   5.431   2.438   9.282
14321SOL    HW144404   5.398   2.512   9.232
14321SOL    HW244405   5.451   2.371   9.216
14322SOL     OW44406   5.113   2.998   8.012
14322SOL    HW144407   5.181   2.998   7.944
14322SOL    HW244408   5.053   3.068   7.985
14323SOL     OW44409   4.272   2.032   8.345
14323SOL    HW144410   4.277   2.071   8.433
14323SOL    HW244411   4.272   2.107   8.286
14324SOL     OW44412   4.723   3.305   7.917
14324SOL    HW144413   4.718   3.348   7.831
14324SOL    HW244414   4.670   3.360   7.974
14325SOL     OW44415   4.086   3.681   8.300
14325SOL    HW144416   4.127   3.597   8.317
14325SOL    HW244417   4.156   3.745   8.316
14326SOL     OW44418   5.531   2.900   8.299
14326SOL    HW144419   5.470   2.887   8.226
14326SOL    HW244420   5.475   2.920   8.374
14327SOL     OW44421   4.059   2.806   7.690
14327SOL    HW144422   4.081   2.897   7.669
14327SOL    HW244423   4.058   2.761   7.605
14328SOL     OW44424   5.251   2.581   8.162
14328SOL    HW144425   5.215   2.576   8.251
14328SOL    HW244426   5.305   2.660   8.162
14329SOL     OW44427   4.176   3.094   9.149
14329SOL    HW144428   4.185   3.100   9.054
14329SOL    HW244429   4.189   3.183   9.181
14330SOL     OW44430   3.915   2.148   8.929
14330SOL    HW144431   3.876   2.233   8.909
14330SOL    HW244432   3.871   2.121   9.010
14331SOL     OW44433   5.377   3.219   7.537
14331SOL    HW144434   5.336   3.305   7.530
14331SOL    HW244435   5.306   3.156   7.519
14332SOL     OW44436   4.193   3.577   7.789
14332SOL    HW144437   4.247   3.649   7.824
14332SOL    HW244438   4.245   3.541   7.717
14333SOL     OW44439   5.125   1.961   7.897
14333SOL    HW144440   5.113   1.944   7.803
14333SOL    HW244441   5.214   1.994   7.904
14334SOL     OW44442   4.634   3.537   8.352
14334SOL    HW144443   4.628   3.465   8.415
14334SOL    HW244444   4.605   3.499   8.269
14335SOL     OW44445   4.137   2.544   7.928
14335SOL    HW144446   4.146   2.451   7.948
14335SOL    HW244447   4.044   2.563   7.941
14336SOL     OW44448   5.244   2.089   9.169
14336SOL    HW144449   5.255   2.104   9.263
14336SOL    HW244450   5.166   2.033   9.163
14337SOL     OW44451   4.340   1.924   7.583
14337SOL    HW144452   4.426   1.958   7.559
14337SOL    HW244453   4.294   1.914   7.499
14338SOL     OW44454   4.486   2.139   9.203
14338SOL    HW144455   4.568   2.090   9.203
14338SOL    HW244456   4.441   2.110   9.283
14339SOL     OW44457   5.063   2.448   8.866
14339SOL    HW144458   5.087   2.426   8.956
14339SOL    HW244459   5.093   2.538   8.855
14340SOL     OW44460   4.457   3.310   8.334
14340SOL    HW144461   4.526   3.265   8.382
14340SOL    HW244462   4.428   3.247   8.268
14341SOL     OW44463   4.656   2.359   8.352
14341SOL    HW144464   4.626   2.360   8.262
14341SOL    HW244465   4.689   2.270   8.366
14342SOL     OW44466   4.277   1.924   7.951
14342SOL    HW144467   4.197   1.926   8.002
14342SOL    HW244468   4.272   2.002   7.895
14343SOL     OW44469   5.173   3.045   7.483
14343SOL    HW144470   5.192   2.970   7.540
14343SOL    HW244471   5.086   3.074   7.510
14344SOL     OW44472   4.015   1.924   7.627
14344SOL    HW144473   4.036   1.996   7.568
14344SOL    HW244474   4.100   1.894   7.660
14345SOL     OW44475   4.663   2.098   7.893
14345SOL    HW144476   4.634   2.138   7.811
14345SOL    HW244477   4.755   2.125   7.902
14346SOL     OW44478   4.801   2.528   8.947
14346SOL    HW144479   4.723   2.492   8.906
14346SOL    HW244480   4.874   2.491   8.897
14347SOL     OW44481   4.987   3.436   8.261
14347SOL    HW144482   4.978   3.496   8.188
14347SOL    HW244483   4.948   3.482   8.336
14348SOL     OW44484   4.961   3.654   8.087
14348SOL    HW144485   4.975   3.719   8.019
14348SOL    HW244486   4.887   3.688   8.138
14349SOL     OW44487   4.730   2.406   7.475
14349SOL    HW144488   4.681   2.484   7.453
14349SOL    HW244489   4.795   2.435   7.539
14350SOL     OW44490   3.822   2.397   8.867
14350SOL    HW144491   3.902   2.410   8.817
14350SOL    HW244492   3.813   2.477   8.919
14351SOL     OW44493   4.280   2.087   8.620
14351SOL    HW144494   4.317   2.020   8.677
14351SOL    HW244495   4.187   2.088   8.640
14352SOL     OW44496   4.582   2.314   8.092
14352SOL    HW144497   4.529   2.381   8.049
14352SOL    HW244498   4.600   2.250   8.023
14353SOL     OW44499   4.757   1.916   8.191
14353SOL    HW144500   4.694   1.936   8.122
14353SOL    HW244501   4.715   1.845   8.241
14354SOL     OW44502   5.152   3.006   8.297
14354SOL    HW144503   5.059   3.027   8.310
14354SOL    HW244504   5.164   3.011   8.202
14355SOL     OW44505   5.179   2.473   8.413
14355SOL    HW144506   5.120   2.398   8.413
14355SOL    HW244507   5.233   2.462   8.491
14356SOL     OW44508   5.580   2.670   7.843
14356SOL    HW144509   5.636   2.615   7.897
14356SOL    HW244510   5.550   2.613   7.772
14357SOL     OW44511   5.402   3.134   8.090
14357SOL    HW144512   5.493   3.155   8.110
14357SOL    HW244513   5.353   3.212   8.114
14358SOL     OW44514   5.116   2.426   7.517
14358SOL    HW144515   5.049   2.410   7.584
14358SOL    HW244516   5.197   2.439   7.567
14359SOL     OW44517   4.242   2.117   7.764
14359SOL    HW144518   4.279   2.064   7.694
14359SOL    HW244519   4.224   2.202   7.724
14360SOL     OW44520   5.476   3.104   9.008
14360SOL    HW144521   5.565   3.074   8.989
14360SOL    HW244522   5.486   3.196   9.033
14361SOL     OW44523   5.336   3.479   9.130
14361SOL    HW144524   5.284   3.483   9.050
14361SOL    HW244525   5.421   3.446   9.102
14362SOL     OW44526   4.877   3.048   8.540
14362SOL    HW144527   4.782   3.045   8.553
14362SOL    HW244528   4.888   3.094   8.457
14363SOL     OW44529   5.350   2.951   8.510
14363SOL    HW144530   5.344   3.021   8.575
14363SOL    HW244531   5.276   2.967   8.451
14364SOL     OW44532   4.650   1.942   8.839
14364SOL    HW144533   4.666   1.933   8.745
14364SOL    HW244534   4.727   1.989   8.871
14365SOL     OW44535   4.705   2.988   9.167
14365SOL    HW144536   4.635   3.036   9.123
14365SOL    HW244537   4.705   2.902   9.125
14366SOL     OW44538   4.435   2.922   7.809
14366SOL    HW144539   4.391   2.916   7.894
14366SOL    HW244540   4.514   2.868   7.818
14367SOL     OW44541   4.133   2.692   8.738
14367SOL    HW144542   4.224   2.692   8.768
14367SOL    HW244543   4.114   2.601   8.718
14368SOL     OW44544   4.983   2.224   8.734
14368SOL    HW144545   5.015   2.307   8.770
14368SOL    HW244546   4.893   2.243   8.707
14369SOL     OW44547   4.126   2.943   7.926
14369SOL    HW144548   4.086   3.025   7.898
14369SOL    HW244549   4.093   2.878   7.864
14370SOL     OW44550   4.281   2.393   8.306
14370SOL    HW144551   4.287   2.452   8.230
14370SOL    HW244552   4.345   2.427   8.368
14371SOL     OW44553   4.971   3.199   7.904
14371SOL    HW144554   5.009   3.268   7.851
14371SOL    HW244555   4.879   3.224   7.914
14372SOL     OW44556   5.036   3.300   8.616
14372SOL    HW144557   5.024   3.383   8.661
14372SOL    HW244558   4.948   3.270   8.596
14373SOL     OW44559   5.303   2.489   7.907
14373SOL    HW144560   5.281   2.511   7.997
14373SOL    HW244561   5.273   2.563   7.855
14374SOL     OW44562   4.155   2.605   9.056
14374SOL    HW144563   4.204   2.656   8.991
14374SOL    HW244564   4.203   2.523   9.064
14375SOL     OW44565   5.343   2.648   9.136
14375SOL    HW144566   5.253   2.682   9.129
14375SOL    HW244567   5.389   2.689   9.063
14376SOL     OW44568   4.722   1.999   9.215
14376SOL    HW144569   4.776   2.074   9.192
14376SOL    HW244570   4.771   1.923   9.184
14377SOL     OW44571   4.214   1.887   9.208
14377SOL    HW144572   4.170   1.842   9.136
14377SOL    HW244573   4.161   1.965   9.224
14378SOL     OW44574   4.327   2.739   8.505
14378SOL    HW144575   4.360   2.800   8.439
14378SOL    HW244576   4.238   2.770   8.525
14379SOL     OW44577   5.069   2.714   8.491
14379SOL    HW144578   4.999   2.737   8.430
14379SOL    HW244579   5.102   2.630   8.459
14380SOL     OW44580   4.928   2.377   7.708
14380SOL    HW144581   4.930   2.302   7.768
14380SOL    HW244582   4.886   2.446   7.759
14381SOL     OW44583   4.018   2.051   8.693
14381SOL    HW144584   3.977   2.087   8.772
14381SOL    HW244585   3.996   1.958   8.695
14382SOL     OW44586   4.446   2.496   8.509
14382SOL    HW144587   4.522   2.498   8.451
14382SOL    HW244588   4.409   2.584   8.504
14383SOL     OW44589   5.478   2.809   9.319
14383SOL    HW144590   5.433   2.754   9.255
14383SOL    HW244591   5.414   2.825   9.388
14384SOL     OW44592   4.031   1.911   8.073
14384SOL    HW144593   4.004   2.003   8.085
14384SOL    HW244594   4.038   1.877   8.162
14385SOL     OW44595   5.342   2.238   7.809
14385SOL    HW144596   5.375   2.185   7.881
14385SOL    HW244597   5.319   2.322   7.849
14386SOL     OW44598   4.767   2.605   8.401
14386SOL    HW144599   4.759   2.619   8.495
14386SOL    HW244600   4.730   2.518   8.387
14387SOL     OW44601   5.582   3.360   9.054
14387SOL    HW144602   5.586   3.392   8.963
14387SOL    HW244603   5.668   3.381   9.090
14388SOL     OW44604   4.075   2.738   9.283
14388SOL    HW144605   4.148   2.799   9.293
14388SOL    HW244606   4.097   2.687   9.205
14389SOL     OW44607   5.269   2.109   7.575
14389SOL    HW144608   5.194   2.058   7.607
14389SOL    HW244609   5.295   2.163   7.650
14390SOL     OW44610   5.032   2.689   7.475
14390SOL    HW144611   5.064   2.598   7.468
14390SOL    HW244612   5.055   2.729   7.391
14391SOL     OW44613   4.912   3.161   8.299
14391SOL    HW144614   4.852   3.120   8.236
14391SOL    HW244615   4.919   3.252   8.270
14392SOL     OW44616   4.017   2.703   8.400
14392SOL    HW144617   4.011   2.794   8.369
14392SOL    HW244618   4.099   2.670   8.362
14393SOL     OW44619   4.088   2.356   8.490
14393SOL    HW144620   4.035   2.287   8.452
14393SOL    HW244621   4.150   2.379   8.421
14394SOL     OW44622   4.858   2.229   9.142
14394SOL    HW144623   4.805   2.290   9.193
14394SOL    HW244624   4.940   2.276   9.126
14395SOL     OW44625   4.888   2.054   8.928
14395SOL    HW144626   4.873   2.119   8.996
14395SOL    HW244627   4.926   2.103   8.856
14396SOL     OW44628   3.725   3.193   7.641
14396SOL    HW144629   3.638   3.208   7.602
14396SOL    HW244630   3.721   3.103   7.673
14397SOL     OW44631   3.848   3.517   8.262
14397SOL    HW144632   3.818   3.533   8.173
14397SOL    HW244633   3.912   3.586   8.279
14398SOL     OW44634   4.212   3.434   8.370
14398SOL    HW144635   4.305   3.411   8.364
14398SOL    HW244636   4.165   3.355   8.345
14399SOL     OW44637   4.715   2.618   8.669
14399SOL    HW144638   4.763   2.669   8.734
14399SOL    HW244639   4.623   2.643   8.681
14400SOL     OW44640   3.768   2.412   8.558
14400SOL    HW144641   3.801   2.438   8.472
14400SOL    HW244642   3.827   2.454   8.620
14401SOL     OW44643   3.951   2.377   9.165
14401SOL    HW144644   4.021   2.354   9.105
14401SOL    HW244645   3.907   2.451   9.124
14402SOL     OW44646   5.103   2.779   9.107
14402SOL    HW144647   5.134   2.869   9.106
14402SOL    HW244648   5.096   2.754   9.015
14403SOL     OW44649   4.528   2.428   7.816
14403SOL    HW144650   4.506   2.362   7.750
14403SOL    HW244651   4.467   2.500   7.799
14404SOL     OW44652   5.354   2.456   8.626
14404SOL    HW144653   5.338   2.400   8.702
14404SOL    HW244654   5.441   2.430   8.595
14405SOL     OW44655   4.418   2.314   8.705
14405SOL    HW144656   4.371   2.240   8.667
14405SOL    HW244657   4.422   2.379   8.635
14406SOL     OW44658   4.193   2.350   7.640
14406SOL    HW144659   4.239   2.431   7.661
14406SOL    HW244660   4.105   2.378   7.617
14407SOL     OW44661   3.788   2.990   8.950
14407SOL    HW144662   3.851   2.949   9.009
14407SOL    HW244663   3.838   3.010   8.871
14408SOL     OW44664   5.041   2.900   8.685
14408SOL    HW144665   5.063   2.837   8.616
14408SOL    HW244666   4.982   2.963   8.642
14409SOL     OW44667   5.065   2.700   7.753
14409SOL    HW144668   4.994   2.726   7.811
14409SOL    HW244669   5.028   2.703   7.665
14410SOL     OW44670   5.516   3.583   8.621
14410SOL    HW144671   5.564   3.618   8.545
14410SOL    HW244672   5.460   3.515   8.585
14411SOL     OW44673   4.983   3.600   8.531
14411SOL    HW144674   5.069   3.608   8.490
14411SOL    HW244675   5.001   3.582   8.623
14412SOL     OW44676   5.458   2.021   7.962
14412SOL    HW144677   5.520   2.007   7.891
14412SOL    HW244678   5.439   1.933   7.995
14413SOL     OW44679   5.132   3.460   7.953
14413SOL    HW144680   5.151   3.480   7.861
14413SOL    HW244681   5.058   3.517   7.975
14414SOL     OW44682   5.023   2.750   8.082
14414SOL    HW144683   5.111   2.714   8.085
14414SOL    HW244684   5.035   2.843   8.066
14415SOL     OW44685   4.339   3.468   7.591
14415SOL    HW144686   4.319   3.484   7.499
14415SOL    HW244687   4.363   3.375   7.595
14416SOL     OW44688   5.467   3.650   8.890
14416SOL    HW144689   5.451   3.613   8.804
14416SOL    HW244690   5.400   3.718   8.901
14417SOL     OW44691   5.570   2.035   8.409
14417SOL    HW144692   5.592   1.945   8.384
14417SOL    HW244693   5.481   2.048   8.377
14418SOL     OW44694   3.973   2.161   8.154
14418SOL    HW144695   3.890   2.201   8.130
14418SOL    HW244696   3.976   2.165   8.249
14419SOL     OW44697   4.616   2.877   8.807
14419SOL    HW144698   4.610   2.888   8.712
14419SOL    HW244699   4.641   2.964   8.840
14420SOL     OW44700   4.659   2.767   7.793
14420SOL    HW144701   4.704   2.797   7.714
14420SOL    HW244702   4.706   2.686   7.817
14421SOL     OW44703   5.239   3.446   7.500
14421SOL    HW144704   5.146   3.429   7.509
14421SOL    HW244705   5.252   3.466   7.407
14422SOL     OW44706   5.350   3.141   8.721
14422SOL    HW144707   5.379   3.140   8.812
14422SOL    HW244708   5.271   3.194   8.721
14423SOL     OW44709   4.771   2.956   8.160
14423SOL    HW144710   4.676   2.953   8.171
14423SOL    HW244711   4.784   2.949   8.065
14424SOL     OW44712   4.763   2.105   8.406
14424SOL    HW144713   4.764   2.053   8.326
14424SOL    HW244714   4.748   2.041   8.476
14425SOL     OW44715   4.334   3.365   7.957
14425SOL    HW144716   4.372   3.311   7.888
14425SOL    HW244717   4.266   3.417   7.913
14426SOL     OW44718   5.468   2.239   8.839
14426SOL    HW144719   5.529   2.312   8.828
14426SOL    HW244720   5.496   2.174   8.774
14427SOL     OW44721   3.961   3.131   7.793
14427SOL    HW144722   3.913   3.168   7.719
14427SOL    HW244723   3.945   3.192   7.865
14428SOL     OW44724   3.843   2.857   9.194
14428SOL    HW144725   3.771   2.844   9.256
14428SOL    HW244726   3.919   2.818   9.236
14429SOL     OW44727   4.404   2.043   8.948
14429SOL    HW144728   4.488   2.030   8.905
14429SOL    HW244729   4.425   2.086   9.031
14430SOL     OW44730   3.802   2.192   7.492
14430SOL    HW144731   3.748   2.202   7.414
14430SOL    HW244732   3.837   2.279   7.508
14431SOL     OW44733   5.150   2.712   8.845
14431SOL    HW144734   5.097   2.775   8.797
14431SOL    HW244735   5.236   2.717   8.804
14432SOL     OW44736   3.776   2.017   7.735
14432SOL    HW144737   3.755   2.086   7.672
14432SOL    HW244738   3.866   1.992   7.714
14433SOL     OW44739   4.935   3.123   7.568
14433SOL    HW144740   4.840   3.118   7.555
14433SOL    HW244741   4.950   3.209   7.606
14434SOL     OW44742   4.369   2.698   8.882
14434SOL    HW144743   4.425   2.772   8.858
14434SOL    HW244744   4.429   2.623   8.887
14435SOL     OW44745   5.237   3.656   8.420
14435SOL    HW144746   5.207   3.657   8.329
14435SOL    HW244747   5.267   3.745   8.436
14436SOL     OW44748   4.432   2.420   9.145
14436SOL    HW144749   4.479   2.483   9.200
14436SOL    HW244750   4.455   2.334   9.180
14437SOL     OW44751   5.214   3.023   9.090
14437SOL    HW144752   5.161   3.088   9.135
14437SOL    HW244753   5.296   3.067   9.071
14438SOL     OW44754   5.388   2.742   8.699
14438SOL    HW144755   5.374   2.661   8.651
14438SOL    HW244756   5.373   2.811   8.635
14439SOL     OW44757   4.933   2.173   7.910
14439SOL    HW144758   4.997   2.102   7.909
14439SOL    HW244759   4.960   2.229   7.982
14440SOL     OW44760   4.320   2.601   8.126
14440SOL    HW144761   4.349   2.692   8.123
14440SOL    HW244762   4.259   2.592   8.053
14441SOL     OW44763   5.476   2.223   9.112
14441SOL    HW144764   5.472   2.237   9.018
14441SOL    HW244765   5.399   2.170   9.132
14442SOL     OW44766   5.486   2.793   8.954
14442SOL    HW144767   5.463   2.884   8.971
14442SOL    HW244768   5.461   2.779   8.862
14443SOL     OW44769   4.440   3.716   8.465
14443SOL    HW144770   4.384   3.759   8.401
14443SOL    HW244771   4.481   3.644   8.417
14444SOL     OW44772   4.560   2.869   8.363
14444SOL    HW144773   4.642   2.821   8.353
14444SOL    HW244774   4.579   2.936   8.429
14445SOL     OW44775   4.812   2.809   7.575
14445SOL    HW144776   4.765   2.861   7.510
14445SOL    HW244777   4.890   2.778   7.530
14446SOL     OW44778   5.558   3.419   8.297
14446SOL    HW144779   5.486   3.419   8.233
14446SOL    HW244780   5.519   3.383   8.376
14447SOL     OW44781   3.803   2.975   8.112
14447SOL    HW144782   3.886   2.969   8.161
14447SOL    HW244783   3.808   3.059   8.066
14448SOL     OW44784   5.555   2.037   8.683
14448SOL    HW144785   5.523   1.947   8.691
14448SOL    HW244786   5.559   2.052   8.589
14449SOL     OW44787   4.167   2.280   7.990
14449SOL    HW144788   4.178   2.220   7.916
14449SOL    HW244789   4.099   2.239   8.044
14450SOL     OW44790   5.442   3.326   8.529
14450SOL    HW144791   5.360   3.315   8.482
14450SOL    HW244792   5.436   3.268   8.604
14451SOL     OW44793   4.060   2.416   8.745
14451SOL    HW144794   4.138   2.376   8.784
14451SOL    HW244795   4.070   2.399   8.651
14452SOL     OW44796   4.561   3.470   8.083
14452SOL    HW144797   4.556   3.559   8.049
14452SOL    HW244798   4.479   3.429   8.055
14453SOL     OW44799   5.153   2.085   8.571
14453SOL    HW144800   5.169   2.002   8.615
14453SOL    HW244801   5.099   2.135   8.633
14454SOL     OW44802   4.732   1.871   8.574
14454SOL    HW144803   4.682   1.812   8.518
14454SOL    HW244804   4.820   1.834   8.576
14455SOL     OW44805   4.453   3.208   7.773
14455SOL    HW144806   4.448   3.113   7.771
14455SOL    HW244807   4.543   3.228   7.748
14456SOL     OW44808   5.074   1.917   7.629
14456SOL    HW144809   5.090   1.873   7.545
14456SOL    HW244810   4.990   1.881   7.659
14457SOL     OW44811   5.026   2.319   8.125
14457SOL    HW144812   4.976   2.401   8.121
14457SOL    HW244813   5.019   2.291   8.216
14458SOL     OW44814   5.309   2.062   8.338
14458SOL    HW144815   5.253   2.085   8.412
14458SOL    HW244816   5.305   2.138   8.280
14459SOL     OW44817   3.744   2.939   7.759
14459SOL    HW144818   3.835   2.968   7.767
14459SOL    HW244819   3.746   2.846   7.780
14460SOL     OW44820   3.936   2.447   9.431
14460SOL    HW144821   3.889   2.528   9.447
14460SOL    HW244822   3.952   2.446   9.336
14461SOL     OW44823   3.942   2.153  10.306
14461SOL    HW144824   3.975   2.111  10.385
14461SOL    HW244825   3.854   2.118  10.295
14462SOL     OW44826   3.724   2.242   9.954
14462SOL    HW144827   3.641   2.272   9.992
14462SOL    HW244828   3.700   2.167   9.900
14463SOL     OW44829   4.291   3.161  10.500
14463SOL    HW144830   4.210   3.167  10.449
14463SOL    HW244831   4.309   3.250  10.528
14464SOL     OW44832   5.301   3.380  10.016
14464SOL    HW144833   5.252   3.355  10.094
14464SOL    HW244834   5.234   3.388   9.948
14465SOL     OW44835   4.865   2.557  10.006
14465SOL    HW144836   4.910   2.640   9.989
14465SOL    HW244837   4.813   2.574  10.084
14466SOL     OW44838   5.513   2.457   9.537
14466SOL    HW144839   5.483   2.461   9.446
14466SOL    HW244840   5.469   2.381   9.574
14467SOL     OW44841   4.477   3.003  10.373
14467SOL    HW144842   4.407   3.041  10.425
14467SOL    HW244843   4.511   3.076  10.322
14468SOL     OW44844   4.601   2.619  11.128
14468SOL    HW144845   4.572   2.692  11.183
14468SOL    HW244846   4.621   2.660  11.044
14469SOL     OW44847   4.411   2.850   9.962
14469SOL    HW144848   4.477   2.853  10.032
14469SOL    HW244849   4.345   2.914   9.990
14470SOL     OW44850   4.439   3.020  11.140
14470SOL    HW144851   4.489   3.099  11.164
14470SOL    HW244852   4.363   3.054  11.093
14471SOL     OW44853   4.057   3.274  10.378
14471SOL    HW144854   3.984   3.234  10.331
14471SOL    HW244855   4.101   3.328  10.313
14472SOL     OW44856   5.184   3.359  10.681
14472SOL    HW144857   5.236   3.440  10.685
14472SOL    HW244858   5.110   3.376  10.739
14473SOL     OW44859   4.173   2.260  10.821
14473SOL    HW144860   4.249   2.202  10.809
14473SOL    HW244861   4.097   2.203  10.812
14474SOL     OW44862   5.317   2.306  10.048
14474SOL    HW144863   5.236   2.302   9.997
14474SOL    HW244864   5.331   2.399  10.063
14475SOL     OW44865   4.865   3.200  11.004
14475SOL    HW144866   4.903   3.189  11.091
14475SOL    HW244867   4.815   3.119  10.990
14476SOL     OW44868   4.027   2.956  10.226
14476SOL    HW144869   4.004   2.864  10.242
14476SOL    HW244870   3.953   3.005  10.261
14477SOL     OW44871   4.333   3.646  10.758
14477SOL    HW144872   4.244   3.637  10.792
14477SOL    HW244873   4.353   3.739  10.768
14478SOL     OW44874   4.317   2.838   9.466
14478SOL    HW144875   4.347   2.895   9.396
14478SOL    HW244876   4.359   2.873   9.545
14479SOL     OW44877   5.315   1.980  10.770
14479SOL    HW144878   5.339   2.047  10.706
14479SOL    HW244879   5.295   2.029  10.850
14480SOL     OW44880   3.835   2.519   9.870
14480SOL    HW144881   3.811   2.429   9.888
14480SOL    HW244882   3.830   2.564   9.954
14481SOL     OW44883   5.565   3.618   9.638
14481SOL    HW144884   5.638   3.597   9.696
14481SOL    HW244885   5.579   3.709   9.614
14482SOL     OW44886   5.423   2.783   9.946
14482SOL    HW144887   5.481   2.730   9.891
14482SOL    HW244888   5.384   2.846   9.885
14483SOL     OW44889   5.366   2.969   9.745
14483SOL    HW144890   5.450   2.971   9.699
14483SOL    HW244891   5.374   3.037   9.813
14484SOL     OW44892   3.843   2.610  10.896
14484SOL    HW144893   3.930   2.649  10.887
14484SOL    HW244894   3.782   2.682  10.878
14485SOL     OW44895   4.335   3.248  10.056
14485SOL    HW144896   4.290   3.164  10.046
14485SOL    HW244897   4.339   3.284   9.968
14486SOL     OW44898   5.001   3.086  10.739
14486SOL    HW144899   5.028   3.023  10.672
14486SOL    HW244900   5.072   3.084  10.803
14487SOL     OW44901   4.553   1.885   9.823
14487SOL    HW144902   4.587   1.970   9.795
14487SOL    HW244903   4.459   1.897   9.826
14488SOL     OW44904   3.902   2.817  10.602
14488SOL    HW144905   3.988   2.780  10.586
14488SOL    HW244906   3.857   2.810  10.517
14489SOL     OW44907   5.279   2.821   9.521
14489SOL    HW144908   5.198   2.779   9.549
14489SOL    HW244909   5.298   2.884   9.591
14490SOL     OW44910   4.905   3.676  10.942
14490SOL    HW144911   4.907   3.744  10.875
14490SOL    HW244912   4.921   3.595  10.895
14491SOL     OW44913   4.065   2.104  11.160
14491SOL    HW144914   4.107   2.189  11.145
14491SOL    HW244915   3.972   2.124  11.168
14492SOL     OW44916   5.193   3.280  10.251
14492SOL    HW144917   5.124   3.298  10.315
14492SOL    HW244918   5.178   3.190  10.224
14493SOL     OW44919   5.385   3.622   9.887
14493SOL    HW144920   5.364   3.599   9.797
14493SOL    HW244921   5.358   3.546   9.938
14494SOL     OW44922   4.319   2.583   9.586
14494SOL    HW144923   4.321   2.662   9.533
14494SOL    HW244924   4.251   2.600   9.652
14495SOL     OW44925   5.004   2.240  10.252
14495SOL    HW144926   4.916   2.202  10.252
14495SOL    HW244927   5.056   2.181  10.306
14496SOL     OW44928   5.297   3.539   9.623
14496SOL    HW144929   5.388   3.565   9.608
14496SOL    HW244930   5.264   3.515   9.537
14497SOL     OW44931   4.521   2.473  10.756
14497SOL    HW144932   4.487   2.447  10.842
14497SOL    HW244933   4.486   2.407  10.696
14498SOL     OW44934   5.133   2.345  11.004
14498SOL    HW144935   5.139   2.353  11.099
14498SOL    HW244936   5.220   2.369  10.972
14499SOL     OW44937   4.670   2.748  10.894
14499SOL    HW144938   4.723   2.678  10.855
14499SOL    HW244939   4.625   2.789  10.820
14500SOL     OW44940   4.719   2.263  10.537
14500SOL    HW144941   4.627   2.276  10.559
14500SOL    HW244942   4.717   2.228  10.448
14501SOL     OW44943   4.781   2.549   9.733
14501SOL    HW144944   4.796   2.543   9.828
14501SOL    HW244945   4.694   2.510   9.721
14502SOL     OW44946   3.807   2.660  10.105
14502SOL    HW144947   3.891   2.666  10.150
14502SOL    HW244948   3.762   2.741  10.128
14503SOL     OW44949   3.842   3.742  10.892
14503SOL    HW144950   3.844   3.715  10.984
14503SOL    HW244951   3.764   3.700  10.856
14504SOL     OW44952   4.630   2.214   9.505
14504SOL    HW144953   4.665   2.283   9.448
14504SOL    HW244954   4.641   2.134   9.454
14505SOL     OW44955   5.403   2.435  11.146
14505SOL    HW144956   5.387   2.511  11.089
14505SOL    HW244957   5.441   2.370  11.087
14506SOL     OW44958   5.103   3.003   9.854
14506SOL    HW144959   5.176   2.990   9.793
14506SOL    HW244960   5.048   3.069   9.812
14507SOL     OW44961   4.259   2.040  10.193
14507SOL    HW144962   4.271   2.088  10.275
14507SOL    HW244963   4.265   2.107  10.125
14508SOL     OW44964   4.731   3.340   9.783
14508SOL    HW144965   4.687   3.381   9.709
14508SOL    HW244966   4.683   3.372   9.860
14509SOL     OW44967   4.070   3.673  10.206
14509SOL    HW144968   4.123   3.594  10.196
14509SOL    HW244969   4.130   3.744  10.185
14510SOL     OW44970   5.531   2.904  10.180
14510SOL    HW144971   5.484   2.888  10.098
14510SOL    HW244972   5.463   2.913  10.246
14511SOL     OW44973   4.948   3.402  10.823
14511SOL    HW144974   4.937   3.325  10.879
14511SOL    HW244975   4.882   3.391  10.754
14512SOL     OW44976   4.059   2.787   9.559
14512SOL    HW144977   4.147   2.822   9.545
14512SOL    HW244978   4.031   2.758   9.472
14513SOL     OW44979   5.217   2.613  10.030
14513SOL    HW144980   5.212   2.580  10.119
14513SOL    HW244981   5.294   2.669  10.029
14514SOL     OW44982   4.186   3.129  11.056
14514SOL    HW144983   4.163   3.136  10.963
14514SOL    HW244984   4.101   3.127  11.101
14515SOL     OW44985   3.930   2.134  10.799
14515SOL    HW144986   3.864   2.202  10.791
14515SOL    HW244987   3.884   2.060  10.840
14516SOL     OW44988   5.376   3.242   9.424
14516SOL    HW144989   5.330   3.323   9.402
14516SOL    HW244990   5.311   3.173   9.413
14517SOL     OW44991   5.118   1.965   9.752
14517SOL    HW144992   5.101   1.943   9.660
14517SOL    HW244993   5.210   1.944   9.766
14518SOL     OW44994   3.978   3.648  10.528
14518SOL    HW144995   4.034   3.573  10.544
14518SOL    HW244996   3.952   3.640  10.436
14519SOL     OW44997   4.673   3.553  10.198
14519SOL    HW144998   4.759   3.511  10.195
14519SOL    HW244999   4.624   3.513  10.127
14520SOL     OW45000   4.130   2.552   9.799
14520SOL    HW145001   4.139   2.457   9.807
14520SOL    HW245002   4.036   2.565   9.788
14521SOL     OW45003   5.227   2.074  11.034
14521SOL    HW145004   5.163   2.141  11.011
14521SOL    HW245005   5.180   1.991  11.024
14522SOL     OW45006   4.371   1.970   9.418
14522SOL    HW145007   4.440   1.904   9.423
14522SOL    HW245008   4.316   1.942   9.345
14523SOL     OW45009   4.498   2.147  11.078
14523SOL    HW145010   4.576   2.091  11.069
14523SOL    HW245011   4.442   2.100  11.140
14524SOL     OW45012   4.593   3.380  10.507
14524SOL    HW145013   4.581   3.352  10.417
14524SOL    HW245014   4.672   3.333  10.536
14525SOL     OW45015   5.058   2.451  10.734
14525SOL    HW145016   5.086   2.439  10.824
14525SOL    HW245017   5.087   2.540  10.711
14526SOL     OW45018   4.543   3.245  10.255
14526SOL    HW145019   4.628   3.241  10.211
14526SOL    HW245020   4.480   3.257  10.184
14527SOL     OW45021   4.650   2.368  10.206
14527SOL    HW145022   4.625   2.364  10.114
14527SOL    HW245023   4.681   2.280  10.227
14528SOL     OW45024   4.279   1.925   9.807
14528SOL    HW145025   4.197   1.924   9.855
14528SOL    HW245026   4.271   2.001   9.748
14529SOL     OW45027   5.173   3.068   9.402
14529SOL    HW145028   5.174   2.973   9.393
14529SOL    HW245029   5.082   3.093   9.385
14530SOL     OW45030   4.010   1.911   9.495
14530SOL    HW145031   4.053   1.977   9.441
14530SOL    HW245032   4.082   1.858   9.530
14531SOL     OW45033   4.669   2.128   9.763
14531SOL    HW145034   4.646   2.159   9.676
14531SOL    HW245035   4.764   2.138   9.768
14532SOL     OW45036   4.796   2.540  10.776
14532SOL    HW145037   4.721   2.482  10.762
14532SOL    HW245038   4.871   2.489  10.746
14533SOL     OW45039   4.932   3.456  10.114
14533SOL    HW145040   4.941   3.508  10.035
14533SOL    HW245041   5.009   3.477  10.167
14534SOL     OW45042   4.194   3.011  10.022
14534SOL    HW145043   4.139   2.991  10.098
14534SOL    HW245044   4.139   2.990   9.947
14535SOL     OW45045   4.983   3.660   9.921
14535SOL    HW145046   5.030   3.717   9.860
14535SOL    HW245047   4.912   3.714   9.955
14536SOL     OW45048   4.741   2.400   9.337
14536SOL    HW145049   4.694   2.479   9.308
14536SOL    HW245050   4.815   2.434   9.387
14537SOL     OW45051   3.823   2.398  10.725
14537SOL    HW145052   3.910   2.408  10.685
14537SOL    HW245053   3.813   2.476  10.780
14538SOL     OW45054   4.289   2.088  10.474
14538SOL    HW145055   4.325   2.000  10.465
14538SOL    HW245056   4.198   2.074  10.502
14539SOL     OW45057   4.586   2.324   9.945
14539SOL    HW145058   4.545   2.381   9.880
14539SOL    HW245059   4.614   2.247   9.896
14540SOL     OW45060   4.727   1.923  10.052
14540SOL    HW145061   4.673   1.914   9.974
14540SOL    HW245062   4.706   1.846  10.105
14541SOL     OW45063   5.172   3.019  10.161
14541SOL    HW145064   5.091   2.971  10.141
14541SOL    HW245065   5.212   3.034  10.075
14542SOL     OW45066   5.183   2.481  10.277
14542SOL    HW145067   5.130   2.402  10.268
14542SOL    HW245068   5.242   2.463  10.350
14543SOL     OW45069   5.565   2.666   9.712
14543SOL    HW145070   5.629   2.612   9.760
14543SOL    HW245071   5.538   2.611   9.639
14544SOL     OW45072   5.397   3.123   9.969
14544SOL    HW145073   5.493   3.125   9.972
14544SOL    HW245074   5.371   3.215   9.975
14545SOL     OW45075   5.117   2.433   9.378
14545SOL    HW145076   5.058   2.411   9.449
14545SOL    HW245077   5.203   2.401   9.406
14546SOL     OW45078   4.250   2.119   9.622
14546SOL    HW145079   4.298   2.075   9.553
14546SOL    HW245080   4.224   2.203   9.583
14547SOL     OW45081   5.476   3.101  10.879
14547SOL    HW145082   5.562   3.070  10.853
14547SOL    HW245083   5.490   3.193  10.904
14548SOL     OW45084   4.778   3.223  10.653
14548SOL    HW145085   4.700   3.188  10.696
14548SOL    HW245086   4.851   3.172  10.689
14549SOL     OW45087   5.339   3.486  10.975
14549SOL    HW145088   5.324   3.524  10.888
14549SOL    HW245089   5.421   3.438  10.966
14550SOL     OW45090   4.867   3.086  10.414
14550SOL    HW145091   4.792   3.112  10.467
14550SOL    HW245092   4.846   3.116  10.326
14551SOL     OW45093   5.341   2.950  10.380
14551SOL    HW145094   5.329   3.017  10.448
14551SOL    HW245095   5.272   2.967  10.316
14552SOL     OW45096   4.638   1.957  10.704
14552SOL    HW145097   4.652   1.930  10.613
14552SOL    HW245098   4.723   1.991  10.731
14553SOL     OW45099   4.707   2.970  11.045
14553SOL    HW145100   4.616   2.993  11.059
14553SOL    HW245101   4.704   2.897  10.983
14554SOL     OW45102   4.439   2.911   9.696
14554SOL    HW145103   4.424   2.885   9.786
14554SOL    HW245104   4.518   2.864   9.670
14555SOL     OW45105   4.139   2.686  10.572
14555SOL    HW145106   4.214   2.693  10.630
14555SOL    HW245107   4.110   2.595  10.579
14556SOL     OW45108   4.982   2.221  10.602
14556SOL    HW145109   5.015   2.306  10.633
14556SOL    HW245110   4.894   2.241  10.570
14557SOL     OW45111   3.802   3.433  10.665
14557SOL    HW145112   3.766   3.501  10.608
14557SOL    HW245113   3.896   3.438  10.653
14558SOL     OW45114   4.272   2.392  10.181
14558SOL    HW145115   4.279   2.448  10.104
14558SOL    HW245116   4.348   2.415  10.235
14559SOL     OW45117   4.969   3.216   9.737
14559SOL    HW145118   5.029   3.288   9.753
14559SOL    HW245119   4.883   3.250   9.758
14560SOL     OW45120   5.019   3.323  10.456
14560SOL    HW145121   5.069   3.321  10.538
14560SOL    HW245122   4.963   3.245  10.461
14561SOL     OW45123   5.305   2.481   9.793
14561SOL    HW145124   5.250   2.526   9.858
14561SOL    HW245125   5.321   2.546   9.725
14562SOL     OW45126   4.074   3.387  10.619
14562SOL    HW145127   4.062   3.343  10.535
14562SOL    HW245128   4.168   3.403  10.625
14563SOL     OW45129   4.146   2.606  10.916
14563SOL    HW145130   4.207   2.651  10.857
14563SOL    HW245131   4.179   2.516  10.919
14564SOL     OW45132   5.329   2.642  10.990
14564SOL    HW145133   5.247   2.691  10.982
14564SOL    HW245134   5.386   2.681  10.923
14565SOL     OW45135   4.726   1.995  11.075
14565SOL    HW145136   4.783   2.068  11.048
14565SOL    HW245137   4.769   1.917  11.040
14566SOL     OW45138   4.214   1.891  11.076
14566SOL    HW145139   4.173   1.845  11.003
14566SOL    HW245140   4.159   1.968  11.090
14567SOL     OW45141   4.328   2.733  10.360
14567SOL    HW145142   4.346   2.824  10.339
14567SOL    HW245143   4.250   2.736  10.415
14568SOL     OW45144   5.062   2.718  10.338
14568SOL    HW145145   4.988   2.719  10.277
14568SOL    HW245146   5.107   2.636  10.319
14569SOL     OW45147   4.937   2.384   9.576
14569SOL    HW145148   4.936   2.305   9.630
14569SOL    HW245149   4.887   2.449   9.627
14570SOL     OW45150   4.026   2.047  10.552
14570SOL    HW145151   3.989   2.079  10.635
14570SOL    HW245152   4.006   1.953  10.551
14571SOL     OW45153   3.731   3.177  10.590
14571SOL    HW145154   3.782   3.122  10.649
14571SOL    HW245155   3.757   3.266  10.613
14572SOL     OW45156   4.456   2.491  10.374
14572SOL    HW145157   4.525   2.480  10.308
14572SOL    HW245158   4.420   2.579  10.357
14573SOL     OW45159   5.471   2.812  11.174
14573SOL    HW145160   5.422   2.757  11.113
14573SOL    HW245161   5.407   2.838  11.240
14574SOL     OW45162   4.033   1.913   9.938
14574SOL    HW145163   4.008   2.004   9.955
14574SOL    HW245164   4.046   1.875  10.024
14575SOL     OW45165   5.356   2.242   9.669
14575SOL    HW145166   5.379   2.176   9.734
14575SOL    HW245167   5.329   2.318   9.721
14576SOL     OW45168   4.748   2.619  10.261
14576SOL    HW145169   4.743   2.633  10.356
14576SOL    HW245170   4.723   2.527  10.249
14577SOL     OW45171   4.704   3.420  11.031
14577SOL    HW145172   4.683   3.469  10.952
14577SOL    HW245173   4.755   3.345  10.999
14578SOL     OW45174   5.579   3.359  10.912
14578SOL    HW145175   5.596   3.388  10.823
14578SOL    HW245176   5.661   3.374  10.959
14579SOL     OW45177   4.072   2.762  11.130
14579SOL    HW145178   4.156   2.795  11.161
14579SOL    HW245179   4.095   2.704  11.057
14580SOL     OW45180   5.252   2.130   9.436
14580SOL    HW145181   5.187   2.066   9.464
14580SOL    HW245182   5.286   2.168   9.517
14581SOL     OW45183   5.015   2.688   9.345
14581SOL    HW145184   5.054   2.601   9.346
14581SOL    HW245185   5.040   2.725   9.260
14582SOL     OW45186   4.804   3.207  10.175
14582SOL    HW145187   4.804   3.137  10.110
14582SOL    HW245188   4.852   3.279  10.133
14583SOL     OW45189   4.039   2.670  10.251
14583SOL    HW145190   4.125   2.679  10.210
14583SOL    HW245191   4.038   2.580  10.286
14584SOL     OW45192   4.053   2.396  10.331
14584SOL    HW145193   4.013   2.310  10.314
14584SOL    HW245194   4.131   2.397  10.275
14585SOL     OW45195   4.870   2.230  11.009
14585SOL    HW145196   4.815   2.287  11.062
14585SOL    HW245197   4.949   2.282  10.992
14586SOL     OW45198   4.886   2.050  10.794
14586SOL    HW145199   4.872   2.120  10.858
14586SOL    HW245200   4.924   2.095  10.718
14587SOL     OW45201   3.815   3.630  10.272
14587SOL    HW145202   3.775   3.566  10.212
14587SOL    HW245203   3.902   3.647  10.236
14588SOL     OW45204   4.220   3.434  10.224
14588SOL    HW145205   4.288   3.499  10.245
14588SOL    HW245206   4.262   3.375  10.162
14589SOL     OW45207   4.697   2.641  10.529
14589SOL    HW145208   4.746   2.629  10.610
14589SOL    HW245209   4.613   2.599  10.545
14590SOL     OW45210   3.757   2.400  10.433
14590SOL    HW145211   3.817   2.401  10.358
14590SOL    HW245212   3.813   2.412  10.509
14591SOL     OW45213   3.931   2.390  11.040
14591SOL    HW145214   3.990   2.354  10.974
14591SOL    HW245215   3.890   2.465  10.998
14592SOL     OW45216   5.105   2.797  10.962
14592SOL    HW145217   5.129   2.889  10.958
14592SOL    HW245218   5.095   2.770  10.871
14593SOL     OW45219   4.536   2.435   9.683
14593SOL    HW145220   4.542   2.363   9.619
14593SOL    HW245221   4.463   2.489   9.651
14594SOL     OW45222   5.359   2.460  10.492
14594SOL    HW145223   5.344   2.392  10.559
14594SOL    HW245224   5.447   2.441  10.458
14595SOL     OW45225   3.960   3.410  11.030
14595SOL    HW145226   3.938   3.478  11.094
14595SOL    HW245227   3.963   3.329  11.082
14596SOL     OW45228   4.438   2.302  10.565
14596SOL    HW145229   4.386   2.228  10.535
14596SOL    HW245230   4.434   2.365  10.494
14597SOL     OW45231   4.641   3.538  10.786
14597SOL    HW145232   4.620   3.495  10.703
14597SOL    HW245233   4.636   3.631  10.767
14598SOL     OW45234   4.183   2.353   9.512
14598SOL    HW145235   4.236   2.432   9.525
14598SOL    HW245236   4.097   2.386   9.488
14599SOL     OW45237   3.857   3.009  10.786
14599SOL    HW145238   3.864   2.966  10.871
14599SOL    HW245239   3.873   2.939  10.723
14600SOL     OW45240   5.034   2.903  10.531
14600SOL    HW145241   5.053   2.839  10.463
14600SOL    HW245242   4.976   2.966  10.490
14601SOL     OW45243   5.041   2.711   9.617
14601SOL    HW145244   4.959   2.688   9.660
14601SOL    HW245245   5.021   2.707   9.523
14602SOL     OW45246   5.511   3.587  10.479
14602SOL    HW145247   5.569   3.617  10.410
14602SOL    HW245248   5.475   3.505  10.447
14603SOL     OW45249   4.970   3.597  10.428
14603SOL    HW145250   5.047   3.621  10.377
14603SOL    HW245251   4.976   3.502  10.438
14604SOL     OW45252   3.821   3.108  10.323
14604SOL    HW145253   3.778   3.130  10.406
14604SOL    HW245254   3.755   3.057  10.275
14605SOL     OW45255   4.404   3.539  11.049
14605SOL    HW145256   4.336   3.606  11.045
14605SOL    HW245257   4.461   3.558  10.974
14606SOL     OW45258   5.469   2.025   9.822
14606SOL    HW145259   5.526   2.013   9.747
14606SOL    HW245260   5.443   1.936   9.847
14607SOL     OW45261   5.124   3.437   9.812
14607SOL    HW145262   5.177   3.467   9.738
14607SOL    HW245263   5.069   3.512   9.834
14608SOL     OW45264   3.863   3.654  11.150
14608SOL    HW145265   3.815   3.586  11.198
14608SOL    HW245266   3.909   3.703  11.218
14609SOL     OW45267   5.008   2.789   9.986
14609SOL    HW145268   5.083   2.729   9.988
14609SOL    HW245269   5.037   2.861   9.930
14610SOL     OW45270   4.525   3.142  10.739
14610SOL    HW145271   4.495   3.184  10.819
14610SOL    HW245272   4.465   3.173  10.671
14611SOL     OW45273   5.343   3.587  10.708
14611SOL    HW145274   5.395   3.590  10.628
14611SOL    HW245275   5.327   3.679  10.731
14612SOL     OW45276   5.572   2.029  10.284
14612SOL    HW145277   5.595   1.941  10.254
14612SOL    HW245278   5.487   2.046  10.243
14613SOL     OW45279   3.977   2.163  10.024
14613SOL    HW145280   3.893   2.201   9.998
14613SOL    HW245281   3.978   2.169  10.119
14614SOL     OW45282   4.547   2.873  10.684
14614SOL    HW145283   4.569   2.869  10.591
14614SOL    HW245284   4.538   2.967  10.702
14615SOL     OW45285   4.660   2.781   9.627
14615SOL    HW145286   4.704   2.807   9.545
14615SOL    HW245287   4.705   2.701   9.653
14616SOL     OW45288   5.218   3.459   9.370
14616SOL    HW145289   5.126   3.453   9.344
14616SOL    HW245290   5.265   3.473   9.288
14617SOL     OW45291   4.089   3.170  10.809
14617SOL    HW145292   4.086   3.244  10.748
14617SOL    HW245293   4.012   3.118  10.787
14618SOL     OW45294   5.325   3.146  10.578
14618SOL    HW145295   5.403   3.142  10.633
14618SOL    HW245296   5.269   3.211  10.620
14619SOL     OW45297   4.789   2.979  10.033
14619SOL    HW145298   4.714   2.929  10.063
14619SOL    HW245299   4.844   2.915   9.987
14620SOL     OW45300   4.753   2.104  10.274
14620SOL    HW145301   4.744   2.061  10.189
14620SOL    HW245302   4.745   2.033  10.338
14621SOL     OW45303   4.358   3.356   9.804
14621SOL    HW145304   4.404   3.293   9.748
14621SOL    HW245305   4.303   3.406   9.743
14622SOL     OW45306   5.466   2.240  10.716
14622SOL    HW145307   5.531   2.309  10.704
14622SOL    HW245308   5.488   2.174  10.651
14623SOL     OW45309   3.848   2.908  11.049
14623SOL    HW145310   3.768   2.877  11.091
14623SOL    HW245311   3.917   2.852  11.084
14624SOL     OW45312   4.400   2.068  10.817
14624SOL    HW145313   4.477   2.045  10.765
14624SOL    HW245314   4.435   2.106  10.897
14625SOL     OW45315   3.797   2.187   9.343
14625SOL    HW145316   3.738   2.189   9.268
14625SOL    HW245317   3.839   2.273   9.342
14626SOL     OW45318   5.142   2.716  10.702
14626SOL    HW145319   5.090   2.776  10.649
14626SOL    HW245320   5.229   2.720  10.664
14627SOL     OW45321   3.778   2.017   9.595
14627SOL    HW145322   3.761   2.084   9.529
14627SOL    HW245323   3.866   1.986   9.575
14628SOL     OW45324   4.908   3.179   9.458
14628SOL    HW145325   4.830   3.234   9.456
14628SOL    HW245326   4.937   3.182   9.550
14629SOL     OW45327   4.349   2.690  10.747
14629SOL    HW145328   4.404   2.767  10.728
14629SOL    HW245329   4.411   2.617  10.749
14630SOL     OW45330   5.199   3.652  10.285
14630SOL    HW145331   5.207   3.720  10.219
14630SOL    HW245332   5.289   3.628  10.306
14631SOL     OW45333   4.440   2.415  11.008
14631SOL    HW145334   4.486   2.476  11.066
14631SOL    HW245335   4.460   2.328  11.043
14632SOL     OW45336   5.205   3.049  10.937
14632SOL    HW145337   5.194   3.076  11.028
14632SOL    HW245338   5.295   3.074  10.916
14633SOL     OW45339   4.089   3.609  10.878
14633SOL    HW145340   4.010   3.657  10.853
14633SOL    HW245341   4.057   3.525  10.911
14634SOL     OW45342   5.383   2.739  10.567
14634SOL    HW145343   5.379   2.655  10.522
14634SOL    HW245344   5.371   2.804  10.498
14635SOL     OW45345   4.941   2.180   9.774
14635SOL    HW145346   5.002   2.107   9.763
14635SOL    HW245347   4.976   2.230   9.847
14636SOL     OW45348   4.298   2.601  10.006
14636SOL    HW145349   4.346   2.681   9.983
14636SOL    HW245350   4.242   2.585   9.930
14637SOL     OW45351   5.464   2.215  10.991
14637SOL    HW145352   5.468   2.223  10.895
14637SOL    HW245353   5.393   2.153  11.006
14638SOL     OW45354   5.482   2.790  10.821
14638SOL    HW145355   5.467   2.884  10.834
14638SOL    HW245356   5.459   2.776  10.729
14639SOL     OW45357   4.392   3.645  10.263
14639SOL    HW145358   4.360   3.730  10.232
14639SOL    HW245359   4.482   3.640  10.232
14640SOL     OW45360   4.593   2.838  10.170
14640SOL    HW145361   4.642   2.763  10.202
14640SOL    HW245362   4.559   2.880  10.250
14641SOL     OW45363   4.786   2.840   9.397
14641SOL    HW145364   4.767   2.904   9.329
14641SOL    HW245365   4.865   2.795   9.367
14642SOL     OW45366   5.561   3.422  10.154
14642SOL    HW145367   5.493   3.417  10.086
14642SOL    HW245368   5.529   3.367  10.225
14643SOL     OW45369   3.932   3.154  11.157
14643SOL    HW145370   3.896   3.079  11.109
14643SOL    HW245371   3.869   3.169  11.228
14644SOL     OW45372   4.416   3.266  10.961
14644SOL    HW145373   4.326   3.238  10.977
14644SOL    HW245374   4.417   3.359  10.983
14645SOL     OW45375   5.534   2.034  10.554
14645SOL    HW145376   5.529   1.939  10.558
14645SOL    HW245377   5.546   2.054  10.461
14646SOL     OW45378   4.159   2.287   9.846
14646SOL    HW145379   4.186   2.227   9.776
14646SOL    HW245380   4.100   2.234   9.900
14647SOL     OW45381   5.418   3.344  10.392
14647SOL    HW145382   5.339   3.332  10.339
14647SOL    HW245383   5.414   3.274  10.457
14648SOL     OW45384   4.062   2.421  10.602
14648SOL    HW145385   4.126   2.365  10.645
14648SOL    HW245386   4.072   2.403  10.509
14649SOL     OW45387   4.554   3.472   9.963
14649SOL    HW145388   4.555   3.561   9.927
14649SOL    HW245389   4.481   3.430   9.919
14650SOL     OW45390   5.147   2.083  10.424
14650SOL    HW145391   5.138   1.988  10.435
14650SOL    HW245392   5.094   2.120  10.495
14651SOL     OW45393   4.734   1.882  10.444
14651SOL    HW145394   4.682   1.819  10.393
14651SOL    HW245395   4.819   1.838  10.456
14652SOL     OW45396   4.509   3.174   9.669
14652SOL    HW145397   4.470   3.088   9.661
14652SOL    HW245398   4.601   3.157   9.693
14653SOL     OW45399   4.346   3.415  10.611
14653SOL    HW145400   4.348   3.498  10.659
14653SOL    HW245401   4.430   3.412  10.565
14654SOL     OW45402   5.080   1.917   9.484
14654SOL    HW145403   5.119   1.847   9.431
14654SOL    HW245404   4.991   1.888   9.501
14655SOL     OW45405   5.032   2.328   9.991
14655SOL    HW145406   4.979   2.407   9.985
14655SOL    HW245407   5.018   2.295  10.080
14656SOL     OW45408   5.321   2.071  10.199
14656SOL    HW145409   5.257   2.089  10.268
14656SOL    HW245410   5.313   2.145  10.140
14657SOL     OW45411   3.946   2.476  11.307
14657SOL    HW145412   3.855   2.479  11.334
14657SOL    HW245413   3.943   2.466  11.212
14658SOL     OW45414   3.947   2.145  12.164
14658SOL    HW145415   3.977   2.109  12.248
14658SOL    HW245416   3.859   2.110  12.153
14659SOL     OW45417   3.720   2.247  11.812
14659SOL    HW145418   3.641   2.276  11.857
14659SOL    HW245419   3.691   2.172  11.759
14660SOL     OW45420   4.278   3.099  12.326
14660SOL    HW145421   4.202   3.142  12.287
14660SOL    HW245422   4.287   3.141  12.412
14661SOL     OW45423   5.302   3.376  11.880
14661SOL    HW145424   5.257   3.360  11.963
14661SOL    HW245425   5.231   3.385  11.816
14662SOL     OW45426   4.862   2.556  11.862
14662SOL    HW145427   4.906   2.641  11.859
14662SOL    HW245428   4.802   2.563  11.937
14663SOL     OW45429   5.517   2.465  11.387
14663SOL    HW145430   5.479   2.464  11.300
14663SOL    HW245431   5.488   2.382  11.426
14664SOL     OW45432   4.494   2.999  12.195
14664SOL    HW145433   4.420   3.020  12.253
14664SOL    HW245434   4.518   3.083  12.157
14665SOL     OW45435   4.429   2.889  11.881
14665SOL    HW145436   4.473   2.966  11.847
14665SOL    HW245437   4.337   2.915  11.891
14666SOL     OW45438   4.068   3.264  12.229
14666SOL    HW145439   3.985   3.232  12.193
14666SOL    HW245440   4.102   3.323  12.162
14667SOL     OW45441   5.318   2.303  11.916
14667SOL    HW145442   5.244   2.312  11.857
14667SOL    HW245443   5.310   2.376  11.977
14668SOL     OW45444   3.947   3.576  11.635
14668SOL    HW145445   3.968   3.652  11.690
14668SOL    HW245446   4.019   3.571  11.573
14669SOL     OW45447   3.954   3.312  11.718
14669SOL    HW145448   3.941   3.406  11.706
14669SOL    HW245449   3.890   3.288  11.785
14670SOL     OW45450   3.995   2.952  12.067
14670SOL    HW145451   3.986   2.867  12.110
14670SOL    HW245452   3.941   3.011  12.119
14671SOL     OW45453   4.305   2.848  11.312
14671SOL    HW145454   4.348   2.897  11.242
14671SOL    HW245455   4.343   2.883  11.392
14672SOL     OW45456   3.850   2.517  11.737
14672SOL    HW145457   3.814   2.431  11.759
14672SOL    HW245458   3.837   2.569  11.816
14673SOL     OW45459   5.568   3.614  11.499
14673SOL    HW145460   5.638   3.594  11.560
14673SOL    HW245461   5.581   3.707  11.477
14674SOL     OW45462   3.771   3.449  11.297
14674SOL    HW145463   3.749   3.358  11.317
14674SOL    HW245464   3.741   3.498  11.373
14675SOL     OW45465   5.406   2.773  11.811
14675SOL    HW145466   5.494   2.739  11.794
14675SOL    HW245467   5.388   2.829  11.736
14676SOL     OW45468   5.372   2.966  11.607
14676SOL    HW145469   5.458   2.968  11.564
14676SOL    HW245470   5.380   3.028  11.679
14677SOL     OW45471   3.901   2.609   0.224
14677SOL    HW145472   3.883   2.582   0.313
14677SOL    HW245473   3.821   2.653   0.195
14678SOL     OW45474   4.328   3.248  11.903
14678SOL    HW145475   4.275   3.169  11.906
14678SOL    HW245476   4.314   3.284  11.816
14679SOL     OW45477   4.548   1.874  11.690
14679SOL    HW145478   4.586   1.957  11.663
14679SOL    HW245479   4.453   1.890  11.691
14680SOL     OW45480   3.925   2.850  12.402
14680SOL    HW145481   4.000   2.791  12.398
14680SOL    HW245482   3.855   2.798  12.441
14681SOL     OW45483   5.255   2.862  11.374
14681SOL    HW145484   5.188   2.803  11.408
14681SOL    HW245485   5.297   2.898  11.453
14682SOL     OW45486   5.200   3.277  12.122
14682SOL    HW145487   5.130   3.294  12.185
14682SOL    HW245488   5.184   3.188  12.092
14683SOL     OW45489   5.382   3.622  11.746
14683SOL    HW145490   5.359   3.590  11.659
14683SOL    HW245491   5.365   3.549  11.804
14684SOL     OW45492   4.320   2.587  11.450
14684SOL    HW145493   4.311   2.665  11.396
14684SOL    HW245494   4.251   2.595  11.515
14685SOL     OW45495   5.009   2.234  12.106
14685SOL    HW145496   4.920   2.199  12.106
14685SOL    HW245497   5.058   2.176  12.164
14686SOL     OW45498   5.303   3.530  11.486
14686SOL    HW145499   5.394   3.558  11.475
14686SOL    HW245500   5.270   3.519  11.397
14687SOL     OW45501   4.717   2.224  12.379
14687SOL    HW145502   4.720   2.294  12.444
14687SOL    HW245503   4.625   2.214  12.358
14688SOL     OW45504   4.778   2.555  11.595
14688SOL    HW145505   4.798   2.545  11.688
14688SOL    HW245506   4.693   2.512  11.584
14689SOL     OW45507   3.808   2.684  11.951
14689SOL    HW145508   3.888   2.679  12.004
14689SOL    HW245509   3.760   2.759  11.987
14690SOL     OW45510   4.626   2.217  11.368
14690SOL    HW145511   4.669   2.278  11.308
14690SOL    HW245512   4.597   2.145  11.312
14691SOL     OW45513   5.093   2.998  11.701
14691SOL    HW145514   5.177   2.990  11.657
14691SOL    HW245515   5.047   3.067  11.653
14692SOL     OW45516   4.278   2.044  12.065
14692SOL    HW145517   4.281   2.091  12.149
14692SOL    HW245518   4.269   2.113  11.999
14693SOL     OW45519   4.721   3.313  11.647
14693SOL    HW145520   4.694   3.380  11.585
14693SOL    HW245521   4.687   3.342  11.731
14694SOL     OW45522   4.078   3.681  12.042
14694SOL    HW145523   4.123   3.597  12.050
14694SOL    HW245524   4.145   3.746  12.062
14695SOL     OW45525   5.523   2.902  12.052
14695SOL    HW145526   5.468   2.902  11.973
14695SOL    HW245527   5.461   2.913  12.124
14696SOL     OW45528   4.040   2.817  11.425
14696SOL    HW145529   4.119   2.844  11.379
14696SOL    HW245530   4.004   2.746  11.372
14697SOL     OW45531   5.198   2.613  11.882
14697SOL    HW145532   5.204   2.573  11.969
14697SOL    HW245533   5.278   2.665  11.875
14698SOL     OW45534   4.854   3.627  11.411
14698SOL    HW145535   4.770   3.593  11.442
14698SOL    HW245536   4.877   3.571  11.337
14699SOL     OW45537   5.359   3.243  11.275
14699SOL    HW145538   5.322   3.329  11.257
14699SOL    HW245539   5.291   3.182  11.247
14700SOL     OW45540   4.192   3.593  11.492
14700SOL    HW145541   4.238   3.654  11.549
14700SOL    HW245542   4.259   3.564  11.430
14701SOL     OW45543   5.135   1.964  11.605
14701SOL    HW145544   5.130   1.903  11.531
14701SOL    HW245545   5.221   1.949  11.643
14702SOL     OW45546   3.970   3.642  12.394
14702SOL    HW145547   3.957   3.570  12.456
14702SOL    HW245548   3.926   3.614  12.314
14703SOL     OW45549   4.667   3.561  12.067
14703SOL    HW145550   4.752   3.517  12.075
14703SOL    HW245551   4.620   3.511  11.999
14704SOL     OW45552   4.134   2.555  11.660
14704SOL    HW145553   4.147   2.461  11.670
14704SOL    HW245554   4.039   2.567  11.667
14705SOL     OW45555   4.382   1.973  11.272
14705SOL    HW145556   4.445   1.901  11.278
14705SOL    HW245557   4.319   1.944  11.205
14706SOL     OW45558   4.541   3.236  12.086
14706SOL    HW145559   4.626   3.253  12.047
14706SOL    HW245560   4.477   3.259  12.019
14707SOL     OW45561   4.658   2.377  12.063
14707SOL    HW145562   4.630   2.361  11.973
14707SOL    HW245563   4.690   2.293  12.094
14708SOL     OW45564   4.279   1.922  11.663
14708SOL    HW145565   4.199   1.923  11.715
14708SOL    HW245566   4.271   1.998  11.605
14709SOL     OW45567   5.154   3.070  11.212
14709SOL    HW145568   5.177   2.994  11.265
14709SOL    HW245569   5.067   3.096  11.242
14710SOL     OW45570   4.006   1.908  11.354
14710SOL    HW145571   4.050   1.975  11.301
14710SOL    HW245572   4.078   1.856  11.390
14711SOL     OW45573   4.673   2.114  11.622
14711SOL    HW145574   4.648   2.149  11.537
14711SOL    HW245575   4.767   2.127  11.627
14712SOL     OW45576   4.938   3.447  11.975
14712SOL    HW145577   4.949   3.504  11.899
14712SOL    HW245578   5.007   3.475  12.036
14713SOL     OW45579   4.189   3.006  11.889
14713SOL    HW145580   4.121   2.990  11.955
14713SOL    HW245581   4.142   2.999  11.805
14714SOL     OW45582   4.982   3.652  11.787
14714SOL    HW145583   5.033   3.712  11.733
14714SOL    HW245584   4.913   3.707  11.824
14715SOL     OW45585   4.751   2.401  11.200
14715SOL    HW145586   4.701   2.477  11.172
14715SOL    HW245587   4.808   2.434  11.270
14716SOL     OW45588   4.284   2.066  12.353
14716SOL    HW145589   4.297   1.975  12.325
14716SOL    HW245590   4.191   2.072  12.374
14717SOL     OW45591   4.593   2.323  11.802
14717SOL    HW145592   4.546   2.375  11.736
14717SOL    HW245593   4.615   2.242  11.757
14718SOL     OW45594   4.746   1.899  11.903
14718SOL    HW145595   4.681   1.897  11.833
14718SOL    HW245596   4.720   1.828  11.962
14719SOL     OW45597   5.175   3.021  12.024
14719SOL    HW145598   5.113   2.952  12.000
14719SOL    HW245599   5.223   3.039  11.943
14720SOL     OW45600   5.181   2.467  12.124
14720SOL    HW145601   5.122   2.392  12.130
14720SOL    HW245602   5.241   2.457  12.197
14721SOL     OW45603   5.560   2.669  11.561
14721SOL    HW145604   5.622   2.623  11.617
14721SOL    HW245605   5.545   2.610  11.488
14722SOL     OW45606   4.214   3.279  11.318
14722SOL    HW145607   4.141   3.250  11.373
14722SOL    HW245608   4.201   3.233  11.235
14723SOL     OW45609   5.395   3.115  11.834
14723SOL    HW145610   5.490   3.112  11.841
14723SOL    HW245611   5.373   3.208  11.843
14724SOL     OW45612   5.145   2.360  11.281
14724SOL    HW145613   5.073   2.392  11.335
14724SOL    HW245614   5.213   2.427  11.289
14725SOL     OW45615   4.253   2.119  11.479
14725SOL    HW145616   4.301   2.076  11.408
14725SOL    HW245617   4.225   2.203  11.441
14726SOL     OW45618   4.823   3.091  12.287
14726SOL    HW145619   4.749   3.127  12.335
14726SOL    HW245620   4.816   3.128  12.199
14727SOL     OW45621   5.334   2.957  12.249
14727SOL    HW145622   5.305   3.001  12.329
14727SOL    HW245623   5.268   2.980  12.184
14728SOL     OW45624   4.437   2.926  11.543
14728SOL    HW145625   4.402   2.887  11.623
14728SOL    HW245626   4.517   2.877  11.525
14729SOL     OW45627   4.177   2.676  12.431
14729SOL    HW145628   4.208   2.722  12.509
14729SOL    HW245629   4.146   2.591  12.465
14730SOL     OW45630   4.985   2.228  12.432
14730SOL    HW145631   5.005   2.315  12.466
14730SOL    HW245632   4.894   2.235  12.401
14731SOL     OW45633   4.065   2.981  11.649
14731SOL    HW145634   4.055   3.059  11.594
14731SOL    HW245635   4.057   2.907  11.588
14732SOL     OW45636   4.263   2.378  12.032
14732SOL    HW145637   4.280   2.437  11.958
14732SOL    HW245638   4.326   2.405  12.099
14733SOL     OW45639   4.966   3.213  11.572
14733SOL    HW145640   5.025   3.285  11.595
14733SOL    HW245641   4.879   3.244  11.600
14734SOL     OW45642   5.016   3.308  12.318
14734SOL    HW145643   5.074   3.326  12.392
14734SOL    HW245644   4.966   3.231  12.345
14735SOL     OW45645   5.304   2.474  11.642
14735SOL    HW145646   5.249   2.517  11.708
14735SOL    HW245647   5.359   2.544  11.607
14736SOL     OW45648   4.110   3.390  12.465
14736SOL    HW145649   4.082   3.338  12.390
14736SOL    HW245650   4.144   3.471  12.427
14737SOL     OW45651   4.341   2.744  12.213
14737SOL    HW145652   4.323   2.838  12.209
14737SOL    HW245653   4.285   2.712  12.284
14738SOL     OW45654   5.066   2.720  12.166
14738SOL    HW145655   4.996   2.708  12.103
14738SOL    HW245656   5.113   2.636  12.166
14739SOL     OW45657   4.930   2.389  11.442
14739SOL    HW145658   4.928   2.313  11.500
14739SOL    HW245659   4.886   2.458  11.491
14740SOL     OW45660   4.020   2.046  12.411
14740SOL    HW145661   3.998   2.072  12.501
14740SOL    HW245662   4.003   1.952  12.409
14741SOL     OW45663   3.793   3.192  12.434
14741SOL    HW145664   3.823   3.118  12.486
14741SOL    HW245665   3.789   3.265  12.496
14742SOL     OW45666   4.434   2.478  12.218
14742SOL    HW145667   4.516   2.465  12.171
14742SOL    HW245668   4.418   2.572  12.213
14743SOL     OW45669   4.037   1.922  11.794
14743SOL    HW145670   4.009   2.011  11.813
14743SOL    HW245671   4.043   1.880  11.879
14744SOL     OW45672   5.312   2.225  11.525
14744SOL    HW145673   5.361   2.169  11.585
14744SOL    HW245674   5.306   2.309  11.570
14745SOL     OW45675   4.702   2.635  12.136
14745SOL    HW145676   4.718   2.638  12.231
14745SOL    HW245677   4.697   2.542  12.116
14746SOL     OW45678   5.012   2.681  11.190
14746SOL    HW145679   5.025   2.592  11.157
14746SOL    HW245680   5.041   2.738  11.118
14747SOL     OW45681   4.813   3.207  12.024
14747SOL    HW145682   4.836   3.152  11.949
14747SOL    HW245683   4.861   3.289  12.009
14748SOL     OW45684   4.032   2.670  12.112
14748SOL    HW145685   4.125   2.680  12.093
14748SOL    HW245686   4.022   2.581  12.145
14749SOL     OW45687   4.030   2.399  12.166
14749SOL    HW145688   4.001   2.308  12.168
14749SOL    HW245689   4.112   2.398  12.118
14750SOL     OW45690   4.897   2.082   0.150
14750SOL    HW145691   4.873   2.146   0.217
14750SOL    HW245692   4.923   2.134   0.074
14751SOL     OW45693   3.742   3.174  11.361
14751SOL    HW145694   3.654   3.194  11.331
14751SOL    HW245695   3.735   3.087  11.401
14752SOL     OW45696   3.819   3.641  12.121
14752SOL    HW145697   3.788   3.566  12.070
14752SOL    HW245698   3.907   3.658  12.086
14753SOL     OW45699   4.217   3.442  12.073
14753SOL    HW145700   4.288   3.502  12.097
14753SOL    HW245701   4.258   3.378  12.015
14754SOL     OW45702   4.694   2.655  12.416
14754SOL    HW145703   4.742   2.724  12.462
14754SOL    HW245704   4.604   2.665  12.446
14755SOL     OW45705   3.786   2.435  12.297
14755SOL    HW145706   3.862   2.429  12.239
14755SOL    HW245707   3.782   2.350  12.340
14756SOL     OW45708   4.538   2.435  11.541
14756SOL    HW145709   4.543   2.362  11.480
14756SOL    HW245710   4.463   2.487  11.510
14757SOL     OW45711   5.373   2.451  12.314
14757SOL    HW145712   5.374   2.409  12.400
14757SOL    HW245713   5.460   2.435  12.278
14758SOL     OW45714   4.452   2.281  12.410
14758SOL    HW145715   4.378   2.222  12.397
14758SOL    HW245716   4.432   2.358  12.356
14759SOL     OW45717   4.625   3.518   0.030
14759SOL    HW145718   4.631   3.583  -0.041
14759SOL    HW245719   4.657   3.565   0.107
14760SOL     OW45720   4.185   2.355  11.367
14760SOL    HW145721   4.241   2.431  11.384
14760SOL    HW245722   4.099   2.393  11.350
14761SOL     OW45723   5.012   2.892  12.369
14761SOL    HW145724   5.038   2.840  12.293
14761SOL    HW245725   4.956   2.961  12.334
14762SOL     OW45726   5.046   2.706  11.464
14762SOL    HW145727   4.963   2.695  11.512
14762SOL    HW245728   5.021   2.701  11.372
14763SOL     OW45729   5.478   3.611  12.305
14763SOL    HW145730   5.547   3.632  12.243
14763SOL    HW245731   5.466   3.516  12.296
14764SOL     OW45732   4.969   3.580  12.265
14764SOL    HW145733   5.051   3.614  12.231
14764SOL    HW245734   4.986   3.488  12.284
14765SOL     OW45735   3.819   3.134  12.173
14765SOL    HW145736   3.805   3.156  12.265
14765SOL    HW245737   3.747   3.075  12.151
14766SOL     OW45738   5.455   2.028  11.668
14766SOL    HW145739   5.523   2.012  11.602
14766SOL    HW245740   5.439   1.943  11.707
14767SOL     OW45741   5.119   3.430  11.668
14767SOL    HW145742   5.176   3.462  11.598
14767SOL    HW245743   5.066   3.506  11.692
14768SOL     OW45744   5.000   2.800  11.861
14768SOL    HW145745   5.072   2.737  11.861
14768SOL    HW245746   5.027   2.867  11.798
14769SOL     OW45747   4.396   3.481  11.324
14769SOL    HW145748   4.406   3.501  11.231
14769SOL    HW245749   4.336   3.407  11.325
14770SOL     OW45750   5.349   3.651   0.045
14770SOL    HW145751   5.400   3.638  -0.035
14770SOL    HW245752   5.375   3.738   0.076
14771SOL     OW45753   5.606   2.051  12.118
14771SOL    HW145754   5.627   1.959  12.101
14771SOL    HW245755   5.516   2.061  12.089
14772SOL     OW45756   3.977   2.172  11.882
14772SOL    HW145757   3.892   2.207  11.859
14772SOL    HW245758   3.978   2.172  11.978
14773SOL     OW45759   4.936   3.466  11.204
14773SOL    HW145760   4.921   3.372  11.218
14773SOL    HW245761   4.879   3.489  11.131
14774SOL     OW45762   4.521   2.890   0.008
14774SOL    HW145763   4.577   2.930  -0.059
14774SOL    HW245764   4.559   2.918   0.091
14775SOL     OW45765   4.663   2.791  11.500
14775SOL    HW145766   4.707   2.815  11.418
14775SOL    HW245767   4.702   2.707  11.524
14776SOL     OW45768   5.218   3.484  11.221
14776SOL    HW145769   5.123   3.481  11.205
14776SOL    HW245770   5.256   3.493  11.134
14777SOL     OW45771   4.733   2.880  11.904
14777SOL    HW145772   4.712   2.901  11.813
14777SOL    HW245773   4.827   2.861  11.903
14778SOL     OW45774   4.765   2.105  12.100
14778SOL    HW145775   4.757   2.040  12.031
14778SOL    HW245776   4.747   2.057  12.181
14779SOL     OW45777   4.330   3.364  11.659
14779SOL    HW145778   4.377   3.310  11.596
14779SOL    HW245779   4.260   3.405  11.608
14780SOL     OW45780   5.481   2.297   0.024
14780SOL    HW145781   5.531   2.305   0.105
14780SOL    HW245782   5.441   2.210   0.028
14781SOL     OW45783   4.000   3.194  11.482
14781SOL    HW145784   3.914   3.197  11.439
14781SOL    HW245785   3.988   3.243  11.564
14782SOL     OW45786   3.804   2.192  11.191
14782SOL    HW145787   3.730   2.177  11.132
14782SOL    HW245788   3.844   2.272  11.159
14783SOL     OW45789   3.777   2.016  11.464
14783SOL    HW145790   3.763   2.092  11.408
14783SOL    HW245791   3.864   1.983  11.438
14784SOL     OW45792   4.899   3.190  11.286
14784SOL    HW145793   4.803   3.188  11.280
14784SOL    HW245794   4.916   3.194  11.380
14785SOL     OW45795   5.214   3.645  12.152
14785SOL    HW145796   5.230   3.720  12.095
14785SOL    HW245797   5.295   3.633  12.200
14786SOL     OW45798   5.400   2.729  12.404
14786SOL    HW145799   5.376   2.650  12.356
14786SOL    HW245800   5.380   2.801  12.343
14787SOL     OW45801   4.954   2.177  11.622
14787SOL    HW145802   5.011   2.100  11.625
14787SOL    HW245803   4.977   2.227  11.700
14788SOL     OW45804   4.317   2.603  11.864
14788SOL    HW145805   4.351   2.690  11.846
14788SOL    HW245806   4.253   2.587  11.794
14789SOL     OW45807   5.561   2.745   0.120
14789SOL    HW145808   5.539   2.823   0.172
14789SOL    HW245809   5.496   2.743   0.050
14790SOL     OW45810   4.616   3.242  11.232
14790SOL    HW145811   4.550   3.283  11.289
14790SOL    HW245812   4.629   3.304  11.161
14791SOL     OW45813   4.389   3.652  12.117
14791SOL    HW145814   4.369   3.741  12.090
14791SOL    HW245815   4.484   3.645  12.108
14792SOL     OW45816   4.797   2.839  11.270
14792SOL    HW145817   4.770   2.897  11.199
14792SOL    HW245818   4.870   2.788  11.233
14793SOL     OW45819   5.566   3.414  12.016
14793SOL    HW145820   5.487   3.406  11.962
14793SOL    HW245821   5.547   3.364  12.095
14794SOL     OW45822   3.805   3.087  11.839
14794SOL    HW145823   3.826   3.045  11.922
14794SOL    HW245824   3.873   3.057  11.779
14795SOL     OW45825   5.556   2.017  12.409
14795SOL    HW145826   5.594   1.937  12.445
14795SOL    HW245827   5.491   1.987  12.346
14796SOL     OW45828   4.163   2.290  11.705
14796SOL    HW145829   4.183   2.224  11.639
14796SOL    HW245830   4.103   2.247  11.766
14797SOL     OW45831   5.434   3.346  12.265
14797SOL    HW145832   5.351   3.319  12.227
14797SOL    HW245833   5.440   3.297  12.347
14798SOL     OW45834   4.553   3.456  11.836
14798SOL    HW145835   4.554   3.537  11.786
14798SOL    HW245836   4.474   3.410  11.807
14799SOL     OW45837   5.165   2.091  12.288
14799SOL    HW145838   5.191   2.015  12.341
14799SOL    HW245839   5.108   2.142  12.346
14800SOL     OW45840   4.729   1.854  12.300
14800SOL    HW145841   4.690   1.805  12.227
14800SOL    HW245842   4.820   1.824  12.302
14801SOL     OW45843   4.484   3.199  11.509
14801SOL    HW145844   4.461   3.106  11.504
14801SOL    HW245845   4.578   3.199  11.528
14802SOL     OW45846   5.089   1.924  11.320
14802SOL    HW145847   5.127   1.853  11.268
14802SOL    HW245848   5.003   1.891  11.346
14803SOL     OW45849   5.024   2.322  11.845
14803SOL    HW145850   4.974   2.403  11.846
14803SOL    HW245851   5.017   2.288  11.934
14804SOL     OW45852   5.333   2.066  12.069
14804SOL    HW145853   5.270   2.082  12.139
14804SOL    HW245854   5.321   2.138  12.008
14805SOL     OW45855   3.764   2.925  11.488
14805SOL    HW145856   3.856   2.917  11.463
14805SOL    HW245857   3.737   2.835  11.507
14806SOL     OW45858   4.610   3.521  11.505
14806SOL    HW145859   4.537   3.507  11.445
14806SOL    HW245860   4.582   3.595  11.559
14807SOL     OW45861   3.957   4.285   0.034
14807SOL    HW145862   3.934   4.349   0.102
14807SOL    HW245863   3.973   4.339  -0.043
14808SOL     OW45864   3.934   4.016   1.003
14808SOL    HW145865   3.963   3.978   1.085
14808SOL    HW245866   3.849   3.974   0.985
14809SOL     OW45867   3.717   4.109   0.641
14809SOL    HW145868   3.640   4.138   0.690
14809SOL    HW245869   3.688   4.029   0.597
14810SOL     OW45870   4.292   5.023   1.185
14810SOL    HW145871   4.206   5.034   1.144
14810SOL    HW245872   4.312   5.109   1.222
14811SOL     OW45873   5.300   5.244   0.715
14811SOL    HW145874   5.256   5.218   0.795
14811SOL    HW245875   5.231   5.245   0.648
14812SOL     OW45876   4.854   4.427   0.694
14812SOL    HW145877   4.903   4.508   0.683
14812SOL    HW245878   4.807   4.438   0.777
14813SOL     OW45879   5.456   4.337   0.271
14813SOL    HW145880   5.456   4.339   0.175
14813SOL    HW245881   5.429   4.248   0.293
14814SOL     OW45882   4.460   4.864   1.037
14814SOL    HW145883   4.398   4.901   1.100
14814SOL    HW245884   4.505   4.940   1.000
14815SOL     OW45885   4.601   4.475   1.835
14815SOL    HW145886   4.591   4.534   1.910
14815SOL    HW245887   4.623   4.534   1.762
14816SOL     OW45888   4.409   4.724   0.644
14816SOL    HW145889   4.477   4.716   0.710
14816SOL    HW245890   4.342   4.780   0.684
14817SOL     OW45891   4.438   4.869   1.814
14817SOL    HW145892   4.480   4.947   1.850
14817SOL    HW245893   4.355   4.902   1.778
14818SOL     OW45894   4.061   5.134   1.065
14818SOL    HW145895   3.981   5.100   1.025
14818SOL    HW245896   4.100   5.190   0.998
14819SOL     OW45897   5.183   5.230   1.364
14819SOL    HW145898   5.237   5.307   1.377
14819SOL    HW245899   5.114   5.237   1.431
14820SOL     OW45900   4.185   4.099   1.475
14820SOL    HW145901   4.262   4.045   1.491
14820SOL    HW245902   4.114   4.054   1.523
14821SOL     OW45903   5.330   4.165   0.752
14821SOL    HW145904   5.282   4.198   0.675
14821SOL    HW245905   5.311   4.229   0.821
14822SOL     OW45906   3.938   5.443   0.471
14822SOL    HW145907   3.960   5.516   0.528
14822SOL    HW245908   4.017   5.430   0.418
14823SOL     OW45909   4.860   5.069   1.699
14823SOL    HW145910   4.899   5.063   1.786
14823SOL    HW245911   4.807   4.990   1.690
14824SOL     OW45912   3.947   5.172   0.546
14824SOL    HW145913   3.928   5.266   0.547
14824SOL    HW245914   3.890   5.136   0.614
14825SOL     OW45915   3.989   4.791   0.931
14825SOL    HW145916   3.981   4.758   1.021
14825SOL    HW245917   3.936   4.871   0.929
14826SOL     OW45918   4.314   5.515   1.420
14826SOL    HW145919   4.237   5.495   1.474
14826SOL    HW245920   4.339   5.603   1.448
14827SOL     OW45921   4.305   4.687   0.148
14827SOL    HW145922   4.372   4.704   0.083
14827SOL    HW245923   4.335   4.733   0.227
14828SOL     OW45924   5.320   3.856   1.462
14828SOL    HW145925   5.343   3.940   1.423
14828SOL    HW245926   5.294   3.878   1.552
14829SOL     OW45927   3.842   4.370   0.573
14829SOL    HW145928   3.808   4.284   0.595
14829SOL    HW245929   3.842   4.418   0.656
14830SOL     OW45930   5.579   5.463   0.311
14830SOL    HW145931   5.647   5.438   0.375
14830SOL    HW245932   5.593   5.556   0.297
14831SOL     OW45933   3.757   5.246   0.130
14831SOL    HW145934   3.668   5.211   0.124
14831SOL    HW245935   3.748   5.324   0.185
14832SOL     OW45936   5.407   4.657   0.653
14832SOL    HW145937   5.475   4.609   0.607
14832SOL    HW245938   5.373   4.719   0.588
14833SOL     OW45939   5.368   4.839   0.435
14833SOL    HW145940   5.454   4.836   0.393
14833SOL    HW245941   5.378   4.902   0.506
14834SOL     OW45942   3.861   4.477   1.570
14834SOL    HW145943   3.952   4.499   1.592
14834SOL    HW245944   3.811   4.553   1.599
14835SOL     OW45945   4.340   5.113   0.736
14835SOL    HW145946   4.295   5.029   0.748
14835SOL    HW245947   4.324   5.136   0.644
14836SOL     OW45948   5.009   4.961   1.416
14836SOL    HW145949   5.039   4.890   1.359
14836SOL    HW245950   5.063   4.954   1.494
14837SOL     OW45951   4.548   3.737   0.525
14837SOL    HW145952   4.586   3.821   0.499
14837SOL    HW245953   4.454   3.753   0.528
14838SOL     OW45954   3.913   4.680   1.240
14838SOL    HW145955   3.987   4.620   1.251
14838SOL    HW245956   3.836   4.625   1.252
14839SOL     OW45957   5.220   4.737   0.227
14839SOL    HW145958   5.157   4.677   0.267
14839SOL    HW245959   5.275   4.766   0.300
14840SOL     OW45960   4.910   5.544   1.627
14840SOL    HW145961   4.914   5.599   1.549
14840SOL    HW245962   4.927   5.455   1.595
14841SOL     OW45963   4.072   3.991   1.796
14841SOL    HW145964   4.119   4.050   1.854
14841SOL    HW245965   3.985   3.983   1.835
14842SOL     OW45966   5.189   5.144   0.945
14842SOL    HW145967   5.124   5.159   1.014
14842SOL    HW245968   5.176   5.053   0.920
14843SOL     OW45969   5.373   5.489   0.583
14843SOL    HW145970   5.352   5.451   0.498
14843SOL    HW245971   5.361   5.417   0.645
14844SOL     OW45972   4.302   4.434   0.275
14844SOL    HW145973   4.313   4.521   0.237
14844SOL    HW245974   4.236   4.446   0.344
14845SOL     OW45975   5.004   4.096   0.935
14845SOL    HW145976   4.915   4.061   0.943
14845SOL    HW245977   5.057   4.042   0.993
14846SOL     OW45978   5.314   5.396   0.329
14846SOL    HW145979   5.409   5.409   0.321
14846SOL    HW245980   5.282   5.398   0.239
14847SOL     OW45981   4.503   4.351   1.438
14847SOL    HW145982   4.489   4.325   1.529
14847SOL    HW245983   4.481   4.273   1.387
14848SOL     OW45984   5.122   4.197   1.682
14848SOL    HW145985   5.123   4.241   1.767
14848SOL    HW245986   5.172   4.116   1.696
14849SOL     OW45987   4.673   4.608   1.590
14849SOL    HW145988   4.729   4.541   1.552
14849SOL    HW245989   4.620   4.640   1.517
14850SOL     OW45990   4.725   4.135   1.223
14850SOL    HW145991   4.637   4.151   1.257
14850SOL    HW245992   4.712   4.074   1.151
14851SOL     OW45993   4.779   4.426   0.425
14851SOL    HW145994   4.796   4.422   0.519
14851SOL    HW245995   4.693   4.385   0.414
14852SOL     OW45996   3.850   4.559   0.782
14852SOL    HW145997   3.914   4.630   0.785
14852SOL    HW245998   3.771   4.596   0.822
14853SOL     OW45999   3.847   5.597   1.585
14853SOL    HW146000   3.852   5.578   1.679
14853SOL    HW246001   3.767   5.554   1.556
14854SOL     OW46002   4.615   4.084   0.223
14854SOL    HW146003   4.648   4.150   0.162
14854SOL    HW246004   4.604   4.006   0.169
14855SOL     OW46005   5.435   4.288   1.829
14855SOL    HW146006   5.397   4.362   1.782
14855SOL    HW246007   5.457   4.225   1.760
14856SOL     OW46008   5.104   4.865   0.536
14856SOL    HW146009   5.186   4.859   0.486
14856SOL    HW246010   5.050   4.927   0.487
14857SOL     OW46011   4.273   3.890   0.910
14857SOL    HW146012   4.275   3.919   1.001
14857SOL    HW246013   4.280   3.971   0.859
14858SOL     OW46014   4.719   5.157   0.475
14858SOL    HW146015   4.680   5.234   0.434
14858SOL    HW246016   4.701   5.168   0.568
14859SOL     OW46017   4.077   5.539   0.873
14859SOL    HW146018   4.121   5.455   0.879
14859SOL    HW246019   4.145   5.603   0.895
14860SOL     OW46020   5.530   4.772   0.877
14860SOL    HW146021   5.479   4.750   0.800
14860SOL    HW246022   5.465   4.780   0.947
14861SOL     OW46023   4.950   5.266   1.516
14861SOL    HW146024   4.939   5.197   1.582
14861SOL    HW246025   4.877   5.254   1.456
14862SOL     OW46026   4.042   4.705   0.269
14862SOL    HW146027   4.119   4.718   0.213
14862SOL    HW246028   4.002   4.624   0.237
14863SOL     OW46029   5.204   4.482   0.723
14863SOL    HW146030   5.205   4.438   0.808
14863SOL    HW246031   5.282   4.537   0.723
14864SOL     OW46032   4.200   4.991   1.733
14864SOL    HW146033   4.171   4.997   1.642
14864SOL    HW246034   4.120   4.988   1.784
14865SOL     OW46035   4.788   5.504   0.225
14865SOL    HW146036   4.761   5.457   0.304
14865SOL    HW246037   4.855   5.448   0.186
14866SOL     OW46038   3.914   3.999   1.513
14866SOL    HW146039   3.836   4.043   1.545
14866SOL    HW246040   3.916   3.916   1.561
14867SOL     OW46041   5.380   5.134   0.085
14867SOL    HW146042   5.314   5.197   0.056
14867SOL    HW246043   5.334   5.050   0.087
14868SOL     OW46044   4.177   5.452   0.331
14868SOL    HW146045   4.224   5.511   0.390
14868SOL    HW246046   4.245   5.416   0.275
14869SOL     OW46047   5.128   3.823   0.448
14869SOL    HW146048   5.123   3.788   0.359
14869SOL    HW246049   5.221   3.830   0.466
14870SOL     OW46050   3.984   5.517   1.224
14870SOL    HW146051   4.028   5.444   1.267
14870SOL    HW246052   3.969   5.487   1.134
14871SOL     OW46053   4.663   5.426   0.894
14871SOL    HW146054   4.741   5.378   0.919
14871SOL    HW246055   4.624   5.374   0.824
14872SOL     OW46056   4.107   4.413   0.477
14872SOL    HW146057   4.131   4.321   0.488
14872SOL    HW246058   4.016   4.418   0.506
14873SOL     OW46059   5.247   3.943   1.724
14873SOL    HW146060   5.263   3.966   1.816
14873SOL    HW246061   5.180   3.875   1.728
14874SOL     OW46062   4.352   3.848   0.119
14874SOL    HW146063   4.445   3.826   0.120
14874SOL    HW246064   4.339   3.894   0.035
14875SOL     OW46065   4.482   3.998   1.753
14875SOL    HW146066   4.565   3.952   1.747
14875SOL    HW246067   4.439   3.962   1.830
14876SOL     OW46068   4.601   5.250   1.196
14876SOL    HW146069   4.581   5.210   1.111
14876SOL    HW246070   4.668   5.193   1.234
14877SOL     OW46071   5.065   4.315   1.440
14877SOL    HW146072   5.096   4.281   1.524
14877SOL    HW246073   5.105   4.402   1.433
14878SOL     OW46074   4.545   5.112   0.950
14878SOL    HW146075   4.631   5.102   0.909
14878SOL    HW246076   4.484   5.123   0.878
14879SOL     OW46077   4.652   4.227   0.900
14879SOL    HW146078   4.629   4.218   0.807
14879SOL    HW246079   4.687   4.141   0.925
14880SOL     OW46080   4.278   3.780   0.504
14880SOL    HW146081   4.198   3.780   0.557
14880SOL    HW246082   4.271   3.858   0.449
14881SOL     OW46083   5.187   4.943   0.052
14881SOL    HW146084   5.200   4.863   0.103
14881SOL    HW246085   5.094   4.964   0.064
14882SOL     OW46086   4.035   3.800   0.205
14882SOL    HW146087   4.116   3.849   0.195
14882SOL    HW246088   4.063   3.713   0.235
14883SOL     OW46089   4.671   3.976   0.466
14883SOL    HW146090   4.644   4.013   0.382
14883SOL    HW246091   4.766   3.987   0.469
14884SOL     OW46092   4.808   4.408   1.456
14884SOL    HW146093   4.752   4.335   1.481
14884SOL    HW246094   4.897   4.372   1.456
14885SOL     OW46095   4.939   5.296   0.795
14885SOL    HW146096   4.953   5.362   0.727
14885SOL    HW246097   5.010   5.311   0.858
14886SOL     OW46098   4.194   4.872   0.741
14886SOL    HW146099   4.131   4.846   0.809
14886SOL    HW246100   4.144   4.865   0.660
14887SOL     OW46101   4.981   5.513   0.614
14887SOL    HW146102   5.032   5.577   0.563
14887SOL    HW246103   4.911   5.565   0.654
14888SOL     OW46104   4.741   4.278   0.075
14888SOL    HW146105   4.735   4.357   0.021
14888SOL    HW246106   4.816   4.294   0.132
14889SOL     OW46107   3.801   4.287   1.382
14889SOL    HW146108   3.894   4.265   1.370
14889SOL    HW246109   3.802   4.355   1.451
14890SOL     OW46110   4.277   3.951   1.181
14890SOL    HW146111   4.323   3.889   1.238
14890SOL    HW246112   4.186   3.947   1.210
14891SOL     OW46113   4.586   4.183   0.638
14891SOL    HW146114   4.552   4.238   0.567
14891SOL    HW246115   4.612   4.102   0.594
14892SOL     OW46116   4.747   3.773   0.739
14892SOL    HW146117   4.683   3.768   0.668
14892SOL    HW246118   4.722   3.703   0.799
14893SOL     OW46119   5.164   4.884   0.859
14893SOL    HW146120   5.095   4.817   0.860
14893SOL    HW246121   5.190   4.890   0.767
14894SOL     OW46122   5.191   4.332   0.960
14894SOL    HW146123   5.129   4.259   0.969
14894SOL    HW246124   5.246   4.326   1.037
14895SOL     OW46125   5.551   4.549   0.430
14895SOL    HW146126   5.603   4.484   0.477
14895SOL    HW246127   5.510   4.500   0.359
14896SOL     OW46128   4.213   5.126   0.167
14896SOL    HW146129   4.152   5.080   0.224
14896SOL    HW246130   4.158   5.171   0.103
14897SOL     OW46131   5.402   4.993   0.649
14897SOL    HW146132   5.496   4.988   0.663
14897SOL    HW246133   5.379   5.083   0.670
14898SOL     OW46134   5.119   4.273   0.080
14898SOL    HW146135   5.067   4.268   0.160
14898SOL    HW246136   5.182   4.201   0.088
14899SOL     OW46137   4.253   3.985   0.330
14899SOL    HW146138   4.302   3.937   0.263
14899SOL    HW246139   4.226   4.066   0.286
14900SOL     OW46140   5.466   4.967   1.551
14900SOL    HW146141   5.552   4.925   1.556
14900SOL    HW246142   5.480   5.056   1.583
14901SOL     OW46143   4.777   5.073   1.325
14901SOL    HW146144   4.701   5.044   1.375
14901SOL    HW246145   4.852   5.035   1.370
14902SOL     OW46146   5.332   5.358   1.661
14902SOL    HW146147   5.325   5.390   1.571
14902SOL    HW246148   5.410   5.303   1.661
14903SOL     OW46149   4.854   4.930   1.099
14903SOL    HW146150   4.803   4.975   1.166
14903SOL    HW246151   4.830   4.974   1.017
14904SOL     OW46152   5.347   4.821   1.076
14904SOL    HW146153   5.340   4.883   1.149
14904SOL    HW246154   5.272   4.841   1.020
14905SOL     OW46155   4.644   3.814   1.388
14905SOL    HW146156   4.672   3.798   1.298
14905SOL    HW246157   4.720   3.854   1.430
14906SOL     OW46158   4.705   4.843   1.718
14906SOL    HW146159   4.616   4.857   1.749
14906SOL    HW246160   4.701   4.761   1.669
14907SOL     OW46161   4.435   4.787   0.373
14907SOL    HW146162   4.421   4.767   0.465
14907SOL    HW246163   4.513   4.737   0.349
14908SOL     OW46164   4.127   4.504   1.239
14908SOL    HW146165   4.193   4.531   1.302
14908SOL    HW246166   4.096   4.419   1.271
14909SOL     OW46167   4.992   4.107   1.278
14909SOL    HW146168   5.022   4.182   1.330
14909SOL    HW246169   4.900   4.127   1.258
14910SOL     OW46170   3.800   5.301   1.365
14910SOL    HW146171   3.769   5.371   1.306
14910SOL    HW246172   3.895   5.299   1.353
14911SOL     OW46173   4.050   4.847   0.507
14911SOL    HW146174   4.044   4.926   0.455
14911SOL    HW246175   4.058   4.776   0.443
14912SOL     OW46176   4.272   4.273   0.852
14912SOL    HW146177   4.285   4.325   0.773
14912SOL    HW246178   4.352   4.285   0.903
14913SOL     OW46179   4.968   5.072   0.396
14913SOL    HW146180   5.024   5.142   0.430
14913SOL    HW246181   4.881   5.092   0.429
14914SOL     OW46182   5.018   5.188   1.153
14914SOL    HW146183   5.076   5.198   1.228
14914SOL    HW246184   4.958   5.118   1.178
14915SOL     OW46185   5.280   4.321   0.507
14915SOL    HW146186   5.237   4.383   0.565
14915SOL    HW246187   5.320   4.376   0.439
14916SOL     OW46188   4.068   5.260   1.304
14916SOL    HW146189   4.057   5.209   1.224
14916SOL    HW246190   4.162   5.268   1.316
14917SOL     OW46191   4.151   4.463   1.606
14917SOL    HW146192   4.213   4.504   1.545
14917SOL    HW246193   4.198   4.386   1.640
14918SOL     OW46194   5.341   4.501   1.688
14918SOL    HW146195   5.255   4.542   1.687
14918SOL    HW246196   5.391   4.547   1.620
14919SOL     OW46197   4.717   3.862   1.732
14919SOL    HW146198   4.779   3.935   1.727
14919SOL    HW246199   4.771   3.783   1.725
14920SOL     OW46200   4.225   3.761   1.743
14920SOL    HW146201   4.171   3.704   1.688
14920SOL    HW246202   4.171   3.837   1.760
14921SOL     OW46203   4.304   4.634   1.041
14921SOL    HW146204   4.352   4.709   1.007
14921SOL    HW246205   4.298   4.649   1.135
14922SOL     OW46206   5.064   4.582   1.012
14922SOL    HW146207   4.976   4.560   0.981
14922SOL    HW246208   5.113   4.500   1.004
14923SOL     OW46209   4.936   4.250   0.282
14923SOL    HW146210   4.948   4.176   0.342
14923SOL    HW246211   4.888   4.315   0.334
14924SOL     OW46212   4.011   3.927   1.252
14924SOL    HW146213   3.977   3.957   1.337
14924SOL    HW246214   3.996   3.833   1.253
14925SOL     OW46215   3.794   5.042   1.265
14925SOL    HW146216   3.815   4.980   1.335
14925SOL    HW246217   3.783   5.126   1.309
14926SOL     OW46218   4.451   4.354   1.037
14926SOL    HW146219   4.529   4.313   1.000
14926SOL    HW246220   4.474   4.446   1.047
14927SOL     OW46221   5.464   4.689   1.857
14927SOL    HW146222   5.425   4.613   1.814
14927SOL    HW246223   5.407   4.706   1.931
14928SOL     OW46224   4.033   3.786   0.629
14928SOL    HW146225   4.008   3.875   0.651
14928SOL    HW246226   4.042   3.742   0.714
14929SOL     OW46227   5.339   4.094   0.365
14929SOL    HW146228   5.371   4.026   0.424
14929SOL    HW246229   5.307   4.163   0.422
14930SOL     OW46230   4.749   4.479   0.961
14930SOL    HW146231   4.739   4.493   1.055
14930SOL    HW246232   4.727   4.386   0.948
14931SOL     OW46233   4.710   5.300   1.724
14931SOL    HW146234   4.693   5.337   1.637
14931SOL    HW246235   4.743   5.212   1.707
14932SOL     OW46236   5.569   5.222   1.605
14932SOL    HW146237   5.596   5.251   1.517
14932SOL    HW246238   5.648   5.233   1.658
14933SOL     OW46239   4.073   4.658   1.790
14933SOL    HW146240   4.136   4.669   1.862
14933SOL    HW246241   4.109   4.585   1.739
14934SOL     OW46242   5.237   3.993   0.129
14934SOL    HW146243   5.181   3.921   0.160
14934SOL    HW246244   5.277   4.027   0.208
14935SOL     OW46245   5.012   4.530   0.057
14935SOL    HW146246   5.063   4.450   0.046
14935SOL    HW246247   5.052   4.593  -0.004
14936SOL     OW46248   4.794   5.066   0.859
14936SOL    HW146249   4.802   4.994   0.797
14936SOL    HW246250   4.851   5.134   0.824
14937SOL     OW46251   4.060   4.247   1.003
14937SOL    HW146252   4.010   4.166   1.001
14937SOL    HW246253   4.131   4.233   0.940
14938SOL     OW46254   4.862   4.101   1.678
14938SOL    HW146255   4.814   4.149   1.746
14938SOL    HW246256   4.950   4.138   1.680
14939SOL     OW46257   4.885   3.925   1.464
14939SOL    HW146258   4.873   3.982   1.539
14939SOL    HW246259   4.931   3.979   1.400
14940SOL     OW46260   3.813   5.502   0.942
14940SOL    HW146261   3.781   5.425   0.895
14940SOL    HW246262   3.902   5.514   0.910
14941SOL     OW46263   4.212   5.299   0.900
14941SOL    HW146264   4.281   5.360   0.926
14941SOL    HW246265   4.255   5.235   0.843
14942SOL     OW46266   4.680   4.499   1.228
14942SOL    HW146267   4.753   4.485   1.288
14942SOL    HW246268   4.604   4.465   1.274
14943SOL     OW46269   3.755   4.287   1.114
14943SOL    HW146270   3.821   4.230   1.074
14943SOL    HW246271   3.778   4.288   1.207
14944SOL     OW46272   3.896   4.256   1.739
14944SOL    HW146273   3.966   4.209   1.693
14944SOL    HW246274   3.873   4.328   1.680
14945SOL     OW46275   5.112   4.650   1.656
14945SOL    HW146276   5.129   4.744   1.654
14945SOL    HW246277   5.108   4.625   1.563
14946SOL     OW46278   4.535   4.302   0.381
14946SOL    HW146279   4.547   4.226   0.324
14946SOL    HW246280   4.459   4.347   0.345
14947SOL     OW46281   5.364   4.327   1.172
14947SOL    HW146282   5.354   4.269   1.248
14947SOL    HW246283   5.453   4.310   1.140
14948SOL     OW46284   3.957   5.269   1.724
14948SOL    HW146285   3.933   5.328   1.795
14948SOL    HW246286   3.971   5.184   1.766
14949SOL     OW46287   4.447   4.167   1.245
14949SOL    HW146288   4.383   4.096   1.233
14949SOL    HW246289   4.429   4.227   1.173
14950SOL     OW46290   4.646   5.401   1.470
14950SOL    HW146291   4.618   5.360   1.388
14950SOL    HW246292   4.639   5.495   1.452
14951SOL     OW46293   4.178   4.199   0.190
14951SOL    HW146294   4.227   4.279   0.210
14951SOL    HW246295   4.105   4.228   0.135
14952SOL     OW46296   3.879   4.862   1.458
14952SOL    HW146297   3.868   4.816   1.541
14952SOL    HW246298   3.893   4.792   1.394
14953SOL     OW46299   5.042   4.765   1.213
14953SOL    HW146300   5.062   4.703   1.144
14953SOL    HW246301   4.975   4.823   1.175
14954SOL     OW46302   5.026   4.568   0.329
14954SOL    HW146303   4.949   4.531   0.372
14954SOL    HW246304   5.016   4.544   0.237
14955SOL     OW46305   5.509   5.457   1.163
14955SOL    HW146306   5.567   5.481   1.091
14955SOL    HW246307   5.477   5.369   1.139
14956SOL     OW46308   4.961   5.457   1.098
14956SOL    HW146309   5.046   5.483   1.060
14956SOL    HW246310   4.974   5.365   1.123
14957SOL     OW46311   3.820   5.000   1.001
14957SOL    HW146312   3.808   5.014   1.095
14957SOL    HW246313   3.741   4.953   0.973
14958SOL     OW46314   4.407   5.399   1.741
14958SOL    HW146315   4.351   5.475   1.725
14958SOL    HW246316   4.483   5.413   1.684
14959SOL     OW46317   4.626   3.826   0.100
14959SOL    HW146318   4.670   3.848   0.018
14959SOL    HW246319   4.693   3.786   0.154
14960SOL     OW46320   5.447   3.879   0.504
14960SOL    HW146321   5.517   3.856   0.443
14960SOL    HW246322   5.427   3.797   0.550
14961SOL     OW46323   5.117   5.289   0.499
14961SOL    HW146324   5.178   5.323   0.434
14961SOL    HW246325   5.067   5.366   0.527
14962SOL     OW46326   3.863   5.524   1.843
14962SOL    HW146327   3.814   5.454   1.887
14962SOL    HW246328   3.910   5.569   1.914
14963SOL     OW46329   4.999   4.656   0.671
14963SOL    HW146330   5.073   4.596   0.684
14963SOL    HW246331   5.034   4.724   0.614
14964SOL     OW46332   4.525   5.002   1.420
14964SOL    HW146333   4.502   5.044   1.502
14964SOL    HW246334   4.449   5.016   1.363
14965SOL     OW46335   4.386   5.336   0.197
14965SOL    HW146336   4.449   5.343   0.125
14965SOL    HW246337   4.342   5.252   0.182
14966SOL     OW46338   5.341   5.455   1.394
14966SOL    HW146339   5.397   5.457   1.316
14966SOL    HW246340   5.327   5.547   1.416
14967SOL     OW46341   5.568   3.891   0.960
14967SOL    HW146342   5.596   3.801   0.940
14967SOL    HW246343   5.480   3.897   0.925
14968SOL     OW46344   3.974   4.036   0.721
14968SOL    HW146345   3.887   4.068   0.695
14968SOL    HW246346   3.969   4.029   0.816
14969SOL     OW46347   4.926   5.331   0.069
14969SOL    HW146348   4.920   5.237   0.085
14969SOL    HW246349   4.896   5.343  -0.021
14970SOL     OW46350   4.544   4.731   1.375
14970SOL    HW146351   4.603   4.725   1.301
14970SOL    HW246352   4.542   4.824   1.397
14971SOL     OW46353   4.652   4.648   0.296
14971SOL    HW146354   4.709   4.673   0.223
14971SOL    HW246355   4.699   4.577   0.339
14972SOL     OW46356   5.188   5.302   0.010
14972SOL    HW146357   5.100   5.328   0.038
14972SOL    HW246358   5.238   5.384   0.011
14973SOL     OW46359   4.094   5.031   1.488
14973SOL    HW146360   4.073   5.110   1.437
14973SOL    HW246361   4.018   4.973   1.475
14974SOL     OW46362   5.333   5.010   1.284
14974SOL    HW146363   5.385   4.987   1.361
14974SOL    HW246364   5.271   5.076   1.316
14975SOL     OW46365   4.789   4.836   0.715
14975SOL    HW146366   4.716   4.784   0.749
14975SOL    HW246367   4.855   4.772   0.691
14976SOL     OW46368   4.752   3.964   0.958
14976SOL    HW146369   4.751   3.916   0.875
14976SOL    HW246370   4.747   3.896   1.025
14977SOL     OW46371   4.327   5.197   0.478
14977SOL    HW146372   4.374   5.154   0.407
14977SOL    HW246373   4.254   5.241   0.435
14978SOL     OW46374   5.448   4.120   1.371
14978SOL    HW146375   5.522   4.180   1.377
14978SOL    HW246376   5.479   4.048   1.316
14979SOL     OW46377   3.993   5.048   0.316
14979SOL    HW146378   3.914   5.063   0.265
14979SOL    HW246379   3.979   5.099   0.397
14980SOL     OW46380   3.829   4.754   1.707
14980SOL    HW146381   3.757   4.732   1.766
14980SOL    HW246382   3.908   4.723   1.752
14981SOL     OW46383   4.406   3.918   1.495
14981SOL    HW146384   4.491   3.891   1.462
14981SOL    HW246385   4.423   3.945   1.586
14982SOL     OW46386   5.147   4.582   1.393
14982SOL    HW146387   5.098   4.643   1.339
14982SOL    HW246388   5.236   4.584   1.357
14983SOL     OW46389   3.789   3.868   0.306
14983SOL    HW146390   3.787   3.963   0.299
14983SOL    HW246391   3.876   3.843   0.275
14984SOL     OW46392   4.915   5.060   0.118
14984SOL    HW146393   4.820   5.051   0.109
14984SOL    HW246394   4.931   5.050   0.212
14985SOL     OW46395   4.333   4.557   1.408
14985SOL    HW146396   4.391   4.633   1.410
14985SOL    HW246397   4.391   4.482   1.424
14986SOL     OW46398   5.208   5.517   0.987
14986SOL    HW146399   5.234   5.586   0.926
14986SOL    HW246400   5.290   5.478   1.016
14987SOL     OW46401   4.447   4.282   1.692
14987SOL    HW146402   4.489   4.336   1.759
14987SOL    HW246403   4.455   4.192   1.727
14988SOL     OW46404   5.193   4.916   1.628
14988SOL    HW146405   5.180   4.930   1.722
14988SOL    HW246406   5.285   4.936   1.613
14989SOL     OW46407   4.091   5.466   1.575
14989SOL    HW146408   4.008   5.512   1.560
14989SOL    HW246409   4.066   5.384   1.616
14990SOL     OW46410   5.386   4.603   1.253
14990SOL    HW146411   5.383   4.517   1.210
14990SOL    HW246412   5.377   4.666   1.182
14991SOL     OW46413   4.945   4.036   0.454
14991SOL    HW146414   5.007   3.962   0.453
14991SOL    HW246415   4.968   4.085   0.533
14992SOL     OW46416   4.285   4.479   0.678
14992SOL    HW146417   4.335   4.557   0.656
14992SOL    HW246418   4.229   4.463   0.602
14993SOL     OW46419   5.477   4.087   1.643
14993SOL    HW146420   5.454   4.104   1.552
14993SOL    HW246421   5.407   4.030   1.675
14994SOL     OW46422   5.475   4.658   1.508
14994SOL    HW146423   5.455   4.751   1.521
14994SOL    HW246424   5.453   4.642   1.416
14995SOL     OW46425   4.641   5.092   0.064
14995SOL    HW146426   4.583   5.075   0.138
14995SOL    HW246427   4.624   5.183   0.041
14996SOL     OW46428   4.388   5.503   0.933
14996SOL    HW146429   4.371   5.596   0.917
14996SOL    HW246430   4.483   5.494   0.928
14997SOL     OW46431   4.593   4.692   0.853
14997SOL    HW146432   4.647   4.623   0.891
14997SOL    HW246433   4.562   4.742   0.928
14998SOL     OW46434   4.809   4.712   0.074
14998SOL    HW146435   4.850   4.785   0.027
14998SOL    HW246436   4.879   4.647   0.083
14999SOL     OW46437   5.568   5.276   0.839
14999SOL    HW146438   5.486   5.264   0.793
14999SOL    HW246439   5.567   5.208   0.907
15000SOL     OW46440   3.961   5.023   1.858
15000SOL    HW146441   3.888   4.963   1.841
15000SOL    HW246442   3.956   5.039   1.952
15001SOL     OW46443   3.806   4.955   0.675
15001SOL    HW146444   3.782   4.892   0.742
15001SOL    HW246445   3.870   4.909   0.621
15002SOL     OW46446   4.409   5.139   1.624
15002SOL    HW146447   4.337   5.089   1.664
15002SOL    HW246448   4.409   5.222   1.672
15003SOL     OW46449   5.535   3.909   1.231
15003SOL    HW146450   5.538   3.815   1.249
15003SOL    HW246451   5.549   3.915   1.136
15004SOL     OW46452   4.150   4.155   0.533
15004SOL    HW146453   4.187   4.087   0.477
15004SOL    HW246454   4.099   4.107   0.599
15005SOL     OW46455   5.416   5.210   1.093
15005SOL    HW146456   5.339   5.189   1.041
15005SOL    HW246457   5.420   5.141   1.160
15006SOL     OW46458   4.060   4.253   1.299
15006SOL    HW146459   4.108   4.204   1.365
15006SOL    HW246460   4.072   4.202   1.218
15007SOL     OW46461   4.555   5.296   0.680
15007SOL    HW146462   4.540   5.350   0.602
15007SOL    HW246463   4.478   5.239   0.684
15008SOL     OW46464   5.153   3.957   1.117
15008SOL    HW146465   5.174   3.877   1.165
15008SOL    HW246466   5.104   4.010   1.180
15009SOL     OW46467   4.737   3.745   1.130
15009SOL    HW146468   4.675   3.678   1.101
15009SOL    HW246469   4.822   3.703   1.127
15010SOL     OW46470   4.512   5.048   0.309
15010SOL    HW146471   4.478   4.960   0.327
15010SOL    HW246472   4.585   5.058   0.370
15011SOL     OW46473   4.344   5.279   1.285
15011SOL    HW146474   4.340   5.361   1.334
15011SOL    HW246475   4.433   5.274   1.252
15012SOL     OW46476   5.091   3.752   0.184
15012SOL    HW146477   5.100   3.718   0.095
15012SOL    HW246478   5.007   3.798   0.184
15013SOL     OW46479   5.002   4.184   0.673
15013SOL    HW146480   4.957   4.268   0.680
15013SOL    HW246481   5.009   4.152   0.763
15014SOL     OW46482   5.306   3.914   0.887
15014SOL    HW146483   5.253   3.940   0.963
15014SOL    HW246484   5.305   3.991   0.830
15015SOL     OW46485   3.765   4.801   0.341
15015SOL    HW146486   3.857   4.805   0.316
15015SOL    HW246487   3.754   4.713   0.377
15016SOL     OW46488   4.591   5.377   0.382
15016SOL    HW146489   4.516   5.363   0.325
15016SOL    HW246490   4.575   5.462   0.423
15017SOL     OW46491   3.936   4.358   1.996
15017SOL    HW146492   3.854   4.347   2.043
15017SOL    HW246493   3.917   4.329   1.907
15018SOL     OW46494   3.948   3.993   2.859
15018SOL    HW146495   4.009   3.940   2.910
15018SOL    HW246496   3.861   3.959   2.883
15019SOL     OW46497   3.725   4.134   2.490
15019SOL    HW146498   3.644   4.157   2.535
15019SOL    HW246499   3.714   4.041   2.468
15020SOL     OW46500   4.273   5.028   3.042
15020SOL    HW146501   4.214   4.998   3.111
15020SOL    HW246502   4.305   5.113   3.073
15021SOL     OW46503   5.295   5.245   2.579
15021SOL    HW146504   5.255   5.214   2.661
15021SOL    HW246505   5.223   5.243   2.516
15022SOL     OW46506   4.858   4.410   2.548
15022SOL    HW146507   4.894   4.498   2.560
15022SOL    HW246508   4.801   4.396   2.624
15023SOL     OW46509   5.527   4.313   2.081
15023SOL    HW146510   5.490   4.307   1.993
15023SOL    HW246511   5.476   4.250   2.133
15024SOL     OW46512   4.481   4.868   2.897
15024SOL    HW146513   4.435   4.872   2.981
15024SOL    HW246514   4.497   4.959   2.874
15025SOL     OW46515   4.410   4.721   2.507
15025SOL    HW146516   4.476   4.709   2.575
15025SOL    HW246517   4.341   4.772   2.549
15026SOL     OW46518   3.997   5.214   2.914
15026SOL    HW146519   3.956   5.130   2.892
15026SOL    HW246520   4.077   5.216   2.862
15027SOL     OW46521   5.183   5.231   3.216
15027SOL    HW146522   5.234   5.309   3.237
15027SOL    HW246523   5.113   5.230   3.281
15028SOL     OW46524   5.313   4.168   2.611
15028SOL    HW146525   5.230   4.171   2.562
15028SOL    HW246526   5.297   4.223   2.688
15029SOL     OW46527   3.938   5.455   2.325
15029SOL    HW146528   3.963   5.522   2.388
15029SOL    HW246529   4.018   5.438   2.274
15030SOL     OW46530   4.855   5.057   3.552
15030SOL    HW146531   4.870   5.045   3.645
15030SOL    HW246532   4.823   4.972   3.521
15031SOL     OW46533   3.958   5.166   2.394
15031SOL    HW146534   3.930   5.253   2.420
15031SOL    HW246535   3.914   5.107   2.455
15032SOL     OW46536   3.990   4.810   2.749
15032SOL    HW146537   4.001   4.720   2.778
15032SOL    HW246538   3.949   4.854   2.823
15033SOL     OW46539   4.325   5.522   3.289
15033SOL    HW146540   4.247   5.493   3.337
15033SOL    HW246541   4.343   5.610   3.324
15034SOL     OW46542   4.293   4.714   2.009
15034SOL    HW146543   4.348   4.750   1.940
15034SOL    HW246544   4.335   4.743   2.091
15035SOL     OW46545   5.322   3.856   3.324
15035SOL    HW146546   5.332   3.943   3.286
15035SOL    HW246547   5.285   3.871   3.411
15036SOL     OW46548   3.838   4.388   2.422
15036SOL    HW146549   3.812   4.299   2.444
15036SOL    HW246550   3.833   4.436   2.505
15037SOL     OW46551   5.567   5.472   2.183
15037SOL    HW146552   5.633   5.447   2.248
15037SOL    HW246553   5.581   5.566   2.169
15038SOL     OW46554   3.766   5.309   1.974
15038SOL    HW146555   3.749   5.217   1.993
15038SOL    HW246556   3.740   5.356   2.053
15039SOL     OW46557   5.420   4.651   2.511
15039SOL    HW146558   5.498   4.602   2.488
15039SOL    HW246559   5.396   4.697   2.431
15040SOL     OW46560   5.381   4.827   2.284
15040SOL    HW146561   5.468   4.821   2.246
15040SOL    HW246562   5.388   4.897   2.349
15041SOL     OW46563   3.853   4.482   3.414
15041SOL    HW146564   3.946   4.459   3.421
15041SOL    HW246565   3.839   4.549   3.481
15042SOL     OW46566   4.357   5.106   2.600
15042SOL    HW146567   4.308   5.025   2.612
15042SOL    HW246568   4.336   5.135   2.512
15043SOL     OW46569   5.021   4.967   3.271
15043SOL    HW146570   5.041   4.888   3.222
15043SOL    HW246571   5.069   4.956   3.354
15044SOL     OW46572   4.542   3.721   2.358
15044SOL    HW146573   4.585   3.806   2.359
15044SOL    HW246574   4.449   3.742   2.371
15045SOL     OW46575   3.901   4.663   3.121
15045SOL    HW146576   3.993   4.640   3.107
15045SOL    HW246577   3.861   4.583   3.153
15046SOL     OW46578   5.258   4.727   2.059
15046SOL    HW146579   5.187   4.671   2.091
15046SOL    HW246580   5.300   4.759   2.139
15047SOL     OW46581   4.944   5.551   3.486
15047SOL    HW146582   4.914   5.597   3.408
15047SOL    HW246583   4.938   5.458   3.463
15048SOL     OW46584   5.201   5.133   2.811
15048SOL    HW146585   5.132   5.151   2.875
15048SOL    HW246586   5.182   5.045   2.779
15049SOL     OW46587   5.370   5.490   2.437
15049SOL    HW146588   5.348   5.449   2.353
15049SOL    HW246589   5.355   5.422   2.502
15050SOL     OW46590   4.308   4.429   2.131
15050SOL    HW146591   4.320   4.519   2.103
15050SOL    HW246592   4.247   4.434   2.204
15051SOL     OW46593   4.998   4.084   2.786
15051SOL    HW146594   4.906   4.056   2.791
15051SOL    HW246595   5.039   4.045   2.864
15052SOL     OW46596   5.297   5.414   2.172
15052SOL    HW146597   5.392   5.427   2.165
15052SOL    HW246598   5.270   5.389   2.083
15053SOL     OW46599   4.522   4.346   3.272
15053SOL    HW146600   4.560   4.369   3.356
15053SOL    HW246601   4.582   4.282   3.235
15054SOL     OW46602   5.190   4.202   3.518
15054SOL    HW146603   5.163   4.245   3.600
15054SOL    HW246604   5.181   4.108   3.536
15055SOL     OW46605   4.781   4.431   2.282
15055SOL    HW146606   4.801   4.421   2.375
15055SOL    HW246607   4.698   4.384   2.270
15056SOL     OW46608   3.811   4.571   2.630
15056SOL    HW146609   3.889   4.545   2.678
15056SOL    HW246610   3.774   4.643   2.681
15057SOL     OW46611   3.843   5.585   3.442
15057SOL    HW146612   3.855   5.586   3.537
15057SOL    HW246613   3.788   5.509   3.425
15058SOL     OW46614   4.612   4.070   2.059
15058SOL    HW146615   4.661   4.121   1.994
15058SOL    HW246616   4.608   3.982   2.022
15059SOL     OW46617   5.452   4.295   3.684
15059SOL    HW146618   5.407   4.369   3.643
15059SOL    HW246619   5.445   4.224   3.620
15060SOL     OW46620   5.114   4.869   2.412
15060SOL    HW146621   5.191   4.859   2.357
15060SOL    HW246622   5.057   4.928   2.363
15061SOL     OW46623   4.259   3.931   2.753
15061SOL    HW146624   4.324   3.923   2.823
15061SOL    HW246625   4.257   4.024   2.732
15062SOL     OW46626   4.720   5.164   2.327
15062SOL    HW146627   4.695   5.247   2.285
15062SOL    HW246628   4.700   5.177   2.419
15063SOL     OW46629   4.079   5.528   2.727
15063SOL    HW146630   4.111   5.438   2.733
15063SOL    HW246631   4.148   5.580   2.767
15064SOL     OW46632   5.523   4.793   2.727
15064SOL    HW146633   5.471   4.757   2.656
15064SOL    HW246634   5.463   4.799   2.801
15065SOL     OW46635   4.960   5.260   3.375
15065SOL    HW146636   4.949   5.196   3.445
15065SOL    HW246637   4.894   5.236   3.310
15066SOL     OW46638   4.031   4.684   2.115
15066SOL    HW146639   4.119   4.695   2.080
15066SOL    HW246640   4.013   4.590   2.105
15067SOL     OW46641   5.204   4.474   2.578
15067SOL    HW146642   5.194   4.425   2.660
15067SOL    HW246643   5.282   4.527   2.592
15068SOL     OW46644   4.847   5.515   2.075
15068SOL    HW146645   4.775   5.477   2.125
15068SOL    HW246646   4.874   5.445   2.015
15069SOL     OW46647   3.911   4.105   3.348
15069SOL    HW146648   3.831   4.064   3.379
15069SOL    HW246649   3.981   4.048   3.378
15070SOL     OW46650   5.355   5.109   1.946
15070SOL    HW146651   5.309   5.192   1.940
15070SOL    HW246652   5.287   5.043   1.931
15071SOL     OW46653   4.184   5.474   2.175
15071SOL    HW146654   4.230   5.516   2.248
15071SOL    HW246655   4.251   5.421   2.132
15072SOL     OW46656   5.126   3.844   2.301
15072SOL    HW146657   5.123   3.807   2.212
15072SOL    HW246658   5.217   3.836   2.328
15073SOL     OW46659   3.969   5.527   3.070
15073SOL    HW146660   4.015   5.463   3.124
15073SOL    HW246661   3.956   5.482   2.986
15074SOL     OW46662   4.652   5.424   2.756
15074SOL    HW146663   4.675   5.361   2.824
15074SOL    HW246664   4.622   5.371   2.682
15075SOL     OW46665   4.109   4.418   2.327
15075SOL    HW146666   4.128   4.326   2.344
15075SOL    HW246667   4.018   4.430   2.355
15076SOL     OW46668   5.234   3.927   3.584
15076SOL    HW146669   5.249   3.948   3.676
15076SOL    HW246670   5.154   3.874   3.584
15077SOL     OW46671   4.379   3.837   1.962
15077SOL    HW146672   4.403   3.762   2.017
15077SOL    HW246673   4.321   3.801   1.895
15078SOL     OW46674   4.624   5.270   3.043
15078SOL    HW146675   4.585   5.214   2.976
15078SOL    HW246676   4.679   5.212   3.095
15079SOL     OW46677   5.206   4.321   3.266
15079SOL    HW146678   5.194   4.271   3.346
15079SOL    HW246679   5.142   4.392   3.272
15080SOL     OW46680   4.547   5.130   2.809
15080SOL    HW146681   4.628   5.108   2.762
15080SOL    HW246682   4.477   5.113   2.746
15081SOL     OW46683   4.680   4.250   2.765
15081SOL    HW146684   4.648   4.228   2.678
15081SOL    HW246685   4.699   4.166   2.806
15082SOL     OW46686   4.277   3.789   2.360
15082SOL    HW146687   4.220   3.782   2.437
15082SOL    HW246688   4.245   3.866   2.313
15083SOL     OW46689   5.152   4.926   1.900
15083SOL    HW146690   5.184   4.852   1.952
15083SOL    HW246691   5.067   4.948   1.940
15084SOL     OW46692   4.029   3.786   2.052
15084SOL    HW146693   4.082   3.860   2.080
15084SOL    HW246694   4.075   3.709   2.088
15085SOL     OW46695   4.664   3.980   2.322
15085SOL    HW146696   4.644   4.016   2.235
15085SOL    HW246697   4.758   3.993   2.333
15086SOL     OW46698   4.970   5.274   2.638
15086SOL    HW146699   4.975   5.357   2.591
15086SOL    HW246700   4.994   5.296   2.728
15087SOL     OW46701   4.197   4.884   2.585
15087SOL    HW146702   4.138   4.861   2.657
15087SOL    HW246703   4.145   4.869   2.506
15088SOL     OW46704   4.986   5.514   2.474
15088SOL    HW146705   5.030   5.585   2.426
15088SOL    HW246706   4.911   5.556   2.515
15089SOL     OW46707   4.755   4.246   1.886
15089SOL    HW146708   4.707   4.328   1.877
15089SOL    HW246709   4.809   4.260   1.964
15090SOL     OW46710   3.768   4.306   3.219
15090SOL    HW146711   3.819   4.231   3.248
15090SOL    HW246712   3.778   4.371   3.288
15091SOL     OW46713   4.602   4.193   2.508
15091SOL    HW146714   4.526   4.237   2.469
15091SOL    HW246715   4.611   4.112   2.458
15092SOL     OW46716   4.769   3.720   2.616
15092SOL    HW146717   4.677   3.721   2.590
15092SOL    HW246718   4.771   3.668   2.696
15093SOL     OW46719   5.147   4.885   2.705
15093SOL    HW146720   5.090   4.814   2.734
15093SOL    HW246721   5.140   4.883   2.609
15094SOL     OW46722   5.187   4.321   2.816
15094SOL    HW146723   5.120   4.256   2.835
15094SOL    HW246724   5.240   4.326   2.895
15095SOL     OW46725   5.568   4.532   2.243
15095SOL    HW146726   5.622   4.485   2.307
15095SOL    HW246727   5.545   4.466   2.178
15096SOL     OW46728   4.216   5.152   2.016
15096SOL    HW146729   4.137   5.127   2.065
15096SOL    HW246730   4.221   5.088   1.945
15097SOL     OW46731   5.419   5.015   2.467
15097SOL    HW146732   5.507   5.007   2.504
15097SOL    HW246733   5.378   5.086   2.517
15098SOL     OW46734   5.114   4.296   1.937
15098SOL    HW146735   5.047   4.277   2.002
15098SOL    HW246736   5.195   4.266   1.977
15099SOL     OW46737   4.218   3.977   2.153
15099SOL    HW146738   4.292   3.944   2.101
15099SOL    HW246739   4.202   4.065   2.118
15100SOL     OW46740   5.465   4.964   3.420
15100SOL    HW146741   5.541   4.914   3.449
15100SOL    HW246742   5.484   5.054   3.447
15101SOL     OW46743   4.794   5.109   3.202
15101SOL    HW146744   4.712   5.078   3.240
15101SOL    HW246745   4.861   5.049   3.235
15102SOL     OW46746   5.342   5.366   3.529
15102SOL    HW146747   5.329   5.390   3.437
15102SOL    HW246748   5.415   5.304   3.527
15103SOL     OW46749   4.852   4.937   2.966
15103SOL    HW146750   4.789   4.934   3.038
15103SOL    HW246751   4.799   4.946   2.887
15104SOL     OW46752   5.357   4.832   2.943
15104SOL    HW146753   5.361   4.890   3.019
15104SOL    HW246754   5.264   4.831   2.919
15105SOL     OW46755   4.437   4.787   2.236
15105SOL    HW146756   4.423   4.767   2.328
15105SOL    HW246757   4.509   4.730   2.209
15106SOL     OW46758   4.145   4.536   3.106
15106SOL    HW146759   4.204   4.549   3.180
15106SOL    HW246760   4.115   4.446   3.114
15107SOL     OW46761   3.804   5.284   3.202
15107SOL    HW146762   3.786   5.368   3.161
15107SOL    HW246763   3.900   5.278   3.205
15108SOL     OW46764   4.047   4.845   2.355
15108SOL    HW146765   4.046   4.909   2.285
15108SOL    HW246766   4.047   4.760   2.311
15109SOL     OW46767   4.274   4.234   2.708
15109SOL    HW146768   4.294   4.296   2.638
15109SOL    HW246769   4.329   4.261   2.782
15110SOL     OW46770   4.973   5.077   2.251
15110SOL    HW146771   5.028   5.146   2.289
15110SOL    HW246772   4.886   5.093   2.288
15111SOL     OW46773   5.013   5.187   3.000
15111SOL    HW146774   5.064   5.189   3.081
15111SOL    HW246775   4.947   5.119   3.015
15112SOL     OW46776   5.296   4.354   2.336
15112SOL    HW146777   5.247   4.373   2.416
15112SOL    HW246778   5.331   4.439   2.308
15113SOL     OW46779   4.070   5.296   3.165
15113SOL    HW146780   4.055   5.248   3.084
15113SOL    HW246781   4.155   5.264   3.197
15114SOL     OW46782   4.118   4.411   3.429
15114SOL    HW146783   4.189   4.471   3.404
15114SOL    HW246784   4.148   4.372   3.511
15115SOL     OW46785   5.346   4.513   3.556
15115SOL    HW146786   5.256   4.547   3.549
15115SOL    HW246787   5.386   4.536   3.472
15116SOL     OW46788   4.297   4.604   2.893
15116SOL    HW146789   4.339   4.687   2.913
15116SOL    HW246790   4.248   4.581   2.972
15117SOL     OW46791   5.045   4.578   2.870
15117SOL    HW146792   4.953   4.553   2.862
15117SOL    HW246793   5.092   4.494   2.872
15118SOL     OW46794   4.913   4.253   2.118
15118SOL    HW146795   4.925   4.177   2.175
15118SOL    HW246796   4.873   4.319   2.175
15119SOL     OW46797   3.742   5.028   3.130
15119SOL    HW146798   3.785   4.968   3.191
15119SOL    HW246799   3.765   5.115   3.161
15120SOL     OW46800   4.433   4.336   2.902
15120SOL    HW146801   4.526   4.326   2.883
15120SOL    HW246802   4.421   4.431   2.912
15121SOL     OW46803   5.472   4.699   3.715
15121SOL    HW146804   5.431   4.626   3.667
15121SOL    HW246805   5.413   4.717   3.788
15122SOL     OW46806   4.004   3.792   2.472
15122SOL    HW146807   3.991   3.879   2.510
15122SOL    HW246808   4.045   3.741   2.543
15123SOL     OW46809   5.359   4.116   2.216
15123SOL    HW146810   5.375   4.047   2.280
15123SOL    HW246811   5.328   4.190   2.267
15124SOL     OW46812   4.767   4.497   2.853
15124SOL    HW146813   4.750   4.508   2.946
15124SOL    HW246814   4.743   4.406   2.835
15125SOL     OW46815   4.731   5.309   3.566
15125SOL    HW146816   4.702   5.344   3.482
15125SOL    HW246817   4.754   5.218   3.547
15126SOL     OW46818   5.572   5.217   3.471
15126SOL    HW146819   5.595   5.252   3.384
15126SOL    HW246820   5.651   5.229   3.523
15127SOL     OW46821   4.053   4.691   3.619
15127SOL    HW146822   4.100   4.768   3.650
15127SOL    HW246823   4.056   4.630   3.693
15128SOL     OW46824   5.257   3.998   1.987
15128SOL    HW146825   5.195   3.931   2.016
15128SOL    HW246826   5.290   4.037   2.068
15129SOL     OW46827   5.000   4.544   1.884
15129SOL    HW146828   5.042   4.459   1.897
15129SOL    HW246829   5.040   4.579   1.805
15130SOL     OW46830   4.774   5.075   2.680
15130SOL    HW146831   4.790   4.992   2.635
15130SOL    HW246832   4.852   5.127   2.660
15131SOL     OW46833   4.039   4.535   2.785
15131SOL    HW146834   4.129   4.552   2.814
15131SOL    HW246835   4.023   4.444   2.812
15132SOL     OW46836   4.018   4.259   2.819
15132SOL    HW146837   3.995   4.172   2.852
15132SOL    HW246838   4.107   4.249   2.785
15133SOL     OW46839   3.729   5.035   2.048
15133SOL    HW146840   3.641   5.052   2.015
15133SOL    HW246841   3.725   4.948   2.086
15134SOL     OW46842   3.811   5.505   2.790
15134SOL    HW146843   3.783   5.422   2.753
15134SOL    HW246844   3.904   5.512   2.767
15135SOL     OW46845   4.216   5.294   2.756
15135SOL    HW146846   4.283   5.355   2.787
15135SOL    HW246847   4.266   5.221   2.718
15136SOL     OW46848   4.706   4.531   3.123
15136SOL    HW146849   4.747   4.564   3.203
15136SOL    HW246850   4.659   4.453   3.152
15137SOL     OW46851   3.766   4.346   2.948
15137SOL    HW146852   3.849   4.314   2.912
15137SOL    HW246853   3.771   4.326   3.042
15138SOL     OW46854   3.901   4.233   3.601
15138SOL    HW146855   3.938   4.193   3.522
15138SOL    HW246856   3.851   4.308   3.569
15139SOL     OW46857   5.109   4.649   3.519
15139SOL    HW146858   5.104   4.745   3.520
15139SOL    HW246859   5.088   4.625   3.429
15140SOL     OW46860   4.552   4.307   2.203
15140SOL    HW146861   4.552   4.221   2.160
15140SOL    HW246862   4.466   4.344   2.184
15141SOL     OW46863   5.346   4.348   3.033
15141SOL    HW146864   5.304   4.320   3.115
15141SOL    HW246865   5.427   4.297   3.030
15142SOL     OW46866   3.968   5.273   3.597
15142SOL    HW146867   3.949   5.321   3.678
15142SOL    HW246868   3.966   5.181   3.623
15143SOL     OW46869   4.333   4.140   3.071
15143SOL    HW146870   4.409   4.118   3.125
15143SOL    HW246871   4.362   4.214   3.017
15144SOL     OW46872   4.650   5.416   3.327
15144SOL    HW146873   4.627   5.362   3.251
15144SOL    HW246874   4.624   5.505   3.303
15145SOL     OW46875   4.173   4.213   2.017
15145SOL    HW146876   4.235   4.278   2.051
15145SOL    HW246877   4.088   4.257   2.021
15146SOL     OW46878   3.869   4.862   3.309
15146SOL    HW146879   3.861   4.820   3.395
15146SOL    HW246880   3.887   4.790   3.249
15147SOL     OW46881   5.064   4.782   3.049
15147SOL    HW146882   5.057   4.707   2.990
15147SOL    HW246883   4.991   4.838   3.025
15148SOL     OW46884   5.045   4.589   2.163
15148SOL    HW146885   4.985   4.557   2.231
15148SOL    HW246886   5.003   4.565   2.081
15149SOL     OW46887   5.506   5.455   3.022
15149SOL    HW146888   5.563   5.477   2.948
15149SOL    HW246889   5.475   5.367   3.002
15150SOL     OW46890   4.963   5.461   2.957
15150SOL    HW146891   5.050   5.480   2.923
15150SOL    HW246892   4.968   5.370   2.985
15151SOL     OW46893   3.804   5.001   2.865
15151SOL    HW146894   3.786   5.008   2.959
15151SOL    HW246895   3.747   4.931   2.834
15152SOL     OW46896   4.409   5.414   3.597
15152SOL    HW146897   4.351   5.489   3.591
15152SOL    HW246898   4.477   5.430   3.532
15153SOL     OW46899   5.444   3.884   2.364
15153SOL    HW146900   5.516   3.865   2.303
15153SOL    HW246901   5.427   3.800   2.407
15154SOL     OW46902   5.116   5.294   2.349
15154SOL    HW146903   5.171   5.338   2.284
15154SOL    HW246904   5.065   5.365   2.388
15155SOL     OW46905   3.870   5.556   3.706
15155SOL    HW146906   3.820   5.482   3.740
15155SOL    HW246907   3.924   5.585   3.779
15156SOL     OW46908   4.999   4.649   2.528
15156SOL    HW146909   5.070   4.587   2.545
15156SOL    HW246910   5.041   4.721   2.480
15157SOL     OW46911   4.545   5.049   3.274
15157SOL    HW146912   4.479   5.076   3.337
15157SOL    HW246913   4.528   4.956   3.259
15158SOL     OW46914   4.391   5.360   2.016
15158SOL    HW146915   4.406   5.369   1.922
15158SOL    HW246916   4.338   5.280   2.025
15159SOL     OW46917   5.345   5.454   3.258
15159SOL    HW146918   5.397   5.457   3.177
15159SOL    HW246919   5.332   5.546   3.282
15160SOL     OW46920   5.566   3.892   2.819
15160SOL    HW146921   5.585   3.800   2.800
15160SOL    HW246922   5.473   3.902   2.796
15161SOL     OW46923   3.980   4.041   2.583
15161SOL    HW146924   3.898   4.091   2.573
15161SOL    HW246925   3.987   4.025   2.677
15162SOL     OW46926   4.932   5.319   1.898
15162SOL    HW146927   4.920   5.230   1.932
15162SOL    HW246928   4.862   5.330   1.834
15163SOL     OW46929   4.557   4.777   3.196
15163SOL    HW146930   4.600   4.706   3.149
15163SOL    HW246931   4.545   4.743   3.285
15164SOL     OW46932   4.634   4.630   2.132
15164SOL    HW146933   4.704   4.671   2.081
15164SOL    HW246934   4.679   4.567   2.188
15165SOL     OW46935   5.208   5.364   1.910
15165SOL    HW146936   5.115   5.345   1.896
15165SOL    HW246937   5.246   5.366   1.822
15166SOL     OW46938   4.110   5.013   3.273
15166SOL    HW146939   4.154   5.032   3.355
15166SOL    HW246940   4.034   4.960   3.298
15167SOL     OW46941   5.353   5.018   3.156
15167SOL    HW146942   5.387   4.987   3.240
15167SOL    HW246943   5.280   5.075   3.179
15168SOL     OW46944   4.791   4.829   2.568
15168SOL    HW146945   4.719   4.783   2.611
15168SOL    HW246946   4.857   4.761   2.552
15169SOL     OW46947   4.746   3.966   2.794
15169SOL    HW146948   4.756   3.900   2.725
15169SOL    HW246949   4.702   3.919   2.864
15170SOL     OW46950   4.339   5.220   2.332
15170SOL    HW146951   4.385   5.164   2.270
15170SOL    HW246952   4.247   5.212   2.309
15171SOL     OW46953   5.469   4.100   3.252
15171SOL    HW146954   5.527   4.175   3.241
15171SOL    HW246955   5.500   4.037   3.187
15172SOL     OW46956   3.982   5.074   2.144
15172SOL    HW146957   3.889   5.062   2.124
15172SOL    HW246958   3.983   5.110   2.233
15173SOL     OW46959   3.796   4.735   3.544
15173SOL    HW146960   3.735   4.733   3.618
15173SOL    HW246961   3.883   4.725   3.583
15174SOL     OW46962   3.813   4.043   1.893
15174SOL    HW146963   3.718   4.037   1.902
15174SOL    HW246964   3.828   4.124   1.845
15175SOL     OW46965   5.146   4.605   3.250
15175SOL    HW146966   5.098   4.663   3.191
15175SOL    HW246967   5.233   4.598   3.211
15176SOL     OW46968   3.781   3.870   2.167
15176SOL    HW146969   3.780   3.958   2.131
15176SOL    HW246970   3.869   3.837   2.148
15177SOL     OW46971   4.903   5.053   1.985
15177SOL    HW146972   4.824   4.999   1.991
15177SOL    HW246973   4.933   5.061   2.076
15178SOL     OW46974   4.335   4.543   3.298
15178SOL    HW146975   4.391   4.597   3.354
15178SOL    HW246976   4.387   4.466   3.278
15179SOL     OW46977   5.212   5.519   2.854
15179SOL    HW146978   5.247   5.582   2.792
15179SOL    HW246979   5.288   5.471   2.886
15180SOL     OW46980   5.188   4.927   3.492
15180SOL    HW146981   5.173   4.938   3.586
15180SOL    HW246982   5.283   4.939   3.481
15181SOL     OW46983   4.098   5.465   3.440
15181SOL    HW146984   4.012   5.503   3.422
15181SOL    HW246985   4.078   5.382   3.483
15182SOL     OW46986   5.396   4.606   3.115
15182SOL    HW146987   5.381   4.519   3.078
15182SOL    HW246988   5.383   4.666   3.042
15183SOL     OW46989   4.945   4.055   2.311
15183SOL    HW146990   5.003   3.978   2.309
15183SOL    HW246991   4.970   4.101   2.391
15184SOL     OW46992   4.329   4.439   2.511
15184SOL    HW146993   4.359   4.529   2.519
15184SOL    HW246994   4.247   4.445   2.461
15185SOL     OW46995   5.471   4.065   3.521
15185SOL    HW146996   5.461   4.088   3.428
15185SOL    HW246997   5.390   4.018   3.543
15186SOL     OW46998   5.499   4.655   3.362
15186SOL    HW146999   5.454   4.736   3.386
15186SOL    HW247000   5.468   4.636   3.274
15187SOL     OW47001   4.566   5.089   1.909
15187SOL    HW147002   4.546   5.091   2.002
15187SOL    HW247003   4.593   5.178   1.888
15188SOL     OW47004   4.381   5.520   2.782
15188SOL    HW147005   4.374   5.615   2.774
15188SOL    HW247006   4.475   5.503   2.789
15189SOL     OW47007   4.601   4.696   2.715
15189SOL    HW147008   4.646   4.626   2.761
15189SOL    HW247009   4.557   4.746   2.784
15190SOL     OW47010   4.812   4.731   1.950
15190SOL    HW147011   4.785   4.771   1.866
15190SOL    HW247012   4.877   4.666   1.925
15191SOL     OW47013   5.560   5.276   2.704
15191SOL    HW147014   5.477   5.264   2.658
15191SOL    HW247015   5.557   5.212   2.776
15192SOL     OW47016   3.921   5.033   3.712
15192SOL    HW147017   4.003   4.985   3.712
15192SOL    HW247018   3.877   5.006   3.793
15193SOL     OW47019   3.831   4.951   2.527
15193SOL    HW147020   3.831   4.918   2.617
15193SOL    HW247021   3.896   4.897   2.482
15194SOL     OW47022   4.370   5.155   3.462
15194SOL    HW147023   4.361   5.100   3.540
15194SOL    HW247024   4.371   5.245   3.495
15195SOL     OW47025   5.566   3.904   3.093
15195SOL    HW147026   5.525   3.819   3.111
15195SOL    HW247027   5.562   3.912   2.998
15196SOL     OW47028   4.139   4.157   2.380
15196SOL    HW147029   4.170   4.079   2.336
15196SOL    HW247030   4.099   4.125   2.461
15197SOL     OW47031   5.420   5.206   2.957
15197SOL    HW147032   5.343   5.183   2.905
15197SOL    HW247033   5.420   5.144   3.030
15198SOL     OW47034   4.086   4.271   3.139
15198SOL    HW147035   4.058   4.248   3.228
15198SOL    HW247036   4.161   4.215   3.122
15199SOL     OW47037   4.548   5.298   2.529
15199SOL    HW147038   4.490   5.324   2.458
15199SOL    HW247039   4.501   5.228   2.574
15200SOL     OW47040   5.130   3.964   2.995
15200SOL    HW147041   5.119   3.878   3.035
15200SOL    HW247042   5.067   4.020   3.042
15201SOL     OW47043   4.508   5.053   2.179
15201SOL    HW147044   4.482   4.962   2.197
15201SOL    HW247045   4.584   5.068   2.235
15202SOL     OW47046   4.353   5.288   3.133
15202SOL    HW147047   4.347   5.365   3.188
15202SOL    HW247048   4.447   5.273   3.123
15203SOL     OW47049   5.092   3.775   2.028
15203SOL    HW147050   5.127   3.694   1.992
15203SOL    HW247051   5.001   3.755   2.048
15204SOL     OW47052   5.032   4.188   2.538
15204SOL    HW147053   4.975   4.265   2.540
15204SOL    HW247054   5.018   4.146   2.623
15205SOL     OW47055   5.299   3.923   2.772
15205SOL    HW147056   5.240   3.944   2.844
15205SOL    HW247057   5.288   3.996   2.711
15206SOL     OW47058   3.767   4.781   2.158
15206SOL    HW147059   3.861   4.769   2.142
15206SOL    HW247060   3.736   4.695   2.184
15207SOL     OW47061   4.622   5.391   2.192
15207SOL    HW147062   4.542   5.371   2.144
15207SOL    HW247063   4.595   5.456   2.258
15208SOL     OW47064   3.923   4.403   3.815
15208SOL    HW147065   3.857   4.379   3.880
15208SOL    HW247066   3.932   4.324   3.761
15209SOL     OW47067   3.942   4.001   4.712
15209SOL    HW147068   3.987   3.990   4.795
15209SOL    HW247069   3.850   3.985   4.733
15210SOL     OW47070   3.710   4.103   4.350
15210SOL    HW147071   3.630   4.131   4.394
15210SOL    HW247072   3.693   4.013   4.322
15211SOL     OW47073   4.280   5.038   4.836
15211SOL    HW147074   4.218   4.974   4.871
15211SOL    HW247075   4.286   5.105   4.904
15212SOL     OW47076   5.296   5.251   4.444
15212SOL    HW147077   5.252   5.216   4.521
15212SOL    HW247078   5.229   5.249   4.375
15213SOL     OW47079   4.881   4.390   4.426
15213SOL    HW147080   4.896   4.484   4.428
15213SOL    HW247081   4.827   4.372   4.503
15214SOL     OW47082   5.535   4.314   3.941
15214SOL    HW147083   5.500   4.311   3.851
15214SOL    HW247084   5.476   4.258   3.991
15215SOL     OW47085   4.644   4.510   5.562
15215SOL    HW147086   4.581   4.579   5.581
15215SOL    HW247087   4.619   4.477   5.476
15216SOL     OW47088   4.012   5.208   4.775
15216SOL    HW147089   3.985   5.122   4.744
15216SOL    HW247090   4.087   5.232   4.720
15217SOL     OW47091   5.182   5.226   5.082
15217SOL    HW147092   5.226   5.308   5.105
15217SOL    HW247093   5.112   5.218   5.147
15218SOL     OW47094   4.185   4.122   5.215
15218SOL    HW147095   4.237   4.044   5.236
15218SOL    HW247096   4.096   4.088   5.203
15219SOL     OW47097   5.329   4.176   4.470
15219SOL    HW147098   5.246   4.183   4.423
15219SOL    HW247099   5.318   4.232   4.547
15220SOL     OW47100   3.943   5.458   4.174
15220SOL    HW147101   3.970   5.520   4.241
15220SOL    HW247102   4.024   5.433   4.130
15221SOL     OW47103   4.854   5.055   5.413
15221SOL    HW147104   4.892   5.028   5.496
15221SOL    HW247105   4.760   5.042   5.425
15222SOL     OW47106   4.324   5.523   5.154
15222SOL    HW147107   4.244   5.497   5.201
15222SOL    HW247108   4.343   5.611   5.186
15223SOL     OW47109   5.302   3.852   5.177
15223SOL    HW147110   5.225   3.893   5.137
15223SOL    HW247111   5.292   3.869   5.270
15224SOL     OW47112   3.790   4.351   4.259
15224SOL    HW147113   3.768   4.263   4.288
15224SOL    HW247114   3.863   4.378   4.315
15225SOL     OW47115   5.568   5.471   4.041
15225SOL    HW147116   5.631   5.445   4.109
15225SOL    HW247117   5.583   5.565   4.030
15226SOL     OW47118   3.754   5.347   3.830
15226SOL    HW147119   3.748   5.256   3.860
15226SOL    HW247120   3.725   5.398   3.906
15227SOL     OW47121   5.424   4.657   4.374
15227SOL    HW147122   5.480   4.592   4.331
15227SOL    HW247123   5.385   4.707   4.303
15228SOL     OW47124   5.368   4.823   4.154
15228SOL    HW147125   5.451   4.820   4.106
15228SOL    HW247126   5.377   4.898   4.213
15229SOL     OW47127   4.339   5.092   4.483
15229SOL    HW147128   4.289   5.023   4.528
15229SOL    HW247129   4.318   5.080   4.390
15230SOL     OW47130   5.013   4.976   5.125
15230SOL    HW147131   5.053   4.908   5.071
15230SOL    HW247132   5.050   4.962   5.213
15231SOL     OW47133   5.270   4.730   3.907
15231SOL    HW147134   5.202   4.662   3.901
15231SOL    HW247135   5.282   4.743   4.001
15232SOL     OW47136   4.964   5.553   5.347
15232SOL    HW147137   4.914   5.587   5.273
15232SOL    HW247138   4.952   5.458   5.342
15233SOL     OW47139   4.047   3.996   5.533
15233SOL    HW147140   4.114   4.059   5.559
15233SOL    HW247141   3.964   4.037   5.558
15234SOL     OW47142   5.197   5.140   4.673
15234SOL    HW147143   5.127   5.152   4.737
15234SOL    HW247144   5.182   5.052   4.637
15235SOL     OW47145   5.373   5.491   4.295
15235SOL    HW147146   5.347   5.453   4.211
15235SOL    HW247147   5.357   5.421   4.359
15236SOL     OW47148   5.296   5.419   4.033
15236SOL    HW147149   5.390   5.429   4.024
15236SOL    HW247150   5.265   5.395   3.946
15237SOL     OW47151   4.554   4.320   5.213
15237SOL    HW147152   4.518   4.308   5.300
15237SOL    HW247153   4.508   4.255   5.159
15238SOL     OW47154   5.180   4.210   5.389
15238SOL    HW147155   5.159   4.255   5.471
15238SOL    HW247156   5.106   4.152   5.374
15239SOL     OW47157   4.792   4.378   4.160
15239SOL    HW147158   4.805   4.362   4.254
15239SOL    HW247159   4.711   4.332   4.139
15240SOL     OW47160   3.849   5.596   5.300
15240SOL    HW147161   3.843   5.589   5.396
15240SOL    HW247162   3.801   5.520   5.268
15241SOL     OW47163   5.464   4.302   5.532
15241SOL    HW147164   5.414   4.378   5.501
15241SOL    HW247165   5.431   4.229   5.479
15242SOL     OW47166   5.103   4.865   4.276
15242SOL    HW147167   5.175   4.848   4.215
15242SOL    HW247168   5.043   4.922   4.228
15243SOL     OW47169   4.748   5.196   4.200
15243SOL    HW147170   4.706   5.263   4.146
15243SOL    HW247171   4.702   5.201   4.284
15244SOL     OW47172   4.083   5.535   4.590
15244SOL    HW147173   4.119   5.446   4.597
15244SOL    HW247174   4.153   5.591   4.624
15245SOL     OW47175   5.523   4.807   4.588
15245SOL    HW147176   5.474   4.763   4.518
15245SOL    HW247177   5.462   4.809   4.661
15246SOL     OW47178   4.957   5.261   5.251
15246SOL    HW147179   4.940   5.194   5.318
15246SOL    HW247180   4.883   5.255   5.192
15247SOL     OW47181   4.036   4.645   3.913
15247SOL    HW147182   4.073   4.557   3.913
15247SOL    HW247183   3.951   4.636   3.954
15248SOL     OW47184   5.215   4.473   4.443
15248SOL    HW147185   5.202   4.434   4.529
15248SOL    HW247186   5.283   4.539   4.457
15249SOL     OW47187   4.855   5.508   3.941
15249SOL    HW147188   4.776   5.479   3.987
15249SOL    HW247189   4.876   5.437   3.881
15250SOL     OW47190   3.932   4.030   5.194
15250SOL    HW147191   3.855   4.080   5.167
15250SOL    HW247192   3.909   3.995   5.280
15251SOL     OW47193   5.360   5.113   3.809
15251SOL    HW147194   5.312   5.196   3.803
15251SOL    HW247195   5.293   5.046   3.796
15252SOL     OW47196   4.188   5.447   4.041
15252SOL    HW147197   4.246   5.498   4.098
15252SOL    HW247198   4.247   5.404   3.979
15253SOL     OW47199   5.151   3.835   4.153
15253SOL    HW147200   5.139   3.814   4.060
15253SOL    HW247201   5.244   3.860   4.160
15254SOL     OW47202   3.995   5.526   4.934
15254SOL    HW147203   4.027   5.452   4.985
15254SOL    HW247204   3.964   5.486   4.852
15255SOL     OW47205   4.652   5.428   4.613
15255SOL    HW147206   4.673   5.359   4.676
15255SOL    HW247207   4.619   5.382   4.536
15256SOL     OW47208   5.257   3.907   5.449
15256SOL    HW147209   5.258   3.944   5.537
15256SOL    HW247210   5.173   3.861   5.443
15257SOL     OW47211   4.479   4.006   5.482
15257SOL    HW147212   4.565   3.964   5.475
15257SOL    HW247213   4.436   3.961   5.554
15258SOL     OW47214   4.609   5.261   4.937
15258SOL    HW147215   4.589   5.220   4.853
15258SOL    HW247216   4.666   5.199   4.981
15259SOL     OW47217   5.180   4.336   5.144
15259SOL    HW147218   5.194   4.283   5.223
15259SOL    HW247219   5.086   4.355   5.144
15260SOL     OW47220   4.561   5.155   4.689
15260SOL    HW147221   4.632   5.114   4.639
15260SOL    HW247222   4.482   5.106   4.663
15261SOL     OW47223   5.152   4.935   3.765
15261SOL    HW147224   5.184   4.858   3.812
15261SOL    HW247225   5.065   4.950   3.800
15262SOL     OW47226   4.958   5.277   4.506
15262SOL    HW147227   4.964   5.355   4.452
15262SOL    HW247228   4.987   5.305   4.593
15263SOL     OW47229   4.985   5.516   4.342
15263SOL    HW147230   5.021   5.583   4.285
15263SOL    HW247231   4.906   5.554   4.379
15264SOL     OW47232   5.151   4.900   4.554
15264SOL    HW147233   5.116   4.821   4.595
15264SOL    HW247234   5.130   4.890   4.461
15265SOL     OW47235   5.223   4.311   4.687
15265SOL    HW147236   5.171   4.237   4.719
15265SOL    HW247237   5.276   4.337   4.762
15266SOL     OW47238   5.588   4.536   4.102
15266SOL    HW147239   5.635   4.483   4.166
15266SOL    HW247240   5.550   4.472   4.041
15267SOL     OW47241   5.420   5.021   4.323
15267SOL    HW147242   5.505   5.013   4.366
15267SOL    HW247243   5.373   5.085   4.376
15268SOL     OW47244   5.119   4.287   3.771
15268SOL    HW147245   5.045   4.274   3.830
15268SOL    HW247246   5.194   4.250   3.818
15269SOL     OW47247   5.459   4.973   5.286
15269SOL    HW147248   5.514   4.903   5.320
15269SOL    HW247249   5.498   5.053   5.320
15270SOL     OW47250   4.769   5.099   5.098
15270SOL    HW147251   4.720   5.070   5.175
15270SOL    HW247252   4.854   5.056   5.107
15271SOL     OW47253   5.348   5.372   5.395
15271SOL    HW147254   5.330   5.391   5.303
15271SOL    HW247255   5.417   5.306   5.394
15272SOL     OW47256   4.852   4.953   4.823
15272SOL    HW147257   4.773   4.938   4.875
15272SOL    HW247258   4.819   4.978   4.736
15273SOL     OW47259   5.364   4.843   4.815
15273SOL    HW147260   5.374   4.900   4.891
15273SOL    HW247261   5.270   4.827   4.809
15274SOL     OW47262   4.640   3.808   5.158
15274SOL    HW147263   4.674   3.826   5.070
15274SOL    HW247264   4.699   3.854   5.217
15275SOL     OW47265   3.806   5.339   5.117
15275SOL    HW147266   3.765   5.353   5.031
15275SOL    HW247267   3.895   5.310   5.096
15276SOL     OW47268   4.975   5.076   4.113
15276SOL    HW147269   5.036   5.139   4.151
15276SOL    HW247270   4.889   5.101   4.148
15277SOL     OW47271   5.008   5.185   4.865
15277SOL    HW147272   5.056   5.180   4.947
15277SOL    HW247273   4.950   5.108   4.866
15278SOL     OW47274   5.291   4.366   4.192
15278SOL    HW147275   5.265   4.387   4.282
15278SOL    HW247276   5.237   4.423   4.138
15279SOL     OW47277   4.058   5.275   5.032
15279SOL    HW147278   4.040   5.237   4.946
15279SOL    HW247279   4.152   5.262   5.045
15280SOL     OW47280   5.334   4.521   5.403
15280SOL    HW147281   5.251   4.564   5.424
15280SOL    HW247282   5.320   4.482   5.317
15281SOL     OW47283   4.717   3.875   5.473
15281SOL    HW147284   4.795   3.925   5.449
15281SOL    HW247285   4.751   3.795   5.514
15282SOL     OW47286   4.202   3.761   5.497
15282SOL    HW147287   4.168   3.707   5.425
15282SOL    HW247288   4.146   3.839   5.497
15283SOL     OW47289   5.099   4.599   4.719
15283SOL    HW147290   5.005   4.587   4.728
15283SOL    HW247291   5.138   4.530   4.773
15284SOL     OW47292   4.956   4.246   3.979
15284SOL    HW147293   4.961   4.173   4.041
15284SOL    HW247294   4.892   4.306   4.017
15285SOL     OW47295   4.043   3.927   4.960
15285SOL    HW147296   3.996   3.965   5.035
15285SOL    HW247297   4.023   3.834   4.965
15286SOL     OW47298   3.753   5.051   4.972
15286SOL    HW147299   3.740   4.956   4.969
15286SOL    HW247300   3.770   5.069   5.065
15287SOL     OW47301   5.467   4.699   5.571
15287SOL    HW147302   5.426   4.632   5.516
15287SOL    HW247303   5.406   4.709   5.644
15288SOL     OW47304   5.361   4.122   4.082
15288SOL    HW147305   5.374   4.059   4.153
15288SOL    HW247306   5.326   4.200   4.125
15289SOL     OW47307   4.714   5.318   5.447
15289SOL    HW147308   4.695   5.334   5.354
15289SOL    HW247309   4.671   5.234   5.466
15290SOL     OW47310   5.582   5.220   5.335
15290SOL    HW147311   5.601   5.266   5.252
15290SOL    HW247312   5.662   5.229   5.386
15291SOL     OW47313   5.275   3.989   3.849
15291SOL    HW147314   5.201   3.935   3.875
15291SOL    HW247315   5.296   4.040   3.928
15292SOL     OW47316   5.085   4.560   3.773
15292SOL    HW147317   5.094   4.465   3.767
15292SOL    HW247318   5.085   4.590   3.682
15293SOL     OW47319   4.786   5.062   4.570
15293SOL    HW147320   4.792   4.988   4.509
15293SOL    HW247321   4.849   5.126   4.536
15294SOL     OW47322   4.879   4.153   5.377
15294SOL    HW147323   4.828   4.176   5.455
15294SOL    HW247324   4.869   4.229   5.319
15295SOL     OW47325   4.912   3.917   5.240
15295SOL    HW147326   4.893   4.006   5.272
15295SOL    HW247327   4.932   3.929   5.147
15296SOL     OW47328   3.820   5.515   4.673
15296SOL    HW147329   3.783   5.437   4.632
15296SOL    HW247330   3.910   5.520   4.639
15297SOL     OW47331   4.221   5.302   4.623
15297SOL    HW147332   4.291   5.360   4.655
15297SOL    HW247333   4.268   5.230   4.581
15298SOL     OW47334   5.104   4.665   5.414
15298SOL    HW147335   5.109   4.760   5.398
15298SOL    HW247336   5.053   4.631   5.340
15299SOL     OW47337   5.352   4.356   4.919
15299SOL    HW147338   5.304   4.327   4.996
15299SOL    HW247339   5.426   4.296   4.911
15300SOL     OW47340   3.950   5.306   5.477
15300SOL    HW147341   3.911   5.354   5.550
15300SOL    HW247342   3.985   5.226   5.517
15301SOL     OW47343   4.404   4.169   5.045
15301SOL    HW147344   4.335   4.118   5.089
15301SOL    HW247345   4.361   4.252   5.023
15302SOL     OW47346   4.657   5.405   5.181
15302SOL    HW147347   4.636   5.357   5.101
15302SOL    HW247348   4.618   5.491   5.168
15303SOL     OW47349   5.093   4.837   4.889
15303SOL    HW147350   5.079   4.742   4.896
15303SOL    HW247351   5.007   4.872   4.866
15304SOL     OW47352   5.037   4.573   4.053
15304SOL    HW147353   4.961   4.536   4.098
15304SOL    HW247354   5.014   4.568   3.960
15305SOL     OW47355   5.513   5.445   4.888
15305SOL    HW147356   5.564   5.472   4.812
15305SOL    HW247357   5.475   5.361   4.864
15306SOL     OW47358   4.960   5.460   4.834
15306SOL    HW147359   5.048   5.480   4.799
15306SOL    HW247360   4.964   5.367   4.857
15307SOL     OW47361   4.397   5.408   5.485
15307SOL    HW147362   4.353   5.486   5.451
15307SOL    HW247363   4.446   5.374   5.410
15308SOL     OW47364   5.439   3.890   4.233
15308SOL    HW147365   5.512   3.864   4.177
15308SOL    HW247366   5.419   3.813   4.286
15309SOL     OW47367   5.127   5.292   4.220
15309SOL    HW147368   5.171   5.336   4.147
15309SOL    HW247369   5.063   5.357   4.251
15310SOL     OW47370   3.844   5.583   5.572
15310SOL    HW147371   3.804   5.506   5.611
15310SOL    HW247372   3.912   5.610   5.636
15311SOL     OW47373   4.994   4.644   4.400
15311SOL    HW147374   5.067   4.582   4.410
15311SOL    HW247375   5.029   4.714   4.346
15312SOL     OW47376   4.355   5.325   3.863
15312SOL    HW147377   4.380   5.347   3.774
15312SOL    HW247378   4.338   5.230   3.860
15313SOL     OW47379   5.346   5.453   5.121
15313SOL    HW147380   5.398   5.453   5.040
15313SOL    HW247381   5.337   5.546   5.143
15314SOL     OW47382   5.563   3.891   4.688
15314SOL    HW147383   5.589   3.803   4.662
15314SOL    HW247384   5.476   3.903   4.650
15315SOL     OW47385   3.947   3.963   4.445
15315SOL    HW147386   3.890   4.034   4.415
15315SOL    HW247387   3.953   3.975   4.539
15316SOL     OW47388   4.939   5.320   3.753
15316SOL    HW147389   4.925   5.232   3.786
15316SOL    HW247390   4.871   5.333   3.687
15317SOL     OW47391   5.210   5.368   3.774
15317SOL    HW147392   5.118   5.347   3.759
15317SOL    HW247393   5.248   5.370   3.686
15318SOL     OW47394   5.377   5.034   5.030
15318SOL    HW147395   5.394   4.990   5.114
15318SOL    HW247396   5.296   5.082   5.045
15319SOL     OW47397   4.791   4.835   4.424
15319SOL    HW147398   4.719   4.797   4.475
15319SOL    HW247399   4.852   4.762   4.411
15320SOL     OW47400   4.398   5.242   4.177
15320SOL    HW147401   4.409   5.150   4.152
15320SOL    HW247402   4.310   5.265   4.148
15321SOL     OW47403   5.461   4.134   5.095
15321SOL    HW147404   5.538   4.191   5.096
15321SOL    HW247405   5.488   4.057   5.044
15322SOL     OW47406   4.388   3.916   5.235
15322SOL    HW147407   4.473   3.895   5.195
15322SOL    HW247408   4.411   3.953   5.321
15323SOL     OW47409   3.762   4.028   3.727
15323SOL    HW147410   3.706   4.068   3.793
15323SOL    HW247411   3.823   4.098   3.702
15324SOL     OW47412   5.246   4.605   5.105
15324SOL    HW147413   5.159   4.629   5.137
15324SOL    HW247414   5.243   4.510   5.097
15325SOL     OW47415   4.884   5.064   3.842
15325SOL    HW147416   4.789   5.081   3.843
15325SOL    HW247417   4.908   5.057   3.934
15326SOL     OW47418   5.208   5.521   4.728
15326SOL    HW147419   5.234   5.562   4.646
15326SOL    HW247420   5.271   5.450   4.741
15327SOL     OW47421   4.456   4.282   5.465
15327SOL    HW147422   4.418   4.308   5.548
15327SOL    HW247423   4.458   4.186   5.468
15328SOL     OW47424   5.183   4.936   5.351
15328SOL    HW147425   5.172   4.943   5.445
15328SOL    HW247426   5.277   4.945   5.337
15329SOL     OW47427   4.096   5.469   5.300
15329SOL    HW147428   4.014   5.512   5.277
15329SOL    HW247429   4.069   5.394   5.353
15330SOL     OW47430   5.496   4.601   4.934
15330SOL    HW147431   5.446   4.519   4.932
15330SOL    HW247432   5.433   4.668   4.908
15331SOL     OW47433   4.989   4.058   4.173
15331SOL    HW147434   5.032   3.973   4.179
15331SOL    HW247435   5.016   4.104   4.253
15332SOL     OW47436   5.476   4.060   5.361
15332SOL    HW147437   5.449   4.089   5.274
15332SOL    HW247438   5.401   4.012   5.395
15333SOL     OW47439   5.518   4.675   5.209
15333SOL    HW147440   5.431   4.682   5.248
15333SOL    HW247441   5.502   4.650   5.118
15334SOL     OW47442   4.623   5.162   3.777
15334SOL    HW147443   4.534   5.130   3.762
15334SOL    HW247444   4.635   5.231   3.712
15335SOL     OW47445   4.390   5.517   4.667
15335SOL    HW147446   4.377   5.609   4.642
15335SOL    HW247447   4.483   5.501   4.650
15336SOL     OW47448   4.605   4.740   4.598
15336SOL    HW147449   4.549   4.663   4.597
15336SOL    HW247450   4.576   4.790   4.674
15337SOL     OW47451   5.557   5.279   4.567
15337SOL    HW147452   5.476   5.268   4.517
15337SOL    HW247453   5.551   5.214   4.637
15338SOL     OW47454   5.574   3.915   4.968
15338SOL    HW147455   5.512   3.851   5.003
15338SOL    HW247456   5.558   3.914   4.873
15339SOL     OW47457   5.416   5.206   4.817
15339SOL    HW147458   5.340   5.182   4.764
15339SOL    HW247459   5.412   5.146   4.892
15340SOL     OW47460   4.545   5.287   4.404
15340SOL    HW147461   4.497   5.292   4.322
15340SOL    HW247462   4.498   5.222   4.456
15341SOL     OW47463   5.229   3.936   4.836
15341SOL    HW147464   5.257   3.852   4.872
15341SOL    HW247465   5.145   3.954   4.880
15342SOL     OW47466   4.337   5.279   5.014
15342SOL    HW147467   4.337   5.363   5.061
15342SOL    HW247468   4.428   5.267   4.987
15343SOL     OW47469   5.096   3.780   3.886
15343SOL    HW147470   5.099   3.733   3.802
15343SOL    HW247471   5.013   3.754   3.924
15344SOL     OW47472   5.061   4.188   4.404
15344SOL    HW147473   5.011   4.269   4.391
15344SOL    HW247474   5.021   4.147   4.481
15345SOL     OW47475   5.313   3.919   4.582
15345SOL    HW147476   5.272   3.933   4.667
15345SOL    HW247477   5.311   4.004   4.539
15346SOL     OW47478   4.623   5.405   4.055
15346SOL    HW147479   4.546   5.354   4.029
15346SOL    HW247480   4.592   5.461   4.126
15347SOL     OW47481   3.959   4.301   5.696
15347SOL    HW147482   3.894   4.308   5.765
15347SOL    HW247483   3.917   4.339   5.618
15348SOL     OW47484   3.918   4.069   6.600
15348SOL    HW147485   3.954   4.030   6.679
15348SOL    HW247486   3.841   4.015   6.580
15349SOL     OW47487   3.756   4.130   6.259
15349SOL    HW147488   3.698   4.169   6.325
15349SOL    HW247489   3.696   4.089   6.197
15350SOL     OW47490   5.297   5.249   6.305
15350SOL    HW147491   5.249   5.215   6.380
15350SOL    HW247492   5.233   5.251   6.234
15351SOL     OW47493   5.534   4.302   5.799
15351SOL    HW147494   5.495   4.303   5.711
15351SOL    HW247495   5.468   4.260   5.854
15352SOL     OW47496   4.440   4.724   6.239
15352SOL    HW147497   4.510   4.713   6.303
15352SOL    HW247498   4.372   4.772   6.285
15353SOL     OW47499   3.996   5.243   6.647
15353SOL    HW147500   3.928   5.176   6.653
15353SOL    HW247501   4.069   5.199   6.603
15354SOL     OW47502   5.188   5.223   6.959
15354SOL    HW147503   5.233   5.307   6.970
15354SOL    HW247504   5.114   5.228   7.019
15355SOL     OW47505   5.335   4.152   6.313
15355SOL    HW147506   5.270   4.126   6.248
15355SOL    HW247507   5.315   4.243   6.333
15356SOL     OW47508   3.950   5.468   6.015
15356SOL    HW147509   3.981   5.519   6.090
15356SOL    HW247510   3.960   5.377   6.041
15357SOL     OW47511   4.860   5.058   7.285
15357SOL    HW147512   4.891   5.052   7.376
15357SOL    HW247513   4.820   4.973   7.268
15358SOL     OW47514   3.971   5.208   6.103
15358SOL    HW147515   3.960   5.170   6.016
15358SOL    HW247516   3.936   5.141   6.163
15359SOL     OW47517   3.995   4.804   6.484
15359SOL    HW147518   4.007   4.712   6.509
15359SOL    HW247519   3.983   4.850   6.567
15360SOL     OW47520   4.396   5.528   7.073
15360SOL    HW147521   4.332   5.468   7.037
15360SOL    HW247522   4.355   5.614   7.066
15361SOL     OW47523   4.369   4.688   5.702
15361SOL    HW147524   4.414   4.747   5.643
15361SOL    HW247525   4.363   4.736   5.785
15362SOL     OW47526   5.317   3.852   7.045
15362SOL    HW147527   5.280   3.908   6.977
15362SOL    HW247528   5.290   3.894   7.127
15363SOL     OW47529   3.850   4.395   6.145
15363SOL    HW147530   3.829   4.306   6.174
15363SOL    HW247531   3.840   4.448   6.224
15364SOL     OW47532   5.570   5.470   5.900
15364SOL    HW147533   5.628   5.443   5.971
15364SOL    HW247534   5.584   5.564   5.892
15365SOL     OW47535   3.794   5.360   5.711
15365SOL    HW147536   3.850   5.291   5.748
15365SOL    HW247537   3.742   5.390   5.785
15366SOL     OW47538   5.449   4.662   6.228
15366SOL    HW147539   5.444   4.574   6.192
15366SOL    HW247540   5.394   4.715   6.170
15367SOL     OW47541   5.374   4.825   6.002
15367SOL    HW147542   5.466   4.829   5.974
15367SOL    HW247543   5.364   4.900   6.060
15368SOL     OW47544   3.853   4.447   7.149
15368SOL    HW147545   3.937   4.485   7.173
15368SOL    HW247546   3.798   4.522   7.127
15369SOL     OW47547   4.320   5.118   6.314
15369SOL    HW147548   4.287   5.031   6.334
15369SOL    HW247549   4.303   5.130   6.221
15370SOL     OW47550   5.018   4.955   6.995
15370SOL    HW147551   5.044   4.888   6.931
15370SOL    HW247552   5.074   4.938   7.071
15371SOL     OW47553   3.950   4.680   6.812
15371SOL    HW147554   3.974   4.621   6.741
15371SOL    HW247555   3.871   4.642   6.849
15372SOL     OW47556   5.265   4.719   5.772
15372SOL    HW147557   5.194   4.657   5.789
15372SOL    HW247558   5.292   4.749   5.859
15373SOL     OW47559   4.964   5.543   7.207
15373SOL    HW147560   4.922   5.591   7.136
15373SOL    HW247561   4.957   5.451   7.182
15374SOL     OW47562   4.042   3.990   7.421
15374SOL    HW147563   4.067   4.075   7.384
15374SOL    HW247564   3.952   4.002   7.450
15375SOL     OW47565   5.205   5.123   6.537
15375SOL    HW147566   5.126   5.159   6.578
15375SOL    HW247567   5.177   5.039   6.501
15376SOL     OW47568   5.373   5.490   6.155
15376SOL    HW147569   5.345   5.454   6.071
15376SOL    HW247570   5.356   5.419   6.218
15377SOL     OW47571   4.310   4.445   5.858
15377SOL    HW147572   4.306   4.525   5.806
15377SOL    HW247573   4.239   4.454   5.922
15378SOL     OW47574   5.295   5.425   5.893
15378SOL    HW147575   5.389   5.430   5.881
15378SOL    HW247576   5.260   5.401   5.807
15379SOL     OW47577   5.124   4.215   7.263
15379SOL    HW147578   5.039   4.215   7.307
15379SOL    HW247579   5.163   4.131   7.287
15380SOL     OW47580   4.783   4.424   6.005
15380SOL    HW147581   4.816   4.359   6.067
15380SOL    HW247582   4.695   4.394   5.982
15381SOL     OW47583   3.830   4.545   6.371
15381SOL    HW147584   3.897   4.534   6.439
15381SOL    HW247585   3.799   4.635   6.383
15382SOL     OW47586   3.857   5.598   7.155
15382SOL    HW147587   3.838   5.569   7.244
15382SOL    HW247588   3.822   5.529   7.099
15383SOL     OW47589   4.621   4.064   5.788
15383SOL    HW147590   4.658   4.116   5.717
15383SOL    HW247591   4.579   3.990   5.745
15384SOL     OW47592   5.463   4.304   7.410
15384SOL    HW147593   5.413   4.372   7.364
15384SOL    HW247594   5.461   4.229   7.350
15385SOL     OW47595   5.118   4.920   6.158
15385SOL    HW147596   5.128   4.827   6.136
15385SOL    HW247597   5.060   4.954   6.090
15386SOL     OW47598   4.744   5.207   6.075
15386SOL    HW147599   4.708   5.269   6.012
15386SOL    HW247600   4.681   5.206   6.147
15387SOL     OW47601   4.079   5.521   6.457
15387SOL    HW147602   4.129   5.440   6.468
15387SOL    HW247603   4.142   5.591   6.475
15388SOL     OW47604   5.532   4.814   6.443
15388SOL    HW147605   5.495   4.764   6.369
15388SOL    HW247606   5.464   4.810   6.510
15389SOL     OW47607   4.960   5.264   7.113
15389SOL    HW147608   4.950   5.191   7.174
15389SOL    HW247609   4.894   5.248   7.046
15390SOL     OW47610   4.078   4.648   5.858
15390SOL    HW147611   4.070   4.731   5.811
15390SOL    HW247612   3.991   4.608   5.851
15391SOL     OW47613   5.238   4.408   6.319
15391SOL    HW147614   5.155   4.360   6.321
15391SOL    HW247615   5.213   4.498   6.299
15392SOL     OW47616   4.857   5.500   5.807
15392SOL    HW147617   4.777   5.474   5.852
15392SOL    HW247618   4.874   5.428   5.746
15393SOL     OW47619   3.906   4.022   7.102
15393SOL    HW147620   3.815   3.994   7.111
15393SOL    HW247621   3.958   3.950   7.137
15394SOL     OW47622   5.360   5.115   5.673
15394SOL    HW147623   5.307   5.194   5.667
15394SOL    HW247624   5.298   5.044   5.660
15395SOL     OW47625   4.263   5.505   5.877
15395SOL    HW147626   4.235   5.464   5.959
15395SOL    HW247627   4.304   5.434   5.828
15396SOL     OW47628   4.014   5.509   6.780
15396SOL    HW147629   3.965   5.462   6.847
15396SOL    HW247630   4.026   5.445   6.710
15397SOL     OW47631   4.665   5.419   6.453
15397SOL    HW147632   4.662   5.340   6.507
15397SOL    HW247633   4.622   5.395   6.372
15398SOL     OW47634   4.123   4.404   6.068
15398SOL    HW147635   4.139   4.310   6.076
15398SOL    HW247636   4.029   4.415   6.083
15399SOL     OW47637   5.236   3.957   7.317
15399SOL    HW147638   5.264   3.963   7.408
15399SOL    HW247639   5.167   3.891   7.317
15400SOL     OW47640   4.387   3.838   5.678
15400SOL    HW147641   4.428   3.757   5.708
15400SOL    HW247642   4.317   3.810   5.619
15401SOL     OW47643   4.607   5.260   6.814
15401SOL    HW147644   4.559   5.212   6.746
15401SOL    HW247645   4.675   5.199   6.843
15402SOL     OW47646   5.164   4.299   7.001
15402SOL    HW147647   5.155   4.267   7.091
15402SOL    HW247648   5.090   4.358   6.989
15403SOL     OW47649   4.607   5.166   6.518
15403SOL    HW147650   4.654   5.096   6.473
15403SOL    HW247651   4.533   5.123   6.561
15404SOL     OW47652   5.161   4.931   5.625
15404SOL    HW147653   5.185   4.850   5.670
15404SOL    HW247654   5.071   4.947   5.653
15405SOL     OW47655   4.662   4.000   6.059
15405SOL    HW147656   4.629   4.012   5.970
15405SOL    HW247657   4.754   4.023   6.054
15406SOL     OW47658   5.004   5.302   6.386
15406SOL    HW147659   4.981   5.359   6.313
15406SOL    HW247660   4.928   5.304   6.444
15407SOL     OW47661   4.204   4.872   6.312
15407SOL    HW147662   4.133   4.848   6.372
15407SOL    HW247663   4.166   4.861   6.225
15408SOL     OW47664   4.979   5.524   6.202
15408SOL    HW147665   5.012   5.589   6.140
15408SOL    HW247666   4.898   5.562   6.237
15409SOL     OW47667   4.755   4.248   5.613
15409SOL    HW147668   4.710   4.331   5.600
15409SOL    HW247669   4.807   4.261   5.692
15410SOL     OW47670   3.832   4.258   6.957
15410SOL    HW147671   3.882   4.185   6.995
15410SOL    HW247672   3.838   4.327   7.023
15411SOL     OW47673   4.606   4.216   6.228
15411SOL    HW147674   4.542   4.271   6.183
15411SOL    HW247675   4.618   4.140   6.172
15412SOL     OW47676   5.130   4.884   6.433
15412SOL    HW147677   5.057   4.822   6.440
15412SOL    HW247678   5.140   4.900   6.340
15413SOL     OW47679   5.625   4.534   5.940
15413SOL    HW147680   5.653   4.481   6.015
15413SOL    HW247681   5.561   4.478   5.895
15414SOL     OW47682   5.427   5.026   6.178
15414SOL    HW147683   5.505   5.021   6.233
15414SOL    HW247684   5.367   5.083   6.227
15415SOL     OW47685   5.127   4.276   5.656
15415SOL    HW147686   5.053   4.275   5.717
15415SOL    HW247687   5.172   4.194   5.672
15416SOL     OW47688   4.299   4.000   5.892
15416SOL    HW147689   4.321   3.943   5.818
15416SOL    HW247690   4.258   4.076   5.852
15417SOL     OW47691   5.467   4.965   7.150
15417SOL    HW147692   5.549   4.917   7.154
15417SOL    HW247693   5.490   5.054   7.176
15418SOL     OW47694   4.786   5.094   6.971
15418SOL    HW147695   4.729   5.044   7.029
15418SOL    HW247696   4.869   5.046   6.972
15419SOL     OW47697   5.346   5.367   7.260
15419SOL    HW147698   5.329   5.392   7.169
15419SOL    HW247699   5.419   5.305   7.254
15420SOL     OW47700   4.896   4.996   6.666
15420SOL    HW147701   4.814   4.968   6.706
15420SOL    HW247702   4.879   4.996   6.572
15421SOL     OW47703   5.346   4.830   6.646
15421SOL    HW147704   5.328   4.885   6.722
15421SOL    HW247705   5.264   4.829   6.597
15422SOL     OW47706   4.714   4.816   7.271
15422SOL    HW147707   4.627   4.854   7.277
15422SOL    HW247708   4.708   4.750   7.203
15423SOL     OW47709   4.443   4.804   5.961
15423SOL    HW147710   4.418   4.773   6.049
15423SOL    HW247711   4.523   4.755   5.941
15424SOL     OW47712   3.821   5.405   6.954
15424SOL    HW147713   3.763   5.419   6.879
15424SOL    HW247714   3.833   5.310   6.957
15425SOL     OW47715   4.109   4.848   6.056
15425SOL    HW147716   4.096   4.898   5.975
15425SOL    HW247717   4.099   4.757   6.030
15426SOL     OW47718   4.294   4.248   6.413
15426SOL    HW147719   4.284   4.314   6.344
15426SOL    HW247720   4.388   4.249   6.433
15427SOL     OW47721   4.969   5.087   5.974
15427SOL    HW147722   5.032   5.148   6.014
15427SOL    HW247723   4.884   5.115   6.009
15428SOL     OW47724   5.022   5.223   6.733
15428SOL    HW147725   5.074   5.202   6.810
15428SOL    HW247726   4.970   5.144   6.717
15429SOL     OW47727   5.345   4.431   6.061
15429SOL    HW147728   5.307   4.398   6.142
15429SOL    HW247729   5.270   4.439   6.002
15430SOL     OW47730   5.341   4.510   7.277
15430SOL    HW147731   5.248   4.534   7.272
15430SOL    HW247732   5.373   4.519   7.188
15431SOL     OW47733   4.192   3.763   7.395
15431SOL    HW147734   4.188   3.703   7.320
15431SOL    HW247735   4.129   3.832   7.375
15432SOL     OW47736   4.281   4.639   6.629
15432SOL    HW147737   4.349   4.651   6.562
15432SOL    HW247738   4.260   4.728   6.657
15433SOL     OW47739   4.927   4.265   5.839
15433SOL    HW147740   4.938   4.204   5.912
15433SOL    HW247741   4.874   4.336   5.874
15434SOL     OW47742   3.973   3.963   6.839
15434SOL    HW147743   3.964   3.975   6.934
15434SOL    HW247744   4.051   3.910   6.829
15435SOL     OW47745   5.473   4.696   7.433
15435SOL    HW147746   5.434   4.625   7.382
15435SOL    HW247747   5.411   4.710   7.504
15436SOL     OW47748   5.344   4.081   5.957
15436SOL    HW147749   5.390   4.020   6.014
15436SOL    HW247750   5.264   4.103   6.005
15437SOL     OW47751   4.716   5.295   7.296
15437SOL    HW147752   4.696   5.335   7.211
15437SOL    HW247753   4.756   5.211   7.274
15438SOL     OW47754   5.576   5.220   7.196
15438SOL    HW147755   5.596   5.262   7.112
15438SOL    HW247756   5.658   5.228   7.246
15439SOL     OW47757   5.246   3.998   5.710
15439SOL    HW147758   5.178   3.934   5.729
15439SOL    HW247759   5.278   4.025   5.796
15440SOL     OW47760   5.035   4.549   5.653
15440SOL    HW147761   5.053   4.456   5.637
15440SOL    HW247762   5.047   4.591   5.568
15441SOL     OW47763   4.814   5.011   6.409
15441SOL    HW147764   4.797   4.923   6.376
15441SOL    HW247765   4.863   5.054   6.339
15442SOL     OW47766   4.034   4.540   6.576
15442SOL    HW147767   4.124   4.568   6.589
15442SOL    HW247768   4.036   4.444   6.585
15443SOL     OW47769   4.101   4.274   6.604
15443SOL    HW147770   4.036   4.204   6.598
15443SOL    HW247771   4.157   4.261   6.528
15444SOL     OW47772   3.805   5.503   6.513
15444SOL    HW147773   3.772   5.418   6.482
15444SOL    HW247774   3.899   5.500   6.498
15445SOL     OW47775   4.271   5.316   6.495
15445SOL    HW147776   4.303   5.264   6.569
15445SOL    HW247777   4.277   5.257   6.420
15446SOL     OW47778   3.763   4.278   6.695
15446SOL    HW147779   3.812   4.210   6.648
15446SOL    HW247780   3.798   4.277   6.784
15447SOL     OW47781   3.897   4.217   7.294
15447SOL    HW147782   3.913   4.155   7.222
15447SOL    HW247783   3.879   4.300   7.250
15448SOL     OW47784   5.099   4.652   7.253
15448SOL    HW147785   5.113   4.747   7.251
15448SOL    HW247786   5.099   4.626   7.161
15449SOL     OW47787   4.550   4.320   5.920
15449SOL    HW147788   4.539   4.231   5.887
15449SOL    HW247789   4.465   4.362   5.903
15450SOL     OW47790   5.361   4.367   6.795
15450SOL    HW147791   5.304   4.312   6.849
15450SOL    HW247792   5.418   4.305   6.749
15451SOL     OW47793   4.648   5.407   7.050
15451SOL    HW147794   4.641   5.360   6.967
15451SOL    HW247795   4.569   5.462   7.053
15452SOL     OW47796   4.210   4.215   5.742
15452SOL    HW147797   4.249   4.291   5.785
15452SOL    HW247798   4.119   4.240   5.728
15453SOL     OW47799   5.053   4.790   6.766
15453SOL    HW147800   5.002   4.714   6.739
15453SOL    HW247801   5.014   4.864   6.719
15454SOL     OW47802   5.023   4.571   5.927
15454SOL    HW147803   4.940   4.535   5.958
15454SOL    HW247804   5.017   4.565   5.831
15455SOL     OW47805   5.518   5.445   6.759
15455SOL    HW147806   5.566   5.474   6.682
15455SOL    HW247807   5.475   5.364   6.732
15456SOL     OW47808   4.969   5.490   6.713
15456SOL    HW147809   5.048   5.504   6.661
15456SOL    HW247810   4.967   5.395   6.728
15457SOL     OW47811   3.788   5.025   6.614
15457SOL    HW147812   3.788   4.980   6.698
15457SOL    HW247813   3.757   4.960   6.551
15458SOL     OW47814   4.418   5.418   7.347
15458SOL    HW147815   4.357   5.479   7.305
15458SOL    HW247816   4.467   5.379   7.275
15459SOL     OW47817   5.489   3.878   6.115
15459SOL    HW147818   5.541   3.863   6.036
15459SOL    HW247819   5.448   3.793   6.133
15460SOL     OW47820   5.130   5.298   6.084
15460SOL    HW147821   5.170   5.336   6.005
15460SOL    HW247822   5.062   5.360   6.109
15461SOL     OW47823   3.843   5.547   7.426
15461SOL    HW147824   3.804   5.462   7.445
15461SOL    HW247825   3.902   5.563   7.500
15462SOL     OW47826   5.101   4.629   6.218
15462SOL    HW147827   5.054   4.604   6.138
15462SOL    HW247828   5.033   4.658   6.278
15463SOL     OW47829   4.413   5.322   5.747
15463SOL    HW147830   4.412   5.335   5.652
15463SOL    HW247831   4.410   5.227   5.758
15464SOL     OW47832   5.349   5.453   6.989
15464SOL    HW147833   5.399   5.449   6.908
15464SOL    HW247834   5.345   5.547   7.010
15465SOL     OW47835   5.562   3.891   6.550
15465SOL    HW147836   5.581   3.802   6.520
15465SOL    HW247837   5.474   3.909   6.516
15466SOL     OW47838   4.017   4.097   6.342
15466SOL    HW147839   3.931   4.115   6.305
15466SOL    HW247840   3.998   4.068   6.432
15467SOL     OW47841   4.932   5.305   5.619
15467SOL    HW147842   4.922   5.215   5.649
15467SOL    HW247843   4.861   5.317   5.555
15468SOL     OW47844   4.677   4.677   5.900
15468SOL    HW147845   4.700   4.669   5.807
15468SOL    HW247846   4.695   4.591   5.937
15469SOL     OW47847   5.203   5.374   5.636
15469SOL    HW147848   5.113   5.344   5.622
15469SOL    HW247849   5.242   5.373   5.549
15470SOL     OW47850   5.369   5.029   6.890
15470SOL    HW147851   5.384   4.978   6.969
15470SOL    HW247852   5.293   5.084   6.910
15471SOL     OW47853   4.311   5.246   6.051
15471SOL    HW147854   4.364   5.187   5.998
15471SOL    HW247855   4.221   5.215   6.039
15472SOL     OW47856   5.490   4.105   6.991
15472SOL    HW147857   5.531   4.184   6.957
15472SOL    HW247858   5.503   4.040   6.921
15473SOL     OW47859   5.143   4.610   6.992
15473SOL    HW147860   5.072   4.613   6.928
15473SOL    HW247861   5.223   4.605   6.938
15474SOL     OW47862   4.908   5.035   5.702
15474SOL    HW147863   4.851   4.959   5.692
15474SOL    HW247864   4.920   5.044   5.796
15475SOL     OW47865   5.211   5.528   6.585
15475SOL    HW147866   5.210   5.543   6.491
15475SOL    HW247867   5.250   5.441   6.595
15476SOL     OW47868   5.193   4.918   7.215
15476SOL    HW147869   5.180   4.936   7.308
15476SOL    HW247870   5.287   4.935   7.201
15477SOL     OW47871   4.107   5.470   7.150
15477SOL    HW147872   4.018   5.503   7.140
15477SOL    HW247873   4.106   5.385   7.106
15478SOL     OW47874   5.397   4.626   6.844
15478SOL    HW147875   5.387   4.534   6.820
15478SOL    HW247876   5.378   4.674   6.763
15479SOL     OW47877   4.322   4.464   6.246
15479SOL    HW147878   4.360   4.549   6.226
15479SOL    HW247879   4.253   4.453   6.180
15480SOL     OW47880   5.473   4.080   7.255
15480SOL    HW147881   5.473   4.091   7.160
15480SOL    HW247882   5.392   4.032   7.274
15481SOL     OW47883   5.506   4.658   7.089
15481SOL    HW147884   5.451   4.729   7.122
15481SOL    HW247885   5.475   4.644   6.999
15482SOL     OW47886   4.452   5.588   6.590
15482SOL    HW147887   4.379   5.616   6.535
15482SOL    HW247888   4.479   5.503   6.555
15483SOL     OW47889   4.811   4.777   5.633
15483SOL    HW147890   4.725   4.783   5.591
15483SOL    HW247891   4.838   4.686   5.619
15484SOL     OW47892   5.559   5.282   6.427
15484SOL    HW147893   5.477   5.271   6.379
15484SOL    HW247894   5.565   5.204   6.481
15485SOL     OW47895   3.823   5.002   6.240
15485SOL    HW147896   3.824   4.944   6.316
15485SOL    HW247897   3.774   4.954   6.174
15486SOL     OW47898   5.570   3.906   6.823
15486SOL    HW147899   5.514   3.831   6.844
15486SOL    HW247900   5.564   3.914   6.728
15487SOL     OW47901   4.160   4.142   6.108
15487SOL    HW147902   4.193   4.063   6.064
15487SOL    HW247903   4.122   4.110   6.190
15488SOL     OW47904   5.409   5.211   6.688
15488SOL    HW147905   5.341   5.184   6.626
15488SOL    HW247906   5.404   5.145   6.758
15489SOL     OW47907   4.526   5.299   6.246
15489SOL    HW147908   4.460   5.307   6.178
15489SOL    HW247909   4.492   5.233   6.306
15490SOL     OW47910   5.166   3.900   6.764
15490SOL    HW147911   5.116   3.819   6.777
15490SOL    HW247912   5.108   3.956   6.712
15491SOL     OW47913   4.468   5.073   5.912
15491SOL    HW147914   4.427   4.986   5.920
15491SOL    HW247915   4.562   5.055   5.910
15492SOL     OW47916   4.323   5.297   6.918
15492SOL    HW147917   4.404   5.322   6.873
15492SOL    HW247918   4.304   5.209   6.885
15493SOL     OW47919   5.057   3.794   5.736
15493SOL    HW147920   5.064   3.712   5.688
15493SOL    HW247921   4.974   3.788   5.783
15494SOL     OW47922   5.301   3.927   6.469
15494SOL    HW147923   5.231   3.958   6.527
15494SOL    HW247924   5.313   3.998   6.406
15495SOL     OW47925   4.621   5.404   5.921
15495SOL    HW147926   4.549   5.371   5.868
15495SOL    HW247927   4.580   5.458   5.988
15496SOL     OW47928   5.301   5.247   8.168
15496SOL    HW147929   5.254   5.207   8.241
15496SOL    HW247930   5.238   5.243   8.095
15497SOL     OW47931   5.527   4.319   7.668
15497SOL    HW147932   5.496   4.314   7.577
15497SOL    HW247933   5.482   4.248   7.713
15498SOL     OW47934   4.593   4.508   9.255
15498SOL    HW147935   4.534   4.575   9.288
15498SOL    HW247936   4.620   4.541   9.169
15499SOL     OW47937   4.417   4.884   9.252
15499SOL    HW147938   4.447   4.967   9.216
15499SOL    HW247939   4.332   4.869   9.210
15500SOL     OW47940   5.184   5.226   8.819
15500SOL    HW147941   5.230   5.309   8.831
15500SOL    HW247942   5.110   5.231   8.879
15501SOL     OW47943   4.140   4.062   8.937
15501SOL    HW147944   4.228   4.052   8.903
15501SOL    HW247945   4.103   3.974   8.935
15502SOL     OW47946   5.339   4.182   8.194
15502SOL    HW147947   5.265   4.183   8.133
15502SOL    HW247948   5.307   4.231   8.270
15503SOL     OW47949   3.936   5.431   7.908
15503SOL    HW147950   3.976   5.504   7.956
15503SOL    HW247951   4.000   5.409   7.841
15504SOL     OW47952   4.868   5.064   9.154
15504SOL    HW147953   4.896   5.043   9.243
15504SOL    HW247954   4.819   4.987   9.125
15505SOL     OW47955   3.963   5.168   8.030
15505SOL    HW147956   3.920   5.248   8.000
15505SOL    HW247957   3.891   5.109   8.052
15506SOL     OW47958   4.351   5.516   8.931
15506SOL    HW147959   4.259   5.491   8.946
15506SOL    HW247960   4.349   5.611   8.924
15507SOL     OW47961   5.298   3.859   8.891
15507SOL    HW147962   5.286   3.892   8.802
15507SOL    HW247963   5.210   3.848   8.925
15508SOL     OW47964   5.568   5.471   7.765
15508SOL    HW147965   5.633   5.445   7.829
15508SOL    HW247966   5.583   5.565   7.752
15509SOL     OW47967   3.752   5.328   7.564
15509SOL    HW147968   3.755   5.235   7.588
15509SOL    HW247969   3.726   5.373   7.644
15510SOL     OW47970   5.462   4.668   8.096
15510SOL    HW147971   5.452   4.575   8.074
15510SOL    HW247972   5.414   4.714   8.026
15511SOL     OW47973   5.360   4.812   7.874
15511SOL    HW147974   5.442   4.811   7.824
15511SOL    HW247975   5.364   4.892   7.926
15512SOL     OW47976   3.840   4.520   9.073
15512SOL    HW147977   3.921   4.524   9.022
15512SOL    HW247978   3.796   4.603   9.053
15513SOL     OW47979   5.016   4.964   8.866
15513SOL    HW147980   5.031   4.894   8.802
15513SOL    HW247981   5.076   4.944   8.938
15514SOL     OW47982   4.547   3.737   8.004
15514SOL    HW147983   4.591   3.757   7.922
15514SOL    HW247984   4.455   3.760   7.989
15515SOL     OW47985   5.263   4.720   7.618
15515SOL    HW147986   5.191   4.658   7.605
15515SOL    HW247987   5.268   4.730   7.714
15516SOL     OW47988   4.923   5.540   9.077
15516SOL    HW147989   4.908   5.594   9.000
15516SOL    HW247990   4.931   5.450   9.043
15517SOL     OW47991   4.071   4.062   9.267
15517SOL    HW147992   4.157   4.055   9.309
15517SOL    HW247993   4.044   3.971   9.252
15518SOL     OW47994   5.182   5.130   8.385
15518SOL    HW147995   5.114   5.150   8.450
15518SOL    HW247996   5.165   5.039   8.359
15519SOL     OW47997   5.367   5.494   8.020
15519SOL    HW147998   5.345   5.456   7.935
15519SOL    HW247999   5.355   5.423   8.082
15520SOL     OW48000   5.051   4.069   8.382
15520SOL    HW148001   4.992   4.088   8.309
15520SOL    HW248002   4.993   4.051   8.456
15521SOL     OW48003   5.296   5.416   7.759
15521SOL    HW148004   5.390   5.423   7.748
15521SOL    HW248005   5.262   5.396   7.672
15522SOL     OW48006   4.520   4.336   8.903
15522SOL    HW148007   4.486   4.304   8.986
15522SOL    HW248008   4.486   4.275   8.838
15523SOL     OW48009   5.145   4.237   9.119
15523SOL    HW148010   5.127   4.270   9.207
15523SOL    HW248011   5.111   4.148   9.120
15524SOL     OW48012   4.680   4.618   9.014
15524SOL    HW148013   4.727   4.539   8.987
15524SOL    HW248014   4.637   4.649   8.934
15525SOL     OW48015   4.728   4.134   8.681
15525SOL    HW148016   4.636   4.137   8.707
15525SOL    HW248017   4.726   4.102   8.591
15526SOL     OW48018   3.839   5.595   9.025
15526SOL    HW148019   3.830   5.579   9.119
15526SOL    HW248020   3.800   5.517   8.984
15527SOL     OW48021   5.445   4.298   9.275
15527SOL    HW148022   5.404   4.370   9.226
15527SOL    HW248023   5.440   4.223   9.216
15528SOL     OW48024   5.117   4.917   8.029
15528SOL    HW148025   5.155   4.842   7.984
15528SOL    HW248026   5.061   4.959   7.964
15529SOL     OW48027   4.258   3.893   8.344
15529SOL    HW148028   4.271   3.948   8.422
15529SOL    HW248029   4.265   3.954   8.271
15530SOL     OW48030   4.741   5.194   7.943
15530SOL    HW148031   4.706   5.250   7.874
15530SOL    HW248032   4.680   5.205   8.016
15531SOL     OW48033   4.088   5.500   8.313
15531SOL    HW148034   4.098   5.406   8.305
15531SOL    HW248035   4.174   5.531   8.343
15532SOL     OW48036   5.533   4.815   8.313
15532SOL    HW148037   5.498   4.766   8.239
15532SOL    HW248038   5.466   4.807   8.382
15533SOL     OW48039   4.957   5.265   8.976
15533SOL    HW148040   4.953   5.193   9.039
15533SOL    HW248041   4.894   5.241   8.908
15534SOL     OW48042   4.182   4.978   9.127
15534SOL    HW148043   4.156   4.947   9.041
15534SOL    HW248044   4.100   4.984   9.176
15535SOL     OW48045   4.855   5.506   7.679
15535SOL    HW148046   4.777   5.470   7.721
15535SOL    HW248047   4.877   5.443   7.610
15536SOL     OW48048   5.357   5.117   7.542
15536SOL    HW148049   5.309   5.198   7.526
15536SOL    HW248050   5.292   5.048   7.526
15537SOL     OW48051   4.211   5.475   7.776
15537SOL    HW148052   4.242   5.420   7.848
15537SOL    HW248053   4.255   5.440   7.698
15538SOL     OW48054   4.022   5.502   8.676
15538SOL    HW148055   4.052   5.425   8.726
15538SOL    HW248056   3.984   5.466   8.596
15539SOL     OW48057   4.662   5.422   8.340
15539SOL    HW148058   4.748   5.381   8.349
15539SOL    HW248059   4.615   5.366   8.278
15540SOL     OW48060   4.616   5.231   8.647
15540SOL    HW148061   4.603   5.155   8.589
15540SOL    HW248062   4.684   5.203   8.708
15541SOL     OW48063   5.063   4.313   8.868
15541SOL    HW148064   5.099   4.286   8.952
15541SOL    HW248065   5.094   4.402   8.855
15542SOL     OW48066   4.694   4.253   8.358
15542SOL    HW148067   4.760   4.279   8.294
15542SOL    HW248068   4.706   4.158   8.366
15543SOL     OW48069   4.282   3.808   7.939
15543SOL    HW148070   4.198   3.797   7.983
15543SOL    HW248071   4.271   3.885   7.884
15544SOL     OW48072   5.155   4.934   7.487
15544SOL    HW148073   5.192   4.856   7.530
15544SOL    HW248074   5.061   4.929   7.506
15545SOL     OW48075   4.022   3.777   7.630
15545SOL    HW148076   4.065   3.824   7.559
15545SOL    HW248077   4.080   3.703   7.649
15546SOL     OW48078   4.794   4.373   8.946
15546SOL    HW148079   4.714   4.329   8.917
15546SOL    HW248080   4.864   4.335   8.891
15547SOL     OW48081   4.929   5.347   8.274
15547SOL    HW148082   4.972   5.373   8.193
15547SOL    HW248083   4.961   5.259   8.292
15548SOL     OW48084   4.997   5.519   8.049
15548SOL    HW148085   5.027   5.588   7.990
15548SOL    HW248086   4.917   5.554   8.088
15549SOL     OW48087   4.290   3.944   8.627
15549SOL    HW148088   4.338   3.863   8.613
15549SOL    HW248089   4.210   3.917   8.672
15550SOL     OW48090   4.733   3.762   8.219
15550SOL    HW148091   4.676   3.765   8.142
15550SOL    HW248092   4.702   3.687   8.269
15551SOL     OW48093   5.150   4.860   8.301
15551SOL    HW148094   5.119   4.770   8.306
15551SOL    HW248095   5.137   4.884   8.209
15552SOL     OW48096   5.223   4.290   8.416
15552SOL    HW148097   5.146   4.236   8.403
15552SOL    HW248098   5.218   4.317   8.508
15553SOL     OW48099   5.587   4.535   7.819
15553SOL    HW148100   5.632   4.485   7.887
15553SOL    HW248101   5.556   4.468   7.757
15554SOL     OW48102   4.215   5.130   7.589
15554SOL    HW148103   4.140   5.129   7.648
15554SOL    HW248104   4.188   5.076   7.515
15555SOL     OW48105   5.426   5.024   8.030
15555SOL    HW148106   5.511   5.011   8.073
15555SOL    HW248107   5.377   5.080   8.090
15556SOL     OW48108   5.470   4.966   9.005
15556SOL    HW148109   5.556   4.927   8.990
15556SOL    HW248110   5.490   5.055   9.035
15557SOL     OW48111   4.776   5.110   8.833
15557SOL    HW148112   4.697   5.057   8.835
15557SOL    HW248113   4.848   5.046   8.831
15558SOL     OW48114   5.344   5.362   9.122
15558SOL    HW148115   5.327   5.391   9.033
15558SOL    HW248116   5.420   5.304   9.114
15559SOL     OW48117   4.892   4.956   8.559
15559SOL    HW148118   4.797   4.958   8.569
15559SOL    HW248119   4.907   4.957   8.464
15560SOL     OW48120   5.352   4.824   8.520
15560SOL    HW148121   5.333   4.884   8.593
15560SOL    HW248122   5.269   4.818   8.473
15561SOL     OW48123   4.675   3.842   8.840
15561SOL    HW148124   4.649   3.835   8.748
15561SOL    HW248125   4.760   3.798   8.845
15562SOL     OW48126   4.701   4.833   9.176
15562SOL    HW148127   4.607   4.846   9.191
15562SOL    HW248128   4.706   4.764   9.111
15563SOL     OW48129   5.004   4.117   8.682
15563SOL    HW148130   5.029   4.186   8.744
15563SOL    HW248131   4.908   4.118   8.684
15564SOL     OW48132   3.811   5.339   8.830
15564SOL    HW148133   3.777   5.355   8.742
15564SOL    HW248134   3.888   5.283   8.816
15565SOL     OW48135   4.972   5.078   7.849
15565SOL    HW148136   5.031   5.146   7.880
15565SOL    HW248137   4.886   5.105   7.881
15566SOL     OW48138   5.013   5.198   8.595
15566SOL    HW148139   5.062   5.187   8.676
15566SOL    HW248140   4.956   5.122   8.590
15567SOL     OW48141   5.323   4.393   7.952
15567SOL    HW148142   5.241   4.409   7.998
15567SOL    HW248143   5.321   4.453   7.877
15568SOL     OW48144   4.124   4.471   9.024
15568SOL    HW148145   4.204   4.513   8.991
15568SOL    HW248146   4.107   4.401   8.960
15569SOL     OW48147   5.345   4.516   9.143
15569SOL    HW148148   5.253   4.539   9.129
15569SOL    HW248149   5.387   4.538   9.060
15570SOL     OW48150   5.100   4.573   8.486
15570SOL    HW148151   5.005   4.565   8.472
15570SOL    HW248152   5.140   4.528   8.412
15571SOL     OW48153   4.498   4.373   8.519
15571SOL    HW148154   4.562   4.330   8.461
15571SOL    HW248155   4.494   4.463   8.488
15572SOL     OW48156   5.472   4.688   9.314
15572SOL    HW148157   5.434   4.624   9.254
15572SOL    HW248158   5.404   4.704   9.379
15573SOL     OW48159   4.030   3.799   8.059
15573SOL    HW148160   3.953   3.857   8.060
15573SOL    HW248161   4.032   3.761   8.146
15574SOL     OW48162   5.391   4.127   7.820
15574SOL    HW148163   5.330   4.061   7.852
15574SOL    HW248164   5.383   4.199   7.883
15575SOL     OW48165   4.839   4.536   8.448
15575SOL    HW148166   4.783   4.529   8.526
15575SOL    HW248167   4.809   4.466   8.391
15576SOL     OW48168   4.711   5.290   9.163
15576SOL    HW148169   4.694   5.333   9.080
15576SOL    HW248170   4.756   5.209   9.139
15577SOL     OW48171   5.576   5.220   9.060
15577SOL    HW148172   5.593   5.255   8.972
15577SOL    HW248173   5.660   5.230   9.106
15578SOL     OW48174   4.094   4.618   9.265
15578SOL    HW148175   4.187   4.624   9.286
15578SOL    HW248176   4.091   4.565   9.185
15579SOL     OW48177   5.308   3.986   7.581
15579SOL    HW148178   5.232   3.948   7.626
15579SOL    HW248179   5.352   4.037   7.648
15580SOL     OW48180   5.051   4.569   7.511
15580SOL    HW148181   5.028   4.476   7.513
15580SOL    HW248182   5.065   4.588   7.418
15581SOL     OW48183   4.860   5.059   8.294
15581SOL    HW148184   4.791   4.994   8.311
15581SOL    HW248185   4.825   5.112   8.222
15582SOL     OW48186   4.831   4.162   9.151
15582SOL    HW148187   4.784   4.198   9.227
15582SOL    HW248188   4.835   4.234   9.088
15583SOL     OW48189   4.948   3.964   8.965
15583SOL    HW148190   4.867   4.013   8.954
15583SOL    HW248191   4.938   3.888   8.908
15584SOL     OW48192   3.711   5.083   7.705
15584SOL    HW148193   3.620   5.110   7.691
15584SOL    HW248194   3.715   4.995   7.668
15585SOL     OW48195   3.817   5.504   8.391
15585SOL    HW148196   3.779   5.428   8.347
15585SOL    HW248197   3.908   5.506   8.362
15586SOL     OW48198   4.717   4.495   8.688
15586SOL    HW148199   4.735   4.457   8.774
15586SOL    HW248200   4.627   4.468   8.669
15587SOL     OW48201   3.892   4.268   9.183
15587SOL    HW148202   3.977   4.230   9.162
15587SOL    HW248203   3.884   4.345   9.126
15588SOL     OW48204   5.102   4.654   9.108
15588SOL    HW148205   5.124   4.746   9.096
15588SOL    HW248206   5.094   4.619   9.019
15589SOL     OW48207   5.366   4.345   8.671
15589SOL    HW148208   5.341   4.264   8.716
15589SOL    HW248209   5.436   4.318   8.611
15590SOL     OW48210   3.992   5.287   9.207
15590SOL    HW148211   3.928   5.313   9.274
15590SOL    HW248212   3.999   5.192   9.215
15591SOL     OW48213   4.441   4.170   8.705
15591SOL    HW148214   4.386   4.099   8.671
15591SOL    HW248215   4.439   4.236   8.635
15592SOL     OW48216   4.640   5.405   8.924
15592SOL    HW148217   4.635   5.345   8.850
15592SOL    HW248218   4.584   5.479   8.899
15593SOL     OW48219   3.948   4.882   9.001
15593SOL    HW148220   3.861   4.842   9.010
15593SOL    HW248221   3.960   4.892   8.907
15594SOL     OW48222   5.053   4.766   8.671
15594SOL    HW148223   5.067   4.696   8.607
15594SOL    HW248224   4.985   4.821   8.631
15595SOL     OW48225   5.518   5.444   8.621
15595SOL    HW148226   5.568   5.472   8.544
15595SOL    HW248227   5.472   5.365   8.592
15596SOL     OW48228   4.968   5.475   8.583
15596SOL    HW148229   5.046   5.493   8.530
15596SOL    HW248230   4.965   5.380   8.588
15597SOL     OW48231   4.421   5.403   9.200
15597SOL    HW148232   4.364   5.458   9.146
15597SOL    HW248233   4.501   5.393   9.149
15598SOL     OW48234   5.511   3.879   8.005
15598SOL    HW148235   5.532   3.884   7.912
15598SOL    HW248236   5.423   3.844   8.009
15599SOL     OW48237   5.127   5.293   7.950
15599SOL    HW148238   5.176   5.323   7.873
15599SOL    HW248239   5.071   5.367   7.974
15600SOL     OW48240   3.825   5.563   9.299
15600SOL    HW148241   3.796   5.474   9.320
15600SOL    HW248242   3.892   5.583   9.364
15601SOL     OW48243   4.509   5.006   8.863
15601SOL    HW148244   4.479   5.043   8.946
15601SOL    HW248245   4.429   4.999   8.810
15602SOL     OW48246   4.384   5.348   7.604
15602SOL    HW148247   4.399   5.367   7.511
15602SOL    HW248248   4.331   5.268   7.603
15603SOL     OW48249   5.346   5.453   8.854
15603SOL    HW148250   5.396   5.449   8.773
15603SOL    HW248251   5.332   5.546   8.870
15604SOL     OW48252   5.560   3.894   8.420
15604SOL    HW148253   5.575   3.807   8.382
15604SOL    HW248254   5.472   3.918   8.392
15605SOL     OW48255   4.931   5.337   7.478
15605SOL    HW148256   4.925   5.247   7.512
15605SOL    HW248257   4.865   5.341   7.409
15606SOL     OW48258   4.556   4.733   8.788
15606SOL    HW148259   4.575   4.720   8.695
15606SOL    HW248260   4.548   4.828   8.797
15607SOL     OW48261   5.205   5.381   7.497
15607SOL    HW148262   5.114   5.357   7.479
15607SOL    HW248263   5.248   5.378   7.412
15608SOL     OW48264   5.349   5.022   8.739
15608SOL    HW148265   5.376   4.979   8.820
15608SOL    HW248266   5.278   5.081   8.766
15609SOL     OW48267   4.748   3.975   8.415
15609SOL    HW148268   4.749   3.928   8.332
15609SOL    HW248269   4.737   3.907   8.481
15610SOL     OW48270   4.325   5.256   7.921
15610SOL    HW148271   4.383   5.198   7.871
15610SOL    HW248272   4.244   5.205   7.932
15611SOL     OW48273   5.477   4.119   8.848
15611SOL    HW148274   5.544   4.183   8.822
15611SOL    HW248275   5.490   4.046   8.787
15612SOL     OW48276   3.993   5.128   7.753
15612SOL    HW148277   3.903   5.110   7.726
15612SOL    HW248278   3.993   5.116   7.848
15613SOL     OW48279   3.862   4.775   9.287
15613SOL    HW148280   3.812   4.770   9.205
15613SOL    HW248281   3.935   4.715   9.275
15614SOL     OW48282   3.785   4.065   7.500
15614SOL    HW148283   3.717   4.051   7.433
15614SOL    HW248284   3.830   4.144   7.472
15615SOL     OW48285   5.153   4.581   8.850
15615SOL    HW148286   5.097   4.634   8.794
15615SOL    HW248287   5.236   4.575   8.802
15616SOL     OW48288   3.793   3.875   7.739
15616SOL    HW148289   3.768   3.948   7.682
15616SOL    HW248290   3.878   3.847   7.706
15617SOL     OW48291   4.902   5.088   7.570
15617SOL    HW148292   4.809   5.065   7.565
15617SOL    HW248293   4.929   5.059   7.657
15618SOL     OW48294   4.361   4.570   8.919
15618SOL    HW148295   4.403   4.637   8.865
15618SOL    HW248296   4.411   4.490   8.902
15619SOL     OW48297   5.211   5.531   8.457
15619SOL    HW148298   5.226   5.555   8.366
15619SOL    HW248299   5.254   5.446   8.466
15620SOL     OW48300   4.467   4.270   9.165
15620SOL    HW148301   4.502   4.350   9.205
15620SOL    HW248302   4.515   4.199   9.209
15621SOL     OW48303   5.202   4.912   9.077
15621SOL    HW148304   5.191   4.932   9.170
15621SOL    HW248305   5.293   4.933   9.059
15622SOL     OW48306   4.096   5.469   9.022
15622SOL    HW148307   4.013   5.500   8.986
15622SOL    HW248308   4.074   5.388   9.068
15623SOL     OW48309   5.400   4.609   8.708
15623SOL    HW148310   5.387   4.518   8.681
15623SOL    HW248311   5.377   4.661   8.630
15624SOL     OW48312   5.460   4.070   9.113
15624SOL    HW148313   5.460   4.100   9.022
15624SOL    HW248314   5.398   3.997   9.114
15625SOL     OW48315   5.501   4.651   8.954
15625SOL    HW148316   5.460   4.735   8.974
15625SOL    HW248317   5.474   4.632   8.864
15626SOL     OW48318   4.627   5.121   7.516
15626SOL    HW148319   4.532   5.115   7.529
15626SOL    HW248320   4.637   5.185   7.445
15627SOL     OW48321   4.364   5.568   8.369
15627SOL    HW148322   4.445   5.610   8.398
15627SOL    HW248323   4.379   5.475   8.383
15628SOL     OW48324   4.887   4.799   7.510
15628SOL    HW148325   4.815   4.786   7.448
15628SOL    HW248326   4.924   4.712   7.522
15629SOL     OW48327   5.566   5.279   8.289
15629SOL    HW148328   5.483   5.267   8.243
15629SOL    HW248329   5.579   5.197   8.337
15630SOL     OW48330   3.964   5.029   9.298
15630SOL    HW148331   3.923   4.950   9.262
15630SOL    HW248332   3.945   5.026   9.391
15631SOL     OW48333   3.783   4.943   8.074
15631SOL    HW148334   3.811   4.871   8.130
15631SOL    HW248335   3.780   4.906   7.986
15632SOL     OW48336   4.412   5.121   9.110
15632SOL    HW148337   4.326   5.080   9.099
15632SOL    HW248338   4.393   5.214   9.121
15633SOL     OW48339   5.574   3.908   8.694
15633SOL    HW148340   5.532   3.826   8.719
15633SOL    HW248341   5.562   3.913   8.599
15634SOL     OW48342   5.393   5.216   8.545
15634SOL    HW148343   5.326   5.188   8.483
15634SOL    HW248344   5.394   5.147   8.612
15635SOL     OW48345   4.067   4.292   8.808
15635SOL    HW148346   4.078   4.205   8.845
15635SOL    HW248347   4.035   4.276   8.719
15636SOL     OW48348   4.535   5.289   8.126
15636SOL    HW148349   4.506   5.346   8.055
15636SOL    HW248350   4.473   5.217   8.126
15637SOL     OW48351   5.178   3.909   8.656
15637SOL    HW148352   5.116   3.838   8.637
15637SOL    HW248353   5.123   3.987   8.660
15638SOL     OW48354   4.724   3.750   8.570
15638SOL    HW148355   4.653   3.700   8.530
15638SOL    HW248356   4.801   3.694   8.561
15639SOL     OW48357   4.471   5.061   7.792
15639SOL    HW148358   4.408   5.005   7.746
15639SOL    HW248359   4.557   5.026   7.767
15640SOL     OW48360   4.389   5.398   8.653
15640SOL    HW148361   4.360   5.398   8.744
15640SOL    HW248362   4.452   5.327   8.647
15641SOL     OW48363   5.304   3.945   8.345
15641SOL    HW148364   5.218   3.970   8.377
15641SOL    HW248365   5.322   4.005   8.273
15642SOL     OW48366   4.615   5.393   7.785
15642SOL    HW148367   4.544   5.363   7.728
15642SOL    HW248368   4.574   5.459   7.842
15643SOL     OW48369   3.940   4.354   9.446
15643SOL    HW148370   3.869   4.292   9.462
15643SOL    HW248371   3.946   4.359   9.350
15644SOL     OW48372   3.941   4.020  10.310
15644SOL    HW148373   3.973   3.977  10.389
15644SOL    HW248374   3.855   3.980  10.295
15645SOL     OW48375   3.729   4.085   9.944
15645SOL    HW148376   3.639   4.116   9.951
15645SOL    HW248377   3.723   4.001   9.900
15646SOL     OW48378   4.294   5.026  10.504
15646SOL    HW148379   4.214   5.027  10.451
15646SOL    HW248380   4.310   5.118  10.526
15647SOL     OW48381   5.307   5.246  10.019
15647SOL    HW148382   5.259   5.216  10.096
15647SOL    HW248383   5.241   5.250   9.949
15648SOL     OW48384   4.865   4.418  10.006
15648SOL    HW148385   4.908   4.501   9.986
15648SOL    HW248386   4.814   4.435  10.085
15649SOL     OW48387   5.498   4.327   9.535
15649SOL    HW148388   5.479   4.330   9.441
15649SOL    HW248389   5.465   4.242   9.564
15650SOL     OW48390   4.479   4.867  10.372
15650SOL    HW148391   4.410   4.903  10.429
15650SOL    HW248392   4.510   4.941  10.321
15651SOL     OW48393   4.604   4.481  11.132
15651SOL    HW148394   4.594   4.555  11.192
15651SOL    HW248395   4.624   4.522  11.047
15652SOL     OW48396   4.412   4.718   9.956
15652SOL    HW148397   4.476   4.716  10.027
15652SOL    HW248398   4.343   4.777   9.988
15653SOL     OW48399   4.437   4.875  11.139
15653SOL    HW148400   4.489   4.950  11.168
15653SOL    HW248401   4.363   4.913  11.093
15654SOL     OW48402   4.051   5.139  10.374
15654SOL    HW148403   3.982   5.095  10.326
15654SOL    HW248404   4.098   5.189  10.308
15655SOL     OW48405   5.177   5.225  10.674
15655SOL    HW148406   5.234   5.302  10.683
15655SOL    HW248407   5.110   5.236  10.741
15656SOL     OW48408   4.172   4.119  10.808
15656SOL    HW148409   4.247   4.060  10.800
15656SOL    HW248410   4.096   4.062  10.809
15657SOL     OW48411   5.320   4.160  10.054
15657SOL    HW148412   5.245   4.166   9.994
15657SOL    HW248413   5.325   4.247  10.094
15658SOL     OW48414   3.940   5.443   9.774
15658SOL    HW148415   3.967   5.517   9.828
15658SOL    HW248416   4.012   5.430   9.712
15659SOL     OW48417   4.861   5.067  11.006
15659SOL    HW148418   4.913   5.050  11.085
15659SOL    HW248419   4.810   4.986  10.993
15660SOL     OW48420   3.968   5.176   9.854
15660SOL    HW148421   3.939   5.266   9.846
15660SOL    HW248422   3.901   5.134   9.908
15661SOL     OW48423   4.002   4.817  10.211
15661SOL    HW148424   4.003   4.724  10.234
15661SOL    HW248425   3.927   4.853  10.258
15662SOL     OW48426   4.317   5.524  10.737
15662SOL    HW148427   4.237   5.505  10.786
15662SOL    HW248428   4.342   5.612  10.764
15663SOL     OW48429   4.324   4.706   9.450
15663SOL    HW148430   4.360   4.765   9.383
15663SOL    HW248431   4.358   4.740   9.532
15664SOL     OW48432   5.325   3.848  10.778
15664SOL    HW148433   5.350   3.927  10.730
15664SOL    HW248434   5.299   3.881  10.864
15665SOL     OW48435   3.840   4.369   9.871
15665SOL    HW148436   3.816   4.277   9.885
15665SOL    HW248437   3.829   4.410   9.957
15666SOL     OW48438   5.568   5.477   9.634
15666SOL    HW148439   5.639   5.454   9.694
15666SOL    HW248440   5.583   5.568   9.612
15667SOL     OW48441   3.786   5.317   9.420
15667SOL    HW148442   3.770   5.223   9.431
15667SOL    HW248443   3.747   5.357   9.498
15668SOL     OW48444   5.424   4.645   9.951
15668SOL    HW148445   5.484   4.589   9.902
15668SOL    HW248446   5.386   4.703   9.884
15669SOL     OW48447   5.370   4.825   9.742
15669SOL    HW148448   5.455   4.825   9.698
15669SOL    HW248449   5.378   4.893   9.809
15670SOL     OW48450   3.847   4.470  10.899
15670SOL    HW148451   3.936   4.504  10.891
15670SOL    HW248452   3.790   4.544  10.879
15671SOL     OW48453   4.329   5.115  10.052
15671SOL    HW148454   4.289   5.028  10.052
15671SOL    HW248455   4.319   5.147   9.962
15672SOL     OW48456   4.997   4.957  10.728
15672SOL    HW148457   5.027   4.889  10.668
15672SOL    HW248458   5.056   4.950  10.804
15673SOL     OW48459   4.553   3.731   9.872
15673SOL    HW148460   4.593   3.802   9.822
15673SOL    HW248461   4.459   3.743   9.858
15674SOL     OW48462   3.902   4.685  10.594
15674SOL    HW148463   3.989   4.647  10.583
15674SOL    HW248464   3.850   4.648  10.523
15675SOL     OW48465   5.261   4.723   9.507
15675SOL    HW148466   5.190   4.663   9.531
15675SOL    HW248467   5.295   4.754   9.591
15676SOL     OW48468   4.902   5.536  10.939
15676SOL    HW148469   4.907   5.598  10.866
15676SOL    HW248470   4.919   5.451  10.900
15677SOL     OW48471   4.066   3.966  11.163
15677SOL    HW148472   4.108   4.051  11.154
15677SOL    HW248473   3.972   3.985  11.168
15678SOL     OW48474   5.186   5.148  10.245
15678SOL    HW148475   5.122   5.162  10.315
15678SOL    HW248476   5.174   5.057  10.218
15679SOL     OW48477   5.372   5.494   9.881
15679SOL    HW148478   5.352   5.459   9.794
15679SOL    HW248479   5.360   5.420   9.940
15680SOL     OW48480   4.323   4.456   9.592
15680SOL    HW148481   4.320   4.534   9.537
15680SOL    HW248482   4.249   4.465   9.651
15681SOL     OW48483   5.004   4.103  10.250
15681SOL    HW148484   4.915   4.068  10.253
15681SOL    HW248485   5.055   4.045  10.306
15682SOL     OW48486   5.299   5.406   9.623
15682SOL    HW148487   5.393   5.422   9.610
15682SOL    HW248488   5.265   5.390   9.535
15683SOL     OW48489   4.513   4.339  10.759
15683SOL    HW148490   4.484   4.311  10.846
15683SOL    HW248491   4.483   4.269  10.701
15684SOL     OW48492   5.106   4.199  10.986
15684SOL    HW148493   5.114   4.249  11.067
15684SOL    HW248494   5.179   4.136  10.989
15685SOL     OW48495   4.672   4.607  10.896
15685SOL    HW148496   4.727   4.539  10.856
15685SOL    HW248497   4.623   4.645  10.823
15686SOL     OW48498   4.720   4.126  10.538
15686SOL    HW148499   4.628   4.140  10.562
15686SOL    HW248500   4.717   4.096  10.447
15687SOL     OW48501   4.778   4.414   9.730
15687SOL    HW148502   4.788   4.404   9.825
15687SOL    HW248503   4.694   4.372   9.710
15688SOL     OW48504   3.807   4.511  10.106
15688SOL    HW148505   3.891   4.525  10.149
15688SOL    HW248506   3.761   4.595  10.115
15689SOL     OW48507   3.845   5.601  10.893
15689SOL    HW148508   3.844   5.580  10.987
15689SOL    HW248509   3.775   5.547  10.856
15690SOL     OW48510   5.414   4.288  11.147
15690SOL    HW148511   5.381   4.362  11.095
15690SOL    HW248512   5.450   4.228  11.082
15691SOL     OW48513   5.109   4.868   9.857
15691SOL    HW148514   5.180   4.848   9.796
15691SOL    HW248515   5.052   4.927   9.808
15692SOL     OW48516   4.273   3.887  10.196
15692SOL    HW148517   4.271   3.956  10.263
15692SOL    HW248518   4.268   3.934  10.113
15693SOL     OW48519   4.749   5.195   9.793
15693SOL    HW148520   4.706   5.254   9.731
15693SOL    HW248521   4.689   5.192   9.867
15694SOL     OW48522   4.079   5.541  10.187
15694SOL    HW148523   4.123   5.456  10.190
15694SOL    HW248524   4.149   5.605  10.199
15695SOL     OW48525   5.535   4.777  10.172
15695SOL    HW148526   5.485   4.748  10.095
15695SOL    HW248527   5.470   4.784  10.241
15696SOL     OW48528   4.943   5.267  10.827
15696SOL    HW148529   4.936   5.193  10.888
15696SOL    HW248530   4.888   5.242  10.753
15697SOL     OW48531   4.048   4.663   9.563
15697SOL    HW148532   4.116   4.689   9.501
15697SOL    HW248533   4.004   4.590   9.521
15698SOL     OW48534   5.209   4.481  10.029
15698SOL    HW148535   5.204   4.440  10.115
15698SOL    HW248536   5.290   4.532  10.031
15699SOL     OW48537   4.192   5.002  11.055
15699SOL    HW148538   4.167   5.007  10.963
15699SOL    HW248539   4.109   4.992  11.102
15700SOL     OW48540   4.854   5.494   9.545
15700SOL    HW148541   4.774   5.459   9.583
15700SOL    HW248542   4.876   5.434   9.474
15701SOL     OW48543   3.931   3.989  10.809
15701SOL    HW148544   3.855   4.046  10.798
15701SOL    HW248545   3.894   3.906  10.841
15702SOL     OW48546   5.359   5.118   9.414
15702SOL    HW148547   5.316   5.199   9.389
15702SOL    HW248548   5.296   5.049   9.391
15703SOL     OW48549   4.182   5.462   9.628
15703SOL    HW148550   4.238   5.509   9.690
15703SOL    HW248551   4.244   5.420   9.568
15704SOL     OW48552   5.111   3.820   9.728
15704SOL    HW148553   5.099   3.791   9.638
15704SOL    HW248554   5.197   3.863   9.728
15705SOL     OW48555   3.986   5.514  10.529
15705SOL    HW148556   4.033   5.437  10.561
15705SOL    HW248557   3.968   5.494  10.437
15706SOL     OW48558   4.670   5.420  10.200
15706SOL    HW148559   4.756   5.379  10.203
15706SOL    HW248560   4.623   5.373  10.131
15707SOL     OW48561   4.124   4.416   9.797
15707SOL    HW148562   4.143   4.323   9.809
15707SOL    HW248563   4.029   4.420   9.790
15708SOL     OW48564   5.248   3.949  11.030
15708SOL    HW148565   5.259   3.964  11.124
15708SOL    HW248566   5.164   3.905  11.022
15709SOL     OW48567   4.490   4.005  11.071
15709SOL    HW148568   4.571   3.953  11.067
15709SOL    HW248569   4.442   3.970  11.145
15710SOL     OW48570   4.594   5.248  10.508
15710SOL    HW148571   4.582   5.214  10.420
15710SOL    HW248572   4.668   5.199  10.543
15711SOL     OW48573   5.061   4.319  10.739
15711SOL    HW148574   5.092   4.291  10.825
15711SOL    HW248575   5.100   4.406  10.726
15712SOL     OW48576   4.538   5.114  10.258
15712SOL    HW148577   4.623   5.104  10.216
15712SOL    HW248578   4.477   5.122  10.184
15713SOL     OW48579   4.651   4.234  10.202
15713SOL    HW148580   4.627   4.228  10.110
15713SOL    HW248581   4.680   4.146  10.225
15714SOL     OW48582   4.297   3.793   9.826
15714SOL    HW148583   4.207   3.775   9.854
15714SOL    HW248584   4.288   3.864   9.762
15715SOL     OW48585   5.163   4.935   9.353
15715SOL    HW148586   5.186   4.853   9.397
15715SOL    HW248587   5.072   4.951   9.378
15716SOL     OW48588   4.667   3.961   9.769
15716SOL    HW148589   4.633   3.983   9.682
15716SOL    HW248590   4.760   3.987   9.765
15717SOL     OW48591   4.802   4.409  10.764
15717SOL    HW148592   4.741   4.336  10.760
15717SOL    HW248593   4.889   4.370  10.753
15718SOL     OW48594   4.926   5.315  10.118
15718SOL    HW148595   4.944   5.370  10.042
15718SOL    HW248596   5.010   5.304  10.161
15719SOL     OW48597   4.197   4.877  10.029
15719SOL    HW148598   4.129   4.856  10.093
15719SOL    HW248599   4.154   4.863   9.944
15720SOL     OW48600   4.984   5.518   9.927
15720SOL    HW148601   5.031   5.576   9.867
15720SOL    HW248602   4.908   5.569   9.955
15721SOL     OW48603   4.729   4.302   9.370
15721SOL    HW148604   4.686   4.379   9.331
15721SOL    HW248605   4.814   4.334   9.400
15722SOL     OW48606   3.823   4.258  10.728
15722SOL    HW148607   3.909   4.268  10.687
15722SOL    HW248608   3.814   4.336  10.783
15723SOL     OW48609   4.282   3.960  10.484
15723SOL    HW148610   4.315   3.870  10.473
15723SOL    HW248611   4.190   3.950  10.507
15724SOL     OW48612   4.590   4.181   9.940
15724SOL    HW148613   4.542   4.233   9.875
15724SOL    HW248614   4.611   4.100   9.894
15725SOL     OW48615   4.746   3.785  10.068
15725SOL    HW148616   4.684   3.789   9.995
15725SOL    HW248617   4.722   3.706  10.116
15726SOL     OW48618   5.159   4.888  10.158
15726SOL    HW148619   5.088   4.824  10.161
15726SOL    HW248620   5.180   4.895  10.065
15727SOL     OW48621   5.179   4.340  10.268
15727SOL    HW148622   5.120   4.264  10.264
15727SOL    HW248623   5.237   4.321  10.342
15728SOL     OW48624   5.567   4.533   9.705
15728SOL    HW148625   5.628   4.479   9.755
15728SOL    HW248626   5.536   4.475   9.635
15729SOL     OW48627   4.213   5.146   9.461
15729SOL    HW148628   4.139   5.114   9.513
15729SOL    HW248629   4.201   5.106   9.375
15730SOL     OW48630   5.406   4.994   9.947
15730SOL    HW148631   5.501   4.995   9.960
15730SOL    HW248632   5.379   5.084   9.966
15731SOL     OW48633   5.124   4.305   9.389
15731SOL    HW148634   5.067   4.279   9.460
15731SOL    HW248635   5.203   4.253   9.401
15732SOL     OW48636   4.263   4.010   9.655
15732SOL    HW148637   4.290   3.951   9.585
15732SOL    HW248638   4.231   4.088   9.610
15733SOL     OW48639   5.429   4.984  10.855
15733SOL    HW148640   5.465   4.898  10.878
15733SOL    HW248641   5.491   5.046  10.894
15734SOL     OW48642   4.776   5.098  10.659
15734SOL    HW148643   4.700   5.055  10.697
15734SOL    HW248644   4.850   5.043  10.685
15735SOL     OW48645   5.339   5.357  10.978
15735SOL    HW148646   5.325   5.386  10.888
15735SOL    HW248647   5.418   5.302  10.974
15736SOL     OW48648   4.868   4.952  10.412
15736SOL    HW148649   4.786   4.960  10.462
15736SOL    HW248650   4.844   4.979  10.323
15737SOL     OW48651   5.351   4.823  10.373
15737SOL    HW148652   5.342   4.880  10.449
15737SOL    HW248653   5.274   4.842  10.320
15738SOL     OW48654   4.645   3.809  10.700
15738SOL    HW148655   4.661   3.793  10.607
15738SOL    HW248656   4.725   3.851  10.731
15739SOL     OW48657   4.707   4.837  11.035
15739SOL    HW148658   4.615   4.852  11.054
15739SOL    HW248659   4.707   4.760  10.978
15740SOL     OW48660   4.442   4.788   9.687
15740SOL    HW148661   4.423   4.759   9.776
15740SOL    HW248662   4.521   4.740   9.662
15741SOL     OW48663   4.138   4.550  10.572
15741SOL    HW148664   4.213   4.557  10.630
15741SOL    HW248665   4.110   4.459  10.578
15742SOL     OW48666   4.984   4.092  10.603
15742SOL    HW148667   5.017   4.174  10.640
15742SOL    HW248668   4.895   4.112  10.575
15743SOL     OW48669   3.804   5.296  10.669
15743SOL    HW148670   3.772   5.361  10.606
15743SOL    HW248671   3.898   5.293  10.655
15744SOL     OW48672   4.060   4.839   9.789
15744SOL    HW148673   4.058   4.909   9.724
15744SOL    HW248674   4.058   4.759   9.738
15745SOL     OW48675   4.272   4.260  10.183
15745SOL    HW148676   4.276   4.310  10.102
15745SOL    HW248677   4.352   4.283  10.230
15746SOL     OW48678   4.976   5.069   9.715
15746SOL    HW148679   5.035   5.141   9.739
15746SOL    HW248680   4.889   5.100   9.742
15747SOL     OW48681   5.016   5.188  10.453
15747SOL    HW148682   5.068   5.188  10.534
15747SOL    HW248683   4.963   5.109  10.459
15748SOL     OW48684   5.310   4.338   9.799
15748SOL    HW148685   5.253   4.388   9.857
15748SOL    HW248686   5.324   4.395   9.723
15749SOL     OW48687   4.071   5.256  10.613
15749SOL    HW148688   4.060   5.210  10.530
15749SOL    HW248689   4.166   5.268  10.621
15750SOL     OW48690   4.141   4.470  10.914
15750SOL    HW148691   4.206   4.512  10.857
15750SOL    HW248692   4.171   4.380  10.921
15751SOL     OW48693   5.314   4.478  10.980
15751SOL    HW148694   5.236   4.532  10.980
15751SOL    HW248695   5.384   4.536  10.951
15752SOL     OW48696   4.722   3.858  11.079
15752SOL    HW148697   4.776   3.933  11.054
15752SOL    HW248698   4.769   3.782  11.044
15753SOL     OW48699   4.212   3.750  11.075
15753SOL    HW148700   4.169   3.705  11.003
15753SOL    HW248701   4.159   3.829  11.089
15754SOL     OW48702   4.334   4.592  10.364
15754SOL    HW148703   4.348   4.684  10.340
15754SOL    HW248704   4.253   4.593  10.415
15755SOL     OW48705   5.060   4.584  10.327
15755SOL    HW148706   4.978   4.575  10.278
15755SOL    HW248707   5.106   4.502  10.314
15756SOL     OW48708   4.957   4.251   9.596
15756SOL    HW148709   4.942   4.168   9.641
15756SOL    HW248710   4.895   4.312   9.636
15757SOL     OW48711   4.023   3.914  10.555
15757SOL    HW148712   3.986   3.942  10.639
15757SOL    HW248713   4.004   3.821  10.550
15758SOL     OW48714   3.736   5.037  10.591
15758SOL    HW148715   3.784   4.979  10.650
15758SOL    HW248716   3.763   5.125  10.617
15759SOL     OW48717   4.463   4.353  10.378
15759SOL    HW148718   4.528   4.341  10.309
15759SOL    HW248719   4.426   4.440  10.362
15760SOL     OW48720   5.463   4.629  11.237
15760SOL    HW148721   5.479   4.650  11.145
15760SOL    HW248722   5.378   4.668  11.256
15761SOL     OW48723   4.049   3.780   9.932
15761SOL    HW148724   4.021   3.870   9.949
15761SOL    HW248725   3.990   3.726   9.986
15762SOL     OW48726   5.305   4.078   9.710
15762SOL    HW148727   5.369   4.032   9.764
15762SOL    HW248728   5.304   4.167   9.744
15763SOL     OW48729   4.752   4.484  10.264
15763SOL    HW148730   4.742   4.498  10.358
15763SOL    HW248731   4.725   4.393  10.251
15764SOL     OW48732   4.702   5.285  11.035
15764SOL    HW148733   4.684   5.331  10.953
15764SOL    HW248734   4.750   5.207  11.009
15765SOL     OW48735   5.581   5.229  10.924
15765SOL    HW148736   5.598   5.255  10.833
15765SOL    HW248737   5.666   5.236  10.967
15766SOL     OW48738   4.073   4.636  11.122
15766SOL    HW148739   4.156   4.656  11.166
15766SOL    HW248740   4.097   4.575  11.052
15767SOL     OW48741   5.302   4.016   9.442
15767SOL    HW148742   5.215   4.004   9.403
15767SOL    HW248743   5.285   4.036   9.534
15768SOL     OW48744   5.018   4.553   9.346
15768SOL    HW148745   5.058   4.466   9.349
15768SOL    HW248746   5.043   4.588   9.261
15769SOL     OW48747   4.792   5.068  10.172
15769SOL    HW148748   4.796   4.995  10.111
15769SOL    HW248749   4.840   5.138  10.129
15770SOL     OW48750   4.043   4.537  10.248
15770SOL    HW148751   4.124   4.536  10.197
15770SOL    HW248752   4.037   4.450  10.286
15771SOL     OW48753   4.053   4.262  10.331
15771SOL    HW148754   4.012   4.177  10.314
15771SOL    HW248755   4.131   4.263  10.275
15772SOL     OW48756   4.856   4.089  11.006
15772SOL    HW148757   4.808   4.148  11.063
15772SOL    HW248758   4.941   4.132  10.993
15773SOL     OW48759   4.886   3.914  10.792
15773SOL    HW148760   4.871   3.980  10.860
15773SOL    HW248761   4.927   3.963  10.720
15774SOL     OW48762   3.726   5.054   9.520
15774SOL    HW148763   3.640   5.070   9.481
15774SOL    HW248764   3.728   4.960   9.537
15775SOL     OW48765   3.818   5.502  10.262
15775SOL    HW148766   3.784   5.424  10.217
15775SOL    HW248767   3.905   5.516  10.224
15776SOL     OW48768   4.215   5.301  10.219
15776SOL    HW148769   4.288   5.358  10.243
15776SOL    HW248770   4.253   5.239  10.157
15777SOL     OW48771   4.691   4.511  10.530
15777SOL    HW148772   4.744   4.492  10.607
15777SOL    HW248773   4.610   4.461  10.543
15778SOL     OW48774   3.762   4.268  10.430
15778SOL    HW148775   3.810   4.258  10.348
15778SOL    HW248776   3.829   4.266  10.498
15779SOL     OW48777   3.927   4.246  11.042
15779SOL    HW148778   3.973   4.200  10.972
15779SOL    HW248779   3.889   4.323  10.998
15780SOL     OW48780   5.101   4.658  10.964
15780SOL    HW148781   5.124   4.751  10.961
15780SOL    HW248782   5.105   4.629  10.873
15781SOL     OW48783   4.540   4.296   9.662
15781SOL    HW148784   4.553   4.249   9.579
15781SOL    HW248785   4.465   4.353   9.646
15782SOL     OW48786   5.355   4.304  10.472
15782SOL    HW148787   5.344   4.261  10.556
15782SOL    HW248788   5.446   4.287  10.447
15783SOL     OW48789   3.956   5.269  11.036
15783SOL    HW148790   3.937   5.320  11.115
15783SOL    HW248791   3.967   5.180  11.068
15784SOL     OW48792   4.443   4.163  10.568
15784SOL    HW148793   4.385   4.092  10.539
15784SOL    HW248794   4.438   4.228  10.497
15785SOL     OW48795   4.624   5.407  10.796
15785SOL    HW148796   4.618   5.356  10.716
15785SOL    HW248797   4.623   5.498  10.767
15786SOL     OW48798   4.178   4.225   9.522
15786SOL    HW148799   4.235   4.302   9.519
15786SOL    HW248800   4.095   4.255   9.486
15787SOL     OW48801   3.858   4.871  10.785
15787SOL    HW148802   3.866   4.827  10.869
15787SOL    HW248803   3.874   4.802  10.720
15788SOL     OW48804   5.040   4.768  10.527
15788SOL    HW148805   5.057   4.702  10.459
15788SOL    HW248806   4.981   4.830  10.485
15789SOL     OW48807   5.044   4.580   9.619
15789SOL    HW148808   4.966   4.548   9.664
15789SOL    HW248809   5.023   4.571   9.526
15790SOL     OW48810   5.517   5.451  10.482
15790SOL    HW148811   5.571   5.477  10.407
15790SOL    HW248812   5.477   5.369  10.455
15791SOL     OW48813   4.967   5.464  10.431
15791SOL    HW148814   5.047   5.487  10.385
15791SOL    HW248815   4.972   5.369  10.441
15792SOL     OW48816   3.793   5.001  10.312
15792SOL    HW148817   3.766   5.002  10.404
15792SOL    HW248818   3.739   4.933  10.272
15793SOL     OW48819   4.413   5.399  11.052
15793SOL    HW148820   4.353   5.470  11.031
15793SOL    HW248821   4.485   5.408  10.989
15794SOL     OW48822   5.477   3.887   9.831
15794SOL    HW148823   5.529   3.873   9.752
15794SOL    HW248824   5.447   3.799   9.856
15795SOL     OW48825   5.128   5.292   9.812
15795SOL    HW148826   5.177   5.324   9.736
15795SOL    HW248827   5.064   5.361   9.830
15796SOL     OW48828   3.849   5.534  11.155
15796SOL    HW148829   3.808   5.457  11.195
15796SOL    HW248830   3.904   5.571  11.224
15797SOL     OW48831   5.003   4.654   9.985
15797SOL    HW148832   5.076   4.593   9.992
15797SOL    HW248833   5.035   4.725   9.929
15798SOL     OW48834   4.523   5.002  10.727
15798SOL    HW148835   4.493   5.045  10.807
15798SOL    HW248836   4.453   5.020  10.663
15799SOL     OW48837   4.386   5.357   9.469
15799SOL    HW148838   4.403   5.373   9.376
15799SOL    HW248839   4.335   5.276   9.470
15800SOL     OW48840   5.339   5.450  10.709
15800SOL    HW148841   5.396   5.449  10.632
15800SOL    HW248842   5.324   5.542  10.727
15801SOL     OW48843   5.568   3.890  10.278
15801SOL    HW148844   5.593   3.804  10.246
15801SOL    HW248845   5.482   3.906  10.239
15802SOL     OW48846   3.981   4.027  10.030
15802SOL    HW148847   3.895   4.057   9.999
15802SOL    HW248848   3.975   4.031  10.125
15803SOL     OW48849   4.933   5.323   9.345
15803SOL    HW148850   4.925   5.231   9.369
15803SOL    HW248851   4.870   5.335   9.273
15804SOL     OW48852   4.546   4.731  10.688
15804SOL    HW148853   4.580   4.716  10.599
15804SOL    HW248854   4.543   4.826  10.697
15805SOL     OW48855   4.664   4.655   9.622
15805SOL    HW148856   4.714   4.682   9.545
15805SOL    HW248857   4.702   4.570   9.646
15806SOL     OW48858   5.208   5.371   9.361
15806SOL    HW148859   5.116   5.350   9.343
15806SOL    HW248860   5.250   5.372   9.275
15807SOL     OW48861   4.083   5.038  10.811
15807SOL    HW148862   4.084   5.105  10.743
15807SOL    HW248863   4.011   4.980  10.788
15808SOL     OW48864   5.332   5.011  10.589
15808SOL    HW148865   5.377   4.982  10.668
15808SOL    HW248866   5.268   5.076  10.619
15809SOL     OW48867   4.789   4.839  10.034
15809SOL    HW148868   4.712   4.788  10.061
15809SOL    HW248869   4.847   4.775   9.994
15810SOL     OW48870   4.753   3.971  10.279
15810SOL    HW148871   4.749   3.927  10.194
15810SOL    HW248872   4.743   3.900  10.343
15811SOL     OW48873   4.332   5.220   9.801
15811SOL    HW148874   4.388   5.165   9.746
15811SOL    HW248875   4.253   5.233   9.749
15812SOL     OW48876   5.460   4.101  10.701
15812SOL    HW148877   5.525   4.171  10.693
15812SOL    HW248878   5.488   4.036  10.637
15813SOL     OW48879   3.990   5.064   9.609
15813SOL    HW148880   3.898   5.062   9.584
15813SOL    HW248881   3.991   5.106   9.696
15814SOL     OW48882   3.846   4.776  11.049
15814SOL    HW148883   3.767   4.741  11.092
15814SOL    HW248884   3.917   4.720  11.081
15815SOL     OW48885   4.399   3.915  10.816
15815SOL    HW148886   4.480   3.898  10.766
15815SOL    HW248887   4.429   3.955  10.897
15816SOL     OW48888   3.787   4.096   9.399
15816SOL    HW148889   3.770   4.006   9.371
15816SOL    HW248890   3.829   4.138   9.324
15817SOL     OW48891   5.151   4.584  10.706
15817SOL    HW148892   5.104   4.645  10.650
15817SOL    HW248893   5.241   4.584  10.673
15818SOL     OW48894   4.906   5.058   9.433
15818SOL    HW148895   4.810   5.061   9.428
15818SOL    HW248896   4.925   5.044   9.526
15819SOL     OW48897   4.346   4.554  10.748
15819SOL    HW148898   4.403   4.628  10.730
15819SOL    HW248899   4.405   4.479  10.751
15820SOL     OW48900   5.206   5.525  10.307
15820SOL    HW148901   5.230   5.582  10.234
15820SOL    HW248902   5.279   5.464  10.315
15821SOL     OW48903   4.438   4.280  11.013
15821SOL    HW148904   4.488   4.339  11.070
15821SOL    HW248905   4.460   4.192  11.044
15822SOL     OW48906   5.174   4.925  10.940
15822SOL    HW148907   5.179   4.939  11.035
15822SOL    HW248908   5.262   4.947  10.908
15823SOL     OW48909   4.091   5.469  10.885
15823SOL    HW148910   4.009   5.514  10.863
15823SOL    HW248911   4.063   5.384  10.918
15824SOL     OW48912   5.373   4.589  10.542
15824SOL    HW148913   5.366   4.508  10.491
15824SOL    HW248914   5.370   4.658  10.476
15825SOL     OW48915   4.934   4.034   9.775
15825SOL    HW148916   4.998   3.965   9.759
15825SOL    HW248917   4.972   4.086   9.846
15826SOL     OW48918   4.292   4.471  10.004
15826SOL    HW148919   4.343   4.547   9.976
15826SOL    HW248920   4.236   4.451   9.929
15827SOL     OW48921   5.484   4.076  10.975
15827SOL    HW148922   5.477   4.096  10.881
15827SOL    HW248923   5.405   4.026  10.995
15828SOL     OW48924   4.638   5.130   9.395
15828SOL    HW148925   4.546   5.103   9.397
15828SOL    HW248926   4.646   5.184   9.317
15829SOL     OW48927   4.396   5.504  10.262
15829SOL    HW148928   4.377   5.592  10.227
15829SOL    HW248929   4.488   5.489  10.239
15830SOL     OW48930   4.590   4.699  10.170
15830SOL    HW148931   4.641   4.624  10.200
15830SOL    HW248932   4.557   4.740  10.250
15831SOL     OW48933   4.811   4.725   9.406
15831SOL    HW148934   4.776   4.765   9.326
15831SOL    HW248935   4.879   4.665   9.375
15832SOL     OW48936   5.568   5.280  10.152
15832SOL    HW148937   5.489   5.268  10.100
15832SOL    HW248938   5.577   5.199  10.201
15833SOL     OW48939   3.936   5.014  11.155
15833SOL    HW148940   3.902   4.937  11.110
15833SOL    HW248941   3.878   5.025  11.231
15834SOL     OW48942   3.807   4.959   9.961
15834SOL    HW148943   3.832   4.903  10.035
15834SOL    HW248944   3.853   4.922   9.886
15835SOL     OW48945   4.412   5.131  10.944
15835SOL    HW148946   4.331   5.093  10.978
15835SOL    HW248947   4.413   5.221  10.978
15836SOL     OW48948   5.544   3.895  10.549
15836SOL    HW148949   5.534   3.800  10.553
15836SOL    HW248950   5.552   3.914  10.455
15837SOL     OW48951   4.173   4.158   9.870
15837SOL    HW148952   4.205   4.102   9.800
15837SOL    HW248953   4.109   4.105   9.917
15838SOL     OW48954   5.403   5.217  10.410
15838SOL    HW148955   5.334   5.194  10.348
15838SOL    HW248956   5.405   5.144  10.472
15839SOL     OW48957   4.061   4.286  10.603
15839SOL    HW148958   4.121   4.227  10.648
15839SOL    HW248959   4.074   4.266  10.510
15840SOL     OW48960   4.548   5.314   9.982
15840SOL    HW148961   4.547   5.379   9.912
15840SOL    HW248962   4.474   5.256   9.962
15841SOL     OW48963   5.145   3.952  10.430
15841SOL    HW148964   5.148   3.862  10.464
15841SOL    HW248965   5.098   4.001  10.496
15842SOL     OW48966   4.731   3.734  10.439
15842SOL    HW148967   4.681   3.674  10.383
15842SOL    HW248968   4.818   3.695  10.444
15843SOL     OW48969   4.490   5.057   9.660
15843SOL    HW148970   4.465   4.965   9.663
15843SOL    HW248971   4.575   5.056   9.614
15844SOL     OW48972   4.342   5.286  10.600
15844SOL    HW148973   4.344   5.370  10.646
15844SOL    HW248974   4.430   5.277  10.563
15845SOL     OW48975   5.031   4.187   9.987
15845SOL    HW148976   4.978   4.267   9.982
15845SOL    HW248977   5.019   4.156  10.077
15846SOL     OW48978   5.310   3.922  10.201
15846SOL    HW148979   5.252   3.949  10.273
15846SOL    HW248980   5.308   3.996  10.140
15847SOL     OW48981   3.765   4.795   9.619
15847SOL    HW148982   3.831   4.781   9.552
15847SOL    HW248983   3.745   4.708   9.652
15848SOL     OW48984   4.611   5.389   9.650
15848SOL    HW148985   4.541   5.364   9.589
15848SOL    HW248986   4.574   5.463   9.698
15849SOL     OW48987   3.948   4.346  11.302
15849SOL    HW148988   3.856   4.344  11.328
15849SOL    HW248989   3.947   4.327  11.209
15850SOL     OW48990   3.948   4.012  12.164
15850SOL    HW148991   3.979   3.973  12.247
15850SOL    HW248992   3.859   3.979  12.154
15851SOL     OW48993   3.722   4.108  11.811
15851SOL    HW148994   3.642   4.134  11.856
15851SOL    HW248995   3.696   4.032  11.758
15852SOL     OW48996   4.268   4.974  12.332
15852SOL    HW148997   4.190   5.013  12.293
15852SOL    HW248998   4.289   5.031  12.405
15853SOL     OW48999   5.306   5.243  11.883
15853SOL    HW149000   5.261   5.218  11.963
15853SOL    HW249001   5.236   5.246  11.817
15854SOL     OW49002   4.859   4.424  11.867
15854SOL    HW149003   4.906   4.507  11.854
15854SOL    HW249004   4.808   4.438  11.946
15855SOL     OW49005   5.500   4.322  11.402
15855SOL    HW149006   5.473   4.331  11.311
15855SOL    HW249007   5.462   4.239  11.430
15856SOL     OW49008   4.485   4.856  12.232
15856SOL    HW149009   4.403   4.887  12.270
15856SOL    HW249010   4.518   4.931  12.182
15857SOL     OW49011   4.409   4.715  11.817
15857SOL    HW149012   4.475   4.712  11.886
15857SOL    HW249013   4.341   4.774  11.852
15858SOL     OW49014   4.060   5.134  12.230
15858SOL    HW149015   3.981   5.098  12.189
15858SOL    HW249016   4.101   5.187  12.162
15859SOL     OW49017   5.326   4.161  11.919
15859SOL    HW149018   5.266   4.181  11.847
15859SOL    HW249019   5.323   4.238  11.975
15860SOL     OW49020   3.942   5.444  11.636
15860SOL    HW149021   3.968   5.518  11.692
15860SOL    HW249022   4.016   5.433  11.576
15861SOL     OW49023   3.957   5.174  11.712
15861SOL    HW149024   3.936   5.268  11.711
15861SOL    HW249025   3.899   5.137  11.777
15862SOL     OW49026   3.993   4.815  12.063
15862SOL    HW149027   3.995   4.726  12.096
15862SOL    HW249028   3.939   4.863  12.126
15863SOL     OW49029   4.298   4.710  11.318
15863SOL    HW149030   4.346   4.754  11.248
15863SOL    HW249031   4.339   4.741  11.399
15864SOL     OW49032   3.843   4.381  11.735
15864SOL    HW149033   3.813   4.292  11.756
15864SOL    HW249034   3.835   4.429  11.817
15865SOL     OW49035   5.565   5.477  11.500
15865SOL    HW149036   5.637   5.454  11.559
15865SOL    HW249037   5.581   5.568  11.477
15866SOL     OW49038   3.772   5.314  11.292
15866SOL    HW149039   3.755   5.221  11.308
15866SOL    HW249040   3.741   5.358  11.371
15867SOL     OW49041   5.418   4.645  11.817
15867SOL    HW149042   5.490   4.595  11.779
15867SOL    HW249043   5.387   4.700  11.745
15868SOL     OW49044   5.372   4.826  11.606
15868SOL    HW149045   5.456   4.825  11.562
15868SOL    HW249046   5.382   4.892  11.675
15869SOL     OW49047   3.899   4.475   0.216
15869SOL    HW149048   3.884   4.451   0.308
15869SOL    HW249049   3.818   4.519   0.189
15870SOL     OW49050   4.333   5.119  11.901
15870SOL    HW149051   4.291   5.034  11.907
15870SOL    HW249052   4.318   5.147  11.811
15871SOL     OW49053   4.548   3.725  11.696
15871SOL    HW149054   4.590   3.806  11.664
15871SOL    HW249055   4.454   3.745  11.694
15872SOL     OW49056   3.918   4.720  12.416
15872SOL    HW149057   3.995   4.664  12.419
15872SOL    HW249058   3.844   4.661  12.432
15873SOL     OW49059   5.232   4.737  11.380
15873SOL    HW149060   5.169   4.674  11.415
15873SOL    HW249061   5.287   4.759  11.456
15874SOL     OW49062   5.195   5.140  12.117
15874SOL    HW149063   5.127   5.155  12.182
15874SOL    HW249064   5.181   5.050  12.087
15875SOL     OW49065   5.371   5.493  11.746
15875SOL    HW149066   5.354   5.456  11.659
15875SOL    HW249067   5.361   5.419  11.806
15876SOL     OW49068   4.321   4.442  11.448
15876SOL    HW149069   4.320   4.524  11.399
15876SOL    HW249070   4.254   4.454  11.515
15877SOL     OW49071   5.011   4.099  12.111
15877SOL    HW149072   4.922   4.064  12.112
15877SOL    HW249073   5.060   4.042  12.170
15878SOL     OW49074   5.299   5.400  11.486
15878SOL    HW149075   5.392   5.420  11.476
15878SOL    HW249076   5.268   5.385  11.397
15879SOL     OW49077   4.705   4.067  12.388
15879SOL    HW149078   4.662   4.132  12.444
15879SOL    HW249079   4.654   4.068  12.307
15880SOL     OW49080   4.782   4.419  11.594
15880SOL    HW149081   4.799   4.414  11.688
15880SOL    HW249082   4.697   4.376  11.583
15881SOL     OW49083   3.811   4.546  11.954
15881SOL    HW149084   3.894   4.540  12.002
15881SOL    HW249085   3.767   4.623  11.991
15882SOL     OW49086   4.629   4.074  11.370
15882SOL    HW149087   4.668   4.142  11.315
15882SOL    HW249088   4.633   3.995  11.317
15883SOL     OW49089   5.105   4.864  11.707
15883SOL    HW149090   5.184   4.851  11.654
15883SOL    HW249091   5.053   4.926  11.656
15884SOL     OW49092   4.277   3.903  12.066
15884SOL    HW149093   4.279   3.960  12.143
15884SOL    HW249094   4.272   3.964  11.992
15885SOL     OW49095   4.726   5.174  11.642
15885SOL    HW149096   4.694   5.247  11.589
15885SOL    HW249097   4.695   5.194  11.731
15886SOL     OW49098   4.081   5.542  12.041
15886SOL    HW149099   4.124   5.457  12.049
15886SOL    HW249100   4.150   5.606  12.060
15887SOL     OW49101   5.528   4.776  12.047
15887SOL    HW149102   5.480   4.753  11.968
15887SOL    HW249103   5.460   4.780  12.115
15888SOL     OW49104   4.033   4.684  11.427
15888SOL    HW149105   4.117   4.706  11.386
15888SOL    HW249106   4.004   4.605  11.381
15889SOL     OW49107   5.206   4.481  11.890
15889SOL    HW149108   5.208   4.439  11.975
15889SOL    HW249109   5.287   4.532  11.887
15890SOL     OW49110   4.852   5.499  11.402
15890SOL    HW149111   4.773   5.461  11.442
15890SOL    HW249112   4.876   5.437  11.333
15891SOL     OW49113   5.359   5.117  11.279
15891SOL    HW149114   5.319   5.200  11.251
15891SOL    HW249115   5.295   5.050  11.253
15892SOL     OW49116   4.185   5.464  11.487
15892SOL    HW149117   4.236   5.514  11.551
15892SOL    HW249118   4.251   5.424  11.430
15893SOL     OW49119   5.122   3.825  11.621
15893SOL    HW149120   5.112   3.804  11.528
15893SOL    HW249121   5.216   3.844  11.631
15894SOL     OW49122   3.961   5.507  12.392
15894SOL    HW149123   3.981   5.430  12.444
15894SOL    HW249124   3.925   5.471  12.310
15895SOL     OW49125   4.671   5.416  12.068
15895SOL    HW149126   4.755   5.371  12.073
15895SOL    HW249127   4.622   5.370  12.000
15896SOL     OW49128   4.123   4.417  11.649
15896SOL    HW149129   4.139   4.323  11.660
15896SOL    HW249130   4.028   4.426  11.659
15897SOL     OW49131   4.376   3.832  11.276
15897SOL    HW149132   4.446   3.767  11.275
15897SOL    HW249133   4.316   3.804  11.207
15898SOL     OW49134   4.533   5.087  12.102
15898SOL    HW149135   4.621   5.095  12.066
15898SOL    HW249136   4.475   5.104  12.028
15899SOL     OW49137   4.654   4.231  12.066
15899SOL    HW149138   4.626   4.224  11.975
15899SOL    HW249139   4.692   4.145  12.086
15900SOL     OW49140   4.282   3.786  11.666
15900SOL    HW149141   4.199   3.785  11.715
15900SOL    HW249142   4.275   3.862  11.609
15901SOL     OW49143   5.157   4.940  11.215
15901SOL    HW149144   5.181   4.862  11.265
15901SOL    HW249145   5.069   4.962  11.246
15902SOL     OW49146   4.009   3.772  11.358
15902SOL    HW149147   4.052   3.838  11.304
15902SOL    HW249148   4.079   3.718  11.391
15903SOL     OW49149   4.669   3.967  11.625
15903SOL    HW149150   4.643   4.005  11.541
15903SOL    HW249151   4.762   3.985  11.632
15904SOL     OW49152   4.935   5.312  11.974
15904SOL    HW149153   4.949   5.370  11.899
15904SOL    HW249154   5.016   5.319  12.025
15905SOL     OW49155   4.196   4.879  11.892
15905SOL    HW149156   4.130   4.857  11.958
15905SOL    HW249157   4.151   4.868  11.809
15906SOL     OW49158   4.982   5.516  11.785
15906SOL    HW149159   5.032   5.576  11.730
15906SOL    HW249160   4.912   5.570  11.821
15907SOL     OW49161   4.747   4.257  11.203
15907SOL    HW149162   4.703   4.338  11.177
15907SOL    HW249163   4.820   4.286  11.257
15908SOL     OW49164   4.289   3.938  12.355
15908SOL    HW149165   4.305   3.850  12.323
15908SOL    HW249166   4.195   3.941  12.373
15909SOL     OW49167   4.588   4.178  11.805
15909SOL    HW149168   4.549   4.236  11.739
15909SOL    HW249169   4.613   4.100  11.756
15910SOL     OW49170   4.746   3.775  11.913
15910SOL    HW149171   4.687   3.778  11.838
15910SOL    HW249172   4.716   3.700  11.965
15911SOL     OW49173   5.165   4.882  12.021
15911SOL    HW149174   5.094   4.820  12.005
15911SOL    HW249175   5.206   4.895  11.936
15912SOL     OW49176   5.186   4.336  12.129
15912SOL    HW149177   5.129   4.259  12.132
15912SOL    HW249178   5.246   4.325  12.203
15913SOL     OW49179   5.557   4.534  11.570
15913SOL    HW149180   5.621   4.481  11.617
15913SOL    HW249181   5.534   4.482  11.493
15914SOL     OW49182   4.214   5.148  11.320
15914SOL    HW149183   4.140   5.114  11.370
15914SOL    HW249184   4.215   5.096  11.240
15915SOL     OW49185   5.401   4.986  11.823
15915SOL    HW149186   5.496   4.983  11.831
15915SOL    HW249187   5.379   5.079  11.836
15916SOL     OW49188   5.116   4.302  11.239
15916SOL    HW149189   5.064   4.275  11.315
15916SOL    HW249190   5.207   4.284  11.264
15917SOL     OW49191   4.253   3.982  11.482
15917SOL    HW149192   4.301   3.938  11.412
15917SOL    HW249193   4.225   4.065  11.443
15918SOL     OW49194   4.829   4.965  12.286
15918SOL    HW149195   4.745   4.983  12.329
15918SOL    HW249196   4.816   4.993  12.196
15919SOL     OW49197   5.330   4.816  12.241
15919SOL    HW149198   5.295   4.854  12.322
15919SOL    HW249199   5.264   4.836  12.175
15920SOL     OW49200   4.435   4.786  11.546
15920SOL    HW149201   4.420   4.761  11.637
15920SOL    HW249202   4.512   4.735  11.519
15921SOL     OW49203   4.153   4.549  12.452
15921SOL    HW149204   4.199   4.597  12.521
15921SOL    HW249205   4.191   4.461  12.454
15922SOL     OW49206   4.973   4.084  12.433
15922SOL    HW149207   5.001   4.170  12.464
15922SOL    HW249208   4.880   4.096  12.412
15923SOL     OW49209   4.052   4.848  11.659
15923SOL    HW149210   4.054   4.920  11.596
15923SOL    HW249211   4.052   4.769  11.605
15924SOL     OW49212   4.263   4.249  12.037
15924SOL    HW149213   4.276   4.307  11.961
15924SOL    HW249214   4.330   4.276  12.099
15925SOL     OW49215   4.970   5.073  11.569
15925SOL    HW149216   5.028   5.143  11.598
15925SOL    HW249217   4.883   5.098  11.599
15926SOL     OW49218   5.013   5.171  12.318
15926SOL    HW149219   5.069   5.164  12.395
15926SOL    HW249220   4.954   5.095  12.323
15927SOL     OW49221   5.305   4.334  11.662
15927SOL    HW149222   5.250   4.390  11.717
15927SOL    HW249223   5.350   4.395  11.604
15928SOL     OW49224   4.097   5.267  12.464
15928SOL    HW149225   4.068   5.211  12.391
15928SOL    HW249226   4.171   5.316  12.429
15929SOL     OW49227   4.309   4.598  12.215
15929SOL    HW149228   4.339   4.688  12.203
15929SOL    HW249229   4.247   4.602  12.288
15930SOL     OW49230   5.054   4.578  12.179
15930SOL    HW149231   4.975   4.562  12.127
15930SOL    HW249232   5.106   4.499  12.169
15931SOL     OW49233   4.932   4.245  11.438
15931SOL    HW149234   4.934   4.167  11.493
15931SOL    HW249235   4.886   4.310  11.491
15932SOL     OW49236   4.024   3.908  12.409
15932SOL    HW149237   3.994   3.936  12.495
15932SOL    HW249238   4.008   3.813  12.408
15933SOL     OW49239   3.780   5.051  12.430
15933SOL    HW149240   3.819   4.976  12.474
15933SOL    HW249241   3.784   5.122  12.495
15934SOL     OW49242   4.439   4.351  12.221
15934SOL    HW149243   4.516   4.342  12.165
15934SOL    HW249244   4.410   4.441  12.207
15935SOL     OW49245   4.037   3.782  11.792
15935SOL    HW149246   4.009   3.872  11.811
15935SOL    HW249247   4.042   3.741  11.879
15936SOL     OW49248   5.342   4.097  11.531
15936SOL    HW149249   5.379   4.036  11.595
15936SOL    HW249250   5.321   4.176  11.581
15937SOL     OW49251   4.746   4.478  12.136
15937SOL    HW149252   4.744   4.486  12.231
15937SOL    HW249253   4.722   4.387  12.119
15938SOL     OW49254   5.250   3.984  11.297
15938SOL    HW149255   5.183   3.925  11.330
15938SOL    HW249256   5.284   4.029  11.375
15939SOL     OW49257   5.010   4.551  11.199
15939SOL    HW149258   5.052   4.466  11.201
15939SOL    HW249259   5.040   4.592  11.118
15940SOL     OW49260   4.796   5.071  12.032
15940SOL    HW149261   4.802   4.998  11.971
15940SOL    HW249262   4.852   5.139  11.993
15941SOL     OW49263   4.037   4.539  12.113
15941SOL    HW149264   4.132   4.550  12.102
15941SOL    HW249265   4.027   4.448  12.142
15942SOL     OW49266   4.032   4.268  12.172
15942SOL    HW149267   4.001   4.177  12.171
15942SOL    HW249268   4.114   4.266  12.123
15943SOL     OW49269   4.901   3.939   0.154
15943SOL    HW149270   4.874   4.006   0.217
15943SOL    HW249271   4.923   3.988   0.075
15944SOL     OW49272   3.741   5.038  11.362
15944SOL    HW149273   3.652   5.057  11.333
15944SOL    HW249274   3.736   4.950  11.400
15945SOL     OW49275   3.819   5.505  12.115
15945SOL    HW149276   3.788   5.427  12.069
15945SOL    HW249277   3.908   5.519  12.083
15946SOL     OW49278   4.219   5.304  12.075
15946SOL    HW149279   4.291   5.362  12.100
15946SOL    HW249280   4.259   5.241  12.016
15947SOL     OW49281   4.698   4.508  12.414
15947SOL    HW149282   4.744   4.579  12.458
15947SOL    HW249283   4.606   4.528  12.426
15948SOL     OW49284   3.777   4.290  12.284
15948SOL    HW149285   3.856   4.295  12.229
15948SOL    HW249286   3.805   4.238  12.360
15949SOL     OW49287   4.541   4.293  11.544
15949SOL    HW149288   4.548   4.222  11.481
15949SOL    HW249289   4.468   4.346  11.512
15950SOL     OW49290   5.373   4.322  12.327
15950SOL    HW149291   5.375   4.272  12.409
15950SOL    HW249292   5.463   4.317  12.295
15951SOL     OW49293   4.441   4.169  12.426
15951SOL    HW149294   4.380   4.100  12.400
15951SOL    HW249295   4.432   4.236  12.358
15952SOL     OW49296   4.611   5.378   0.033
15952SOL    HW149297   4.623   5.435  -0.043
15952SOL    HW249298   4.659   5.421   0.104
15953SOL     OW49299   4.182   4.215  11.365
15953SOL    HW149300   4.242   4.288  11.383
15953SOL    HW249301   4.098   4.258  11.349
15954SOL     OW49302   5.005   4.763  12.372
15954SOL    HW149303   5.029   4.704  12.300
15954SOL    HW249304   4.954   4.832  12.330
15955SOL     OW49305   5.033   4.571  11.477
15955SOL    HW149306   4.954   4.536  11.519
15955SOL    HW249307   5.015   4.563  11.383
15956SOL     OW49308   5.486   5.476  12.311
15956SOL    HW149309   5.552   5.492  12.244
15956SOL    HW249310   5.467   5.383  12.303
15957SOL     OW49311   4.972   5.442  12.285
15957SOL    HW149312   5.049   5.479  12.242
15957SOL    HW249313   4.987   5.348  12.285
15958SOL     OW49314   3.806   5.010  12.164
15958SOL    HW149315   3.792   5.022  12.258
15958SOL    HW249316   3.748   4.938  12.140
15959SOL     OW49317   5.457   3.887  11.680
15959SOL    HW149318   5.520   3.872  11.609
15959SOL    HW249319   5.438   3.799  11.714
15960SOL     OW49320   5.121   5.291  11.671
15960SOL    HW149321   5.177   5.322  11.600
15960SOL    HW249322   5.067   5.366  11.694
15961SOL     OW49323   5.003   4.658  11.849
15961SOL    HW149324   5.076   4.596  11.856
15961SOL    HW249325   5.035   4.725  11.789
15962SOL     OW49326   4.392   5.353  11.327
15962SOL    HW149327   4.408   5.368  11.234
15962SOL    HW249328   4.336   5.275  11.329
15963SOL     OW49329   5.347   5.516   0.042
15963SOL    HW149330   5.400   5.501  -0.036
15963SOL    HW249331   5.382   5.597   0.079
15964SOL     OW49332   5.566   3.893  12.145
15964SOL    HW149333   5.597   3.807  12.117
15964SOL    HW249334   5.481   3.903  12.104
15965SOL     OW49335   3.978   4.031  11.883
15965SOL    HW149336   3.893   4.067  11.859
15965SOL    HW249337   3.979   4.034  11.979
15966SOL     OW49338   4.931   5.321  11.208
15966SOL    HW149339   4.922   5.229  11.230
15966SOL    HW249340   4.868   5.335  11.137
15967SOL     OW49341   4.517   4.738  12.483
15967SOL    HW149342   4.517   4.782  12.398
15967SOL    HW249343   4.594   4.772  12.528
15968SOL     OW49344   4.648   4.640  11.473
15968SOL    HW149345   4.702   4.671  11.400
15968SOL    HW249346   4.697   4.568  11.511
15969SOL     OW49347   5.209   5.369  11.221
15969SOL    HW149348   5.118   5.348  11.202
15969SOL    HW249349   5.251   5.370  11.135
15970SOL     OW49350   4.790   4.840  11.894
15970SOL    HW149351   4.715   4.787  11.923
15970SOL    HW249352   4.853   4.776  11.861
15971SOL     OW49353   4.759   3.970  12.114
15971SOL    HW149354   4.757   3.912  12.038
15971SOL    HW249355   4.753   3.911  12.189
15972SOL     OW49356   4.328   5.219  11.649
15972SOL    HW149357   4.384   5.165  11.593
15972SOL    HW249358   4.251   5.238  11.595
15973SOL     OW49359   5.485   4.160   0.035
15973SOL    HW149360   5.576   4.159   0.066
15973SOL    HW249361   5.469   4.071   0.005
15974SOL     OW49362   3.999   5.061  11.475
15974SOL    HW149363   3.910   5.058  11.438
15974SOL    HW249364   3.989   5.106  11.558
15975SOL     OW49365   3.801   4.053  11.195
15975SOL    HW149366   3.725   4.035  11.139
15975SOL    HW249367   3.840   4.132  11.157
15976SOL     OW49368   3.779   3.879  11.462
15976SOL    HW149369   3.763   3.951  11.402
15976SOL    HW249370   3.865   3.846  11.439
15977SOL     OW49371   4.906   5.053  11.293
15977SOL    HW149372   4.815   5.022  11.288
15977SOL    HW249373   4.927   5.051  11.386
15978SOL     OW49374   5.209   5.511  12.157
15978SOL    HW149375   5.232   5.581  12.096
15978SOL    HW249376   5.293   5.486  12.196
15979SOL     OW49377   5.405   4.595  12.403
15979SOL    HW149378   5.381   4.510  12.365
15979SOL    HW249379   5.380   4.659  12.337
15980SOL     OW49380   4.937   4.037  11.634
15980SOL    HW149381   5.000   3.966  11.628
15980SOL    HW249382   4.967   4.090  11.708
15981SOL     OW49383   4.302   4.458  11.857
15981SOL    HW149384   4.347   4.540  11.837
15981SOL    HW249385   4.242   4.446  11.783
15982SOL     OW49386   5.548   4.610   0.130
15982SOL    HW149387   5.527   4.693   0.171
15982SOL    HW249388   5.489   4.604   0.055
15983SOL     OW49389   4.591   5.092  11.219
15983SOL    HW149390   4.550   5.134  11.295
15983SOL    HW249391   4.612   5.164  11.160
15984SOL     OW49392   4.392   5.516  12.125
15984SOL    HW149393   4.376   5.603  12.089
15984SOL    HW249394   4.485   5.500  12.111
15985SOL     OW49395   4.594   4.693  12.027
15985SOL    HW149396   4.642   4.619  12.063
15985SOL    HW249397   4.561   4.739  12.104
15986SOL     OW49398   4.798   4.712  11.262
15986SOL    HW149399   4.776   4.763  11.184
15986SOL    HW249400   4.873   4.659  11.235
15987SOL     OW49401   5.571   5.280  12.013
15987SOL    HW149402   5.489   5.268  11.965
15987SOL    HW249403   5.576   5.204  12.072
15988SOL     OW49404   3.818   4.950  11.835
15988SOL    HW149405   3.841   4.908  11.918
15988SOL    HW249406   3.880   4.915  11.772
15989SOL     OW49407   5.526   3.902  12.418
15989SOL    HW149408   5.554   3.811  12.425
15989SOL    HW249409   5.535   3.923  12.325
15990SOL     OW49410   4.156   4.154  11.701
15990SOL    HW149411   4.183   4.088  11.637
15990SOL    HW249412   4.100   4.106  11.762
15991SOL     OW49413   5.424   5.217  12.279
15991SOL    HW149414   5.348   5.181  12.233
15991SOL    HW249415   5.446   5.151  12.344
15992SOL     OW49416   4.550   5.312  11.848
15992SOL    HW149417   4.535   5.375  11.778
15992SOL    HW249418   4.476   5.251  11.841
15993SOL     OW49419   5.167   3.958  12.297
15993SOL    HW149420   5.235   3.932  12.359
15993SOL    HW249421   5.098   3.996  12.351
15994SOL     OW49422   4.722   3.696  12.311
15994SOL    HW149423   4.687   3.656  12.232
15994SOL    HW249424   4.816   3.674  12.309
15995SOL     OW49425   4.494   5.058  11.508
15995SOL    HW149426   4.469   4.966  11.508
15995SOL    HW249427   4.584   5.058  11.542
15996SOL     OW49428   5.076   3.775  11.355
15996SOL    HW149429   5.104   3.722  11.280
15996SOL    HW249430   4.989   3.741  11.377
15997SOL     OW49431   5.017   4.188  11.848
15997SOL    HW149432   4.968   4.269  11.850
15997SOL    HW249433   5.017   4.157  11.939
15998SOL     OW49434   5.308   3.914  12.059
15998SOL    HW149435   5.252   3.940  12.132
15998SOL    HW249436   5.307   3.990  12.000
15999SOL     OW49437   3.766   4.787  11.486
15999SOL    HW149438   3.858   4.778  11.462
15999SOL    HW249439   3.737   4.698  11.505
16000SOL     OW49440   4.611   5.389  11.511
16000SOL    HW149441   4.537   5.373  11.453
16000SOL    HW249442   4.584   5.463  11.565
16001SOL     OW49443   3.986   6.185   0.029
16001SOL    HW149444   3.941   6.234   0.098
16001SOL    HW249445   3.924   6.184  -0.044
16002SOL     OW49446   3.949   5.871   0.995
16002SOL    HW149447   3.977   5.837   1.080
16002SOL    HW249448   3.861   5.835   0.983
16003SOL     OW49449   3.714   5.978   0.637
16003SOL    HW149450   3.634   6.005   0.684
16003SOL    HW249451   3.690   5.895   0.596
16004SOL     OW49452   4.297   6.888   1.192
16004SOL    HW149453   4.210   6.893   1.152
16004SOL    HW249454   4.315   6.977   1.222
16005SOL     OW49455   5.304   7.106   0.714
16005SOL    HW149456   5.258   7.078   0.793
16005SOL    HW249457   5.235   7.109   0.647
16006SOL     OW49458   4.852   6.285   0.693
16006SOL    HW149459   4.902   6.366   0.682
16006SOL    HW249460   4.806   6.296   0.776
16007SOL     OW49461   5.456   6.198   0.269
16007SOL    HW149462   5.453   6.202   0.174
16007SOL    HW249463   5.428   6.108   0.290
16008SOL     OW49464   4.459   6.718   1.048
16008SOL    HW149465   4.398   6.758   1.110
16008SOL    HW249466   4.503   6.792   1.006
16009SOL     OW49467   4.600   6.340   1.827
16009SOL    HW149468   4.586   6.407   1.894
16009SOL    HW249469   4.622   6.389   1.748
16010SOL     OW49470   4.405   6.576   0.648
16010SOL    HW149471   4.474   6.569   0.714
16010SOL    HW249472   4.340   6.635   0.687
16011SOL     OW49473   4.440   6.734   1.822
16011SOL    HW149474   4.488   6.811   1.856
16011SOL    HW249475   4.361   6.771   1.783
16012SOL     OW49476   4.061   6.998   1.069
16012SOL    HW149477   3.985   6.961   1.025
16012SOL    HW249478   4.104   7.051   1.001
16013SOL     OW49479   5.182   7.090   1.366
16013SOL    HW149480   5.236   7.168   1.375
16013SOL    HW249481   5.112   7.101   1.430
16014SOL     OW49482   4.174   5.970   1.467
16014SOL    HW149483   4.249   5.910   1.475
16014SOL    HW249484   4.099   5.917   1.495
16015SOL     OW49485   5.331   6.028   0.749
16015SOL    HW149486   5.286   6.061   0.671
16015SOL    HW249487   5.315   6.095   0.816
16016SOL     OW49488   3.956   7.303   0.489
16016SOL    HW149489   3.979   7.381   0.539
16016SOL    HW249490   4.027   7.293   0.426
16017SOL     OW49491   4.861   6.929   1.696
16017SOL    HW149492   4.900   6.922   1.782
16017SOL    HW249493   4.808   6.849   1.687
16018SOL     OW49494   3.903   7.033   0.526
16018SOL    HW149495   3.934   7.123   0.541
16018SOL    HW249496   3.893   6.996   0.614
16019SOL     OW49497   3.987   6.672   0.887
16019SOL    HW149498   3.995   6.584   0.925
16019SOL    HW249499   3.940   6.723   0.953
16020SOL     OW49500   4.315   7.381   1.420
16020SOL    HW149501   4.238   7.361   1.474
16020SOL    HW249502   4.343   7.467   1.451
16021SOL     OW49503   4.316   6.560   0.153
16021SOL    HW149504   4.379   6.582   0.084
16021SOL    HW249505   4.351   6.601   0.232
16022SOL     OW49506   5.318   5.719   1.460
16022SOL    HW149507   5.345   5.800   1.418
16022SOL    HW249508   5.292   5.744   1.549
16023SOL     OW49509   3.832   6.246   0.568
16023SOL    HW149510   3.806   6.157   0.591
16023SOL    HW249511   3.827   6.294   0.651
16024SOL     OW49512   5.579   7.327   0.312
16024SOL    HW149513   5.646   7.302   0.375
16024SOL    HW249514   5.596   7.420   0.295
16025SOL     OW49515   3.762   7.079   0.149
16025SOL    HW149516   3.672   7.051   0.138
16025SOL    HW249517   3.759   7.174   0.138
16026SOL     OW49518   5.409   6.518   0.653
16026SOL    HW149519   5.473   6.472   0.599
16026SOL    HW249520   5.371   6.583   0.593
16027SOL     OW49521   5.370   6.701   0.434
16027SOL    HW149522   5.457   6.698   0.393
16027SOL    HW249523   5.379   6.765   0.505
16028SOL     OW49524   3.855   6.333   1.579
16028SOL    HW149525   3.946   6.360   1.587
16028SOL    HW249526   3.805   6.413   1.596
16029SOL     OW49527   4.339   6.978   0.733
16029SOL    HW149528   4.297   6.892   0.743
16029SOL    HW249529   4.326   7.000   0.641
16030SOL     OW49530   5.006   6.820   1.418
16030SOL    HW149531   5.035   6.751   1.359
16030SOL    HW249532   5.065   6.814   1.493
16031SOL     OW49533   4.549   5.603   0.528
16031SOL    HW149534   4.586   5.687   0.500
16031SOL    HW249535   4.454   5.618   0.529
16032SOL     OW49536   3.912   6.549   1.272
16032SOL    HW149537   3.998   6.510   1.261
16032SOL    HW249538   3.851   6.482   1.240
16033SOL     OW49539   5.225   6.597   0.225
16033SOL    HW149540   5.162   6.536   0.264
16033SOL    HW249541   5.276   6.630   0.299
16034SOL     OW49542   4.915   7.400   1.632
16034SOL    HW149543   4.914   7.461   1.558
16034SOL    HW249544   4.929   7.314   1.593
16035SOL     OW49545   4.077   5.843   1.838
16035SOL    HW149546   4.110   5.926   1.871
16035SOL    HW249547   3.983   5.846   1.855
16036SOL     OW49548   5.189   7.006   0.941
16036SOL    HW149549   5.125   7.021   1.011
16036SOL    HW249550   5.177   6.914   0.916
16037SOL     OW49551   5.374   7.350   0.583
16037SOL    HW149552   5.353   7.312   0.498
16037SOL    HW249553   5.363   7.278   0.645
16038SOL     OW49554   4.308   6.300   0.271
16038SOL    HW149555   4.327   6.387   0.237
16038SOL    HW249556   4.243   6.315   0.340
16039SOL     OW49557   5.004   5.962   0.936
16039SOL    HW149558   4.916   5.926   0.943
16039SOL    HW249559   5.057   5.905   0.993
16040SOL     OW49560   5.317   7.257   0.330
16040SOL    HW149561   5.410   7.275   0.321
16040SOL    HW249562   5.288   7.235   0.241
16041SOL     OW49563   4.513   6.202   1.443
16041SOL    HW149564   4.493   6.172   1.531
16041SOL    HW249565   4.484   6.131   1.386
16042SOL     OW49566   5.121   6.059   1.680
16042SOL    HW149567   5.126   6.102   1.766
16042SOL    HW249568   5.172   5.978   1.690
16043SOL     OW49569   4.671   6.468   1.590
16043SOL    HW149570   4.726   6.401   1.550
16043SOL    HW249571   4.622   6.507   1.518
16044SOL     OW49572   4.723   5.994   1.224
16044SOL    HW149573   4.632   6.008   1.251
16044SOL    HW249574   4.717   5.947   1.141
16045SOL     OW49575   4.778   6.288   0.425
16045SOL    HW149576   4.796   6.283   0.519
16045SOL    HW249577   4.693   6.245   0.415
16046SOL     OW49578   3.810   6.424   0.777
16046SOL    HW149579   3.891   6.407   0.825
16046SOL    HW249580   3.771   6.499   0.821
16047SOL     OW49581   3.850   7.462   1.582
16047SOL    HW149582   3.851   7.435   1.674
16047SOL    HW249583   3.759   7.448   1.554
16048SOL     OW49584   4.612   5.946   0.221
16048SOL    HW149585   4.646   6.011   0.159
16048SOL    HW249586   4.607   5.865   0.170
16049SOL     OW49587   5.426   6.154   1.832
16049SOL    HW149588   5.393   6.229   1.783
16049SOL    HW249589   5.450   6.090   1.765
16050SOL     OW49590   5.119   6.717   0.556
16050SOL    HW149591   5.194   6.710   0.497
16050SOL    HW249592   5.064   6.785   0.518
16051SOL     OW49593   4.275   5.760   0.903
16051SOL    HW149594   4.277   5.787   0.995
16051SOL    HW249595   4.276   5.841   0.853
16052SOL     OW49596   4.723   7.012   0.469
16052SOL    HW149597   4.682   7.091   0.433
16052SOL    HW249598   4.712   7.021   0.564
16053SOL     OW49599   4.075   7.401   0.876
16053SOL    HW149600   4.122   7.318   0.880
16053SOL    HW249601   4.140   7.467   0.898
16054SOL     OW49602   5.530   6.631   0.880
16054SOL    HW149603   5.481   6.611   0.800
16054SOL    HW249604   5.463   6.639   0.948
16055SOL     OW49605   4.949   7.128   1.515
16055SOL    HW149606   4.937   7.056   1.578
16055SOL    HW249607   4.880   7.115   1.450
16056SOL     OW49608   4.048   6.555   0.239
16056SOL    HW149609   4.137   6.588   0.223
16056SOL    HW249610   4.025   6.506   0.160
16057SOL     OW49611   5.206   6.343   0.724
16057SOL    HW149612   5.208   6.300   0.810
16057SOL    HW249613   5.283   6.399   0.723
16058SOL     OW49614   4.200   6.854   1.736
16058SOL    HW149615   4.173   6.858   1.644
16058SOL    HW249616   4.118   6.850   1.785
16059SOL     OW49617   4.834   7.373   0.250
16059SOL    HW149618   4.796   7.328   0.326
16059SOL    HW249619   4.856   7.302   0.189
16060SOL     OW49620   3.921   5.851   1.508
16060SOL    HW149621   3.840   5.899   1.526
16060SOL    HW249622   3.904   5.762   1.539
16061SOL     OW49623   5.372   7.003   0.089
16061SOL    HW149624   5.308   7.062   0.051
16061SOL    HW249625   5.327   6.919   0.095
16062SOL     OW49626   4.173   7.311   0.325
16062SOL    HW149627   4.232   7.366   0.376
16062SOL    HW249628   4.227   7.276   0.255
16063SOL     OW49629   5.127   5.684   0.449
16063SOL    HW149630   5.121   5.653   0.358
16063SOL    HW249631   5.220   5.689   0.467
16064SOL     OW49632   3.989   7.371   1.230
16064SOL    HW149633   4.037   7.305   1.281
16064SOL    HW249634   3.996   7.340   1.139
16065SOL     OW49635   4.663   7.285   0.892
16065SOL    HW149636   4.746   7.240   0.907
16065SOL    HW249637   4.621   7.236   0.821
16066SOL     OW49638   4.098   6.281   0.467
16066SOL    HW149639   4.122   6.189   0.477
16066SOL    HW249640   4.015   6.289   0.514
16067SOL     OW49641   5.247   5.806   1.725
16067SOL    HW149642   5.257   5.829   1.817
16067SOL    HW249643   5.188   5.730   1.725
16068SOL     OW49644   4.350   5.711   0.119
16068SOL    HW149645   4.443   5.687   0.123
16068SOL    HW249646   4.341   5.755   0.034
16069SOL     OW49647   4.524   5.883   1.844
16069SOL    HW149648   4.587   5.827   1.798
16069SOL    HW249649   4.457   5.823   1.876
16070SOL     OW49650   4.600   7.112   1.196
16070SOL    HW149651   4.582   7.072   1.111
16070SOL    HW249652   4.668   7.056   1.235
16071SOL     OW49653   5.061   6.176   1.436
16071SOL    HW149654   5.095   6.144   1.520
16071SOL    HW249655   5.099   6.263   1.426
16072SOL     OW49656   4.543   6.969   0.951
16072SOL    HW149657   4.630   6.961   0.912
16072SOL    HW249658   4.484   6.982   0.877
16073SOL     OW49659   4.652   6.095   0.897
16073SOL    HW149660   4.626   6.086   0.805
16073SOL    HW249661   4.682   6.008   0.923
16074SOL     OW49662   4.278   5.643   0.503
16074SOL    HW149663   4.198   5.643   0.556
16074SOL    HW249664   4.271   5.722   0.449
16075SOL     OW49665   5.178   6.810   0.061
16075SOL    HW149666   5.193   6.730   0.110
16075SOL    HW249667   5.083   6.820   0.059
16076SOL     OW49668   4.040   5.669   0.201
16076SOL    HW149669   4.124   5.715   0.204
16076SOL    HW249670   4.060   5.579   0.226
16077SOL     OW49671   4.671   5.840   0.465
16077SOL    HW149672   4.645   5.876   0.380
16077SOL    HW249673   4.766   5.851   0.466
16078SOL     OW49674   4.804   6.273   1.454
16078SOL    HW149675   4.741   6.201   1.457
16078SOL    HW249676   4.890   6.230   1.450
16079SOL     OW49677   4.931   7.166   0.800
16079SOL    HW149678   4.948   7.228   0.729
16079SOL    HW249679   5.007   7.174   0.857
16080SOL     OW49680   4.193   6.742   0.722
16080SOL    HW149681   4.130   6.718   0.790
16080SOL    HW249682   4.146   6.729   0.640
16081SOL     OW49683   4.979   7.381   0.614
16081SOL    HW149684   5.032   7.445   0.567
16081SOL    HW249685   4.908   7.432   0.653
16082SOL     OW49686   4.743   6.141   0.073
16082SOL    HW149687   4.743   6.223   0.023
16082SOL    HW249688   4.816   6.151   0.135
16083SOL     OW49689   3.808   6.146   1.385
16083SOL    HW149690   3.901   6.141   1.363
16083SOL    HW249691   3.803   6.213   1.454
16084SOL     OW49692   4.280   5.813   1.175
16084SOL    HW149693   4.322   5.743   1.226
16084SOL    HW249694   4.188   5.811   1.203
16085SOL     OW49695   4.587   6.045   0.637
16085SOL    HW149696   4.550   6.101   0.569
16085SOL    HW249697   4.614   5.965   0.592
16086SOL     OW49698   4.744   5.640   0.742
16086SOL    HW149699   4.682   5.635   0.670
16086SOL    HW249700   4.719   5.567   0.800
16087SOL     OW49701   5.166   6.745   0.856
16087SOL    HW149702   5.093   6.682   0.856
16087SOL    HW249703   5.192   6.752   0.765
16088SOL     OW49704   5.191   6.195   0.961
16088SOL    HW149705   5.129   6.122   0.967
16088SOL    HW249706   5.245   6.187   1.040
16089SOL     OW49707   5.551   6.410   0.431
16089SOL    HW149708   5.603   6.344   0.477
16089SOL    HW249709   5.510   6.363   0.359
16090SOL     OW49710   4.193   6.961   0.182
16090SOL    HW149711   4.120   6.932   0.236
16090SOL    HW249712   4.158   6.964   0.093
16091SOL     OW49713   5.404   6.852   0.652
16091SOL    HW149714   5.499   6.849   0.664
16091SOL    HW249715   5.381   6.944   0.669
16092SOL     OW49716   5.121   6.134   0.080
16092SOL    HW149717   5.067   6.134   0.159
16092SOL    HW249718   5.175   6.056   0.087
16093SOL     OW49719   4.253   5.850   0.330
16093SOL    HW149720   4.304   5.803   0.264
16093SOL    HW249721   4.226   5.931   0.286
16094SOL     OW49722   5.468   6.829   1.551
16094SOL    HW149723   5.556   6.793   1.540
16094SOL    HW249724   5.483   6.918   1.584
16095SOL     OW49725   4.775   6.940   1.331
16095SOL    HW149726   4.699   6.908   1.380
16095SOL    HW249727   4.850   6.898   1.373
16096SOL     OW49728   5.334   7.218   1.663
16096SOL    HW149729   5.324   7.252   1.574
16096SOL    HW249730   5.414   7.166   1.660
16097SOL     OW49731   4.863   6.803   1.102
16097SOL    HW149732   4.803   6.841   1.166
16097SOL    HW249733   4.835   6.838   1.018
16098SOL     OW49734   5.342   6.678   1.075
16098SOL    HW149735   5.334   6.743   1.145
16098SOL    HW249736   5.271   6.699   1.015
16099SOL     OW49737   4.641   5.678   1.387
16099SOL    HW149738   4.665   5.659   1.297
16099SOL    HW249739   4.720   5.717   1.425
16100SOL     OW49740   4.708   6.701   1.724
16100SOL    HW149741   4.617   6.717   1.750
16100SOL    HW249742   4.703   6.621   1.671
16101SOL     OW49743   4.437   6.646   0.381
16101SOL    HW149744   4.426   6.625   0.473
16101SOL    HW249745   4.514   6.597   0.354
16102SOL     OW49746   4.147   6.407   1.252
16102SOL    HW149747   4.214   6.418   1.320
16102SOL    HW249748   4.114   6.318   1.266
16103SOL     OW49749   4.989   5.963   1.281
16103SOL    HW149750   5.020   6.040   1.328
16103SOL    HW249751   4.898   5.983   1.258
16104SOL     OW49752   3.808   7.162   1.362
16104SOL    HW149753   3.792   7.251   1.331
16104SOL    HW249754   3.903   7.150   1.356
16105SOL     OW49755   4.036   6.709   0.491
16105SOL    HW149756   4.034   6.782   0.429
16105SOL    HW249757   4.056   6.633   0.437
16106SOL     OW49758   4.264   6.111   0.856
16106SOL    HW149759   4.278   6.171   0.782
16106SOL    HW249760   4.332   6.135   0.920
16107SOL     OW49761   4.986   6.924   0.448
16107SOL    HW149762   5.029   7.008   0.461
16107SOL    HW249763   4.894   6.945   0.439
16108SOL     OW49764   5.019   7.048   1.149
16108SOL    HW149765   5.074   7.055   1.228
16108SOL    HW249766   4.966   6.970   1.164
16109SOL     OW49767   5.282   6.182   0.507
16109SOL    HW149768   5.237   6.245   0.563
16109SOL    HW249769   5.319   6.235   0.436
16110SOL     OW49770   4.073   7.111   1.313
16110SOL    HW149771   4.062   7.066   1.229
16110SOL    HW249772   4.167   7.124   1.322
16111SOL     OW49773   4.143   6.334   1.605
16111SOL    HW149774   4.209   6.373   1.548
16111SOL    HW249775   4.176   6.246   1.624
16112SOL     OW49776   5.339   6.368   1.690
16112SOL    HW149777   5.253   6.409   1.684
16112SOL    HW249778   5.390   6.410   1.620
16113SOL     OW49779   4.723   5.728   1.748
16113SOL    HW149780   4.786   5.795   1.720
16113SOL    HW249781   4.768   5.645   1.732
16114SOL     OW49782   4.230   5.634   1.741
16114SOL    HW149783   4.175   5.576   1.688
16114SOL    HW249784   4.171   5.707   1.764
16115SOL     OW49785   4.305   6.463   1.030
16115SOL    HW149786   4.347   6.549   1.038
16115SOL    HW249787   4.253   6.455   1.110
16116SOL     OW49788   5.063   6.442   1.017
16116SOL    HW149789   4.977   6.425   0.978
16116SOL    HW249790   5.111   6.361   1.005
16117SOL     OW49791   4.932   6.112   0.280
16117SOL    HW149792   4.947   6.040   0.341
16117SOL    HW249793   4.889   6.179   0.332
16118SOL     OW49794   4.018   5.785   1.248
16118SOL    HW149795   3.978   5.814   1.330
16118SOL    HW249796   4.003   5.690   1.247
16119SOL     OW49797   3.778   6.904   1.264
16119SOL    HW149798   3.802   6.844   1.335
16119SOL    HW249799   3.779   6.990   1.305
16120SOL     OW49800   4.438   6.211   1.044
16120SOL    HW149801   4.517   6.199   0.993
16120SOL    HW249802   4.412   6.302   1.029
16121SOL     OW49803   5.469   6.547   1.861
16121SOL    HW149804   5.427   6.477   1.812
16121SOL    HW249805   5.407   6.566   1.932
16122SOL     OW49806   4.032   5.648   0.628
16122SOL    HW149807   4.008   5.738   0.650
16122SOL    HW249808   4.042   5.605   0.713
16123SOL     OW49809   5.343   5.954   0.367
16123SOL    HW149810   5.375   5.886   0.427
16123SOL    HW249811   5.310   6.023   0.424
16124SOL     OW49812   4.751   6.343   0.957
16124SOL    HW149813   4.740   6.359   1.051
16124SOL    HW249814   4.725   6.252   0.946
16125SOL     OW49815   4.707   7.156   1.724
16125SOL    HW149816   4.688   7.196   1.640
16125SOL    HW249817   4.746   7.071   1.703
16126SOL     OW49818   5.571   7.085   1.603
16126SOL    HW149819   5.595   7.113   1.515
16126SOL    HW249820   5.651   7.097   1.654
16127SOL     OW49821   4.076   6.512   1.806
16127SOL    HW149822   4.153   6.526   1.861
16127SOL    HW249823   4.103   6.447   1.742
16128SOL     OW49824   5.227   5.869   0.133
16128SOL    HW149825   5.181   5.788   0.156
16128SOL    HW249826   5.272   5.895   0.213
16129SOL     OW49827   5.014   6.398   0.055
16129SOL    HW149828   5.067   6.320   0.042
16129SOL    HW249829   5.049   6.462  -0.008
16130SOL     OW49830   4.794   6.928   0.861
16130SOL    HW149831   4.802   6.856   0.799
16130SOL    HW249832   4.849   6.997   0.824
16131SOL     OW49833   4.035   6.395   0.937
16131SOL    HW149834   4.129   6.414   0.941
16131SOL    HW249835   4.027   6.306   0.971
16132SOL     OW49836   4.043   6.120   1.008
16132SOL    HW149837   4.009   6.031   1.001
16132SOL    HW249838   4.121   6.121   0.953
16133SOL     OW49839   4.861   5.965   1.678
16133SOL    HW149840   4.813   6.019   1.742
16133SOL    HW249841   4.949   6.003   1.677
16134SOL     OW49842   4.881   5.787   1.467
16134SOL    HW149843   4.872   5.850   1.539
16134SOL    HW249844   4.927   5.835   1.399
16135SOL     OW49845   3.803   7.367   0.919
16135SOL    HW149846   3.783   7.284   0.875
16135SOL    HW249847   3.896   7.381   0.903
16136SOL     OW49848   4.212   7.160   0.899
16136SOL    HW149849   4.280   7.222   0.924
16136SOL    HW249850   4.256   7.097   0.842
16137SOL     OW49851   4.688   6.371   1.222
16137SOL    HW149852   4.752   6.355   1.292
16137SOL    HW249853   4.608   6.329   1.253
16138SOL     OW49854   3.764   6.151   1.113
16138SOL    HW149855   3.848   6.139   1.068
16138SOL    HW249856   3.785   6.145   1.206
16139SOL     OW49857   3.908   6.110   1.733
16139SOL    HW149858   3.956   6.059   1.669
16139SOL    HW249859   3.877   6.187   1.684
16140SOL     OW49860   5.108   6.514   1.656
16140SOL    HW149861   5.128   6.607   1.652
16140SOL    HW249862   5.103   6.486   1.564
16141SOL     OW49863   4.536   6.163   0.380
16141SOL    HW149864   4.549   6.086   0.324
16141SOL    HW249865   4.462   6.209   0.341
16142SOL     OW49866   5.363   6.186   1.175
16142SOL    HW149867   5.354   6.127   1.250
16142SOL    HW249868   5.451   6.170   1.143
16143SOL     OW49869   3.959   7.132   1.721
16143SOL    HW149870   3.937   7.197   1.787
16143SOL    HW249871   3.970   7.050   1.770
16144SOL     OW49872   4.445   6.028   1.246
16144SOL    HW149873   4.385   5.956   1.226
16144SOL    HW249874   4.432   6.091   1.175
16145SOL     OW49875   4.643   7.261   1.473
16145SOL    HW149876   4.619   7.219   1.390
16145SOL    HW249877   4.637   7.355   1.455
16146SOL     OW49878   4.179   6.067   0.190
16146SOL    HW149879   4.237   6.141   0.208
16146SOL    HW249880   4.118   6.100   0.124
16147SOL     OW49881   3.862   6.730   1.469
16147SOL    HW149882   3.863   6.683   1.553
16147SOL    HW249883   3.881   6.663   1.404
16148SOL     OW49884   5.039   6.626   1.217
16148SOL    HW149885   5.059   6.563   1.148
16148SOL    HW249886   4.977   6.687   1.177
16149SOL     OW49887   5.029   6.428   0.326
16149SOL    HW149888   4.949   6.398   0.368
16149SOL    HW249889   5.016   6.410   0.233
16150SOL     OW49890   5.509   7.318   1.162
16150SOL    HW149891   5.568   7.342   1.091
16150SOL    HW249892   5.478   7.230   1.138
16151SOL     OW49893   4.965   7.318   1.103
16151SOL    HW149894   5.048   7.344   1.064
16151SOL    HW249895   4.976   7.225   1.124
16152SOL     OW49896   3.815   6.867   0.998
16152SOL    HW149897   3.799   6.880   1.092
16152SOL    HW249898   3.749   6.804   0.971
16153SOL     OW49899   4.401   7.258   1.740
16153SOL    HW149900   4.343   7.335   1.738
16153SOL    HW249901   4.475   7.283   1.684
16154SOL     OW49902   4.624   5.690   0.102
16154SOL    HW149903   4.668   5.705   0.019
16154SOL    HW249904   4.689   5.645   0.157
16155SOL     OW49905   5.453   5.742   0.508
16155SOL    HW149906   5.520   5.719   0.445
16155SOL    HW249907   5.430   5.660   0.551
16156SOL     OW49908   5.120   7.162   0.507
16156SOL    HW149909   5.178   7.193   0.438
16156SOL    HW249910   5.069   7.239   0.532
16157SOL     OW49911   3.862   7.378   1.838
16157SOL    HW149912   3.813   7.313   1.887
16157SOL    HW249913   3.910   7.427   1.905
16158SOL     OW49914   4.999   6.512   0.677
16158SOL    HW149915   5.072   6.451   0.690
16158SOL    HW249916   5.035   6.582   0.623
16159SOL     OW49917   4.522   6.864   1.419
16159SOL    HW149918   4.496   6.908   1.501
16159SOL    HW249919   4.448   6.878   1.361
16160SOL     OW49920   4.322   7.200   0.127
16160SOL    HW149921   4.416   7.211   0.113
16160SOL    HW249922   4.312   7.107   0.149
16161SOL     OW49923   5.341   7.315   1.394
16161SOL    HW149924   5.397   7.318   1.316
16161SOL    HW249925   5.325   7.407   1.415
16162SOL     OW49926   5.568   5.754   0.963
16162SOL    HW149927   5.596   5.665   0.942
16162SOL    HW249928   5.481   5.761   0.926
16163SOL     OW49929   3.974   5.899   0.717
16163SOL    HW149930   3.887   5.934   0.698
16163SOL    HW249931   3.977   5.893   0.812
16164SOL     OW49932   4.905   7.195   0.061
16164SOL    HW149933   4.881   7.102   0.065
16164SOL    HW249934   4.904   7.216  -0.033
16165SOL     OW49935   4.548   6.593   1.380
16165SOL    HW149936   4.593   6.585   1.296
16165SOL    HW249937   4.543   6.688   1.395
16166SOL     OW49938   4.645   6.501   0.292
16166SOL    HW149939   4.703   6.531   0.222
16166SOL    HW249940   4.694   6.433   0.337
16167SOL     OW49941   5.178   7.168   0.006
16167SOL    HW149942   5.095   7.190   0.049
16167SOL    HW249943   5.229   7.248   0.011
16168SOL     OW49944   4.092   6.887   1.492
16168SOL    HW149945   4.078   6.965   1.439
16168SOL    HW249946   4.013   6.835   1.479
16169SOL     OW49947   5.328   6.871   1.278
16169SOL    HW149948   5.386   6.852   1.352
16169SOL    HW249949   5.268   6.938   1.312
16170SOL     OW49950   4.789   6.697   0.719
16170SOL    HW149951   4.716   6.646   0.753
16170SOL    HW249952   4.853   6.633   0.691
16171SOL     OW49953   4.751   5.829   0.964
16171SOL    HW149954   4.749   5.784   0.880
16171SOL    HW249955   4.745   5.760   1.030
16172SOL     OW49956   4.322   7.054   0.474
16172SOL    HW149957   4.380   7.008   0.414
16172SOL    HW249958   4.265   7.106   0.418
16173SOL     OW49959   5.455   5.976   1.378
16173SOL    HW149960   5.527   6.039   1.379
16173SOL    HW249961   5.484   5.906   1.321
16174SOL     OW49962   3.943   6.913   0.291
16174SOL    HW149963   3.891   6.967   0.232
16174SOL    HW249964   3.932   6.953   0.377
16175SOL     OW49965   3.835   6.613   1.715
16175SOL    HW149966   3.761   6.592   1.772
16175SOL    HW249967   3.911   6.578   1.762
16176SOL     OW49968   4.398   5.776   1.487
16176SOL    HW149969   4.484   5.753   1.450
16176SOL    HW249970   4.416   5.793   1.579
16177SOL     OW49971   5.146   6.442   1.395
16177SOL    HW149972   5.095   6.502   1.341
16177SOL    HW249973   5.234   6.445   1.357
16178SOL     OW49974   3.793   5.732   0.306
16178SOL    HW149975   3.798   5.828   0.315
16178SOL    HW249976   3.879   5.707   0.272
16179SOL     OW49977   4.346   6.416   1.436
16179SOL    HW149978   4.404   6.492   1.424
16179SOL    HW249979   4.404   6.341   1.441
16180SOL     OW49980   5.209   7.378   0.989
16180SOL    HW149981   5.233   7.444   0.924
16180SOL    HW249982   5.293   7.340   1.017
16181SOL     OW49983   4.455   6.134   1.700
16181SOL    HW149984   4.491   6.205   1.754
16181SOL    HW249985   4.468   6.055   1.753
16182SOL     OW49986   5.196   6.776   1.626
16182SOL    HW149987   5.186   6.793   1.719
16182SOL    HW249988   5.288   6.797   1.608
16183SOL     OW49989   4.089   7.326   1.567
16183SOL    HW149990   4.006   7.374   1.555
16183SOL    HW249991   4.063   7.244   1.609
16184SOL     OW49992   5.384   6.464   1.255
16184SOL    HW149993   5.382   6.379   1.211
16184SOL    HW249994   5.374   6.528   1.184
16185SOL     OW49995   4.947   5.898   0.452
16185SOL    HW149996   5.007   5.824   0.452
16185SOL    HW249997   4.969   5.947   0.532
16186SOL     OW49998   4.299   6.316   0.672
16186SOL    HW149999   4.343   6.400   0.662
16186SOL    HW250000   4.239   6.311   0.597
16187SOL     OW50001   5.474   5.951   1.653
16187SOL    HW150002   5.461   5.966   1.559
16187SOL    HW250003   5.404   5.891   1.678
16188SOL     OW50004   5.479   6.517   1.509
16188SOL    HW150005   5.462   6.610   1.522
16188SOL    HW250006   5.456   6.501   1.417
16189SOL     OW50007   4.504   6.961   0.030
16189SOL    HW150008   4.495   6.943   0.124
16189SOL    HW250009   4.596   6.943   0.011
16190SOL     OW50010   4.385   7.367   0.932
16190SOL    HW150011   4.370   7.460   0.915
16190SOL    HW250012   4.480   7.356   0.927
16191SOL     OW50013   4.592   6.555   0.853
16191SOL    HW150014   4.644   6.483   0.890
16191SOL    HW250015   4.552   6.597   0.929
16192SOL     OW50016   4.802   6.589   0.082
16192SOL    HW150017   4.819   6.682   0.070
16192SOL    HW250018   4.888   6.547   0.075
16193SOL     OW50019   5.569   7.138   0.837
16193SOL    HW150020   5.486   7.126   0.790
16193SOL    HW250021   5.567   7.069   0.904
16194SOL     OW50022   3.960   6.886   1.859
16194SOL    HW150023   3.889   6.827   1.836
16194SOL    HW250024   3.952   6.898   1.954
16195SOL     OW50025   3.820   6.794   0.668
16195SOL    HW150026   3.837   6.754   0.754
16195SOL    HW250027   3.893   6.763   0.614
16196SOL     OW50028   4.412   6.998   1.631
16196SOL    HW150029   4.335   6.954   1.667
16196SOL    HW250030   4.408   7.087   1.667
16197SOL     OW50031   5.539   5.766   1.235
16197SOL    HW150032   5.537   5.671   1.248
16197SOL    HW250033   5.550   5.776   1.140
16198SOL     OW50034   4.135   6.023   0.522
16198SOL    HW150035   4.182   5.955   0.474
16198SOL    HW250036   4.095   5.976   0.596
16199SOL     OW50037   5.415   7.072   1.091
16199SOL    HW150038   5.338   7.052   1.038
16199SOL    HW250039   5.418   7.001   1.156
16200SOL     OW50040   4.065   6.148   1.293
16200SOL    HW150041   4.113   6.087   1.348
16200SOL    HW250042   4.079   6.115   1.204
16201SOL     OW50043   4.555   7.160   0.676
16201SOL    HW150044   4.550   7.203   0.591
16201SOL    HW250045   4.478   7.103   0.679
16202SOL     OW50046   5.152   5.817   1.115
16202SOL    HW150047   5.165   5.731   1.154
16202SOL    HW250048   5.103   5.866   1.181
16203SOL     OW50049   4.732   5.603   1.131
16203SOL    HW150050   4.675   5.537   1.090
16203SOL    HW250051   4.819   5.562   1.132
16204SOL     OW50052   4.500   6.912   0.313
16204SOL    HW150053   4.477   6.821   0.332
16204SOL    HW250054   4.588   6.922   0.349
16205SOL     OW50055   4.344   7.145   1.286
16205SOL    HW150056   4.342   7.228   1.334
16205SOL    HW250057   4.434   7.139   1.253
16206SOL     OW50058   5.093   5.622   0.184
16206SOL    HW150059   5.099   5.572   0.103
16206SOL    HW250060   5.008   5.666   0.179
16207SOL     OW50061   5.002   6.045   0.673
16207SOL    HW150062   4.955   6.128   0.679
16207SOL    HW250063   5.009   6.015   0.763
16208SOL     OW50064   5.308   5.778   0.885
16208SOL    HW150065   5.254   5.804   0.960
16208SOL    HW250066   5.307   5.855   0.828
16209SOL     OW50067   3.745   6.628   0.279
16209SOL    HW150068   3.827   6.673   0.260
16209SOL    HW250069   3.763   6.579   0.359
16210SOL     OW50070   4.599   7.235   0.385
16210SOL    HW150071   4.580   7.242   0.291
16210SOL    HW250072   4.575   7.321   0.420
16211SOL     OW50073   3.941   6.205   1.996
16211SOL    HW150074   3.855   6.197   2.038
16211SOL    HW250075   3.926   6.182   1.904
16212SOL     OW50076   3.950   5.872   2.851
16212SOL    HW150077   3.978   5.839   2.937
16212SOL    HW250078   3.862   5.835   2.839
16213SOL     OW50079   3.716   5.980   2.498
16213SOL    HW150080   3.638   6.005   2.548
16213SOL    HW250081   3.691   5.898   2.455
16214SOL     OW50082   4.303   6.892   3.037
16214SOL    HW150083   4.210   6.889   3.012
16214SOL    HW250084   4.313   6.977   3.080
16215SOL     OW50085   5.302   7.106   2.576
16215SOL    HW150086   5.258   7.076   2.656
16215SOL    HW250087   5.234   7.103   2.509
16216SOL     OW50088   4.857   6.286   2.556
16216SOL    HW150089   4.906   6.368   2.548
16216SOL    HW250090   4.815   6.292   2.642
16217SOL     OW50091   5.521   6.174   2.083
16217SOL    HW150092   5.485   6.172   1.994
16217SOL    HW250093   5.474   6.106   2.130
16218SOL     OW50094   4.471   6.734   2.881
16218SOL    HW150095   4.409   6.755   2.951
16218SOL    HW250096   4.520   6.815   2.868
16219SOL     OW50097   4.608   6.340   3.691
16219SOL    HW150098   4.580   6.406   3.754
16219SOL    HW250099   4.619   6.388   3.609
16220SOL     OW50100   4.410   6.576   2.507
16220SOL    HW150101   4.476   6.570   2.576
16220SOL    HW250102   4.340   6.631   2.545
16221SOL     OW50103   4.438   6.732   3.684
16221SOL    HW150104   4.482   6.811   3.716
16221SOL    HW250105   4.358   6.765   3.642
16222SOL     OW50106   4.049   7.005   2.929
16222SOL    HW150107   3.974   6.965   2.884
16222SOL    HW250108   4.095   7.053   2.860
16223SOL     OW50109   5.178   7.093   3.219
16223SOL    HW150110   5.232   7.170   3.236
16223SOL    HW250111   5.109   7.097   3.286
16224SOL     OW50112   4.171   5.965   3.332
16224SOL    HW150113   4.251   5.914   3.346
16224SOL    HW250114   4.101   5.910   3.367
16225SOL     OW50115   5.320   6.030   2.614
16225SOL    HW150116   5.244   6.040   2.557
16225SOL    HW250117   5.302   6.088   2.688
16226SOL     OW50118   4.861   6.927   3.563
16226SOL    HW150119   4.894   6.918   3.652
16226SOL    HW250120   4.808   6.848   3.550
16227SOL     OW50121   3.983   7.022   2.395
16227SOL    HW150122   3.977   7.117   2.391
16227SOL    HW250123   3.923   6.997   2.465
16228SOL     OW50124   3.994   6.678   2.751
16228SOL    HW150125   3.999   6.588   2.783
16228SOL    HW250126   3.942   6.723   2.817
16229SOL     OW50127   4.316   7.388   3.281
16229SOL    HW150128   4.241   7.360   3.333
16229SOL    HW250129   4.340   7.473   3.316
16230SOL     OW50130   4.297   6.573   2.005
16230SOL    HW150131   4.348   6.616   1.937
16230SOL    HW250132   4.335   6.604   2.087
16231SOL     OW50133   5.328   5.718   3.324
16231SOL    HW150134   5.316   5.804   3.284
16231SOL    HW250135   5.297   5.729   3.414
16232SOL     OW50136   3.842   6.244   2.423
16232SOL    HW150137   3.811   6.156   2.446
16232SOL    HW250138   3.835   6.293   2.505
16233SOL     OW50139   5.567   7.337   2.191
16233SOL    HW150140   5.638   7.315   2.250
16233SOL    HW250141   5.583   7.428   2.166
16234SOL     OW50142   3.758   7.174   1.979
16234SOL    HW150143   3.744   7.082   2.001
16234SOL    HW250144   3.740   7.221   2.061
16235SOL     OW50145   5.417   6.508   2.510
16235SOL    HW150146   5.499   6.463   2.490
16235SOL    HW250147   5.396   6.557   2.431
16236SOL     OW50148   5.378   6.687   2.289
16236SOL    HW150149   5.465   6.682   2.248
16236SOL    HW250150   5.387   6.755   2.356
16237SOL     OW50151   3.872   6.332   3.437
16237SOL    HW150152   3.965   6.354   3.440
16237SOL    HW250153   3.828   6.413   3.466
16238SOL     OW50154   4.348   6.972   2.604
16238SOL    HW150155   4.302   6.888   2.610
16238SOL    HW250156   4.332   7.001   2.514
16239SOL     OW50157   5.013   6.830   3.272
16239SOL    HW150158   5.039   6.756   3.218
16239SOL    HW250159   5.062   6.819   3.353
16240SOL     OW50160   4.553   5.602   2.359
16240SOL    HW150161   4.579   5.688   2.325
16240SOL    HW250162   4.459   5.610   2.376
16241SOL     OW50163   3.905   6.547   3.128
16241SOL    HW150164   3.992   6.507   3.120
16241SOL    HW250165   3.844   6.477   3.106
16242SOL     OW50166   5.259   6.591   2.059
16242SOL    HW150167   5.189   6.533   2.091
16242SOL    HW250168   5.301   6.623   2.139
16243SOL     OW50169   4.922   7.402   3.492
16243SOL    HW150170   4.916   7.458   3.414
16243SOL    HW250171   4.928   7.313   3.458
16244SOL     OW50172   4.074   5.859   3.677
16244SOL    HW150173   4.113   5.926   3.734
16244SOL    HW250174   3.986   5.845   3.713
16245SOL     OW50175   5.181   7.003   2.801
16245SOL    HW150176   5.121   7.014   2.875
16245SOL    HW250177   5.171   6.912   2.775
16246SOL     OW50178   5.362   7.355   2.436
16246SOL    HW150179   5.352   7.311   2.351
16246SOL    HW250180   5.358   7.284   2.500
16247SOL     OW50181   4.315   6.303   2.129
16247SOL    HW150182   4.316   6.391   2.092
16247SOL    HW250183   4.254   6.308   2.202
16248SOL     OW50184   5.004   5.952   2.791
16248SOL    HW150185   4.914   5.919   2.800
16248SOL    HW250186   5.055   5.899   2.852
16249SOL     OW50187   5.301   7.260   2.173
16249SOL    HW150188   5.394   7.281   2.166
16249SOL    HW250189   5.273   7.244   2.083
16250SOL     OW50190   4.575   6.128   3.314
16250SOL    HW150191   4.526   6.139   3.396
16250SOL    HW250192   4.509   6.102   3.250
16251SOL     OW50193   5.126   6.062   3.541
16251SOL    HW150194   5.126   6.102   3.628
16251SOL    HW250195   5.169   5.977   3.555
16252SOL     OW50196   4.652   6.468   3.443
16252SOL    HW150197   4.714   6.409   3.400
16252SOL    HW250198   4.576   6.468   3.385
16253SOL     OW50199   4.728   6.005   3.107
16253SOL    HW150200   4.683   6.054   3.177
16253SOL    HW250201   4.661   5.948   3.071
16254SOL     OW50202   4.770   6.272   2.295
16254SOL    HW150203   4.804   6.279   2.384
16254SOL    HW250204   4.687   6.225   2.304
16255SOL     OW50205   3.815   6.421   2.633
16255SOL    HW150206   3.895   6.405   2.682
16255SOL    HW250207   3.772   6.493   2.680
16256SOL     OW50208   3.853   7.460   3.446
16256SOL    HW150209   3.858   7.442   3.540
16256SOL    HW250210   3.775   7.414   3.417
16257SOL     OW50211   5.448   6.154   3.688
16257SOL    HW150212   5.405   6.227   3.643
16257SOL    HW250213   5.458   6.087   3.621
16258SOL     OW50214   5.114   6.731   2.408
16258SOL    HW150215   5.193   6.719   2.355
16258SOL    HW250216   5.059   6.788   2.355
16259SOL     OW50217   4.302   5.793   2.764
16259SOL    HW150218   4.293   5.798   2.859
16259SOL    HW250219   4.277   5.880   2.732
16260SOL     OW50220   4.730   7.032   2.321
16260SOL    HW150221   4.694   7.104   2.269
16260SOL    HW250222   4.681   7.035   2.403
16261SOL     OW50223   4.058   7.379   2.779
16261SOL    HW150224   4.111   7.299   2.772
16261SOL    HW250225   4.074   7.426   2.698
16262SOL     OW50226   5.525   6.643   2.732
16262SOL    HW150227   5.471   6.614   2.659
16262SOL    HW250228   5.464   6.650   2.805
16263SOL     OW50229   4.950   7.127   3.380
16263SOL    HW150230   4.943   7.063   3.450
16263SOL    HW250231   4.885   7.099   3.315
16264SOL     OW50232   4.032   6.550   2.120
16264SOL    HW150233   4.114   6.565   2.074
16264SOL    HW250234   4.007   6.461   2.095
16265SOL     OW50235   5.205   6.338   2.579
16265SOL    HW150236   5.202   6.293   2.664
16265SOL    HW250237   5.285   6.391   2.584
16266SOL     OW50238   4.200   6.857   3.600
16266SOL    HW150239   4.174   6.861   3.508
16266SOL    HW250240   4.118   6.849   3.648
16267SOL     OW50241   4.862   7.355   2.101
16267SOL    HW150242   4.776   7.327   2.133
16267SOL    HW250243   4.881   7.294   2.029
16268SOL     OW50244   3.913   5.842   3.366
16268SOL    HW150245   3.839   5.890   3.403
16268SOL    HW250246   3.899   5.751   3.392
16269SOL     OW50247   5.354   6.972   1.956
16269SOL    HW150248   5.312   7.056   1.939
16269SOL    HW250249   5.287   6.907   1.934
16270SOL     OW50250   4.250   7.379   2.139
16270SOL    HW150251   4.182   7.355   2.202
16270SOL    HW250252   4.289   7.295   2.113
16271SOL     OW50253   5.126   5.698   2.302
16271SOL    HW150254   5.122   5.663   2.214
16271SOL    HW250255   5.217   5.684   2.329
16272SOL     OW50256   3.986   7.376   3.075
16272SOL    HW150257   4.026   7.301   3.119
16272SOL    HW250258   4.010   7.366   2.983
16273SOL     OW50259   4.684   7.276   2.754
16273SOL    HW150260   4.763   7.262   2.806
16273SOL    HW250261   4.628   7.202   2.776
16274SOL     OW50262   4.120   6.277   2.330
16274SOL    HW150263   4.135   6.184   2.347
16274SOL    HW250264   4.028   6.291   2.352
16275SOL     OW50265   5.241   5.803   3.586
16275SOL    HW150266   5.253   5.824   3.679
16275SOL    HW250267   5.175   5.734   3.584
16276SOL     OW50268   4.369   5.691   1.969
16276SOL    HW150269   4.399   5.609   2.008
16276SOL    HW250270   4.318   5.664   1.893
16277SOL     OW50271   4.486   5.867   3.618
16277SOL    HW150272   4.568   5.818   3.611
16277SOL    HW250273   4.438   5.822   3.688
16278SOL     OW50274   4.614   7.140   3.056
16278SOL    HW150275   4.586   7.090   2.979
16278SOL    HW250276   4.672   7.080   3.103
16279SOL     OW50277   5.069   6.171   3.296
16279SOL    HW150278   5.097   6.140   3.381
16279SOL    HW250279   5.098   6.262   3.293
16280SOL     OW50280   4.549   7.032   2.794
16280SOL    HW150281   4.625   6.986   2.758
16280SOL    HW250282   4.474   6.996   2.747
16281SOL     OW50283   4.687   6.096   2.754
16281SOL    HW150284   4.667   6.074   2.663
16281SOL    HW250285   4.700   6.011   2.797
16282SOL     OW50286   4.284   5.654   2.358
16282SOL    HW150287   4.209   5.650   2.417
16282SOL    HW250288   4.269   5.731   2.304
16283SOL     OW50289   5.154   6.791   1.899
16283SOL    HW150290   5.184   6.716   1.951
16283SOL    HW250291   5.067   6.811   1.935
16284SOL     OW50292   4.010   5.638   2.046
16284SOL    HW150293   4.071   5.702   2.009
16284SOL    HW250294   4.065   5.576   2.093
16285SOL     OW50295   4.674   5.871   2.263
16285SOL    HW150296   4.640   5.927   2.333
16285SOL    HW250297   4.764   5.852   2.290
16286SOL     OW50298   4.802   6.275   3.314
16286SOL    HW150299   4.729   6.214   3.326
16286SOL    HW250300   4.880   6.219   3.319
16287SOL     OW50301   4.943   7.150   2.646
16287SOL    HW150302   4.997   7.201   2.586
16287SOL    HW250303   4.996   7.142   2.725
16288SOL     OW50304   4.199   6.742   2.583
16288SOL    HW150305   4.137   6.720   2.652
16288SOL    HW250306   4.150   6.729   2.502
16289SOL     OW50307   4.942   7.402   2.481
16289SOL    HW150308   4.979   7.448   2.405
16289SOL    HW250309   4.987   7.440   2.556
16290SOL     OW50310   4.747   6.114   1.893
16290SOL    HW150311   4.701   6.195   1.869
16290SOL    HW250312   4.816   6.143   1.953
16291SOL     OW50313   3.805   6.151   3.244
16291SOL    HW150314   3.897   6.135   3.224
16291SOL    HW250315   3.806   6.215   3.315
16292SOL     OW50316   4.278   5.806   3.039
16292SOL    HW150317   4.321   5.742   3.096
16292SOL    HW250318   4.186   5.805   3.066
16293SOL     OW50319   4.564   6.036   2.471
16293SOL    HW150320   4.505   6.110   2.488
16293SOL    HW250321   4.530   5.965   2.527
16294SOL     OW50322   4.742   5.622   2.590
16294SOL    HW150323   4.678   5.603   2.521
16294SOL    HW250324   4.723   5.557   2.658
16295SOL     OW50325   5.149   6.745   2.711
16295SOL    HW150326   5.093   6.671   2.734
16295SOL    HW250327   5.152   6.744   2.616
16296SOL     OW50328   5.189   6.190   2.820
16296SOL    HW150329   5.124   6.120   2.833
16296SOL    HW250330   5.243   6.188   2.898
16297SOL     OW50331   5.567   6.391   2.245
16297SOL    HW150332   5.623   6.344   2.307
16297SOL    HW250333   5.545   6.326   2.178
16298SOL     OW50334   4.216   7.007   2.013
16298SOL    HW150335   4.139   6.984   2.064
16298SOL    HW250336   4.208   6.955   1.933
16299SOL     OW50337   5.416   6.865   2.482
16299SOL    HW150338   5.508   6.857   2.507
16299SOL    HW250339   5.387   6.947   2.522
16300SOL     OW50340   5.113   6.155   1.938
16300SOL    HW150341   5.053   6.130   2.008
16300SOL    HW250342   5.199   6.123   1.968
16301SOL     OW50343   4.265   5.858   2.171
16301SOL    HW150344   4.302   5.803   2.101
16301SOL    HW250345   4.231   5.934   2.125
16302SOL     OW50346   5.466   6.828   3.415
16302SOL    HW150347   5.549   6.784   3.427
16302SOL    HW250348   5.482   6.918   3.445
16303SOL     OW50349   4.777   6.978   3.217
16303SOL    HW150350   4.697   6.938   3.250
16303SOL    HW250351   4.846   6.915   3.236
16304SOL     OW50352   5.335   7.222   3.525
16304SOL    HW150353   5.326   7.252   3.435
16304SOL    HW250354   5.412   7.166   3.524
16305SOL     OW50355   4.844   6.786   2.982
16305SOL    HW150356   4.776   6.748   3.039
16305SOL    HW250357   4.798   6.803   2.899
16306SOL     OW50358   5.353   6.688   2.941
16306SOL    HW150359   5.353   6.747   3.016
16306SOL    HW250360   5.266   6.697   2.903
16307SOL     OW50361   4.636   5.692   3.242
16307SOL    HW150362   4.666   5.669   3.155
16307SOL    HW250363   4.714   5.726   3.287
16308SOL     OW50364   4.703   6.697   3.580
16308SOL    HW150365   4.614   6.714   3.610
16308SOL    HW250366   4.695   6.621   3.522
16309SOL     OW50367   4.436   6.644   2.235
16309SOL    HW150368   4.420   6.624   2.327
16309SOL    HW250369   4.509   6.587   2.210
16310SOL     OW50370   4.136   6.402   3.114
16310SOL    HW150371   4.218   6.419   3.161
16310SOL    HW250372   4.114   6.312   3.137
16311SOL     OW50373   4.996   5.967   3.131
16311SOL    HW150374   5.024   6.041   3.185
16311SOL    HW250375   4.903   5.984   3.113
16312SOL     OW50376   3.803   7.164   3.224
16312SOL    HW150377   3.779   7.232   3.161
16312SOL    HW250378   3.898   7.156   3.216
16313SOL     OW50379   4.054   6.709   2.352
16313SOL    HW150380   4.048   6.786   2.296
16313SOL    HW250381   4.052   6.635   2.291
16314SOL     OW50382   4.278   6.099   2.701
16314SOL    HW150383   4.288   6.163   2.631
16314SOL    HW250384   4.334   6.132   2.771
16315SOL     OW50385   4.976   6.934   2.252
16315SOL    HW150386   5.032   7.003   2.287
16315SOL    HW250387   4.888   6.955   2.284
16316SOL     OW50388   5.007   7.039   3.006
16316SOL    HW150389   5.059   7.045   3.087
16316SOL    HW250390   4.945   6.968   3.023
16317SOL     OW50391   5.294   6.211   2.341
16317SOL    HW150392   5.247   6.243   2.418
16317SOL    HW250393   5.336   6.288   2.304
16318SOL     OW50394   4.068   7.121   3.169
16318SOL    HW150395   4.057   7.074   3.086
16318SOL    HW250396   4.163   7.130   3.179
16319SOL     OW50397   4.164   6.343   3.453
16319SOL    HW150398   4.230   6.385   3.398
16319SOL    HW250399   4.202   6.258   3.475
16320SOL     OW50400   5.344   6.367   3.552
16320SOL    HW150401   5.256   6.405   3.549
16320SOL    HW250402   5.391   6.410   3.481
16321SOL     OW50403   4.717   5.724   3.605
16321SOL    HW150404   4.786   5.789   3.587
16321SOL    HW250405   4.762   5.640   3.602
16322SOL     OW50406   4.226   5.636   3.609
16322SOL    HW150407   4.174   5.574   3.557
16322SOL    HW250408   4.167   5.710   3.624
16323SOL     OW50409   4.293   6.467   2.894
16323SOL    HW150410   4.352   6.540   2.915
16323SOL    HW250411   4.248   6.449   2.976
16324SOL     OW50412   5.051   6.444   2.869
16324SOL    HW150413   4.960   6.417   2.857
16324SOL    HW250414   5.101   6.362   2.864
16325SOL     OW50415   4.906   6.103   2.124
16325SOL    HW150416   4.932   6.032   2.183
16325SOL    HW250417   4.869   6.170   2.182
16326SOL     OW50418   4.013   5.790   3.106
16326SOL    HW150419   3.978   5.816   3.191
16326SOL    HW250420   3.995   5.696   3.101
16327SOL     OW50421   3.770   6.901   3.132
16327SOL    HW150422   3.801   6.840   3.199
16327SOL    HW250423   3.776   6.987   3.173
16328SOL     OW50424   4.429   6.212   2.892
16328SOL    HW150425   4.524   6.214   2.903
16328SOL    HW250426   4.401   6.301   2.911
16329SOL     OW50427   5.466   6.554   3.720
16329SOL    HW150428   5.428   6.479   3.674
16329SOL    HW250429   5.406   6.570   3.793
16330SOL     OW50430   4.042   5.652   2.489
16330SOL    HW150431   4.013   5.740   2.515
16330SOL    HW250432   4.050   5.605   2.572
16331SOL     OW50433   5.357   5.974   2.216
16331SOL    HW150434   5.378   5.906   2.279
16331SOL    HW250435   5.326   6.047   2.269
16332SOL     OW50436   4.769   6.343   2.828
16332SOL    HW150437   4.744   6.359   2.919
16332SOL    HW250438   4.742   6.252   2.811
16333SOL     OW50439   4.712   7.159   3.589
16333SOL    HW150440   4.691   7.199   3.505
16333SOL    HW250441   4.743   7.072   3.567
16334SOL     OW50442   5.569   7.083   3.467
16334SOL    HW150443   5.596   7.113   3.380
16334SOL    HW250444   5.648   7.093   3.520
16335SOL     OW50445   4.075   6.515   3.653
16335SOL    HW150446   4.144   6.524   3.718
16335SOL    HW250447   4.109   6.453   3.590
16336SOL     OW50448   5.245   5.863   1.987
16336SOL    HW150449   5.190   5.790   2.016
16336SOL    HW250450   5.284   5.897   2.068
16337SOL     OW50451   5.004   6.404   1.886
16337SOL    HW150452   5.049   6.320   1.894
16337SOL    HW250453   5.039   6.442   1.805
16338SOL     OW50454   4.772   6.924   2.698
16338SOL    HW150455   4.786   6.845   2.647
16338SOL    HW250456   4.842   6.984   2.670
16339SOL     OW50457   4.038   6.398   2.796
16339SOL    HW150458   4.128   6.423   2.817
16339SOL    HW250459   4.029   6.309   2.831
16340SOL     OW50460   4.048   6.120   2.859
16340SOL    HW150461   4.013   6.031   2.856
16340SOL    HW250462   4.127   6.116   2.804
16341SOL     OW50463   4.866   5.960   3.539
16341SOL    HW150464   4.813   6.008   3.603
16341SOL    HW250465   4.952   6.002   3.542
16342SOL     OW50466   4.880   5.789   3.323
16342SOL    HW150467   4.870   5.847   3.398
16342SOL    HW250468   4.925   5.842   3.257
16343SOL     OW50469   3.728   6.900   2.053
16343SOL    HW150470   3.641   6.916   2.018
16343SOL    HW250471   3.723   6.811   2.088
16344SOL     OW50472   3.788   7.370   2.796
16344SOL    HW150473   3.765   7.288   2.753
16344SOL    HW250474   3.884   7.374   2.789
16345SOL     OW50475   4.217   7.157   2.764
16345SOL    HW150476   4.287   7.221   2.779
16345SOL    HW250477   4.258   7.090   2.709
16346SOL     OW50478   4.677   6.355   3.079
16346SOL    HW150479   4.732   6.330   3.153
16346SOL    HW250480   4.593   6.380   3.118
16347SOL     OW50481   3.767   6.158   2.972
16347SOL    HW150482   3.850   6.140   2.928
16347SOL    HW250483   3.786   6.151   3.065
16348SOL     OW50484   3.907   6.112   3.604
16348SOL    HW150485   3.969   6.058   3.555
16348SOL    HW250486   3.884   6.182   3.543
16349SOL     OW50487   5.111   6.511   3.521
16349SOL    HW150488   5.125   6.606   3.517
16349SOL    HW250489   5.101   6.484   3.430
16350SOL     OW50490   4.508   6.103   2.148
16350SOL    HW150491   4.455   6.061   2.216
16350SOL    HW250492   4.463   6.186   2.131
16351SOL     OW50493   5.360   6.195   3.034
16351SOL    HW150494   5.347   6.136   3.109
16351SOL    HW250495   5.449   6.177   3.004
16352SOL     OW50496   3.955   7.129   3.585
16352SOL    HW150497   3.937   7.184   3.661
16352SOL    HW250498   3.969   7.042   3.622
16353SOL     OW50499   4.430   6.030   3.104
16353SOL    HW150500   4.371   5.956   3.089
16353SOL    HW250501   4.410   6.091   3.033
16354SOL     OW50502   4.638   7.273   3.347
16354SOL    HW150503   4.620   7.222   3.268
16354SOL    HW250504   4.624   7.364   3.320
16355SOL     OW50505   4.183   6.078   2.029
16355SOL    HW150506   4.240   6.150   2.056
16355SOL    HW250507   4.095   6.117   2.027
16356SOL     OW50508   3.870   6.730   3.326
16356SOL    HW150509   3.870   6.684   3.410
16356SOL    HW250510   3.886   6.661   3.262
16357SOL     OW50511   5.056   6.634   3.068
16357SOL    HW150512   5.059   6.565   3.001
16357SOL    HW250513   4.981   6.688   3.043
16358SOL     OW50514   5.048   6.448   2.160
16358SOL    HW150515   4.980   6.419   2.220
16358SOL    HW250516   5.012   6.430   2.073
16359SOL     OW50517   5.502   7.321   3.018
16359SOL    HW150518   5.563   7.342   2.947
16359SOL    HW250519   5.474   7.231   2.999
16360SOL     OW50520   4.953   7.306   2.935
16360SOL    HW150521   5.040   7.335   2.909
16360SOL    HW250522   4.968   7.220   2.974
16361SOL     OW50523   3.803   6.864   2.865
16361SOL    HW150524   3.790   6.873   2.959
16361SOL    HW250525   3.744   6.794   2.838
16362SOL     OW50526   4.408   7.268   3.612
16362SOL    HW150527   4.350   7.343   3.597
16362SOL    HW250528   4.482   7.282   3.552
16363SOL     OW50529   5.449   5.750   2.367
16363SOL    HW150530   5.518   5.730   2.303
16363SOL    HW250531   5.429   5.666   2.407
16364SOL     OW50532   5.117   7.159   2.355
16364SOL    HW150533   5.181   7.183   2.288
16364SOL    HW250534   5.053   7.230   2.353
16365SOL     OW50535   3.862   7.391   3.706
16365SOL    HW150536   3.816   7.320   3.750
16365SOL    HW250537   3.913   7.433   3.776
16366SOL     OW50538   5.003   6.513   2.523
16366SOL    HW150539   5.076   6.454   2.541
16366SOL    HW250540   5.042   6.586   2.475
16367SOL     OW50541   4.525   6.890   3.285
16367SOL    HW150542   4.490   6.934   3.362
16367SOL    HW250543   4.449   6.848   3.244
16368SOL     OW50544   4.417   7.188   2.011
16368SOL    HW150545   4.417   7.213   1.919
16368SOL    HW250546   4.352   7.118   2.017
16369SOL     OW50547   5.340   7.317   3.255
16369SOL    HW150548   5.396   7.321   3.177
16369SOL    HW250549   5.325   7.409   3.277
16370SOL     OW50550   5.574   5.752   2.821
16370SOL    HW150551   5.598   5.661   2.805
16370SOL    HW250552   5.484   5.759   2.789
16371SOL     OW50553   3.978   5.906   2.574
16371SOL    HW150554   3.889   5.937   2.555
16371SOL    HW250555   3.979   5.895   2.669
16372SOL     OW50556   4.932   7.184   1.897
16372SOL    HW150557   4.920   7.092   1.924
16372SOL    HW250558   4.864   7.198   1.831
16373SOL     OW50559   4.649   6.679   3.150
16373SOL    HW150560   4.592   6.602   3.156
16373SOL    HW250561   4.618   6.738   3.218
16374SOL     OW50562   4.638   6.484   2.150
16374SOL    HW150563   4.699   6.521   2.087
16374SOL    HW250564   4.690   6.421   2.200
16375SOL     OW50565   5.208   7.227   1.909
16375SOL    HW150566   5.116   7.209   1.892
16375SOL    HW250567   5.249   7.229   1.823
16376SOL     OW50568   4.090   6.897   3.356
16376SOL    HW150569   4.072   6.972   3.299
16376SOL    HW250570   4.017   6.837   3.340
16377SOL     OW50571   5.341   6.877   3.149
16377SOL    HW150572   5.385   6.851   3.230
16377SOL    HW250573   5.272   6.938   3.178
16378SOL     OW50574   4.792   6.689   2.569
16378SOL    HW150575   4.720   6.641   2.610
16378SOL    HW250576   4.858   6.623   2.550
16379SOL     OW50577   4.755   5.820   2.804
16379SOL    HW150578   4.751   5.760   2.730
16379SOL    HW250579   4.744   5.765   2.881
16380SOL     OW50580   4.332   7.082   2.343
16380SOL    HW150581   4.361   7.030   2.267
16380SOL    HW250582   4.240   7.100   2.325
16381SOL     OW50583   5.449   5.990   3.232
16381SOL    HW150584   5.525   6.047   3.237
16381SOL    HW250585   5.479   5.914   3.181
16382SOL     OW50586   3.983   6.930   2.145
16382SOL    HW150587   3.889   6.925   2.127
16382SOL    HW250588   3.989   6.970   2.231
16383SOL     OW50589   3.834   6.629   3.583
16383SOL    HW150590   3.760   6.599   3.635
16383SOL    HW250591   3.910   6.584   3.620
16384SOL     OW50592   4.399   5.789   3.359
16384SOL    HW150593   4.483   5.764   3.320
16384SOL    HW250594   4.421   5.817   3.448
16385SOL     OW50595   3.811   5.907   1.894
16385SOL    HW150596   3.718   5.889   1.878
16385SOL    HW250597   3.830   5.986   1.844
16386SOL     OW50598   5.147   6.446   3.258
16386SOL    HW150599   5.096   6.505   3.203
16386SOL    HW250600   5.235   6.447   3.220
16387SOL     OW50601   3.778   5.736   2.160
16387SOL    HW150602   3.773   5.819   2.113
16387SOL    HW250603   3.863   5.699   2.135
16388SOL     OW50604   4.900   6.917   1.980
16388SOL    HW150605   4.809   6.890   1.980
16388SOL    HW250606   4.926   6.916   2.072
16389SOL     OW50607   5.208   7.376   2.838
16389SOL    HW150608   5.242   7.453   2.794
16389SOL    HW250609   5.284   7.336   2.880
16390SOL     OW50610   4.442   6.143   3.555
16390SOL    HW150611   4.488   6.196   3.620
16390SOL    HW250612   4.451   6.053   3.587
16391SOL     OW50613   5.192   6.778   3.489
16391SOL    HW150614   5.178   6.792   3.583
16391SOL    HW250615   5.285   6.798   3.476
16392SOL     OW50616   4.093   7.322   3.430
16392SOL    HW150617   4.010   7.368   3.417
16392SOL    HW250618   4.068   7.239   3.470
16393SOL     OW50619   5.388   6.463   3.118
16393SOL    HW150620   5.381   6.377   3.078
16393SOL    HW250621   5.380   6.525   3.045
16394SOL     OW50622   4.952   5.910   2.315
16394SOL    HW150623   5.011   5.835   2.312
16394SOL    HW250624   4.977   5.957   2.394
16395SOL     OW50625   4.340   6.297   2.505
16395SOL    HW150626   4.365   6.389   2.515
16395SOL    HW250627   4.260   6.299   2.452
16396SOL     OW50628   5.472   5.949   3.505
16396SOL    HW150629   5.451   5.966   3.413
16396SOL    HW250630   5.404   5.889   3.535
16397SOL     OW50631   5.483   6.520   3.369
16397SOL    HW150632   5.454   6.610   3.383
16397SOL    HW250633   5.457   6.501   3.278
16398SOL     OW50634   4.595   6.947   1.913
16398SOL    HW150635   4.552   6.966   1.997
16398SOL    HW250636   4.600   7.033   1.870
16399SOL     OW50637   4.397   7.363   2.780
16399SOL    HW150638   4.366   7.453   2.770
16399SOL    HW250639   4.489   7.373   2.805
16400SOL     OW50640   4.600   6.556   2.713
16400SOL    HW150641   4.643   6.485   2.760
16400SOL    HW250642   4.554   6.605   2.781
16401SOL     OW50643   4.801   6.574   1.953
16401SOL    HW150644   4.779   6.627   1.876
16401SOL    HW250645   4.872   6.518   1.923
16402SOL     OW50646   5.566   7.136   2.701
16402SOL    HW150647   5.482   7.124   2.657
16402SOL    HW250648   5.565   7.071   2.772
16403SOL     OW50649   3.951   6.877   3.709
16403SOL    HW150650   3.898   6.804   3.679
16403SOL    HW250651   3.929   6.887   3.802
16404SOL     OW50652   3.816   6.809   2.530
16404SOL    HW150653   3.821   6.768   2.616
16404SOL    HW250654   3.887   6.769   2.480
16405SOL     OW50655   4.400   7.014   3.491
16405SOL    HW150656   4.332   6.960   3.531
16405SOL    HW250657   4.400   7.095   3.542
16406SOL     OW50658   5.547   5.779   3.095
16406SOL    HW150659   5.527   5.690   3.121
16406SOL    HW250660   5.556   5.775   3.000
16407SOL     OW50661   4.158   6.018   2.389
16407SOL    HW150662   4.181   5.943   2.335
16407SOL    HW250663   4.105   5.982   2.460
16408SOL     OW50664   5.414   7.070   2.952
16408SOL    HW150665   5.335   7.047   2.903
16408SOL    HW250666   5.417   7.005   3.022
16409SOL     OW50667   4.062   6.139   3.156
16409SOL    HW150668   4.108   6.081   3.217
16409SOL    HW250669   4.082   6.103   3.069
16410SOL     OW50670   4.548   7.155   2.499
16410SOL    HW150671   4.478   7.152   2.434
16410SOL    HW250672   4.511   7.113   2.577
16411SOL     OW50673   5.152   5.811   2.972
16411SOL    HW150674   5.146   5.721   3.004
16411SOL    HW250675   5.105   5.863   3.038
16412SOL     OW50676   4.734   5.609   2.994
16412SOL    HW150677   4.672   5.537   2.983
16412SOL    HW250678   4.820   5.567   2.991
16413SOL     OW50679   4.501   6.911   2.180
16413SOL    HW150680   4.470   6.822   2.193
16413SOL    HW250681   4.581   6.916   2.231
16414SOL     OW50682   4.343   7.150   3.145
16414SOL    HW150683   4.339   7.232   3.194
16414SOL    HW250684   4.435   7.141   3.120
16415SOL     OW50685   5.092   5.632   2.032
16415SOL    HW150686   5.132   5.553   1.994
16415SOL    HW250687   5.001   5.608   2.047
16416SOL     OW50688   5.023   6.053   2.539
16416SOL    HW150689   4.971   6.133   2.546
16416SOL    HW250690   5.016   6.013   2.625
16417SOL     OW50691   5.314   5.776   2.750
16417SOL    HW150692   5.257   5.795   2.825
16417SOL    HW250693   5.306   5.854   2.695
16418SOL     OW50694   3.765   6.646   2.166
16418SOL    HW150695   3.858   6.637   2.150
16418SOL    HW250696   3.736   6.557   2.189
16419SOL     OW50697   4.618   7.251   2.195
16419SOL    HW150698   4.548   7.227   2.133
16419SOL    HW250699   4.578   7.318   2.250
16420SOL     OW50700   3.938   6.224   3.859
16420SOL    HW150701   3.856   6.203   3.902
16420SOL    HW250702   3.927   6.192   3.769
16421SOL     OW50703   3.946   5.878   4.718
16421SOL    HW150704   3.977   5.840   4.801
16421SOL    HW250705   3.859   5.839   4.705
16422SOL     OW50706   3.718   5.981   4.359
16422SOL    HW150707   3.638   6.004   4.407
16422SOL    HW250708   3.695   5.901   4.311
16423SOL     OW50709   4.284   6.864   4.895
16423SOL    HW150710   4.201   6.882   4.852
16423SOL    HW250711   4.306   6.946   4.940
16424SOL     OW50712   5.297   7.107   4.438
16424SOL    HW150713   5.255   7.077   4.519
16424SOL    HW250714   5.227   7.108   4.373
16425SOL     OW50715   4.863   6.279   4.412
16425SOL    HW150716   4.903   6.366   4.410
16425SOL    HW250717   4.809   6.279   4.491
16426SOL     OW50718   5.523   6.179   3.945
16426SOL    HW150719   5.491   6.173   3.855
16426SOL    HW250720   5.475   6.111   3.992
16427SOL     OW50721   4.475   6.722   4.772
16427SOL    HW150722   4.403   6.754   4.827
16427SOL    HW250723   4.514   6.801   4.735
16428SOL     OW50724   4.611   6.343   5.556
16428SOL    HW150725   4.606   6.414   5.620
16428SOL    HW250726   4.628   6.388   5.473
16429SOL     OW50727   4.409   6.586   4.366
16429SOL    HW150728   4.475   6.576   4.435
16429SOL    HW250729   4.340   6.639   4.406
16430SOL     OW50730   4.441   6.734   5.547
16430SOL    HW150731   4.489   6.810   5.578
16430SOL    HW250732   4.361   6.770   5.510
16431SOL     OW50733   4.067   6.938   4.737
16431SOL    HW150734   3.972   6.948   4.738
16431SOL    HW250735   4.100   7.027   4.721
16432SOL     OW50736   5.181   7.089   5.087
16432SOL    HW150737   5.233   7.168   5.102
16432SOL    HW250738   5.109   7.095   5.150
16433SOL     OW50739   4.175   5.973   5.196
16433SOL    HW150740   4.252   5.918   5.207
16433SOL    HW250741   4.102   5.919   5.225
16434SOL     OW50742   5.316   6.036   4.473
16434SOL    HW150743   5.240   6.037   4.416
16434SOL    HW250744   5.293   6.093   4.546
16435SOL     OW50745   3.939   7.316   4.192
16435SOL    HW150746   3.965   7.387   4.250
16435SOL    HW250747   4.016   7.297   4.140
16436SOL     OW50748   4.862   6.930   5.417
16436SOL    HW150749   4.897   6.922   5.506
16436SOL    HW250750   4.809   6.851   5.406
16437SOL     OW50751   3.957   7.031   4.256
16437SOL    HW150752   3.930   7.120   4.278
16437SOL    HW250753   3.912   6.976   4.320
16438SOL     OW50754   3.982   6.674   4.608
16438SOL    HW150755   3.992   6.585   4.641
16438SOL    HW250756   3.988   6.730   4.686
16439SOL     OW50757   4.352   7.389   5.151
16439SOL    HW150758   4.267   7.355   5.180
16439SOL    HW250759   4.355   7.478   5.183
16440SOL     OW50760   4.293   6.573   3.871
16440SOL    HW150761   4.345   6.612   3.801
16440SOL    HW250762   4.335   6.603   3.952
16441SOL     OW50763   5.333   5.722   5.182
16441SOL    HW150764   5.269   5.781   5.144
16441SOL    HW250765   5.313   5.721   5.276
16442SOL     OW50766   3.839   6.246   4.284
16442SOL    HW150767   3.813   6.156   4.303
16442SOL    HW250768   3.833   6.290   4.369
16443SOL     OW50769   5.568   7.335   4.045
16443SOL    HW150770   5.636   7.311   4.109
16443SOL    HW250771   5.584   7.428   4.028
16444SOL     OW50772   3.766   7.175   3.837
16444SOL    HW150773   3.751   7.082   3.856
16444SOL    HW250774   3.740   7.219   3.918
16445SOL     OW50775   5.422   6.514   4.370
16445SOL    HW150776   5.487   6.455   4.332
16445SOL    HW250777   5.389   6.565   4.295
16446SOL     OW50778   5.376   6.689   4.149
16446SOL    HW150779   5.464   6.684   4.110
16446SOL    HW250780   5.384   6.758   4.215
16447SOL     OW50781   3.856   6.327   5.300
16447SOL    HW150782   3.948   6.350   5.309
16447SOL    HW250783   3.809   6.408   5.315
16448SOL     OW50784   4.348   6.980   4.461
16448SOL    HW150785   4.300   6.898   4.474
16448SOL    HW250786   4.328   7.005   4.371
16449SOL     OW50787   5.007   6.825   5.137
16449SOL    HW150788   5.036   6.753   5.081
16449SOL    HW250789   5.060   6.816   5.216
16450SOL     OW50790   4.557   5.607   4.242
16450SOL    HW150791   4.587   5.695   4.218
16450SOL    HW250792   4.461   5.614   4.246
16451SOL     OW50793   3.911   6.542   4.998
16451SOL    HW150794   3.999   6.507   4.988
16451SOL    HW250795   3.854   6.476   4.960
16452SOL     OW50796   5.258   6.589   3.921
16452SOL    HW150797   5.188   6.531   3.952
16452SOL    HW250798   5.299   6.621   4.002
16453SOL     OW50799   4.926   7.404   5.357
16453SOL    HW150800   4.914   7.461   5.281
16453SOL    HW250801   4.931   7.316   5.321
16454SOL     OW50802   4.068   5.861   5.538
16454SOL    HW150803   4.113   5.922   5.597
16454SOL    HW250804   3.987   5.839   5.584
16455SOL     OW50805   5.201   6.997   4.671
16455SOL    HW150806   5.132   7.017   4.734
16455SOL    HW250807   5.181   6.909   4.640
16456SOL     OW50808   5.371   7.350   4.297
16456SOL    HW150809   5.350   7.310   4.213
16456SOL    HW250810   5.356   7.280   4.361
16457SOL     OW50811   4.311   6.295   3.994
16457SOL    HW150812   4.312   6.382   3.956
16457SOL    HW250813   4.248   6.300   4.066
16458SOL     OW50814   5.003   5.958   4.656
16458SOL    HW150815   4.914   5.924   4.662
16458SOL    HW250816   5.054   5.902   4.715
16459SOL     OW50817   5.298   7.273   4.035
16459SOL    HW150818   5.393   7.287   4.026
16459SOL    HW250819   5.270   7.251   3.946
16460SOL     OW50820   4.518   6.204   5.170
16460SOL    HW150821   4.496   6.175   5.258
16460SOL    HW250822   4.488   6.133   5.113
16461SOL     OW50823   5.132   6.065   5.404
16461SOL    HW150824   5.130   6.106   5.491
16461SOL    HW250825   5.169   5.978   5.420
16462SOL     OW50826   4.676   6.470   5.312
16462SOL    HW150827   4.728   6.400   5.272
16462SOL    HW250828   4.623   6.505   5.240
16463SOL     OW50829   4.726   5.996   4.944
16463SOL    HW150830   4.638   6.012   4.979
16463SOL    HW250831   4.714   5.925   4.881
16464SOL     OW50832   4.779   6.292   4.145
16464SOL    HW150833   4.799   6.280   4.238
16464SOL    HW250834   4.696   6.246   4.132
16465SOL     OW50835   3.812   6.425   4.498
16465SOL    HW150836   3.892   6.403   4.546
16465SOL    HW250837   3.778   6.503   4.542
16466SOL     OW50838   3.852   7.458   5.309
16466SOL    HW150839   3.846   7.444   5.403
16466SOL    HW250840   3.798   7.389   5.270
16467SOL     OW50841   4.612   5.938   3.919
16467SOL    HW150842   4.659   5.985   3.851
16467SOL    HW250843   4.585   5.855   3.878
16468SOL     OW50844   5.468   6.152   5.542
16468SOL    HW150845   5.419   6.225   5.505
16468SOL    HW250846   5.462   6.083   5.476
16469SOL     OW50847   5.112   6.733   4.273
16469SOL    HW150848   5.186   6.720   4.215
16469SOL    HW250849   5.054   6.792   4.224
16470SOL     OW50850   4.291   5.777   4.625
16470SOL    HW150851   4.288   5.796   4.719
16470SOL    HW250852   4.277   5.861   4.583
16471SOL     OW50853   4.722   7.033   4.189
16471SOL    HW150854   4.696   7.109   4.138
16471SOL    HW250855   4.692   7.052   4.278
16472SOL     OW50856   4.076   7.405   4.595
16472SOL    HW150857   4.117   7.319   4.604
16472SOL    HW250858   4.144   7.466   4.622
16473SOL     OW50859   5.530   6.647   4.588
16473SOL    HW150860   5.478   6.615   4.514
16473SOL    HW250861   5.467   6.653   4.660
16474SOL     OW50862   4.950   7.128   5.239
16474SOL    HW150863   4.938   7.057   5.302
16474SOL    HW250864   4.878   7.117   5.177
16475SOL     OW50865   4.028   6.544   3.975
16475SOL    HW150866   4.114   6.558   3.937
16475SOL    HW250867   4.005   6.455   3.952
16476SOL     OW50868   5.205   6.342   4.441
16476SOL    HW150869   5.198   6.293   4.522
16476SOL    HW250870   5.286   6.392   4.450
16477SOL     OW50871   4.198   6.858   5.473
16477SOL    HW150872   4.174   6.856   5.380
16477SOL    HW250873   4.115   6.847   5.519
16478SOL     OW50874   4.855   7.369   3.942
16478SOL    HW150875   4.778   7.336   3.988
16478SOL    HW250876   4.877   7.299   3.880
16479SOL     OW50877   3.921   5.848   5.226
16479SOL    HW150878   3.837   5.891   5.243
16479SOL    HW250879   3.909   5.759   5.256
16480SOL     OW50880   5.356   6.971   3.812
16480SOL    HW150881   5.310   7.055   3.802
16480SOL    HW250882   5.289   6.905   3.795
16481SOL     OW50883   4.182   7.324   4.042
16481SOL    HW150884   4.230   7.372   4.110
16481SOL    HW250885   4.250   7.280   3.991
16482SOL     OW50886   5.121   5.696   4.159
16482SOL    HW150887   5.110   5.665   4.069
16482SOL    HW250888   5.207   5.664   4.185
16483SOL     OW50889   3.967   7.397   4.928
16483SOL    HW150890   4.008   7.327   4.979
16483SOL    HW250891   3.961   7.362   4.839
16484SOL     OW50892   4.654   7.288   4.617
16484SOL    HW150893   4.677   7.229   4.689
16484SOL    HW250894   4.629   7.229   4.546
16485SOL     OW50895   4.117   6.278   4.195
16485SOL    HW150896   4.135   6.185   4.209
16485SOL    HW250897   4.024   6.288   4.215
16486SOL     OW50898   5.244   5.801   5.448
16486SOL    HW150899   5.254   5.819   5.542
16486SOL    HW250900   5.177   5.733   5.444
16487SOL     OW50901   4.380   5.701   3.823
16487SOL    HW150902   4.420   5.620   3.857
16487SOL    HW250903   4.322   5.671   3.753
16488SOL     OW50904   4.488   5.866   5.488
16488SOL    HW150905   4.570   5.817   5.479
16488SOL    HW250906   4.438   5.816   5.553
16489SOL     OW50907   4.656   7.142   4.871
16489SOL    HW150908   4.600   7.081   4.822
16489SOL    HW250909   4.700   7.087   4.936
16490SOL     OW50910   5.068   6.173   5.159
16490SOL    HW150911   5.097   6.141   5.244
16490SOL    HW250912   5.098   6.263   5.155
16491SOL     OW50913   4.547   6.976   4.671
16491SOL    HW150914   4.630   6.962   4.626
16491SOL    HW250915   4.481   6.975   4.602
16492SOL     OW50916   4.662   6.104   4.619
16492SOL    HW150917   4.635   6.088   4.529
16492SOL    HW250918   4.683   6.018   4.654
16493SOL     OW50919   4.285   5.648   4.211
16493SOL    HW150920   4.209   5.642   4.269
16493SOL    HW250921   4.267   5.723   4.154
16494SOL     OW50922   5.154   6.789   3.762
16494SOL    HW150923   5.184   6.713   3.812
16494SOL    HW250924   5.067   6.809   3.798
16495SOL     OW50925   4.028   5.640   3.917
16495SOL    HW150926   4.097   5.706   3.927
16495SOL    HW250927   4.065   5.561   3.957
16496SOL     OW50928   4.670   5.855   4.178
16496SOL    HW150929   4.649   5.882   4.089
16496SOL    HW250930   4.766   5.861   4.183
16497SOL     OW50931   4.802   6.268   5.176
16497SOL    HW150932   4.730   6.206   5.189
16497SOL    HW250933   4.881   6.214   5.181
16498SOL     OW50934   4.962   7.142   4.504
16498SOL    HW150935   4.966   7.218   4.446
16498SOL    HW250936   4.993   7.175   4.589
16499SOL     OW50937   4.196   6.746   4.446
16499SOL    HW150938   4.132   6.727   4.514
16499SOL    HW250939   4.148   6.732   4.364
16500SOL     OW50940   4.985   7.376   4.338
16500SOL    HW150941   5.027   7.444   4.285
16500SOL    HW250942   4.911   7.419   4.379
16501SOL     OW50943   4.755   6.111   3.746
16501SOL    HW150944   4.709   6.193   3.731
16501SOL    HW250945   4.809   6.127   3.823
16502SOL     OW50946   3.808   6.146   5.104
16502SOL    HW150947   3.901   6.135   5.083
16502SOL    HW250948   3.807   6.210   5.174
16503SOL     OW50949   4.285   5.814   4.900
16503SOL    HW150950   4.324   5.738   4.943
16503SOL    HW250951   4.193   5.812   4.928
16504SOL     OW50952   4.597   6.053   4.361
16504SOL    HW150953   4.540   6.103   4.302
16504SOL    HW250954   4.618   5.974   4.312
16505SOL     OW50955   4.747   5.629   4.455
16505SOL    HW150956   4.683   5.619   4.384
16505SOL    HW250957   4.723   5.561   4.518
16506SOL     OW50958   5.154   6.742   4.574
16506SOL    HW150959   5.089   6.675   4.594
16506SOL    HW250960   5.155   6.748   4.479
16507SOL     OW50961   5.186   6.189   4.680
16507SOL    HW150962   5.121   6.119   4.689
16507SOL    HW250963   5.238   6.185   4.760
16508SOL     OW50964   5.571   6.395   4.109
16508SOL    HW150965   5.626   6.345   4.170
16508SOL    HW250966   5.543   6.331   4.044
16509SOL     OW50967   4.215   7.010   3.874
16509SOL    HW150968   4.136   6.983   3.922
16509SOL    HW250969   4.221   6.949   3.801
16510SOL     OW50970   5.414   6.870   4.339
16510SOL    HW150971   5.505   6.868   4.368
16510SOL    HW250972   5.378   6.950   4.379
16511SOL     OW50973   5.117   6.151   3.800
16511SOL    HW150974   5.047   6.137   3.863
16511SOL    HW250975   5.190   6.097   3.832
16512SOL     OW50976   4.241   5.843   4.020
16512SOL    HW150977   4.302   5.805   3.958
16512SOL    HW250978   4.216   5.927   3.980
16513SOL     OW50979   5.466   6.828   5.276
16513SOL    HW150980   5.550   6.785   5.285
16513SOL    HW250981   5.481   6.917   5.307
16514SOL     OW50982   4.774   6.954   5.056
16514SOL    HW150983   4.696   6.919   5.098
16514SOL    HW250984   4.847   6.906   5.096
16515SOL     OW50985   5.338   7.224   5.391
16515SOL    HW150986   5.327   7.252   5.300
16515SOL    HW250987   5.414   7.166   5.389
16516SOL     OW50988   4.867   6.811   4.823
16516SOL    HW150989   4.799   6.836   4.887
16516SOL    HW250990   4.832   6.840   4.739
16517SOL     OW50991   5.354   6.689   4.797
16517SOL    HW150992   5.348   6.748   4.872
16517SOL    HW250993   5.273   6.701   4.749
16518SOL     OW50994   4.631   5.695   5.106
16518SOL    HW150995   4.661   5.666   5.020
16518SOL    HW250996   4.711   5.727   5.149
16519SOL     OW50997   4.707   6.704   5.440
16519SOL    HW150998   4.616   6.717   5.469
16519SOL    HW250999   4.705   6.623   5.390
16520SOL     OW51000   4.437   6.653   4.096
16520SOL    HW151001   4.422   6.630   4.187
16520SOL    HW251002   4.511   6.599   4.069
16521SOL     OW51003   4.149   6.404   4.976
16521SOL    HW151004   4.214   6.414   5.045
16521SOL    HW251005   4.115   6.315   4.987
16522SOL     OW51006   4.993   5.965   4.997
16522SOL    HW151007   5.022   6.040   5.049
16522SOL    HW251008   4.902   5.985   4.975
16523SOL     OW51009   3.775   7.180   5.086
16523SOL    HW151010   3.753   7.238   5.013
16523SOL    HW251011   3.870   7.171   5.082
16524SOL     OW51012   4.048   6.708   4.214
16524SOL    HW151013   4.052   6.775   4.145
16524SOL    HW251014   4.047   6.625   4.166
16525SOL     OW51015   4.271   6.110   4.577
16525SOL    HW151016   4.288   6.170   4.504
16525SOL    HW251017   4.335   6.133   4.644
16526SOL     OW51018   4.972   6.939   4.118
16526SOL    HW151019   5.027   7.009   4.154
16526SOL    HW251020   4.884   6.958   4.151
16527SOL     OW51021   5.019   7.051   4.866
16527SOL    HW151022   5.067   7.052   4.948
16527SOL    HW251023   4.961   6.975   4.873
16528SOL     OW51024   5.296   6.212   4.203
16528SOL    HW151025   5.250   6.241   4.282
16528SOL    HW251026   5.297   6.290   4.147
16529SOL     OW51027   4.138   6.332   5.330
16529SOL    HW151028   4.206   6.368   5.274
16529SOL    HW251029   4.166   6.242   5.347
16530SOL     OW51030   5.351   6.363   5.414
16530SOL    HW151031   5.262   6.398   5.414
16530SOL    HW251032   5.393   6.407   5.339
16531SOL     OW51033   4.714   5.717   5.471
16531SOL    HW151034   4.801   5.745   5.441
16531SOL    HW251035   4.724   5.623   5.486
16532SOL     OW51036   4.227   5.647   5.461
16532SOL    HW151037   4.175   5.583   5.412
16532SOL    HW251038   4.166   5.719   5.477
16533SOL     OW51039   4.305   6.463   4.756
16533SOL    HW151040   4.342   6.551   4.768
16533SOL    HW251041   4.252   6.448   4.834
16534SOL     OW51042   5.054   6.441   4.734
16534SOL    HW151043   4.964   6.418   4.713
16534SOL    HW251044   5.102   6.358   4.724
16535SOL     OW51045   4.916   6.117   3.981
16535SOL    HW151046   4.927   6.040   4.036
16535SOL    HW251047   4.872   6.181   4.038
16536SOL     OW51048   4.020   5.790   4.968
16536SOL    HW151049   3.984   5.812   5.054
16536SOL    HW251050   4.010   5.695   4.961
16537SOL     OW51051   3.761   6.904   4.994
16537SOL    HW151052   3.798   6.840   5.055
16537SOL    HW251053   3.783   6.989   5.032
16538SOL     OW51054   4.440   6.212   4.767
16538SOL    HW151055   4.520   6.201   4.716
16538SOL    HW251056   4.413   6.302   4.751
16539SOL     OW51057   5.475   6.552   5.575
16539SOL    HW151058   5.435   6.477   5.531
16539SOL    HW251059   5.415   6.573   5.646
16540SOL     OW51060   4.046   5.650   4.348
16540SOL    HW151061   4.016   5.738   4.373
16540SOL    HW251062   4.053   5.603   4.431
16541SOL     OW51063   5.363   5.974   4.080
16541SOL    HW151064   5.381   5.904   4.143
16541SOL    HW251065   5.331   6.047   4.133
16542SOL     OW51066   4.763   6.348   4.688
16542SOL    HW151067   4.744   6.363   4.781
16542SOL    HW251068   4.734   6.258   4.672
16543SOL     OW51069   4.713   7.159   5.452
16543SOL    HW151070   4.694   7.200   5.367
16543SOL    HW251071   4.747   7.073   5.428
16544SOL     OW51072   5.572   7.082   5.331
16544SOL    HW151073   5.595   7.113   5.243
16544SOL    HW251074   5.652   7.092   5.382
16545SOL     OW51075   4.076   6.512   5.529
16545SOL    HW151076   4.154   6.522   5.583
16545SOL    HW251077   4.100   6.445   5.465
16546SOL     OW51078   5.246   5.867   3.850
16546SOL    HW151079   5.188   5.795   3.875
16546SOL    HW251080   5.285   5.896   3.932
16547SOL     OW51081   5.009   6.407   3.755
16547SOL    HW151082   5.048   6.319   3.762
16547SOL    HW251083   5.043   6.441   3.672
16548SOL     OW51084   4.794   6.928   4.574
16548SOL    HW151085   4.800   6.853   4.514
16548SOL    HW251086   4.855   6.992   4.538
16549SOL     OW51087   4.036   6.397   4.662
16549SOL    HW151088   4.130   6.413   4.669
16549SOL    HW251089   4.025   6.307   4.694
16550SOL     OW51090   4.047   6.123   4.728
16550SOL    HW151091   4.011   6.034   4.723
16550SOL    HW251092   4.125   6.120   4.673
16551SOL     OW51093   4.863   5.986   5.383
16551SOL    HW151094   4.812   6.017   5.458
16551SOL    HW251095   4.951   6.020   5.399
16552SOL     OW51096   4.873   5.796   5.188
16552SOL    HW151097   4.863   5.859   5.259
16552SOL    HW251098   4.920   5.843   5.120
16553SOL     OW51099   3.732   6.899   3.914
16553SOL    HW151100   3.644   6.915   3.880
16553SOL    HW251101   3.728   6.811   3.950
16554SOL     OW51102   3.808   7.366   4.654
16554SOL    HW151103   3.782   7.282   4.616
16554SOL    HW251104   3.899   7.378   4.626
16555SOL     OW51105   4.212   7.170   4.627
16555SOL    HW151106   4.283   7.228   4.654
16555SOL    HW251107   4.256   7.099   4.580
16556SOL     OW51108   4.687   6.371   4.948
16556SOL    HW151109   4.746   6.349   5.020
16556SOL    HW251110   4.605   6.327   4.970
16557SOL     OW51111   3.760   6.159   4.833
16557SOL    HW151112   3.837   6.128   4.785
16557SOL    HW251113   3.785   6.149   4.925
16558SOL     OW51114   3.907   6.109   5.469
16558SOL    HW151115   3.957   6.044   5.420
16558SOL    HW251116   3.879   6.173   5.404
16559SOL     OW51117   5.122   6.510   5.377
16559SOL    HW151118   5.131   6.606   5.374
16559SOL    HW251119   5.112   6.485   5.285
16560SOL     OW51120   4.547   6.164   4.080
16560SOL    HW151121   4.553   6.084   4.028
16560SOL    HW251122   4.466   6.206   4.051
16561SOL     OW51123   5.365   6.201   4.893
16561SOL    HW151124   5.353   6.139   4.965
16561SOL    HW251125   5.452   6.182   4.859
16562SOL     OW51126   3.931   7.120   5.459
16562SOL    HW151127   3.930   7.170   5.541
16562SOL    HW251128   3.954   7.031   5.486
16563SOL     OW51129   4.449   6.030   4.973
16563SOL    HW151130   4.390   5.956   4.961
16563SOL    HW251131   4.430   6.088   4.900
16564SOL     OW51132   4.651   7.268   5.204
16564SOL    HW151133   4.605   7.216   5.139
16564SOL    HW251134   4.628   7.359   5.183
16565SOL     OW51135   4.174   6.075   3.886
16565SOL    HW151136   4.237   6.140   3.916
16565SOL    HW251137   4.090   6.120   3.887
16566SOL     OW51138   3.856   6.727   5.191
16566SOL    HW151139   3.864   6.684   5.277
16566SOL    HW251140   3.877   6.658   5.128
16567SOL     OW51141   5.050   6.633   4.929
16567SOL    HW151142   5.057   6.564   4.863
16567SOL    HW251143   4.984   6.693   4.895
16568SOL     OW51144   5.048   6.445   4.029
16568SOL    HW151145   4.979   6.412   4.086
16568SOL    HW251146   5.016   6.426   3.940
16569SOL     OW51147   5.510   7.316   4.888
16569SOL    HW151148   5.567   7.341   4.814
16569SOL    HW251149   5.477   7.229   4.865
16570SOL     OW51150   4.967   7.324   4.831
16570SOL    HW151151   5.051   7.343   4.790
16570SOL    HW251152   4.971   7.231   4.851
16571SOL     OW51153   3.780   6.893   4.720
16571SOL    HW151154   3.772   6.887   4.815
16571SOL    HW251155   3.749   6.808   4.688
16572SOL     OW51156   4.405   7.261   5.467
16572SOL    HW151157   4.333   7.322   5.450
16572SOL    HW251158   4.467   7.276   5.396
16573SOL     OW51159   5.462   5.752   4.236
16573SOL    HW151160   5.526   5.730   4.168
16573SOL    HW251161   5.435   5.667   4.271
16574SOL     OW51162   5.120   7.156   4.217
16574SOL    HW151163   5.172   7.196   4.147
16574SOL    HW251164   5.065   7.228   4.250
16575SOL     OW51165   3.840   7.408   5.573
16575SOL    HW151166   3.805   7.326   5.607
16575SOL    HW251167   3.898   7.440   5.642
16576SOL     OW51168   4.999   6.516   4.394
16576SOL    HW151169   5.072   6.455   4.407
16576SOL    HW251170   5.037   6.588   4.342
16577SOL     OW51171   4.525   6.874   5.141
16577SOL    HW151172   4.497   6.904   5.228
16577SOL    HW251173   4.465   6.918   5.080
16578SOL     OW51174   4.390   7.217   3.884
16578SOL    HW151175   4.404   7.232   3.790
16578SOL    HW251176   4.337   7.137   3.887
16579SOL     OW51177   5.342   7.314   5.121
16579SOL    HW151178   5.396   7.317   5.041
16579SOL    HW251179   5.327   7.406   5.143
16580SOL     OW51180   5.568   5.748   4.688
16580SOL    HW151181   5.592   5.658   4.668
16580SOL    HW251182   5.480   5.758   4.653
16581SOL     OW51183   3.978   5.904   4.438
16581SOL    HW151184   3.889   5.932   4.417
16581SOL    HW251185   3.978   5.894   4.533
16582SOL     OW51186   4.934   7.177   3.760
16582SOL    HW151187   4.922   7.087   3.792
16582SOL    HW251188   4.864   7.189   3.696
16583SOL     OW51189   4.542   6.597   5.107
16583SOL    HW151190   4.580   6.587   5.019
16583SOL    HW251191   4.532   6.692   5.118
16584SOL     OW51192   4.645   6.505   4.007
16584SOL    HW151193   4.711   6.539   3.947
16584SOL    HW251194   4.690   6.435   4.054
16585SOL     OW51195   5.208   7.227   3.773
16585SOL    HW151196   5.116   7.207   3.758
16585SOL    HW251197   5.246   7.229   3.685
16586SOL     OW51198   4.102   6.874   5.223
16586SOL    HW151199   4.101   6.954   5.170
16586SOL    HW251200   4.024   6.826   5.196
16587SOL     OW51201   5.343   6.877   5.012
16587SOL    HW151202   5.384   6.849   5.094
16587SOL    HW251203   5.275   6.938   5.039
16588SOL     OW51204   4.790   6.696   4.435
16588SOL    HW151205   4.716   6.649   4.474
16588SOL    HW251206   4.853   6.628   4.415
16589SOL     OW51207   4.756   5.823   4.679
16589SOL    HW151208   4.747   5.777   4.596
16589SOL    HW251209   4.747   5.755   4.746
16590SOL     OW51210   4.331   7.072   4.200
16590SOL    HW151211   4.383   7.022   4.137
16590SOL    HW251212   4.246   7.081   4.158
16591SOL     OW51213   5.444   6.003   5.083
16591SOL    HW151214   5.526   6.051   5.097
16591SOL    HW251215   5.472   5.920   5.044
16592SOL     OW51216   3.986   6.933   4.010
16592SOL    HW151217   3.893   6.923   3.987
16592SOL    HW251218   3.985   6.971   4.098
16593SOL     OW51219   3.841   6.631   5.454
16593SOL    HW151220   3.764   6.600   5.502
16593SOL    HW251221   3.914   6.581   5.491
16594SOL     OW51222   4.398   5.795   5.222
16594SOL    HW151223   4.481   5.766   5.183
16594SOL    HW251224   4.420   5.813   5.314
16595SOL     OW51225   3.808   5.914   3.773
16595SOL    HW151226   3.724   5.881   3.739
16595SOL    HW251227   3.828   5.990   3.718
16596SOL     OW51228   5.149   6.446   5.114
16596SOL    HW151229   5.097   6.505   5.059
16596SOL    HW251230   5.236   6.448   5.074
16597SOL     OW51231   3.792   5.745   4.020
16597SOL    HW151232   3.787   5.818   3.958
16597SOL    HW251233   3.877   5.704   4.001
16598SOL     OW51234   4.903   6.911   3.848
16598SOL    HW151235   4.827   6.855   3.851
16598SOL    HW251236   4.931   6.919   3.939
16599SOL     OW51237   4.344   6.414   5.164
16599SOL    HW151238   4.402   6.489   5.153
16599SOL    HW251239   4.403   6.339   5.170
16600SOL     OW51240   5.209   7.378   4.714
16600SOL    HW151241   5.234   7.441   4.646
16600SOL    HW251242   5.291   7.336   4.739
16601SOL     OW51243   4.453   6.137   5.422
16601SOL    HW151244   4.496   6.188   5.491
16601SOL    HW251245   4.460   6.046   5.451
16602SOL     OW51246   5.191   6.781   5.350
16602SOL    HW151247   5.177   6.794   5.443
16602SOL    HW251248   5.284   6.801   5.337
16603SOL     OW51249   4.108   7.347   5.292
16603SOL    HW151250   4.018   7.380   5.297
16603SOL    HW251251   4.102   7.265   5.244
16604SOL     OW51252   5.392   6.467   4.976
16604SOL    HW151253   5.381   6.381   4.936
16604SOL    HW251254   5.379   6.529   4.904
16605SOL     OW51255   4.950   5.917   4.174
16605SOL    HW151256   5.005   5.838   4.168
16605SOL    HW251257   4.979   5.961   4.254
16606SOL     OW51258   4.316   6.316   4.392
16606SOL    HW151259   4.351   6.404   4.379
16606SOL    HW251260   4.247   6.308   4.326
16607SOL     OW51261   5.472   5.949   5.357
16607SOL    HW151262   5.442   5.965   5.267
16607SOL    HW251263   5.407   5.888   5.392
16608SOL     OW51264   5.486   6.520   5.228
16608SOL    HW151265   5.452   6.607   5.247
16608SOL    HW251266   5.460   6.503   5.137
16609SOL     OW51267   4.569   6.954   3.771
16609SOL    HW151268   4.547   6.962   3.864
16609SOL    HW251269   4.596   7.043   3.745
16610SOL     OW51270   4.390   7.378   4.660
16610SOL    HW151271   4.376   7.471   4.641
16610SOL    HW251272   4.484   7.366   4.650
16611SOL     OW51273   4.596   6.561   4.577
16611SOL    HW151274   4.643   6.487   4.616
16611SOL    HW251275   4.553   6.603   4.652
16612SOL     OW51276   4.818   6.599   3.814
16612SOL    HW151277   4.783   6.629   3.730
16612SOL    HW251278   4.881   6.530   3.790
16613SOL     OW51279   5.559   7.140   4.565
16613SOL    HW151280   5.478   7.128   4.515
16613SOL    HW251281   5.551   7.078   4.638
16614SOL     OW51282   3.941   6.864   5.572
16614SOL    HW151283   3.905   6.788   5.526
16614SOL    HW251284   3.884   6.875   5.648
16615SOL     OW51285   3.830   6.812   4.389
16615SOL    HW151286   3.843   6.773   4.476
16615SOL    HW251287   3.891   6.764   4.333
16616SOL     OW51288   4.415   6.996   5.361
16616SOL    HW151289   4.336   6.950   5.390
16616SOL    HW251290   4.409   7.083   5.402
16617SOL     OW51291   5.561   5.787   4.962
16617SOL    HW151292   5.525   5.710   5.005
16617SOL    HW251293   5.556   5.768   4.869
16618SOL     OW51294   4.149   6.017   4.244
16618SOL    HW151295   4.179   5.942   4.192
16618SOL    HW251296   4.100   5.978   4.317
16619SOL     OW51297   5.421   7.069   4.818
16619SOL    HW151298   5.344   7.048   4.765
16619SOL    HW251299   5.420   7.004   4.888
16620SOL     OW51300   4.067   6.145   5.016
16620SOL    HW151301   4.113   6.085   5.074
16620SOL    HW251302   4.080   6.109   4.929
16621SOL     OW51303   4.559   7.156   4.395
16621SOL    HW151304   4.519   7.218   4.335
16621SOL    HW251305   4.489   7.094   4.415
16622SOL     OW51306   5.149   5.809   4.832
16622SOL    HW151307   5.139   5.716   4.852
16622SOL    HW251308   5.100   5.854   4.901
16623SOL     OW51309   4.733   5.611   4.857
16623SOL    HW151310   4.669   5.544   4.832
16623SOL    HW251311   4.817   5.564   4.859
16624SOL     OW51312   4.506   6.919   4.042
16624SOL    HW151313   4.479   6.828   4.055
16624SOL    HW251314   4.584   6.929   4.097
16625SOL     OW51315   4.385   7.096   5.010
16625SOL    HW151316   4.298   7.122   5.039
16625SOL    HW251317   4.424   7.176   4.975
16626SOL     OW51318   5.091   5.635   3.887
16626SOL    HW151319   5.129   5.557   3.846
16626SOL    HW251320   5.000   5.610   3.905
16627SOL     OW51321   5.035   6.054   4.402
16627SOL    HW151322   4.977   6.130   4.400
16627SOL    HW251323   5.019   6.014   4.487
16628SOL     OW51324   5.316   5.785   4.610
16628SOL    HW151325   5.254   5.796   4.682
16628SOL    HW251326   5.301   5.861   4.554
16629SOL     OW51327   3.766   6.644   4.026
16629SOL    HW151328   3.859   6.632   4.007
16629SOL    HW251329   3.735   6.557   4.050
16630SOL     OW51330   4.621   7.252   4.050
16630SOL    HW151331   4.542   7.233   4.000
16630SOL    HW251332   4.592   7.314   4.117
16631SOL     OW51333   3.943   6.227   5.718
16631SOL    HW151334   3.863   6.196   5.761
16631SOL    HW251335   3.934   6.196   5.628
16632SOL     OW51336   3.937   5.894   6.593
16632SOL    HW151337   3.978   5.845   6.664
16632SOL    HW251338   3.857   5.845   6.572
16633SOL     OW51339   3.725   5.975   6.220
16633SOL    HW151340   3.643   5.993   6.267
16633SOL    HW251341   3.706   5.896   6.169
16634SOL     OW51342   4.304   6.876   6.764
16634SOL    HW151343   4.217   6.872   6.724
16634SOL    HW251344   4.317   6.969   6.785
16635SOL     OW51345   5.314   7.106   6.265
16635SOL    HW151346   5.272   7.104   6.350
16635SOL    HW251347   5.241   7.102   6.202
16636SOL     OW51348   4.869   6.269   6.280
16636SOL    HW151349   4.918   6.346   6.249
16636SOL    HW251350   4.823   6.300   6.358
16637SOL     OW51351   5.535   6.175   5.805
16637SOL    HW151352   5.500   6.171   5.716
16637SOL    HW251353   5.479   6.115   5.855
16638SOL     OW51354   4.506   6.718   6.633
16638SOL    HW151355   4.432   6.750   6.685
16638SOL    HW251356   4.539   6.796   6.589
16639SOL     OW51357   4.616   6.346   7.425
16639SOL    HW151358   4.574   6.416   7.475
16639SOL    HW251359   4.630   6.384   7.338
16640SOL     OW51360   4.413   6.611   6.217
16640SOL    HW151361   4.464   6.595   6.297
16640SOL    HW251362   4.336   6.657   6.247
16641SOL     OW51363   4.438   6.734   7.413
16641SOL    HW151364   4.487   6.812   7.442
16641SOL    HW251365   4.362   6.770   7.368
16642SOL     OW51366   4.053   6.999   6.652
16642SOL    HW151367   3.979   6.950   6.617
16642SOL    HW251368   4.089   7.045   6.576
16643SOL     OW51369   5.207   7.081   6.964
16643SOL    HW151370   5.249   7.167   6.970
16643SOL    HW251371   5.122   7.094   7.007
16644SOL     OW51372   4.171   5.984   7.071
16644SOL    HW151373   4.249   5.929   7.073
16644SOL    HW251374   4.099   5.924   7.090
16645SOL     OW51375   5.316   6.036   6.317
16645SOL    HW151376   5.230   6.026   6.275
16645SOL    HW251377   5.312   6.121   6.360
16646SOL     OW51378   3.939   7.310   6.053
16646SOL    HW151379   3.968   7.384   6.107
16646SOL    HW251380   4.013   7.294   5.994
16647SOL     OW51381   4.858   6.930   7.281
16647SOL    HW151382   4.902   6.918   7.365
16647SOL    HW251383   4.809   6.849   7.268
16648SOL     OW51384   3.960   7.034   6.131
16648SOL    HW151385   3.928   7.124   6.138
16648SOL    HW251386   3.905   6.984   6.191
16649SOL     OW51387   4.021   6.671   6.503
16649SOL    HW151388   4.002   6.579   6.522
16649SOL    HW251389   3.950   6.719   6.547
16650SOL     OW51390   4.307   7.385   7.001
16650SOL    HW151391   4.232   7.363   7.057
16650SOL    HW251392   4.338   7.469   7.034
16651SOL     OW51393   4.293   6.571   5.726
16651SOL    HW151394   4.346   6.608   5.656
16651SOL    HW251395   4.335   6.602   5.806
16652SOL     OW51396   5.329   5.721   7.057
16652SOL    HW151397   5.271   5.763   6.993
16652SOL    HW251398   5.279   5.722   7.138
16653SOL     OW51399   3.843   6.238   6.145
16653SOL    HW151400   3.812   6.148   6.161
16653SOL    HW251401   3.831   6.282   6.229
16654SOL     OW51402   5.569   7.336   5.904
16654SOL    HW151403   5.635   7.312   5.969
16654SOL    HW251404   5.584   7.429   5.888
16655SOL     OW51405   3.774   7.179   5.705
16655SOL    HW151406   3.756   7.086   5.719
16655SOL    HW251407   3.742   7.221   5.785
16656SOL     OW51408   5.412   6.507   6.216
16656SOL    HW151409   5.462   6.454   6.154
16656SOL    HW251410   5.332   6.529   6.169
16657SOL     OW51411   5.397   6.745   5.969
16657SOL    HW151412   5.485   6.709   5.979
16657SOL    HW251413   5.370   6.767   6.059
16658SOL     OW51414   3.843   6.323   7.166
16658SOL    HW151415   3.933   6.355   7.166
16658SOL    HW251416   3.789   6.401   7.153
16659SOL     OW51417   4.335   6.981   6.322
16659SOL    HW151418   4.291   6.896   6.328
16659SOL    HW251419   4.323   7.007   6.231
16660SOL     OW51420   4.994   6.813   7.019
16660SOL    HW151421   5.021   6.752   6.950
16660SOL    HW251422   5.064   6.807   7.085
16661SOL     OW51423   4.556   5.619   6.113
16661SOL    HW151424   4.587   5.703   6.079
16661SOL    HW251425   4.462   5.630   6.123
16662SOL     OW51426   3.920   6.538   6.874
16662SOL    HW151427   4.005   6.498   6.854
16662SOL    HW251428   3.858   6.490   6.819
16663SOL     OW51429   5.282   6.600   5.767
16663SOL    HW151430   5.222   6.540   5.812
16663SOL    HW251431   5.320   6.652   5.838
16664SOL     OW51432   4.905   7.392   7.214
16664SOL    HW151433   4.906   7.456   7.144
16664SOL    HW251434   4.921   7.308   7.171
16665SOL     OW51435   4.059   5.833   7.442
16665SOL    HW151436   4.091   5.922   7.429
16665SOL    HW251437   3.965   5.844   7.459
16666SOL     OW51438   5.370   7.359   6.149
16666SOL    HW151439   5.349   7.322   6.063
16666SOL    HW251440   5.362   7.285   6.209
16667SOL     OW51441   4.308   6.297   5.857
16667SOL    HW151442   4.306   6.381   5.811
16667SOL    HW251443   4.241   6.305   5.925
16668SOL     OW51444   5.000   5.959   6.526
16668SOL    HW151445   4.913   5.920   6.525
16668SOL    HW251446   5.052   5.900   6.580
16669SOL     OW51447   5.297   7.278   5.893
16669SOL    HW151448   5.392   7.287   5.883
16669SOL    HW251449   5.265   7.255   5.806
16670SOL     OW51450   4.520   6.199   7.038
16670SOL    HW151451   4.495   6.169   7.125
16670SOL    HW251452   4.489   6.130   6.979
16671SOL     OW51453   5.155   6.065   7.269
16671SOL    HW151454   5.113   6.079   7.354
16671SOL    HW251455   5.151   5.970   7.256
16672SOL     OW51456   4.675   6.465   7.182
16672SOL    HW151457   4.725   6.397   7.136
16672SOL    HW251458   4.617   6.501   7.114
16673SOL     OW51459   4.724   5.999   6.803
16673SOL    HW151460   4.636   6.001   6.840
16673SOL    HW251461   4.720   5.929   6.737
16674SOL     OW51462   4.752   6.282   6.020
16674SOL    HW151463   4.779   6.257   6.108
16674SOL    HW251464   4.673   6.231   6.004
16675SOL     OW51465   3.809   6.410   6.360
16675SOL    HW151466   3.884   6.394   6.416
16675SOL    HW251467   3.765   6.486   6.400
16676SOL     OW51468   3.822   7.411   7.150
16676SOL    HW151469   3.831   7.415   7.245
16676SOL    HW251470   3.750   7.351   7.135
16677SOL     OW51471   4.606   5.940   5.786
16677SOL    HW151472   4.656   5.982   5.716
16677SOL    HW251473   4.569   5.862   5.745
16678SOL     OW51474   5.096   6.765   6.131
16678SOL    HW151475   5.119   6.683   6.089
16678SOL    HW251476   5.052   6.816   6.063
16679SOL     OW51477   4.242   5.743   6.479
16679SOL    HW151478   4.263   5.797   6.555
16679SOL    HW251479   4.255   5.801   6.404
16680SOL     OW51480   4.720   7.036   6.060
16680SOL    HW151481   4.693   7.108   6.003
16680SOL    HW251482   4.692   7.061   6.147
16681SOL     OW51483   4.089   7.410   6.458
16681SOL    HW151484   4.129   7.323   6.464
16681SOL    HW251485   4.162   7.471   6.471
16682SOL     OW51486   5.531   6.642   6.435
16682SOL    HW151487   5.478   6.620   6.359
16682SOL    HW251488   5.469   6.648   6.507
16683SOL     OW51489   4.948   7.126   7.083
16683SOL    HW151490   4.930   7.049   7.137
16683SOL    HW251491   4.920   7.100   6.995
16684SOL     OW51492   4.028   6.540   5.840
16684SOL    HW151493   4.109   6.559   5.793
16684SOL    HW251494   4.000   6.455   5.808
16685SOL     OW51495   5.208   6.332   6.339
16685SOL    HW151496   5.210   6.289   6.424
16685SOL    HW251497   5.290   6.383   6.336
16686SOL     OW51498   4.191   6.865   7.336
16686SOL    HW151499   4.166   6.873   7.244
16686SOL    HW251500   4.110   6.842   7.381
16687SOL     OW51501   4.853   7.366   5.809
16687SOL    HW151502   4.776   7.330   5.853
16687SOL    HW251503   4.877   7.299   5.745
16688SOL     OW51504   3.921   5.858   7.110
16688SOL    HW151505   3.837   5.880   7.070
16688SOL    HW251506   3.912   5.766   7.135
16689SOL     OW51507   5.361   6.976   5.671
16689SOL    HW151508   5.310   7.057   5.663
16689SOL    HW251509   5.296   6.907   5.660
16690SOL     OW51510   4.183   7.327   5.900
16690SOL    HW151511   4.234   7.371   5.968
16690SOL    HW251512   4.248   7.282   5.846
16691SOL     OW51513   5.119   5.696   6.014
16691SOL    HW151514   5.103   5.666   5.925
16691SOL    HW251515   5.200   5.652   6.040
16692SOL     OW51516   3.989   7.382   6.812
16692SOL    HW151517   4.034   7.304   6.843
16692SOL    HW251518   3.972   7.366   6.720
16693SOL     OW51519   4.670   7.284   6.477
16693SOL    HW151520   4.756   7.243   6.485
16693SOL    HW251521   4.625   7.234   6.410
16694SOL     OW51522   4.117   6.272   6.065
16694SOL    HW151523   4.139   6.179   6.076
16694SOL    HW251524   4.022   6.276   6.077
16695SOL     OW51525   5.213   5.785   7.311
16695SOL    HW151526   5.223   5.801   7.405
16695SOL    HW251527   5.150   5.713   7.306
16696SOL     OW51528   4.369   5.701   5.688
16696SOL    HW151529   4.375   5.624   5.744
16696SOL    HW251530   4.322   5.670   5.610
16697SOL     OW51531   4.498   5.869   7.364
16697SOL    HW151532   4.578   5.819   7.350
16697SOL    HW251533   4.442   5.812   7.417
16698SOL     OW51534   4.599   7.108   6.788
16698SOL    HW151535   4.584   7.075   6.700
16698SOL    HW251536   4.666   7.050   6.825
16699SOL     OW51537   5.055   6.176   7.026
16699SOL    HW151538   5.107   6.146   7.101
16699SOL    HW251539   5.090   6.262   7.005
16700SOL     OW51540   4.540   6.986   6.534
16700SOL    HW151541   4.625   6.968   6.495
16700SOL    HW251542   4.479   6.988   6.460
16701SOL     OW51543   4.643   6.086   6.483
16701SOL    HW151544   4.620   6.078   6.391
16701SOL    HW251545   4.675   5.999   6.508
16702SOL     OW51546   4.292   5.700   6.126
16702SOL    HW151547   4.209   5.661   6.154
16702SOL    HW251548   4.274   5.731   6.037
16703SOL     OW51549   5.157   6.793   5.621
16703SOL    HW151550   5.191   6.718   5.669
16703SOL    HW251551   5.069   6.807   5.658
16704SOL     OW51552   4.019   5.637   5.781
16704SOL    HW151553   4.112   5.659   5.780
16704SOL    HW251554   4.014   5.559   5.837
16705SOL     OW51555   4.676   5.863   6.044
16705SOL    HW151556   4.650   5.884   5.954
16705SOL    HW251557   4.772   5.868   6.042
16706SOL     OW51558   4.794   6.275   7.029
16706SOL    HW151559   4.722   6.212   7.032
16706SOL    HW251560   4.872   6.220   7.021
16707SOL     OW51561   4.921   7.166   6.401
16707SOL    HW151562   4.951   7.218   6.327
16707SOL    HW251563   5.001   7.145   6.450
16708SOL     OW51564   4.192   6.746   6.306
16708SOL    HW151565   4.132   6.721   6.376
16708SOL    HW251566   4.142   6.733   6.226
16709SOL     OW51567   4.984   7.380   6.196
16709SOL    HW151568   5.027   7.446   6.142
16709SOL    HW251569   4.914   7.428   6.241
16710SOL     OW51570   4.756   6.111   5.612
16710SOL    HW151571   4.712   6.195   5.597
16710SOL    HW251572   4.812   6.128   5.688
16711SOL     OW51573   3.813   6.138   6.967
16711SOL    HW151574   3.906   6.136   6.944
16711SOL    HW251575   3.807   6.202   7.038
16712SOL     OW51576   4.299   5.819   6.745
16712SOL    HW151577   4.343   5.734   6.738
16712SOL    HW251578   4.212   5.798   6.779
16713SOL     OW51579   4.574   6.052   6.222
16713SOL    HW151580   4.536   6.098   6.147
16713SOL    HW251581   4.609   5.971   6.185
16714SOL     OW51582   4.740   5.643   6.322
16714SOL    HW151583   4.679   5.635   6.248
16714SOL    HW251584   4.721   5.568   6.378
16715SOL     OW51585   5.182   6.696   6.435
16715SOL    HW151586   5.114   6.644   6.392
16715SOL    HW251587   5.205   6.763   6.372
16716SOL     OW51588   5.179   6.188   6.566
16716SOL    HW151589   5.124   6.111   6.559
16716SOL    HW251590   5.236   6.171   6.641
16717SOL     OW51591   5.588   6.398   5.970
16717SOL    HW151592   5.637   6.340   6.028
16717SOL    HW251593   5.546   6.339   5.908
16718SOL     OW51594   4.214   7.011   5.735
16718SOL    HW151595   4.139   6.978   5.785
16718SOL    HW251596   4.216   6.957   5.656
16719SOL     OW51597   5.410   6.849   6.230
16719SOL    HW151598   5.504   6.865   6.238
16719SOL    HW251599   5.370   6.935   6.238
16720SOL     OW51600   5.120   6.158   5.661
16720SOL    HW151601   5.047   6.151   5.722
16720SOL    HW251602   5.190   6.106   5.702
16721SOL     OW51603   4.252   5.853   5.892
16721SOL    HW151604   4.299   5.800   5.828
16721SOL    HW251605   4.220   5.928   5.842
16722SOL     OW51606   5.471   6.826   7.139
16722SOL    HW151607   5.559   6.790   7.130
16722SOL    HW251608   5.484   6.915   7.171
16723SOL     OW51609   4.759   6.921   6.919
16723SOL    HW151610   4.685   6.890   6.970
16723SOL    HW251611   4.836   6.884   6.962
16724SOL     OW51612   5.340   7.221   7.257
16724SOL    HW151613   5.326   7.253   7.168
16724SOL    HW251614   5.417   7.165   7.251
16725SOL     OW51615   4.840   6.780   6.695
16725SOL    HW151616   4.800   6.837   6.760
16725SOL    HW251617   4.817   6.820   6.611
16726SOL     OW51618   5.354   6.676   6.654
16726SOL    HW151619   5.338   6.744   6.719
16726SOL    HW251620   5.283   6.685   6.591
16727SOL     OW51621   4.628   5.735   6.962
16727SOL    HW151622   4.643   5.684   6.883
16727SOL    HW251623   4.711   5.732   7.009
16728SOL     OW51624   4.708   6.697   7.313
16728SOL    HW151625   4.616   6.713   7.335
16728SOL    HW251626   4.707   6.618   7.259
16729SOL     OW51627   4.438   6.657   5.946
16729SOL    HW151628   4.423   6.640   6.039
16729SOL    HW251629   4.515   6.604   5.924
16730SOL     OW51630   4.156   6.400   6.830
16730SOL    HW151631   4.220   6.408   6.901
16730SOL    HW251632   4.120   6.312   6.840
16731SOL     OW51633   4.986   5.954   6.871
16731SOL    HW151634   5.014   6.034   6.914
16731SOL    HW251635   4.897   5.973   6.840
16732SOL     OW51636   3.793   7.145   6.942
16732SOL    HW151637   3.742   7.162   6.863
16732SOL    HW251638   3.884   7.146   6.913
16733SOL     OW51639   4.052   6.707   6.072
16733SOL    HW151640   4.052   6.778   6.007
16733SOL    HW251641   4.050   6.627   6.021
16734SOL     OW51642   4.306   6.152   6.454
16734SOL    HW151643   4.299   6.218   6.385
16734SOL    HW251644   4.355   6.081   6.414
16735SOL     OW51645   4.963   6.952   5.962
16735SOL    HW151646   5.023   7.015   6.003
16735SOL    HW251647   4.878   6.969   6.003
16736SOL     OW51648   4.976   7.080   6.780
16736SOL    HW151649   5.072   7.078   6.779
16736SOL    HW251650   4.950   7.016   6.714
16737SOL     OW51651   5.294   6.221   6.064
16737SOL    HW151652   5.252   6.231   6.149
16737SOL    HW251653   5.260   6.294   6.012
16738SOL     OW51654   4.070   7.123   6.885
16738SOL    HW151655   4.059   7.074   6.804
16738SOL    HW251656   4.165   7.130   6.896
16739SOL     OW51657   4.130   6.333   7.187
16739SOL    HW151658   4.201   6.365   7.132
16739SOL    HW251659   4.143   6.238   7.191
16740SOL     OW51660   5.339   6.365   7.266
16740SOL    HW151661   5.254   6.409   7.261
16740SOL    HW251662   5.392   6.409   7.200
16741SOL     OW51663   4.723   5.719   7.340
16741SOL    HW151664   4.796   5.746   7.285
16741SOL    HW251665   4.728   5.624   7.342
16742SOL     OW51666   4.219   5.638   7.333
16742SOL    HW151667   4.180   5.577   7.270
16742SOL    HW251668   4.150   5.701   7.352
16743SOL     OW51669   4.315   6.493   6.625
16743SOL    HW151670   4.260   6.563   6.589
16743SOL    HW251671   4.260   6.451   6.691
16744SOL     OW51672   5.067   6.434   6.625
16744SOL    HW151673   5.041   6.464   6.538
16744SOL    HW251674   5.104   6.347   6.610
16745SOL     OW51675   4.918   6.130   5.843
16745SOL    HW151676   4.926   6.054   5.900
16745SOL    HW251677   4.884   6.200   5.900
16746SOL     OW51678   4.036   5.773   6.825
16746SOL    HW151679   3.993   5.782   6.910
16746SOL    HW251680   4.030   5.680   6.805
16747SOL     OW51681   3.751   6.874   6.880
16747SOL    HW151682   3.797   6.819   6.944
16747SOL    HW251683   3.759   6.963   6.914
16748SOL     OW51684   4.484   6.244   6.644
16748SOL    HW151685   4.543   6.181   6.602
16748SOL    HW251686   4.401   6.234   6.596
16749SOL     OW51687   5.468   6.543   7.448
16749SOL    HW151688   5.420   6.484   7.390
16749SOL    HW251689   5.407   6.561   7.520
16750SOL     OW51690   4.036   5.642   6.215
16750SOL    HW151691   4.008   5.728   6.246
16750SOL    HW251692   4.039   5.588   6.294
16751SOL     OW51693   5.365   5.981   5.944
16751SOL    HW151694   5.377   5.912   6.009
16751SOL    HW251695   5.333   6.056   5.995
16752SOL     OW51696   4.738   6.341   6.528
16752SOL    HW151697   4.793   6.334   6.606
16752SOL    HW251698   4.711   6.250   6.510
16753SOL     OW51699   4.703   7.150   7.312
16753SOL    HW151700   4.684   7.194   7.229
16753SOL    HW251701   4.751   7.071   7.286
16754SOL     OW51702   5.573   7.080   7.198
16754SOL    HW151703   5.592   7.112   7.110
16754SOL    HW251704   5.654   7.092   7.246
16755SOL     OW51705   4.079   6.514   7.387
16755SOL    HW151706   4.159   6.515   7.440
16755SOL    HW251707   4.095   6.447   7.321
16756SOL     OW51708   5.251   5.861   5.714
16756SOL    HW151709   5.190   5.791   5.738
16756SOL    HW251710   5.285   5.893   5.797
16757SOL     OW51711   4.997   6.419   5.603
16757SOL    HW151712   5.042   6.340   5.632
16757SOL    HW251713   5.042   6.445   5.523
16758SOL     OW51714   4.784   6.909   6.451
16758SOL    HW151715   4.790   6.834   6.393
16758SOL    HW251716   4.845   6.973   6.414
16759SOL     OW51717   4.029   6.389   6.522
16759SOL    HW151718   4.111   6.382   6.473
16759SOL    HW251719   4.022   6.306   6.569
16760SOL     OW51720   4.075   6.125   6.604
16760SOL    HW151721   4.029   6.043   6.589
16760SOL    HW251722   4.152   6.121   6.548
16761SOL     OW51723   4.870   5.983   7.249
16761SOL    HW151724   4.813   6.006   7.323
16761SOL    HW251725   4.920   6.063   7.232
16762SOL     OW51726   4.884   5.782   7.067
16762SOL    HW151727   4.875   5.854   7.129
16762SOL    HW251728   4.919   5.823   6.988
16763SOL     OW51729   3.742   6.899   5.775
16763SOL    HW151730   3.653   6.917   5.746
16763SOL    HW251731   3.737   6.811   5.814
16764SOL     OW51732   3.828   7.371   6.529
16764SOL    HW151733   3.788   7.294   6.488
16764SOL    HW251734   3.915   7.376   6.489
16765SOL     OW51735   4.216   7.169   6.487
16765SOL    HW151736   4.290   7.221   6.518
16765SOL    HW251737   4.256   7.103   6.430
16766SOL     OW51738   4.667   6.393   6.811
16766SOL    HW151739   4.729   6.370   6.880
16766SOL    HW251740   4.609   6.316   6.806
16767SOL     OW51741   3.756   6.145   6.694
16767SOL    HW151742   3.807   6.081   6.644
16767SOL    HW251743   3.789   6.138   6.783
16768SOL     OW51744   3.917   6.094   7.311
16768SOL    HW151745   3.931   6.025   7.246
16768SOL    HW251746   3.880   6.167   7.262
16769SOL     OW51747   5.109   6.511   7.244
16769SOL    HW151748   5.126   6.605   7.239
16769SOL    HW251749   5.096   6.484   7.153
16770SOL     OW51750   4.523   6.148   5.960
16770SOL    HW151751   4.539   6.073   5.902
16770SOL    HW251752   4.449   6.195   5.920
16771SOL     OW51753   5.362   6.190   6.774
16771SOL    HW151754   5.359   6.122   6.841
16771SOL    HW251755   5.448   6.179   6.733
16772SOL     OW51756   3.963   7.124   7.317
16772SOL    HW151757   3.944   7.175   7.396
16772SOL    HW251758   3.970   7.034   7.349
16773SOL     OW51759   4.446   6.030   6.841
16773SOL    HW151760   4.397   5.949   6.827
16773SOL    HW251761   4.423   6.086   6.767
16774SOL     OW51762   4.617   7.270   7.075
16774SOL    HW151763   4.620   7.216   6.996
16774SOL    HW251764   4.620   7.360   7.044
16775SOL     OW51765   4.175   6.074   5.746
16775SOL    HW151766   4.239   6.139   5.775
16775SOL    HW251767   4.092   6.122   5.744
16776SOL     OW51768   3.886   6.724   7.065
16776SOL    HW151769   3.876   6.678   7.148
16776SOL    HW251770   3.898   6.655   7.000
16777SOL     OW51771   5.032   6.627   6.811
16777SOL    HW151772   5.054   6.561   6.745
16777SOL    HW251773   4.966   6.682   6.770
16778SOL     OW51774   5.526   7.317   6.765
16778SOL    HW151775   5.570   7.348   6.685
16778SOL    HW251776   5.488   7.233   6.740
16779SOL     OW51777   4.962   7.348   6.719
16779SOL    HW151778   5.044   7.362   6.672
16779SOL    HW251779   4.962   7.254   6.740
16780SOL     OW51780   3.825   6.841   6.613
16780SOL    HW151781   3.792   6.851   6.702
16780SOL    HW251782   3.750   6.809   6.563
16781SOL     OW51783   4.416   7.265   7.330
16781SOL    HW151784   4.359   7.338   7.303
16781SOL    HW251785   4.489   7.268   7.268
16782SOL     OW51786   5.467   5.749   6.103
16782SOL    HW151787   5.526   5.728   6.031
16782SOL    HW251788   5.435   5.665   6.134
16783SOL     OW51789   5.113   7.160   6.074
16783SOL    HW151790   5.167   7.199   6.004
16783SOL    HW251791   5.062   7.233   6.109
16784SOL     OW51792   3.855   7.395   7.422
16784SOL    HW151793   3.806   7.326   7.467
16784SOL    HW251794   3.905   7.439   7.491
16785SOL     OW51795   5.010   6.515   6.296
16785SOL    HW151796   5.076   6.446   6.310
16785SOL    HW251797   5.023   6.542   6.205
16786SOL     OW51798   4.509   6.859   7.013
16786SOL    HW151799   4.481   6.907   7.091
16786SOL    HW251800   4.439   6.874   6.949
16787SOL     OW51801   4.390   7.217   5.741
16787SOL    HW151802   4.405   7.231   5.648
16787SOL    HW251803   4.337   7.138   5.746
16788SOL     OW51804   5.347   7.319   6.990
16788SOL    HW151805   5.396   7.320   6.909
16788SOL    HW251806   5.327   7.411   7.008
16789SOL     OW51807   5.577   5.751   6.560
16789SOL    HW151808   5.596   5.660   6.537
16789SOL    HW251809   5.490   5.766   6.522
16790SOL     OW51810   3.982   5.906   6.309
16790SOL    HW151811   3.894   5.930   6.279
16790SOL    HW251812   3.972   5.892   6.403
16791SOL     OW51813   4.933   7.180   5.623
16791SOL    HW151814   4.923   7.089   5.651
16791SOL    HW251815   4.865   7.192   5.557
16792SOL     OW51816   4.542   6.591   6.981
16792SOL    HW151817   4.600   6.576   6.907
16792SOL    HW251818   4.535   6.686   6.987
16793SOL     OW51819   4.657   6.513   5.894
16793SOL    HW151820   4.717   6.540   5.825
16793SOL    HW251821   4.698   6.435   5.932
16794SOL     OW51822   5.206   7.232   5.635
16794SOL    HW151823   5.115   7.209   5.619
16794SOL    HW251824   5.246   7.232   5.548
16795SOL     OW51825   4.090   6.907   7.089
16795SOL    HW151826   4.080   6.970   7.018
16795SOL    HW251827   4.023   6.840   7.072
16796SOL     OW51828   5.352   6.870   6.874
16796SOL    HW151829   5.386   6.842   6.958
16796SOL    HW251830   5.287   6.937   6.896
16797SOL     OW51831   4.769   6.671   6.308
16797SOL    HW151832   4.731   6.648   6.223
16797SOL    HW251833   4.850   6.620   6.313
16798SOL     OW51834   4.750   5.827   6.539
16798SOL    HW151835   4.743   5.780   6.456
16798SOL    HW251836   4.737   5.760   6.606
16799SOL     OW51837   4.332   7.074   6.065
16799SOL    HW151838   4.387   7.025   6.004
16799SOL    HW251839   4.248   7.081   6.020
16800SOL     OW51840   5.459   5.996   6.968
16800SOL    HW151841   5.539   6.049   6.960
16800SOL    HW251842   5.477   5.917   6.918
16801SOL     OW51843   3.999   6.927   5.890
16801SOL    HW151844   3.910   6.921   5.855
16801SOL    HW251845   3.988   6.969   5.975
16802SOL     OW51846   3.840   6.641   7.328
16802SOL    HW151847   3.763   6.604   7.370
16802SOL    HW251848   3.912   6.585   7.356
16803SOL     OW51849   4.396   5.822   7.087
16803SOL    HW151850   4.471   5.791   7.037
16803SOL    HW251851   4.426   5.823   7.178
16804SOL     OW51852   3.799   5.921   5.646
16804SOL    HW151853   3.731   5.874   5.597
16804SOL    HW251854   3.826   5.992   5.587
16805SOL     OW51855   5.146   6.440   6.981
16805SOL    HW151856   5.091   6.499   6.930
16805SOL    HW251857   5.231   6.443   6.938
16806SOL     OW51858   3.789   5.754   5.880
16806SOL    HW151859   3.784   5.822   5.813
16806SOL    HW251860   3.875   5.714   5.867
16807SOL     OW51861   4.900   6.914   5.698
16807SOL    HW151862   4.820   6.862   5.700
16807SOL    HW251863   4.927   6.920   5.790
16808SOL     OW51864   4.343   6.408   7.026
16808SOL    HW151865   4.402   6.483   7.014
16808SOL    HW251866   4.401   6.332   7.032
16809SOL     OW51867   5.210   7.415   6.598
16809SOL    HW151868   5.243   7.450   6.515
16809SOL    HW251869   5.213   7.320   6.586
16810SOL     OW51870   4.458   6.134   7.292
16810SOL    HW151871   4.501   6.181   7.363
16810SOL    HW251872   4.464   6.042   7.317
16811SOL     OW51873   5.199   6.772   7.216
16811SOL    HW151874   5.190   6.793   7.309
16811SOL    HW251875   5.289   6.797   7.195
16812SOL     OW51876   4.089   7.325   7.163
16812SOL    HW151877   3.999   7.352   7.148
16812SOL    HW251878   4.082   7.235   7.196
16813SOL     OW51879   5.387   6.465   6.842
16813SOL    HW151880   5.378   6.379   6.801
16813SOL    HW251881   5.375   6.527   6.770
16814SOL     OW51882   4.954   5.922   6.034
16814SOL    HW151883   5.007   5.843   6.024
16814SOL    HW251884   4.986   5.962   6.115
16815SOL     OW51885   4.292   6.346   6.264
16815SOL    HW151886   4.349   6.409   6.218
16815SOL    HW251887   4.230   6.317   6.198
16816SOL     OW51888   5.442   5.951   7.238
16816SOL    HW151889   5.450   5.957   7.143
16816SOL    HW251890   5.395   5.869   7.253
16817SOL     OW51891   5.484   6.518   7.092
16817SOL    HW151892   5.464   6.611   7.104
16817SOL    HW251893   5.459   6.499   7.002
16818SOL     OW51894   4.583   6.952   5.634
16818SOL    HW151895   4.551   6.973   5.722
16818SOL    HW251896   4.601   7.037   5.594
16819SOL     OW51897   4.397   7.377   6.534
16819SOL    HW151898   4.387   7.466   6.500
16819SOL    HW251899   4.490   7.356   6.519
16820SOL     OW51900   4.804   6.596   5.679
16820SOL    HW151901   4.782   6.631   5.593
16820SOL    HW251902   4.874   6.532   5.662
16821SOL     OW51903   5.558   7.142   6.435
16821SOL    HW151904   5.485   7.128   6.374
16821SOL    HW251905   5.534   7.093   6.513
16822SOL     OW51906   3.931   6.873   7.436
16822SOL    HW151907   3.902   6.795   7.389
16822SOL    HW251908   3.866   6.884   7.505
16823SOL     OW51909   3.819   6.817   6.254
16823SOL    HW151910   3.800   6.758   6.327
16823SOL    HW251911   3.880   6.767   6.199
16824SOL     OW51912   4.406   6.999   7.224
16824SOL    HW151913   4.328   6.958   7.261
16824SOL    HW251914   4.408   7.087   7.262
16825SOL     OW51915   5.557   5.782   6.832
16825SOL    HW151916   5.533   5.693   6.858
16825SOL    HW251917   5.560   5.779   6.736
16826SOL     OW51918   4.164   6.013   6.119
16826SOL    HW151919   4.198   5.947   6.059
16826SOL    HW251920   4.107   5.965   6.179
16827SOL     OW51921   5.451   7.064   6.694
16827SOL    HW151922   5.368   7.077   6.647
16827SOL    HW251923   5.434   6.990   6.752
16828SOL     OW51924   4.069   6.149   6.881
16828SOL    HW151925   4.115   6.086   6.938
16828SOL    HW251926   4.080   6.114   6.793
16829SOL     OW51927   4.553   7.176   6.257
16829SOL    HW151928   4.535   7.248   6.197
16829SOL    HW251929   4.478   7.117   6.246
16830SOL     OW51930   5.147   5.804   6.693
16830SOL    HW151931   5.144   5.709   6.697
16830SOL    HW251932   5.092   5.833   6.765
16831SOL     OW51933   4.727   5.624   6.722
16831SOL    HW151934   4.659   5.569   6.682
16831SOL    HW251935   4.805   5.569   6.722
16832SOL     OW51936   4.501   6.926   5.908
16832SOL    HW151937   4.474   6.834   5.909
16832SOL    HW251938   4.585   6.926   5.955
16833SOL     OW51939   4.343   7.143   6.872
16833SOL    HW151940   4.343   7.228   6.917
16833SOL    HW251941   4.433   7.132   6.842
16834SOL     OW51942   5.087   5.632   5.746
16834SOL    HW151943   5.127   5.556   5.703
16834SOL    HW251944   4.997   5.605   5.764
16835SOL     OW51945   5.041   6.048   6.269
16835SOL    HW151946   4.984   6.124   6.263
16835SOL    HW251947   5.021   6.009   6.354
16836SOL     OW51948   5.332   5.804   6.474
16836SOL    HW151949   5.260   5.804   6.537
16836SOL    HW251950   5.311   5.875   6.413
16837SOL     OW51951   3.769   6.647   5.895
16837SOL    HW151952   3.861   6.634   5.871
16837SOL    HW251953   3.738   6.559   5.918
16838SOL     OW51954   4.617   7.250   5.916
16838SOL    HW151955   4.541   7.231   5.862
16838SOL    HW251956   4.586   7.314   5.980
16839SOL     OW51957   3.952   6.215   7.566
16839SOL    HW151958   3.868   6.189   7.604
16839SOL    HW251959   3.947   6.185   7.475
16840SOL     OW51960   3.950   5.876   8.461
16840SOL    HW151961   3.978   5.833   8.542
16840SOL    HW251962   3.863   5.841   8.444
16841SOL     OW51963   4.298   6.887   8.644
16841SOL    HW151964   4.212   6.884   8.601
16841SOL    HW251965   4.310   6.979   8.668
16842SOL     OW51966   5.305   7.106   8.158
16842SOL    HW151967   5.259   7.076   8.237
16842SOL    HW251968   5.237   7.107   8.090
16843SOL     OW51969   4.861   6.284   8.140
16843SOL    HW151970   4.904   6.369   8.133
16843SOL    HW251971   4.811   6.289   8.221
16844SOL     OW51972   5.511   6.156   7.662
16844SOL    HW151973   5.546   6.080   7.615
16844SOL    HW251974   5.452   6.118   7.727
16845SOL     OW51975   4.468   6.723   8.501
16845SOL    HW151976   4.405   6.761   8.562
16845SOL    HW251977   4.506   6.798   8.456
16846SOL     OW51978   4.612   6.343   9.279
16846SOL    HW151979   4.586   6.416   9.335
16846SOL    HW251980   4.629   6.383   9.193
16847SOL     OW51981   4.407   6.578   8.093
16847SOL    HW151982   4.475   6.570   8.160
16847SOL    HW251983   4.341   6.634   8.133
16848SOL     OW51984   4.439   6.735   9.274
16848SOL    HW151985   4.487   6.812   9.304
16848SOL    HW251986   4.361   6.771   9.231
16849SOL     OW51987   4.052   7.004   8.515
16849SOL    HW151988   3.979   6.960   8.471
16849SOL    HW251989   4.097   7.051   8.445
16850SOL     OW51990   5.180   7.087   8.814
16850SOL    HW151991   5.234   7.166   8.823
16850SOL    HW251992   5.110   7.099   8.878
16851SOL     OW51993   4.173   5.979   8.927
16851SOL    HW151994   4.251   5.923   8.929
16851SOL    HW251995   4.100   5.920   8.947
16852SOL     OW51996   5.316   6.036   8.189
16852SOL    HW151997   5.233   6.038   8.142
16852SOL    HW251998   5.305   6.099   8.261
16853SOL     OW51999   4.861   6.928   9.145
16853SOL    HW152000   4.902   6.917   9.231
16853SOL    HW252001   4.810   6.848   9.133
16854SOL     OW52002   3.903   7.086   8.031
16854SOL    HW152003   3.843   7.121   8.097
16854SOL    HW252004   3.905   6.992   8.047
16855SOL     OW52005   4.009   6.678   8.355
16855SOL    HW152006   4.007   6.584   8.374
16855SOL    HW252007   3.938   6.714   8.408
16856SOL     OW52008   4.314   7.381   8.870
16856SOL    HW152009   4.236   7.362   8.922
16856SOL    HW252010   4.342   7.468   8.900
16857SOL     OW52011   4.296   6.572   7.594
16857SOL    HW152012   4.346   6.615   7.524
16857SOL    HW252013   4.339   6.601   7.675
16858SOL     OW52014   5.325   5.719   8.911
16858SOL    HW152015   5.325   5.800   8.860
16858SOL    HW252016   5.292   5.745   8.997
16859SOL     OW52017   3.863   6.279   7.999
16859SOL    HW152018   3.826   6.198   8.033
16859SOL    HW252019   3.860   6.340   8.073
16860SOL     OW52020   5.566   7.338   7.773
16860SOL    HW152021   5.638   7.315   7.833
16860SOL    HW252022   5.582   7.429   7.750
16861SOL     OW52023   3.767   7.191   7.582
16861SOL    HW152024   3.740   7.099   7.576
16861SOL    HW252025   3.770   7.209   7.676
16862SOL     OW52026   5.422   6.511   8.100
16862SOL    HW152027   5.495   6.455   8.073
16862SOL    HW252028   5.397   6.557   8.021
16863SOL     OW52029   5.376   6.685   7.877
16863SOL    HW152030   5.463   6.683   7.836
16863SOL    HW252031   5.384   6.752   7.945
16864SOL     OW52032   3.848   6.325   9.034
16864SOL    HW152033   3.939   6.356   9.032
16864SOL    HW252034   3.796   6.404   9.021
16865SOL     OW52035   4.341   6.982   8.180
16865SOL    HW152036   4.300   6.896   8.190
16865SOL    HW252037   4.325   7.006   8.088
16866SOL     OW52038   5.005   6.819   8.867
16866SOL    HW152039   5.032   6.750   8.807
16866SOL    HW252040   5.066   6.812   8.940
16867SOL     OW52041   4.545   5.608   7.973
16867SOL    HW152042   4.586   5.688   7.939
16867SOL    HW252043   4.454   5.633   7.988
16868SOL     OW52044   3.908   6.543   8.727
16868SOL    HW152045   3.996   6.506   8.715
16868SOL    HW252046   3.851   6.486   8.675
16869SOL     OW52047   5.259   6.584   7.647
16869SOL    HW152048   5.187   6.529   7.679
16869SOL    HW252049   5.300   6.617   7.727
16870SOL     OW52050   4.907   7.398   9.081
16870SOL    HW152051   4.909   7.460   9.008
16870SOL    HW252052   4.922   7.313   9.040
16871SOL     OW52053   4.059   5.836   9.304
16871SOL    HW152054   4.098   5.924   9.308
16871SOL    HW252055   3.965   5.851   9.319
16872SOL     OW52056   5.189   7.006   8.385
16872SOL    HW152057   5.126   7.020   8.455
16872SOL    HW252058   5.177   6.914   8.360
16873SOL     OW52059   5.370   7.353   8.021
16873SOL    HW152060   5.352   7.315   7.935
16873SOL    HW252061   5.360   7.280   8.082
16874SOL     OW52062   4.321   6.306   7.723
16874SOL    HW152063   4.313   6.389   7.675
16874SOL    HW252064   4.255   6.311   7.792
16875SOL     OW52065   4.998   5.959   8.383
16875SOL    HW152066   4.911   5.919   8.388
16875SOL    HW252067   5.054   5.904   8.437
16876SOL     OW52068   5.299   7.266   7.761
16876SOL    HW152069   5.393   7.284   7.751
16876SOL    HW252070   5.268   7.248   7.672
16877SOL     OW52071   4.507   6.200   8.890
16877SOL    HW152072   4.487   6.169   8.978
16877SOL    HW252073   4.479   6.129   8.833
16878SOL     OW52074   5.119   6.065   9.124
16878SOL    HW152075   5.125   6.105   9.211
16878SOL    HW252076   5.165   5.981   9.132
16879SOL     OW52077   4.675   6.467   9.038
16879SOL    HW152078   4.726   6.397   8.997
16879SOL    HW252079   4.622   6.502   8.966
16880SOL     OW52080   4.721   5.998   8.668
16880SOL    HW152081   4.631   6.002   8.699
16880SOL    HW252082   4.719   5.936   8.596
16881SOL     OW52083   4.775   6.291   7.872
16881SOL    HW152084   4.796   6.280   7.965
16881SOL    HW252085   4.693   6.245   7.860
16882SOL     OW52086   3.835   6.452   8.208
16882SOL    HW152087   3.899   6.411   8.267
16882SOL    HW252088   3.779   6.504   8.266
16883SOL     OW52089   3.848   7.459   9.031
16883SOL    HW152090   3.848   7.439   9.125
16883SOL    HW252091   3.769   7.416   8.998
16884SOL     OW52092   4.605   5.940   7.648
16884SOL    HW152093   4.656   5.974   7.574
16884SOL    HW252094   4.553   5.869   7.610
16885SOL     OW52095   5.437   6.160   9.281
16885SOL    HW152096   5.400   6.233   9.230
16885SOL    HW252097   5.453   6.092   9.216
16886SOL     OW52098   5.111   6.731   7.991
16886SOL    HW152099   5.187   6.714   7.936
16886SOL    HW252100   5.056   6.789   7.939
16887SOL     OW52101   4.729   7.035   7.917
16887SOL    HW152102   4.698   7.107   7.863
16887SOL    HW252103   4.698   7.057   8.005
16888SOL     OW52104   4.076   7.400   8.308
16888SOL    HW152105   4.124   7.318   8.322
16888SOL    HW252106   4.138   7.469   8.330
16889SOL     OW52107   5.530   6.646   8.321
16889SOL    HW152108   5.482   6.615   8.244
16889SOL    HW252109   5.464   6.647   8.391
16890SOL     OW52110   4.945   7.127   8.963
16890SOL    HW152111   4.936   7.056   9.027
16890SOL    HW252112   4.885   7.103   8.892
16891SOL     OW52113   4.028   6.546   7.697
16891SOL    HW152114   4.111   6.560   7.652
16891SOL    HW252115   3.997   6.461   7.667
16892SOL     OW52116   5.205   6.345   8.168
16892SOL    HW152117   5.203   6.296   8.250
16892SOL    HW252118   5.288   6.393   8.171
16893SOL     OW52119   4.196   6.863   9.192
16893SOL    HW152120   4.170   6.867   9.100
16893SOL    HW252121   4.114   6.850   9.239
16894SOL     OW52122   4.853   7.363   7.673
16894SOL    HW152123   4.775   7.326   7.715
16894SOL    HW252124   4.877   7.299   7.606
16895SOL     OW52125   3.928   5.846   8.961
16895SOL    HW152126   3.845   5.884   8.932
16895SOL    HW252127   3.905   5.757   8.989
16896SOL     OW52128   5.357   6.974   7.548
16896SOL    HW152129   5.315   7.057   7.527
16896SOL    HW252130   5.291   6.908   7.526
16897SOL     OW52131   4.188   7.312   7.780
16897SOL    HW152132   4.239   7.374   7.833
16897SOL    HW252133   4.250   7.280   7.715
16898SOL     OW52134   5.125   5.701   7.872
16898SOL    HW152135   5.111   5.667   7.784
16898SOL    HW252136   5.208   5.662   7.900
16899SOL     OW52137   3.983   7.372   8.672
16899SOL    HW152138   4.030   7.300   8.714
16899SOL    HW252139   3.974   7.345   8.581
16900SOL     OW52140   4.665   7.286   8.340
16900SOL    HW152141   4.748   7.241   8.357
16900SOL    HW252142   4.624   7.235   8.271
16901SOL     OW52143   4.131   6.271   7.924
16901SOL    HW152144   4.149   6.178   7.935
16901SOL    HW252145   4.037   6.280   7.938
16902SOL     OW52146   5.237   5.810   9.170
16902SOL    HW152147   5.245   5.828   9.263
16902SOL    HW252148   5.177   5.735   9.164
16903SOL     OW52149   4.375   5.691   7.548
16903SOL    HW152150   4.416   5.608   7.569
16903SOL    HW252151   4.317   5.671   7.474
16904SOL     OW52152   4.492   5.866   9.215
16904SOL    HW152153   4.573   5.815   9.205
16904SOL    HW252154   4.438   5.813   9.273
16905SOL     OW52155   4.599   7.114   8.645
16905SOL    HW152156   4.582   7.073   8.560
16905SOL    HW252157   4.668   7.060   8.684
16906SOL     OW52158   5.060   6.177   8.881
16906SOL    HW152159   5.091   6.143   8.964
16906SOL    HW252160   5.100   6.264   8.873
16907SOL     OW52161   4.542   6.975   8.398
16907SOL    HW152162   4.628   6.963   8.358
16907SOL    HW252163   4.481   6.982   8.324
16908SOL     OW52164   4.654   6.097   8.340
16908SOL    HW152165   4.627   6.082   8.249
16908SOL    HW252166   4.681   6.011   8.372
16909SOL     OW52167   4.283   5.722   8.005
16909SOL    HW152168   4.206   5.666   8.011
16909SOL    HW252169   4.284   5.753   7.915
16910SOL     OW52170   5.159   6.791   7.490
16910SOL    HW152171   5.185   6.713   7.539
16910SOL    HW252172   5.070   6.810   7.520
16911SOL     OW52173   4.016   5.637   7.645
16911SOL    HW152174   4.060   5.689   7.578
16911SOL    HW252175   4.085   5.584   7.683
16912SOL     OW52176   4.674   5.849   7.902
16912SOL    HW152177   4.649   5.874   7.813
16912SOL    HW252178   4.770   5.856   7.903
16913SOL     OW52179   4.801   6.268   8.901
16913SOL    HW152180   4.738   6.195   8.904
16913SOL    HW252181   4.886   6.225   8.895
16914SOL     OW52182   4.932   7.167   8.248
16914SOL    HW152183   4.950   7.229   8.178
16914SOL    HW252184   5.010   7.169   8.303
16915SOL     OW52185   4.198   6.748   8.172
16915SOL    HW152186   4.137   6.722   8.242
16915SOL    HW252187   4.149   6.730   8.092
16916SOL     OW52188   4.984   7.378   8.064
16916SOL    HW152189   5.030   7.439   8.007
16916SOL    HW252190   4.914   7.429   8.104
16917SOL     OW52191   4.765   6.119   7.470
16917SOL    HW152192   4.716   6.201   7.459
16917SOL    HW252193   4.813   6.132   7.552
16918SOL     OW52194   3.818   6.125   8.851
16918SOL    HW152195   3.905   6.131   8.814
16918SOL    HW252196   3.813   6.198   8.913
16919SOL     OW52197   4.280   5.820   8.583
16919SOL    HW152198   4.312   5.730   8.575
16919SOL    HW252199   4.193   5.812   8.622
16920SOL     OW52200   4.580   6.041   8.082
16920SOL    HW152201   4.546   6.096   8.012
16920SOL    HW252202   4.614   5.964   8.037
16921SOL     OW52203   4.721   5.646   8.196
16921SOL    HW152204   4.667   5.628   8.119
16921SOL    HW252205   4.711   5.568   8.251
16922SOL     OW52206   5.158   6.745   8.300
16922SOL    HW152207   5.093   6.675   8.308
16922SOL    HW252208   5.176   6.750   8.206
16923SOL     OW52209   5.189   6.194   8.407
16923SOL    HW152210   5.127   6.122   8.413
16923SOL    HW252211   5.244   6.185   8.486
16924SOL     OW52212   5.566   6.389   7.820
16924SOL    HW152213   5.617   6.340   7.884
16924SOL    HW252214   5.538   6.323   7.756
16925SOL     OW52215   4.208   7.015   7.597
16925SOL    HW152216   4.130   6.989   7.646
16925SOL    HW252217   4.209   6.959   7.520
16926SOL     OW52218   5.411   6.858   8.077
16926SOL    HW152219   5.505   6.855   8.096
16926SOL    HW252220   5.385   6.946   8.104
16927SOL     OW52221   5.129   6.129   7.533
16927SOL    HW152222   5.056   6.139   7.594
16927SOL    HW252223   5.167   6.044   7.556
16928SOL     OW52224   4.265   5.849   7.760
16928SOL    HW152225   4.298   5.789   7.694
16928SOL    HW252226   4.232   5.924   7.710
16929SOL     OW52227   5.468   6.830   9.000
16929SOL    HW152228   5.555   6.791   8.991
16929SOL    HW252229   5.485   6.919   9.032
16930SOL     OW52230   4.777   6.953   8.792
16930SOL    HW152231   4.700   6.913   8.833
16930SOL    HW252232   4.851   6.902   8.824
16931SOL     OW52233   5.335   7.220   9.114
16931SOL    HW152234   5.323   7.252   9.024
16931SOL    HW252235   5.415   7.167   9.110
16932SOL     OW52236   4.868   6.812   8.550
16932SOL    HW152237   4.793   6.831   8.606
16932SOL    HW252238   4.840   6.839   8.462
16933SOL     OW52239   5.345   6.679   8.521
16933SOL    HW152240   5.337   6.742   8.593
16933SOL    HW252241   5.269   6.696   8.466
16934SOL     OW52242   4.627   5.707   8.823
16934SOL    HW152243   4.648   5.662   8.741
16934SOL    HW252244   4.712   5.723   8.864
16935SOL     OW52245   4.707   6.699   9.171
16935SOL    HW152246   4.616   6.713   9.195
16935SOL    HW252247   4.706   6.620   9.117
16936SOL     OW52248   4.435   6.650   7.822
16936SOL    HW152249   4.420   6.623   7.913
16936SOL    HW252250   4.512   6.600   7.794
16937SOL     OW52251   4.148   6.410   8.703
16937SOL    HW152252   4.215   6.417   8.772
16937SOL    HW252253   4.115   6.321   8.710
16938SOL     OW52254   4.987   5.955   8.732
16938SOL    HW152255   5.018   6.035   8.776
16938SOL    HW252256   4.897   5.976   8.705
16939SOL     OW52257   3.801   7.160   8.810
16939SOL    HW152258   3.773   7.228   8.749
16939SOL    HW252259   3.896   7.155   8.799
16940SOL     OW52260   4.050   6.710   7.938
16940SOL    HW152261   4.077   6.760   7.862
16940SOL    HW252262   4.042   6.620   7.906
16941SOL     OW52263   4.282   6.079   8.289
16941SOL    HW152264   4.287   6.152   8.228
16941SOL    HW252265   4.336   6.105   8.364
16942SOL     OW52266   4.974   6.936   7.842
16942SOL    HW152267   5.030   7.005   7.875
16942SOL    HW252268   4.886   6.958   7.873
16943SOL     OW52269   5.019   7.048   8.593
16943SOL    HW152270   5.070   7.049   8.674
16943SOL    HW252271   4.966   6.969   8.599
16944SOL     OW52272   5.300   6.218   7.924
16944SOL    HW152273   5.253   6.243   8.003
16944SOL    HW252274   5.297   6.296   7.869
16945SOL     OW52275   4.070   7.117   8.756
16945SOL    HW152276   4.058   7.071   8.673
16945SOL    HW252277   4.164   7.128   8.764
16946SOL     OW52278   4.135   6.333   9.052
16946SOL    HW152279   4.205   6.370   8.998
16946SOL    HW252280   4.156   6.240   9.058
16947SOL     OW52281   5.342   6.373   9.140
16947SOL    HW152282   5.254   6.410   9.131
16947SOL    HW252283   5.391   6.410   9.067
16948SOL     OW52284   4.722   5.721   9.202
16948SOL    HW152285   4.784   5.787   9.171
16948SOL    HW252286   4.762   5.638   9.178
16949SOL     OW52287   4.213   5.634   9.205
16949SOL    HW152288   4.172   5.575   9.143
16949SOL    HW252289   4.148   5.704   9.218
16950SOL     OW52290   4.313   6.459   8.483
16950SOL    HW152291   4.346   6.548   8.491
16950SOL    HW252292   4.254   6.448   8.558
16951SOL     OW52293   5.061   6.442   8.465
16951SOL    HW152294   4.975   6.421   8.431
16951SOL    HW252295   5.112   6.362   8.453
16952SOL     OW52296   4.919   6.125   7.708
16952SOL    HW152297   4.929   6.045   7.760
16952SOL    HW252298   4.872   6.186   7.765
16953SOL     OW52299   4.032   5.772   8.699
16953SOL    HW152300   3.999   5.793   8.786
16953SOL    HW252301   4.029   5.677   8.695
16954SOL     OW52302   3.770   6.899   8.715
16954SOL    HW152303   3.800   6.838   8.782
16954SOL    HW252304   3.775   6.985   8.756
16955SOL     OW52305   4.433   6.203   8.484
16955SOL    HW152306   4.512   6.193   8.432
16955SOL    HW252307   4.406   6.294   8.469
16956SOL     OW52308   5.468   6.551   9.312
16956SOL    HW152309   5.431   6.481   9.259
16956SOL    HW252310   5.403   6.566   9.381
16957SOL     OW52311   4.033   5.634   8.077
16957SOL    HW152312   3.965   5.700   8.094
16957SOL    HW252313   4.038   5.584   8.158
16958SOL     OW52314   5.355   5.966   7.813
16958SOL    HW152315   5.379   5.895   7.873
16958SOL    HW252316   5.326   6.037   7.870
16959SOL     OW52317   4.751   6.344   8.407
16959SOL    HW152318   4.738   6.358   8.501
16959SOL    HW252319   4.725   6.253   8.393
16960SOL     OW52320   4.704   7.150   9.175
16960SOL    HW152321   4.685   7.193   9.092
16960SOL    HW252322   4.748   7.069   9.150
16961SOL     OW52323   5.571   7.086   9.054
16961SOL    HW152324   5.594   7.113   8.965
16961SOL    HW252325   5.652   7.096   9.104
16962SOL     OW52326   4.075   6.511   9.253
16962SOL    HW152327   4.155   6.519   9.305
16962SOL    HW252328   4.096   6.444   9.187
16963SOL     OW52329   5.230   5.877   7.581
16963SOL    HW152330   5.178   5.799   7.599
16963SOL    HW252331   5.275   5.896   7.663
16964SOL     OW52332   5.015   6.405   7.480
16964SOL    HW152333   5.050   6.316   7.480
16964SOL    HW252334   5.043   6.442   7.397
16965SOL     OW52335   4.791   6.928   8.307
16965SOL    HW152336   4.797   6.856   8.246
16965SOL    HW252337   4.845   6.997   8.269
16966SOL     OW52338   4.033   6.397   8.397
16966SOL    HW152339   4.128   6.405   8.389
16966SOL    HW252340   4.018   6.307   8.426
16967SOL     OW52341   4.065   6.121   8.464
16967SOL    HW152342   4.014   6.040   8.458
16967SOL    HW252343   4.135   6.110   8.400
16968SOL     OW52344   4.859   5.964   9.125
16968SOL    HW152345   4.811   6.012   9.194
16968SOL    HW252346   4.945   6.006   9.123
16969SOL     OW52347   4.878   5.780   8.920
16969SOL    HW152348   4.867   5.847   8.988
16969SOL    HW252349   4.923   5.825   8.849
16970SOL     OW52350   3.743   6.900   7.639
16970SOL    HW152351   3.654   6.918   7.610
16970SOL    HW252352   3.740   6.812   7.675
16971SOL     OW52353   3.811   7.359   8.385
16971SOL    HW152354   3.785   7.280   8.337
16971SOL    HW252355   3.900   7.377   8.355
16972SOL     OW52356   4.212   7.162   8.347
16972SOL    HW152357   4.282   7.222   8.372
16972SOL    HW252358   4.256   7.097   8.292
16973SOL     OW52359   4.684   6.373   8.673
16973SOL    HW152360   4.745   6.351   8.744
16973SOL    HW252361   4.606   6.319   8.691
16974SOL     OW52362   3.755   6.164   8.550
16974SOL    HW152363   3.772   6.127   8.464
16974SOL    HW252364   3.820   6.124   8.607
16975SOL     OW52365   3.916   6.098   9.180
16975SOL    HW152366   3.941   6.034   9.113
16975SOL    HW252367   3.883   6.173   9.130
16976SOL     OW52368   5.107   6.517   9.106
16976SOL    HW152369   5.127   6.610   9.099
16976SOL    HW252370   5.101   6.486   9.016
16977SOL     OW52371   4.543   6.159   7.817
16977SOL    HW152372   4.552   6.083   7.759
16977SOL    HW252373   4.468   6.206   7.781
16978SOL     OW52374   5.360   6.191   8.626
16978SOL    HW152375   5.350   6.126   8.696
16978SOL    HW252376   5.449   6.176   8.592
16979SOL     OW52377   3.958   7.129   9.173
16979SOL    HW152378   3.937   7.182   9.250
16979SOL    HW252379   3.968   7.041   9.207
16980SOL     OW52380   4.439   6.026   8.692
16980SOL    HW152381   4.386   5.949   8.670
16980SOL    HW252382   4.426   6.086   8.618
16981SOL     OW52383   4.629   7.266   8.932
16981SOL    HW152384   4.617   7.218   8.850
16981SOL    HW252385   4.629   7.358   8.907
16982SOL     OW52386   4.180   6.080   7.644
16982SOL    HW152387   4.242   6.152   7.656
16982SOL    HW252388   4.098   6.122   7.619
16983SOL     OW52389   3.864   6.730   8.919
16983SOL    HW152390   3.868   6.686   9.004
16983SOL    HW252391   3.880   6.661   8.855
16984SOL     OW52392   5.042   6.629   8.663
16984SOL    HW152393   5.057   6.563   8.596
16984SOL    HW252394   4.981   6.691   8.622
16985SOL     OW52395   5.046   6.444   7.754
16985SOL    HW152396   4.973   6.410   7.807
16985SOL    HW252397   5.018   6.428   7.664
16986SOL     OW52398   5.515   7.317   8.616
16986SOL    HW152399   5.572   7.341   8.542
16986SOL    HW252400   5.478   7.233   8.591
16987SOL     OW52401   4.965   7.319   8.558
16987SOL    HW152402   5.047   7.344   8.516
16987SOL    HW252403   4.975   7.225   8.575
16988SOL     OW52404   3.801   6.878   8.442
16988SOL    HW152405   3.784   6.879   8.536
16988SOL    HW252406   3.745   6.807   8.408
16989SOL     OW52407   4.410   7.262   9.191
16989SOL    HW152408   4.349   7.333   9.173
16989SOL    HW252409   4.480   7.274   9.127
16990SOL     OW52410   5.464   5.750   7.962
16990SOL    HW152411   5.527   5.727   7.894
16990SOL    HW252412   5.434   5.666   7.996
16991SOL     OW52413   5.122   7.154   7.947
16991SOL    HW152414   5.174   7.188   7.875
16991SOL    HW252415   5.066   7.228   7.973
16992SOL     OW52416   3.855   7.392   9.292
16992SOL    HW152417   3.812   7.317   9.334
16992SOL    HW252418   3.906   7.432   9.362
16993SOL     OW52419   5.001   6.520   8.124
16993SOL    HW152420   5.074   6.458   8.135
16993SOL    HW252421   5.037   6.589   8.068
16994SOL     OW52422   4.522   6.865   8.861
16994SOL    HW152423   4.494   6.907   8.942
16994SOL    HW252424   4.447   6.874   8.802
16995SOL     OW52425   4.386   7.218   7.603
16995SOL    HW152426   4.406   7.234   7.511
16995SOL    HW252427   4.333   7.138   7.603
16996SOL     OW52428   5.339   7.314   8.844
16996SOL    HW152429   5.396   7.315   8.768
16996SOL    HW252430   5.324   7.406   8.864
16997SOL     OW52431   5.576   5.751   8.416
16997SOL    HW152432   5.599   5.660   8.397
16997SOL    HW252433   5.489   5.762   8.378
16998SOL     OW52434   4.003   5.904   8.197
16998SOL    HW152435   3.927   5.954   8.169
16998SOL    HW252436   3.987   5.884   8.289
16999SOL     OW52437   4.933   7.182   7.484
16999SOL    HW152438   4.921   7.090   7.508
16999SOL    HW252439   4.871   7.196   7.412
17000SOL     OW52440   4.546   6.590   8.830
17000SOL    HW152441   4.588   6.570   8.747
17000SOL    HW252442   4.545   6.685   8.834
17001SOL     OW52443   4.651   6.513   7.742
17001SOL    HW152444   4.713   6.542   7.675
17001SOL    HW252445   4.693   6.438   7.783
17002SOL     OW52446   5.208   7.230   7.499
17002SOL    HW152447   5.117   7.208   7.481
17002SOL    HW252448   5.250   7.231   7.413
17003SOL     OW52449   4.087   6.897   8.947
17003SOL    HW152450   4.078   6.968   8.884
17003SOL    HW252451   4.015   6.838   8.927
17004SOL     OW52452   5.330   6.871   8.728
17004SOL    HW152453   5.385   6.849   8.803
17004SOL    HW252454   5.268   6.936   8.761
17005SOL     OW52455   4.789   6.699   8.166
17005SOL    HW152456   4.715   6.648   8.200
17005SOL    HW252457   4.854   6.634   8.140
17006SOL     OW52458   4.748   5.822   8.414
17006SOL    HW152459   4.740   5.777   8.330
17006SOL    HW252460   4.742   5.752   8.479
17007SOL     OW52461   4.324   7.070   7.921
17007SOL    HW152462   4.388   7.016   7.875
17007SOL    HW252463   4.265   7.101   7.852
17008SOL     OW52464   5.455   5.983   8.828
17008SOL    HW152465   5.530   6.043   8.826
17008SOL    HW252466   5.482   5.909   8.774
17009SOL     OW52467   3.983   6.976   7.762
17009SOL    HW152468   3.908   6.943   7.713
17009SOL    HW252469   3.953   6.977   7.853
17010SOL     OW52470   3.842   6.641   9.185
17010SOL    HW152471   3.765   6.606   9.229
17010SOL    HW252472   3.914   6.587   9.216
17011SOL     OW52473   4.396   5.804   8.946
17011SOL    HW152474   4.473   5.775   8.897
17011SOL    HW252475   4.429   5.821   9.034
17012SOL     OW52476   3.796   5.919   7.495
17012SOL    HW152477   3.728   5.868   7.451
17012SOL    HW252478   3.818   5.989   7.433
17013SOL     OW52479   5.148   6.446   8.846
17013SOL    HW152480   5.096   6.504   8.789
17013SOL    HW252481   5.235   6.445   8.806
17014SOL     OW52482   3.787   5.744   7.750
17014SOL    HW152483   3.773   5.815   7.687
17014SOL    HW252484   3.869   5.704   7.723
17015SOL     OW52485   4.906   6.914   7.567
17015SOL    HW152486   4.823   6.866   7.566
17015SOL    HW252487   4.931   6.915   7.660
17016SOL     OW52488   4.343   6.416   8.891
17016SOL    HW152489   4.404   6.488   8.876
17016SOL    HW252490   4.398   6.338   8.893
17017SOL     OW52491   5.207   7.380   8.440
17017SOL    HW152492   5.232   7.441   8.371
17017SOL    HW252493   5.286   7.330   8.458
17018SOL     OW52494   4.452   6.135   9.147
17018SOL    HW152495   4.499   6.186   9.214
17018SOL    HW252496   4.462   6.044   9.176
17019SOL     OW52497   5.197   6.779   9.074
17019SOL    HW152498   5.189   6.794   9.168
17019SOL    HW252499   5.289   6.798   9.054
17020SOL     OW52500   4.090   7.327   9.020
17020SOL    HW152501   4.008   7.372   9.003
17020SOL    HW252502   4.064   7.243   9.058
17021SOL     OW52503   5.386   6.461   8.705
17021SOL    HW152504   5.382   6.374   8.665
17021SOL    HW252505   5.377   6.522   8.631
17022SOL     OW52506   4.953   5.919   7.898
17022SOL    HW152507   5.009   5.842   7.886
17022SOL    HW252508   4.985   5.961   7.978
17023SOL     OW52509   4.300   6.312   8.139
17023SOL    HW152510   4.346   6.394   8.120
17023SOL    HW252511   4.240   6.301   8.065
17024SOL     OW52512   5.469   5.952   9.105
17024SOL    HW152513   5.461   5.966   9.010
17024SOL    HW252514   5.398   5.891   9.126
17025SOL     OW52515   5.485   6.516   8.955
17025SOL    HW152516   5.463   6.609   8.966
17025SOL    HW252517   5.461   6.496   8.864
17026SOL     OW52518   4.583   6.953   7.492
17026SOL    HW152519   4.555   6.991   7.576
17026SOL    HW252520   4.609   7.029   7.440
17027SOL     OW52521   4.387   7.369   8.378
17027SOL    HW152522   4.372   7.463   8.363
17027SOL    HW252523   4.482   7.359   8.376
17028SOL     OW52524   4.594   6.558   8.302
17028SOL    HW152525   4.641   6.482   8.336
17028SOL    HW252526   4.552   6.596   8.380
17029SOL     OW52527   4.820   6.594   7.543
17029SOL    HW152528   4.785   6.630   7.461
17029SOL    HW252529   4.882   6.526   7.515
17030SOL     OW52530   5.569   7.138   8.288
17030SOL    HW152531   5.487   7.124   8.241
17030SOL    HW252532   5.579   7.060   8.343
17031SOL     OW52533   3.939   6.876   9.292
17031SOL    HW152534   3.904   6.799   9.248
17031SOL    HW252535   3.884   6.885   9.370
17032SOL     OW52536   3.838   6.819   8.097
17032SOL    HW152537   3.829   6.769   8.179
17032SOL    HW252538   3.893   6.765   8.041
17033SOL     OW52539   4.411   6.997   9.076
17033SOL    HW152540   4.335   6.954   9.114
17033SOL    HW252541   4.412   7.084   9.117
17034SOL     OW52542   5.546   5.772   8.687
17034SOL    HW152543   5.529   5.680   8.707
17034SOL    HW252544   5.556   5.775   8.592
17035SOL     OW52545   4.177   6.002   7.985
17035SOL    HW152546   4.204   5.955   7.906
17035SOL    HW252547   4.088   5.971   8.002
17036SOL     OW52548   5.407   7.079   8.547
17036SOL    HW152549   5.336   7.055   8.488
17036SOL    HW252550   5.413   7.006   8.608
17037SOL     OW52551   4.066   6.151   8.741
17037SOL    HW152552   4.115   6.089   8.795
17037SOL    HW252553   4.081   6.122   8.651
17038SOL     OW52554   4.558   7.168   8.120
17038SOL    HW152555   4.534   7.236   8.057
17038SOL    HW252556   4.482   7.109   8.121
17039SOL     OW52557   5.150   5.808   8.548
17039SOL    HW152558   5.156   5.713   8.557
17039SOL    HW252559   5.102   5.837   8.625
17040SOL     OW52560   4.725   5.596   8.579
17040SOL    HW152561   4.674   5.526   8.539
17040SOL    HW252562   4.812   5.560   8.590
17041SOL     OW52563   4.500   6.919   7.784
17041SOL    HW152564   4.474   6.826   7.784
17041SOL    HW252565   4.589   6.919   7.821
17042SOL     OW52566   4.342   7.147   8.732
17042SOL    HW152567   4.341   7.230   8.781
17042SOL    HW252568   4.432   7.139   8.700
17043SOL     OW52569   5.090   5.634   7.605
17043SOL    HW152570   5.129   5.557   7.563
17043SOL    HW252571   5.000   5.609   7.623
17044SOL     OW52572   5.037   6.057   8.129
17044SOL    HW152573   4.978   6.133   8.126
17044SOL    HW252574   5.019   6.016   8.213
17045SOL     OW52575   5.327   5.792   8.329
17045SOL    HW152576   5.261   5.801   8.398
17045SOL    HW252577   5.312   5.867   8.271
17046SOL     OW52578   3.773   6.652   7.758
17046SOL    HW152579   3.863   6.634   7.731
17046SOL    HW252580   3.736   6.566   7.778
17047SOL     OW52581   4.616   7.246   7.777
17047SOL    HW152582   4.539   7.231   7.722
17047SOL    HW252583   4.587   7.313   7.840
17048SOL     OW52584   3.948   6.218   9.433
17048SOL    HW152585   3.862   6.195   9.467
17048SOL    HW252586   3.947   6.190   9.341
17049SOL     OW52587   3.941   5.880  10.308
17049SOL    HW152588   3.975   5.838  10.387
17049SOL    HW252589   3.856   5.840  10.293
17050SOL     OW52590   3.725   5.970   9.948
17050SOL    HW152591   3.642   5.987   9.992
17050SOL    HW252592   3.707   5.895   9.891
17051SOL     OW52593   4.293   6.888  10.504
17051SOL    HW152594   4.212   6.893  10.453
17051SOL    HW252595   4.311   6.979  10.529
17052SOL     OW52596   5.304   7.106  10.018
17052SOL    HW152597   5.259   7.077  10.097
17052SOL    HW252598   5.237   7.108   9.951
17053SOL     OW52599   4.861   6.287  10.003
17053SOL    HW152600   4.906   6.370   9.991
17053SOL    HW252601   4.811   6.297  10.084
17054SOL     OW52602   5.489   6.186   9.543
17054SOL    HW152603   5.470   6.183   9.449
17054SOL    HW252604   5.457   6.103   9.577
17055SOL     OW52605   4.464   6.722  10.365
17055SOL    HW152606   4.401   6.763  10.424
17055SOL    HW252607   4.502   6.795  10.316
17056SOL     OW52608   4.611   6.348  11.138
17056SOL    HW152609   4.638   6.420  11.195
17056SOL    HW252610   4.623   6.382  11.049
17057SOL     OW52611   4.411   6.583   9.952
17057SOL    HW152612   4.476   6.575  10.021
17057SOL    HW252613   4.342   6.638   9.989
17058SOL     OW52614   4.440   6.748  11.129
17058SOL    HW152615   4.492   6.823  11.159
17058SOL    HW252616   4.370   6.787  11.077
17059SOL     OW52617   4.055   6.999  10.375
17059SOL    HW152618   3.982   6.957  10.329
17059SOL    HW252619   4.099   7.050  10.308
17060SOL     OW52620   5.181   7.086  10.677
17060SOL    HW152621   5.235   7.165  10.684
17060SOL    HW252622   5.111   7.100  10.741
17061SOL     OW52623   4.174   5.979  10.796
17061SOL    HW152624   4.251   5.922  10.797
17061SOL    HW252625   4.100   5.920  10.808
17062SOL     OW52626   5.324   6.024  10.054
17062SOL    HW152627   5.253   6.032   9.991
17062SOL    HW252628   5.329   6.109  10.096
17063SOL     OW52629   3.942   7.310   9.777
17063SOL    HW152630   3.968   7.384   9.832
17063SOL    HW252631   4.016   7.298   9.717
17064SOL     OW52632   4.865   6.928  11.007
17064SOL    HW152633   4.911   6.915  11.090
17064SOL    HW252634   4.815   6.848  10.994
17065SOL     OW52635   3.961   7.039   9.848
17065SOL    HW152636   3.937   7.131   9.849
17065SOL    HW252637   3.903   6.998   9.913
17066SOL     OW52638   3.996   6.677  10.204
17066SOL    HW152639   3.997   6.586  10.234
17066SOL    HW252640   3.933   6.721  10.261
17067SOL     OW52641   4.316   7.380  10.733
17067SOL    HW152642   4.236   7.364  10.783
17067SOL    HW252643   4.344   7.467  10.761
17068SOL     OW52644   4.296   6.573   9.455
17068SOL    HW152645   4.346   6.614   9.385
17068SOL    HW252646   4.337   6.603   9.536
17069SOL     OW52647   5.317   5.715  10.771
17069SOL    HW152648   5.343   5.793  10.720
17069SOL    HW252649   5.294   5.750  10.857
17070SOL     OW52650   3.843   6.240   9.870
17070SOL    HW152651   3.816   6.150   9.888
17070SOL    HW252652   3.835   6.285   9.955
17071SOL     OW52653   5.567   7.338   9.635
17071SOL    HW152654   5.638   7.316   9.695
17071SOL    HW252655   5.582   7.430   9.612
17072SOL     OW52656   3.771   7.174   9.428
17072SOL    HW152657   3.753   7.082   9.444
17072SOL    HW252658   3.741   7.219   9.507
17073SOL     OW52659   5.423   6.509   9.958
17073SOL    HW152660   5.491   6.452   9.922
17073SOL    HW252661   5.391   6.559   9.883
17074SOL     OW52662   5.374   6.687   9.741
17074SOL    HW152663   5.460   6.684   9.700
17074SOL    HW252664   5.383   6.752   9.810
17075SOL     OW52665   3.845   6.328  10.893
17075SOL    HW152666   3.935   6.362  10.884
17075SOL    HW252667   3.789   6.403  10.874
17076SOL     OW52668   4.335   6.979  10.050
17076SOL    HW152669   4.293   6.893  10.053
17076SOL    HW252670   4.324   7.007   9.959
17077SOL     OW52671   5.004   6.817  10.733
17077SOL    HW152672   5.030   6.750  10.670
17077SOL    HW252673   5.068   6.811  10.803
17078SOL     OW52674   4.551   5.602   9.839
17078SOL    HW152675   4.589   5.683   9.804
17078SOL    HW252676   4.456   5.617   9.836
17079SOL     OW52677   3.907   6.543  10.598
17079SOL    HW152678   3.995   6.507  10.583
17079SOL    HW252679   3.853   6.504  10.529
17080SOL     OW52680   5.255   6.589   9.510
17080SOL    HW152681   5.186   6.530   9.539
17080SOL    HW252682   5.297   6.619   9.591
17081SOL     OW52683   4.899   7.394  10.942
17081SOL    HW152684   4.906   7.460  10.873
17081SOL    HW252685   4.920   7.312  10.898
17082SOL     OW52686   4.066   5.831  11.161
17082SOL    HW152687   4.108   5.917  11.171
17082SOL    HW252688   3.973   5.849  11.173
17083SOL     OW52689   5.190   7.007  10.247
17083SOL    HW152690   5.125   7.022  10.316
17083SOL    HW252691   5.177   6.915  10.222
17084SOL     OW52692   5.374   7.350   9.884
17084SOL    HW152693   5.353   7.316   9.797
17084SOL    HW252694   5.361   7.276   9.943
17085SOL     OW52695   4.319   6.304   9.586
17085SOL    HW152696   4.315   6.386   9.537
17085SOL    HW252697   4.251   6.313   9.653
17086SOL     OW52698   5.001   5.965  10.248
17086SOL    HW152699   4.914   5.925  10.251
17086SOL    HW252700   5.055   5.908  10.302
17087SOL     OW52701   5.300   7.264   9.623
17087SOL    HW152702   5.393   7.283   9.613
17087SOL    HW252703   5.269   7.247   9.534
17088SOL     OW52704   4.505   6.203  10.760
17088SOL    HW152705   4.482   6.171  10.847
17088SOL    HW252706   4.480   6.131  10.701
17089SOL     OW52707   5.115   6.062  10.986
17089SOL    HW152708   5.122   6.105  11.072
17089SOL    HW252709   5.167   5.982  10.995
17090SOL     OW52710   4.673   6.467  10.896
17090SOL    HW152711   4.726   6.398  10.856
17090SOL    HW252712   4.622   6.504  10.824
17091SOL     OW52713   4.721   5.995  10.533
17091SOL    HW152714   4.629   6.003  10.559
17091SOL    HW252715   4.719   5.949  10.450
17092SOL     OW52716   4.779   6.286   9.733
17092SOL    HW152717   4.798   6.276   9.826
17092SOL    HW252718   4.696   6.241   9.720
17093SOL     OW52719   3.812   6.398  10.095
17093SOL    HW152720   3.894   6.395  10.144
17093SOL    HW252721   3.769   6.478  10.126
17094SOL     OW52722   3.847   7.460  10.893
17094SOL    HW152723   3.847   7.439  10.986
17094SOL    HW252724   3.768   7.418  10.859
17095SOL     OW52725   4.615   5.942   9.509
17095SOL    HW152726   4.664   5.993   9.445
17095SOL    HW252727   4.581   5.868   9.459
17096SOL     OW52728   5.423   6.157  11.144
17096SOL    HW152729   5.392   6.232  11.092
17096SOL    HW252730   5.449   6.092  11.079
17097SOL     OW52731   5.109   6.730   9.850
17097SOL    HW152732   5.185   6.713   9.794
17097SOL    HW252733   5.054   6.789   9.798
17098SOL     OW52734   4.271   5.753  10.204
17098SOL    HW152735   4.277   5.796  10.289
17098SOL    HW252736   4.272   5.825  10.141
17099SOL     OW52737   4.726   7.037   9.779
17099SOL    HW152738   4.696   7.108   9.723
17099SOL    HW252739   4.693   7.059   9.866
17100SOL     OW52740   4.079   7.405  10.185
17100SOL    HW152741   4.125   7.321  10.190
17100SOL    HW252742   4.147   7.471  10.201
17101SOL     OW52743   5.531   6.641  10.182
17101SOL    HW152744   5.484   6.613  10.103
17101SOL    HW252745   5.464   6.643  10.250
17102SOL     OW52746   4.944   7.127  10.824
17102SOL    HW152747   4.938   7.054  10.886
17102SOL    HW252748   4.886   7.103  10.752
17103SOL     OW52749   4.030   6.544   9.565
17103SOL    HW152750   4.112   6.564   9.521
17103SOL    HW252751   4.002   6.461   9.527
17104SOL     OW52752   5.204   6.351  10.036
17104SOL    HW152753   5.204   6.302  10.118
17104SOL    HW252754   5.288   6.396  10.034
17105SOL     OW52755   4.181   6.869  11.059
17105SOL    HW152756   4.161   6.872  10.966
17105SOL    HW252757   4.096   6.858  11.102
17106SOL     OW52758   4.853   7.362   9.536
17106SOL    HW152759   4.774   7.326   9.577
17106SOL    HW252760   4.877   7.298   9.469
17107SOL     OW52761   3.929   5.849  10.814
17107SOL    HW152762   3.845   5.894  10.801
17107SOL    HW252763   3.904   5.762  10.846
17108SOL     OW52764   5.356   6.974   9.412
17108SOL    HW152765   5.314   7.057   9.390
17108SOL    HW252766   5.292   6.908   9.387
17109SOL     OW52767   4.183   7.326   9.624
17109SOL    HW152768   4.233   7.373   9.690
17109SOL    HW252769   4.249   7.284   9.569
17110SOL     OW52770   5.119   5.690   9.750
17110SOL    HW152771   5.107   5.663   9.659
17110SOL    HW252772   5.213   5.677   9.766
17111SOL     OW52773   3.982   7.372  10.531
17111SOL    HW152774   4.032   7.297  10.563
17111SOL    HW252775   3.966   7.354  10.439
17112SOL     OW52776   4.668   7.283  10.201
17112SOL    HW152777   4.753   7.241  10.209
17112SOL    HW252778   4.623   7.234  10.132
17113SOL     OW52779   4.121   6.277   9.785
17113SOL    HW152780   4.140   6.184   9.795
17113SOL    HW252781   4.026   6.284   9.797
17114SOL     OW52782   5.244   5.812  11.032
17114SOL    HW152783   5.251   5.832  11.125
17114SOL    HW252784   5.186   5.736  11.027
17115SOL     OW52785   4.375   5.692   9.410
17115SOL    HW152786   4.426   5.612   9.424
17115SOL    HW252787   4.315   5.670   9.339
17116SOL     OW52788   4.490   5.867  11.072
17116SOL    HW152789   4.571   5.817  11.064
17116SOL    HW252790   4.442   5.822  11.142
17117SOL     OW52791   4.597   7.109  10.508
17117SOL    HW152792   4.582   7.072  10.420
17117SOL    HW252793   4.670   7.059  10.543
17118SOL     OW52794   5.058   6.178  10.743
17118SOL    HW152795   5.090   6.145  10.827
17118SOL    HW252796   5.099   6.264  10.733
17119SOL     OW52797   4.540   6.972  10.259
17119SOL    HW152798   4.626   6.962  10.218
17119SOL    HW252799   4.479   6.982  10.186
17120SOL     OW52800   4.649   6.097  10.204
17120SOL    HW152801   4.627   6.088  10.111
17120SOL    HW252802   4.679   6.010  10.230
17121SOL     OW52803   4.284   5.654   9.808
17121SOL    HW152804   4.200   5.648   9.851
17121SOL    HW252805   4.274   5.725   9.744
17122SOL     OW52806   5.159   6.792   9.348
17122SOL    HW152807   5.187   6.714   9.397
17122SOL    HW252808   5.070   6.809   9.380
17123SOL     OW52809   4.009   5.636   9.500
17123SOL    HW152810   4.060   5.690   9.440
17123SOL    HW252811   4.072   5.572   9.534
17124SOL     OW52812   4.672   5.843   9.764
17124SOL    HW152813   4.647   5.873   9.676
17124SOL    HW252814   4.767   5.855   9.766
17125SOL     OW52815   4.800   6.268  10.762
17125SOL    HW152816   4.740   6.193  10.762
17125SOL    HW252817   4.887   6.229  10.755
17126SOL     OW52818   4.929   7.171  10.113
17126SOL    HW152819   4.946   7.231  10.041
17126SOL    HW252820   5.009   7.173  10.165
17127SOL     OW52821   4.197   6.742  10.031
17127SOL    HW152822   4.131   6.719  10.097
17127SOL    HW252823   4.152   6.730   9.948
17128SOL     OW52824   4.983   7.378   9.928
17128SOL    HW152825   5.031   7.436   9.869
17128SOL    HW252826   4.913   7.432   9.964
17129SOL     OW52827   4.754   6.114   9.339
17129SOL    HW152828   4.711   6.198   9.320
17129SOL    HW252829   4.817   6.135   9.408
17130SOL     OW52830   3.818   6.131  10.705
17130SOL    HW152831   3.909   6.135  10.676
17130SOL    HW252832   3.811   6.201  10.770
17131SOL     OW52833   4.285   5.817  10.479
17131SOL    HW152834   4.325   5.733  10.502
17131SOL    HW252835   4.194   5.808  10.507
17132SOL     OW52836   4.591   6.047   9.942
17132SOL    HW152837   4.551   6.100   9.873
17132SOL    HW252838   4.617   5.966   9.899
17133SOL     OW52839   4.728   5.649  10.060
17133SOL    HW152840   4.673   5.640   9.982
17133SOL    HW252841   4.713   5.569  10.110
17134SOL     OW52842   5.164   6.745  10.162
17134SOL    HW152843   5.094   6.681  10.160
17134SOL    HW252844   5.192   6.753  10.070
17135SOL     OW52845   5.187   6.202  10.274
17135SOL    HW152846   5.131   6.125  10.271
17135SOL    HW252847   5.243   6.188  10.350
17136SOL     OW52848   5.562   6.395   9.701
17136SOL    HW152849   5.623   6.344   9.755
17136SOL    HW252850   5.532   6.334   9.634
17137SOL     OW52851   4.214   7.010   9.458
17137SOL    HW152852   4.139   6.976   9.508
17137SOL    HW252853   4.215   6.956   9.378
17138SOL     OW52854   5.407   6.854   9.949
17138SOL    HW152855   5.502   6.852   9.962
17138SOL    HW252856   5.382   6.944   9.968
17139SOL     OW52857   5.121   6.155   9.384
17139SOL    HW152858   5.055   6.135   9.451
17139SOL    HW252859   5.196   6.101   9.408
17140SOL     OW52860   4.257   5.848   9.617
17140SOL    HW152861   4.300   5.797   9.548
17140SOL    HW252862   4.226   5.927   9.573
17141SOL     OW52863   5.469   6.830  10.864
17141SOL    HW152864   5.556   6.792  10.855
17141SOL    HW252865   5.485   6.919  10.895
17142SOL     OW52866   4.778   6.953  10.655
17142SOL    HW152867   4.701   6.913  10.696
17142SOL    HW252868   4.852   6.901  10.687
17143SOL     OW52869   5.333   7.217  10.973
17143SOL    HW152870   5.323   7.251  10.884
17143SOL    HW252871   5.414   7.165  10.970
17144SOL     OW52872   4.868   6.813  10.412
17144SOL    HW152873   4.792   6.833  10.467
17144SOL    HW252874   4.842   6.840  10.324
17145SOL     OW52875   5.344   6.677  10.382
17145SOL    HW152876   5.334   6.741  10.453
17145SOL    HW252877   5.270   6.695  10.323
17146SOL     OW52878   4.637   5.679  10.696
17146SOL    HW152879   4.658   5.655  10.606
17146SOL    HW252880   4.719   5.714  10.731
17147SOL     OW52881   4.709   6.701  11.029
17147SOL    HW152882   4.616   6.717  11.048
17147SOL    HW252883   4.708   6.622  10.975
17148SOL     OW52884   4.437   6.651   9.681
17148SOL    HW152885   4.422   6.626   9.772
17148SOL    HW252886   4.513   6.600   9.654
17149SOL     OW52887   4.145   6.412  10.567
17149SOL    HW152888   4.216   6.419  10.632
17149SOL    HW252889   4.116   6.322  10.574
17150SOL     OW52890   4.985   5.954  10.599
17150SOL    HW152891   5.017   6.035  10.639
17150SOL    HW252892   4.896   5.975  10.570
17151SOL     OW52893   3.802   7.157  10.668
17151SOL    HW152894   3.770   7.224  10.608
17151SOL    HW252895   3.897   7.158  10.656
17152SOL     OW52896   4.051   6.710   9.798
17152SOL    HW152897   4.055   6.780   9.732
17152SOL    HW252898   4.051   6.629   9.747
17153SOL     OW52899   4.267   6.124  10.177
17153SOL    HW152900   4.278   6.180  10.101
17153SOL    HW252901   4.345   6.139  10.230
17154SOL     OW52902   4.972   6.937   9.704
17154SOL    HW152903   5.028   7.007   9.737
17154SOL    HW252904   4.884   6.960   9.735
17155SOL     OW52905   5.020   7.048  10.455
17155SOL    HW152906   5.071   7.048  10.536
17155SOL    HW252907   4.967   6.968  10.461
17156SOL     OW52908   5.303   6.199   9.803
17156SOL    HW152909   5.243   6.254   9.854
17156SOL    HW252910   5.335   6.257   9.734
17157SOL     OW52911   4.072   7.115  10.615
17157SOL    HW152912   4.061   7.069  10.532
17157SOL    HW252913   4.166   7.129  10.623
17158SOL     OW52914   4.135   6.336  10.915
17158SOL    HW152915   4.202   6.375  10.859
17158SOL    HW252916   4.160   6.244  10.922
17159SOL     OW52917   5.339   6.372  11.001
17159SOL    HW152918   5.252   6.412  10.992
17159SOL    HW252919   5.390   6.411  10.929
17160SOL     OW52920   4.721   5.723  11.066
17160SOL    HW152921   4.780   5.794  11.042
17160SOL    HW252922   4.766   5.643  11.038
17161SOL     OW52923   4.218   5.621  11.070
17161SOL    HW152924   4.173   5.568  11.005
17161SOL    HW252925   4.161   5.696  11.084
17162SOL     OW52926   4.319   6.459  10.348
17162SOL    HW152927   4.350   6.550  10.349
17162SOL    HW252928   4.254   6.456  10.419
17163SOL     OW52929   5.061   6.444  10.331
17163SOL    HW152930   4.979   6.429  10.285
17163SOL    HW252931   5.111   6.364  10.318
17164SOL     OW52932   4.924   6.115   9.571
17164SOL    HW152933   4.931   6.035   9.623
17164SOL    HW252934   4.878   6.176   9.628
17165SOL     OW52935   4.024   5.780  10.555
17165SOL    HW152936   3.988   5.805  10.640
17165SOL    HW252937   4.009   5.686  10.550
17166SOL     OW52938   3.755   6.897  10.586
17166SOL    HW152939   3.797   6.841  10.652
17166SOL    HW252940   3.770   6.986  10.616
17167SOL     OW52941   4.455   6.216  10.369
17167SOL    HW152942   4.524   6.199  10.305
17167SOL    HW252943   4.421   6.302  10.345
17168SOL     OW52944   5.468   6.549  11.173
17168SOL    HW152945   5.428   6.480  11.120
17168SOL    HW252946   5.405   6.565  11.243
17169SOL     OW52947   4.039   5.645   9.934
17169SOL    HW152948   4.013   5.734   9.955
17169SOL    HW252949   4.045   5.601  10.019
17170SOL     OW52950   5.354   5.963   9.668
17170SOL    HW152951   5.384   5.894   9.727
17170SOL    HW252952   5.328   6.035   9.726
17171SOL     OW52953   4.750   6.346  10.265
17171SOL    HW152954   4.740   6.361  10.359
17171SOL    HW252955   4.725   6.254  10.253
17172SOL     OW52956   4.699   7.143  11.034
17172SOL    HW152957   4.683   7.190  10.952
17172SOL    HW252958   4.752   7.067  11.008
17173SOL     OW52959   5.571   7.086  10.915
17173SOL    HW152960   5.595   7.113  10.826
17173SOL    HW252961   5.651   7.096  10.966
17174SOL     OW52962   4.088   6.504  11.131
17174SOL    HW152963   4.179   6.531  11.145
17174SOL    HW252964   4.094   6.438  11.061
17175SOL     OW52965   5.234   5.867   9.436
17175SOL    HW152966   5.179   5.793   9.461
17175SOL    HW252967   5.277   5.894   9.517
17176SOL     OW52968   5.015   6.409   9.342
17176SOL    HW152969   5.054   6.322   9.345
17176SOL    HW252970   5.045   6.445   9.258
17177SOL     OW52971   4.793   6.929  10.172
17177SOL    HW152972   4.798   6.857  10.109
17177SOL    HW252973   4.845   6.999  10.132
17178SOL     OW52974   4.036   6.399  10.257
17178SOL    HW152975   4.129   6.410  10.235
17178SOL    HW252976   4.029   6.309  10.288
17179SOL     OW52977   4.048   6.123  10.328
17179SOL    HW152978   4.011   6.036  10.314
17179SOL    HW252979   4.126   6.125  10.272
17180SOL     OW52980   4.858   5.958  10.997
17180SOL    HW152981   4.812   6.011  11.061
17180SOL    HW252982   4.945   5.999  10.989
17181SOL     OW52983   4.879   5.778  10.785
17181SOL    HW152984   4.870   5.843  10.855
17181SOL    HW252985   4.925   5.825  10.715
17182SOL     OW52986   3.740   6.899   9.500
17182SOL    HW152987   3.651   6.918   9.470
17182SOL    HW252988   3.735   6.811   9.537
17183SOL     OW52989   3.818   7.363  10.259
17183SOL    HW152990   3.785   7.287  10.211
17183SOL    HW252991   3.905   7.379  10.223
17184SOL     OW52992   4.214   7.163  10.217
17184SOL    HW152993   4.285   7.224  10.239
17184SOL    HW252994   4.255   7.100  10.157
17185SOL     OW52995   4.686   6.376  10.532
17185SOL    HW152996   4.742   6.352  10.606
17185SOL    HW252997   4.609   6.320  10.542
17186SOL     OW52998   3.758   6.143  10.427
17186SOL    HW152999   3.830   6.126  10.367
17186SOL    HW253000   3.797   6.135  10.514
17187SOL     OW53001   3.922   6.109  11.045
17187SOL    HW153002   3.963   6.054  10.978
17187SOL    HW253003   3.886   6.183  10.996
17188SOL     OW53004   5.105   6.517  10.967
17188SOL    HW153005   5.128   6.610  10.961
17188SOL    HW253006   5.101   6.487  10.876
17189SOL     OW53007   4.543   6.158   9.680
17189SOL    HW153008   4.552   6.083   9.622
17189SOL    HW253009   4.467   6.206   9.646
17190SOL     OW53010   5.361   6.188  10.490
17190SOL    HW153011   5.351   6.123  10.560
17190SOL    HW253012   5.449   6.173  10.455
17191SOL     OW53013   3.957   7.132  11.035
17191SOL    HW153014   3.934   7.194  11.104
17191SOL    HW253015   3.960   7.047  11.079
17192SOL     OW53016   4.443   6.027  10.563
17192SOL    HW153017   4.387   5.954  10.537
17192SOL    HW253018   4.435   6.091  10.492
17193SOL     OW53019   4.625   7.264  10.795
17193SOL    HW153020   4.616   7.218  10.712
17193SOL    HW253021   4.628   7.356  10.771
17194SOL     OW53022   4.179   6.079   9.496
17194SOL    HW153023   4.242   6.149   9.517
17194SOL    HW253024   4.097   6.125   9.481
17195SOL     OW53025   3.861   6.731  10.786
17195SOL    HW153026   3.867   6.687  10.871
17195SOL    HW253027   3.877   6.663  10.722
17196SOL     OW53028   5.038   6.629  10.528
17196SOL    HW153029   5.056   6.563  10.461
17196SOL    HW253030   4.979   6.692  10.486
17197SOL     OW53031   5.041   6.442   9.615
17197SOL    HW153032   4.967   6.404   9.663
17197SOL    HW253033   5.020   6.427   9.523
17198SOL     OW53034   5.516   7.316  10.479
17198SOL    HW153035   5.572   7.341  10.405
17198SOL    HW253036   5.478   7.232  10.453
17199SOL     OW53037   4.966   7.319  10.423
17199SOL    HW153038   5.048   7.346  10.380
17199SOL    HW253039   4.976   7.225  10.438
17200SOL     OW53040   3.804   6.857  10.316
17200SOL    HW153041   3.779   6.866  10.407
17200SOL    HW253042   3.742   6.793  10.280
17201SOL     OW53043   4.409   7.258  11.052
17201SOL    HW153044   4.348   7.330  11.035
17201SOL    HW253045   4.481   7.272  10.991
17202SOL     OW53046   5.463   5.751   9.816
17202SOL    HW153047   5.526   5.732   9.746
17202SOL    HW253048   5.439   5.665   9.850
17203SOL     OW53049   5.122   7.154   9.809
17203SOL    HW153050   5.175   7.188   9.737
17203SOL    HW253051   5.066   7.228   9.834
17204SOL     OW53052   3.859   7.386  11.153
17204SOL    HW153053   3.814   7.316  11.199
17204SOL    HW253054   3.909   7.431  11.221
17205SOL     OW53055   5.001   6.524   9.989
17205SOL    HW153056   5.073   6.462  10.000
17205SOL    HW253057   5.035   6.590   9.929
17206SOL     OW53058   4.524   6.865  10.726
17206SOL    HW153059   4.493   6.906  10.807
17206SOL    HW253060   4.454   6.881  10.663
17207SOL     OW53061   4.390   7.215   9.465
17207SOL    HW153062   4.406   7.230   9.372
17207SOL    HW253063   4.335   7.137   9.468
17208SOL     OW53064   5.339   7.313  10.706
17208SOL    HW153065   5.397   7.316  10.629
17208SOL    HW253066   5.323   7.406  10.726
17209SOL     OW53067   5.570   5.752  10.278
17209SOL    HW153068   5.598   5.663  10.255
17209SOL    HW253069   5.484   5.762  10.238
17210SOL     OW53070   3.981   5.896  10.026
17210SOL    HW153071   3.895   5.928   9.999
17210SOL    HW253072   3.978   5.895  10.121
17211SOL     OW53073   4.932   7.181   9.346
17211SOL    HW153074   4.921   7.090   9.371
17211SOL    HW253075   4.867   7.195   9.277
17212SOL     OW53076   4.545   6.591  10.690
17212SOL    HW153077   4.587   6.571  10.606
17212SOL    HW253078   4.544   6.686  10.694
17213SOL     OW53079   4.650   6.508   9.606
17213SOL    HW153080   4.710   6.538   9.537
17213SOL    HW253081   4.696   6.433   9.646
17214SOL     OW53082   5.208   7.229   9.359
17214SOL    HW153083   5.117   7.208   9.342
17214SOL    HW253084   5.249   7.230   9.273
17215SOL     OW53085   4.086   6.899  10.811
17215SOL    HW153086   4.083   6.969  10.746
17215SOL    HW253087   4.013   6.842  10.788
17216SOL     OW53088   5.328   6.870  10.587
17216SOL    HW153089   5.387   6.850  10.659
17216SOL    HW253090   5.268   6.936  10.623
17217SOL     OW53091   4.788   6.702  10.030
17217SOL    HW153092   4.714   6.650  10.060
17217SOL    HW253093   4.853   6.637  10.002
17218SOL     OW53094   4.748   5.830  10.278
17218SOL    HW153095   4.741   5.787  10.193
17218SOL    HW253096   4.743   5.758  10.341
17219SOL     OW53097   4.333   7.076   9.794
17219SOL    HW153098   4.387   7.024   9.734
17219SOL    HW253099   4.253   7.092   9.746
17220SOL     OW53100   5.458   5.975  10.693
17220SOL    HW153101   5.530   6.038  10.689
17220SOL    HW253102   5.486   5.904  10.635
17221SOL     OW53103   3.998   6.924   9.611
17221SOL    HW153104   3.909   6.920   9.576
17221SOL    HW253105   3.989   6.969   9.695
17222SOL     OW53106   3.849   6.636  11.052
17222SOL    HW153107   3.768   6.604  11.091
17222SOL    HW253108   3.917   6.577  11.084
17223SOL     OW53109   4.399   5.785  10.813
17223SOL    HW153110   4.480   5.760  10.767
17223SOL    HW253111   4.429   5.817  10.898
17224SOL     OW53112   3.793   5.919   9.355
17224SOL    HW153113   3.728   5.873   9.302
17224SOL    HW253114   3.822   5.992   9.300
17225SOL     OW53115   5.147   6.445  10.707
17225SOL    HW153116   5.095   6.503  10.652
17225SOL    HW253117   5.234   6.445  10.668
17226SOL     OW53118   3.783   5.747   9.600
17226SOL    HW153119   3.770   5.814   9.533
17226SOL    HW253120   3.868   5.708   9.580
17227SOL     OW53121   4.903   6.915   9.429
17227SOL    HW153122   4.817   6.873   9.429
17227SOL    HW253123   4.929   6.915   9.521
17228SOL     OW53124   4.343   6.419  10.753
17228SOL    HW153125   4.403   6.491  10.735
17228SOL    HW253126   4.399   6.341  10.756
17229SOL     OW53127   5.206   7.381  10.301
17229SOL    HW153128   5.228   7.443  10.232
17229SOL    HW253129   5.287   7.333  10.317
17230SOL     OW53130   4.442   6.140  11.017
17230SOL    HW153131   4.494   6.194  11.077
17230SOL    HW253132   4.460   6.050  11.044
17231SOL     OW53133   5.199   6.777  10.936
17231SOL    HW153134   5.191   6.793  11.030
17231SOL    HW253135   5.290   6.797  10.916
17232SOL     OW53136   4.090   7.329  10.881
17232SOL    HW153137   4.009   7.375  10.861
17232SOL    HW253138   4.062   7.244  10.916
17233SOL     OW53139   5.384   6.462  10.566
17233SOL    HW153140   5.381   6.375  10.525
17233SOL    HW253141   5.375   6.523  10.493
17234SOL     OW53142   4.945   5.909   9.766
17234SOL    HW153143   5.003   5.833   9.758
17234SOL    HW253144   4.979   5.957   9.842
17235SOL     OW53145   4.297   6.327   9.993
17235SOL    HW153146   4.345   6.407   9.969
17235SOL    HW253147   4.240   6.310   9.919
17236SOL     OW53148   5.474   5.951  10.968
17236SOL    HW153149   5.467   5.966  10.874
17236SOL    HW253150   5.401   5.894  10.990
17237SOL     OW53151   5.482   6.516  10.817
17237SOL    HW153152   5.463   6.610  10.828
17237SOL    HW253153   5.459   6.498  10.726
17238SOL     OW53154   4.584   6.954   9.356
17238SOL    HW153155   4.550   6.987   9.439
17238SOL    HW253156   4.606   7.032   9.306
17239SOL     OW53157   4.390   7.370  10.248
17239SOL    HW153158   4.374   7.461  10.225
17239SOL    HW253159   4.485   7.359  10.238
17240SOL     OW53160   4.592   6.560  10.164
17240SOL    HW153161   4.641   6.484  10.196
17240SOL    HW253162   4.552   6.597  10.243
17241SOL     OW53163   4.811   6.586   9.401
17241SOL    HW153164   4.783   6.626   9.319
17241SOL    HW253165   4.879   6.524   9.375
17242SOL     OW53166   5.569   7.140  10.149
17242SOL    HW153167   5.488   7.127  10.099
17242SOL    HW253168   5.576   7.061  10.204
17243SOL     OW53169   3.929   6.876  11.161
17243SOL    HW153170   3.899   6.800  11.112
17243SOL    HW253171   3.861   6.892  11.226
17244SOL     OW53172   3.820   6.818   9.973
17244SOL    HW153173   3.837   6.767  10.052
17244SOL    HW253174   3.880   6.781   9.908
17245SOL     OW53175   4.407   6.991  10.943
17245SOL    HW153176   4.321   6.964  10.972
17245SOL    HW253177   4.416   7.081  10.974
17246SOL     OW53178   5.539   5.763  10.548
17246SOL    HW153179   5.534   5.669  10.562
17246SOL    HW253180   5.550   5.774  10.454
17247SOL     OW53181   4.157   6.016   9.835
17247SOL    HW153182   4.189   5.951   9.773
17247SOL    HW253183   4.105   5.966   9.898
17248SOL     OW53184   5.407   7.078  10.408
17248SOL    HW153185   5.336   7.056  10.348
17248SOL    HW253186   5.411   7.004  10.469
17249SOL     OW53187   4.068   6.151  10.605
17249SOL    HW153188   4.121   6.089  10.655
17249SOL    HW253189   4.079   6.123  10.514
17250SOL     OW53190   4.556   7.176   9.977
17250SOL    HW153191   4.543   7.253   9.922
17250SOL    HW253192   4.479   7.121   9.960
17251SOL     OW53193   5.148   5.814  10.420
17251SOL    HW153194   5.153   5.720  10.440
17251SOL    HW253195   5.100   5.852  10.493
17252SOL     OW53196   4.730   5.599  10.441
17252SOL    HW153197   4.679   5.535  10.390
17252SOL    HW253198   4.817   5.560  10.448
17253SOL     OW53199   4.499   6.921   9.641
17253SOL    HW153200   4.471   6.829   9.642
17253SOL    HW253201   4.585   6.921   9.682
17254SOL     OW53202   4.344   7.145  10.599
17254SOL    HW153203   4.343   7.229  10.645
17254SOL    HW253204   4.432   7.138  10.563
17255SOL     OW53205   5.086   5.630   9.483
17255SOL    HW153206   5.124   5.560   9.430
17255SOL    HW253207   4.996   5.602   9.498
17256SOL     OW53208   5.029   6.056   9.988
17256SOL    HW153209   4.973   6.133   9.987
17256SOL    HW253210   5.018   6.019  10.076
17257SOL     OW53211   5.315   5.783  10.196
17257SOL    HW153212   5.256   5.806  10.267
17257SOL    HW253213   5.312   5.858  10.137
17258SOL     OW53214   3.767   6.649   9.623
17258SOL    HW153215   3.859   6.638   9.598
17258SOL    HW253216   3.738   6.561   9.644
17259SOL     OW53217   4.616   7.248   9.639
17259SOL    HW153218   4.539   7.231   9.584
17259SOL    HW253219   4.585   7.313   9.702
17260SOL     OW53220   3.945   6.220  11.303
17260SOL    HW153221   3.857   6.202  11.335
17260SOL    HW253222   3.943   6.194  11.211
17261SOL     OW53223   3.941   5.881  12.173
17261SOL    HW153224   3.976   5.838  12.252
17261SOL    HW253225   3.858   5.837  12.158
17262SOL     OW53226   3.723   5.973  11.810
17262SOL    HW153227   3.640   5.996  11.853
17262SOL    HW253228   3.702   5.897  11.756
17263SOL     OW53229   4.284   6.843  12.360
17263SOL    HW153230   4.224   6.906  12.320
17263SOL    HW253231   4.347   6.898  12.407
17264SOL     OW53232   5.304   7.103  11.883
17264SOL    HW153233   5.262   7.076  11.964
17264SOL    HW253234   5.234   7.104  11.818
17265SOL     OW53235   4.854   6.288  11.863
17265SOL    HW153236   4.903   6.370  11.853
17265SOL    HW253237   4.809   6.298  11.947
17266SOL     OW53238   5.500   6.181  11.400
17266SOL    HW153239   5.474   6.178  11.308
17266SOL    HW253240   5.463   6.101  11.438
17267SOL     OW53241   4.461   6.704  12.210
17267SOL    HW153242   4.394   6.739  12.269
17267SOL    HW253243   4.498   6.782  12.168
17268SOL     OW53244   4.414   6.586  11.834
17268SOL    HW153245   4.489   6.560  11.887
17268SOL    HW253246   4.380   6.664  11.877
17269SOL     OW53247   4.082   7.006  12.244
17269SOL    HW153248   4.004   6.970  12.202
17269SOL    HW253249   4.122   7.061  12.177
17270SOL     OW53250   5.328   6.025  11.919
17270SOL    HW153251   5.266   6.044  11.848
17270SOL    HW253252   5.317   6.096  11.981
17271SOL     OW53253   3.949   7.301  11.638
17271SOL    HW153254   3.968   7.375  11.694
17271SOL    HW253255   4.024   7.296  11.578
17272SOL     OW53256   3.943   7.029  11.702
17272SOL    HW153257   3.941   7.124  11.691
17272SOL    HW253258   3.886   7.012  11.777
17273SOL     OW53259   3.982   6.679  12.051
17273SOL    HW153260   3.993   6.594  12.093
17273SOL    HW253261   3.934   6.731  12.115
17274SOL     OW53262   4.319   6.591  11.307
17274SOL    HW153263   4.361   6.637  11.235
17274SOL    HW253264   4.390   6.565  11.365
17275SOL     OW53265   3.846   6.242  11.736
17275SOL    HW153266   3.816   6.153  11.754
17275SOL    HW253267   3.837   6.288  11.820
17276SOL     OW53268   5.566   7.336  11.498
17276SOL    HW153269   5.637   7.313  11.558
17276SOL    HW253270   5.581   7.427  11.476
17277SOL     OW53271   3.777   7.172  11.296
17277SOL    HW153272   3.754   7.081  11.315
17277SOL    HW253273   3.746   7.222  11.371
17278SOL     OW53274   5.416   6.506  11.822
17278SOL    HW153275   5.498   6.461  11.803
17278SOL    HW253276   5.396   6.555  11.742
17279SOL     OW53277   5.376   6.687  11.603
17279SOL    HW153278   5.463   6.684  11.561
17279SOL    HW253279   5.385   6.751  11.673
17280SOL     OW53280   3.893   6.323   0.248
17280SOL    HW153281   3.931   6.262   0.311
17280SOL    HW253282   3.928   6.408   0.273
17281SOL     OW53283   4.323   6.981  11.894
17281SOL    HW153284   4.275   6.898  11.901
17281SOL    HW253285   4.309   7.009  11.803
17282SOL     OW53286   4.549   5.597  11.693
17282SOL    HW153287   4.589   5.678  11.664
17282SOL    HW253288   4.455   5.615  11.693
17283SOL     OW53289   3.889   6.517  12.459
17283SOL    HW153290   3.983   6.500  12.449
17283SOL    HW253291   3.851   6.488  12.376
17284SOL     OW53292   5.254   6.591  11.373
17284SOL    HW153293   5.185   6.533  11.406
17284SOL    HW253294   5.299   6.621  11.452
17285SOL     OW53295   5.190   6.998  12.110
17285SOL    HW153296   5.126   7.010  12.180
17285SOL    HW253297   5.179   6.907  12.083
17286SOL     OW53298   5.374   7.347  11.747
17286SOL    HW153299   5.353   7.310  11.661
17286SOL    HW253300   5.363   7.274  11.808
17287SOL     OW53301   4.317   6.297  11.445
17287SOL    HW153302   4.303   6.370  11.385
17287SOL    HW253303   4.248   6.307  11.511
17288SOL     OW53304   5.006   5.961  12.108
17288SOL    HW153305   4.918   5.924  12.109
17288SOL    HW253306   5.057   5.904  12.165
17289SOL     OW53307   5.301   7.259  11.485
17289SOL    HW153308   5.394   7.281  11.478
17289SOL    HW253309   5.272   7.243  11.395
17290SOL     OW53310   4.706   5.938  12.387
17290SOL    HW153311   4.679   6.007  12.448
17290SOL    HW253312   4.636   5.935  12.322
17291SOL     OW53313   4.774   6.293  11.594
17291SOL    HW153314   4.796   6.284  11.687
17291SOL    HW253315   4.693   6.242  11.584
17292SOL     OW53316   3.817   6.408  11.955
17292SOL    HW153317   3.897   6.403  12.006
17292SOL    HW253318   3.771   6.485  11.989
17293SOL     OW53319   4.621   5.941  11.372
17293SOL    HW153320   4.667   5.999  11.311
17293SOL    HW253321   4.610   5.859  11.322
17294SOL     OW53322   5.109   6.728  11.709
17294SOL    HW153323   5.189   6.715  11.659
17294SOL    HW253324   5.058   6.790  11.657
17295SOL     OW53325   4.275   5.767  12.063
17295SOL    HW153326   4.280   5.818  12.144
17295SOL    HW253327   4.274   5.832  11.993
17296SOL     OW53328   4.719   7.030  11.638
17296SOL    HW153329   4.695   7.109  11.591
17296SOL    HW253330   4.705   7.052  11.730
17297SOL     OW53331   4.080   7.405  12.041
17297SOL    HW153332   4.128   7.323  12.051
17297SOL    HW253333   4.146   7.473  12.058
17298SOL     OW53334   5.523   6.642  12.052
17298SOL    HW153335   5.472   6.619  11.974
17298SOL    HW253336   5.458   6.647  12.122
17299SOL     OW53337   4.035   6.546  11.403
17299SOL    HW153338   4.053   6.532  11.310
17299SOL    HW253339   4.006   6.461  11.436
17300SOL     OW53340   5.204   6.343  11.886
17300SOL    HW153341   5.204   6.299  11.972
17300SOL    HW253342   5.283   6.396  11.887
17301SOL     OW53343   4.850   7.366  11.393
17301SOL    HW153344   4.775   7.327  11.437
17301SOL    HW253345   4.876   7.301  11.328
17302SOL     OW53346   5.356   6.972  11.271
17302SOL    HW153347   5.315   7.057  11.252
17302SOL    HW253348   5.291   6.907  11.245
17303SOL     OW53349   4.191   7.314  11.488
17303SOL    HW153350   4.233   7.372  11.551
17303SOL    HW253351   4.261   7.287  11.429
17304SOL     OW53352   5.121   5.692  11.616
17304SOL    HW153353   5.113   5.665  11.524
17304SOL    HW253354   5.215   5.690  11.633
17305SOL     OW53355   3.942   7.373  12.396
17305SOL    HW153356   3.986   7.299  12.437
17305SOL    HW253357   3.926   7.345  12.306
17306SOL     OW53358   4.664   7.282  12.070
17306SOL    HW153359   4.746   7.234  12.084
17306SOL    HW253360   4.620   7.234  12.000
17307SOL     OW53361   4.115   6.284  11.640
17307SOL    HW153362   4.138   6.192  11.652
17307SOL    HW253363   4.022   6.289  11.664
17308SOL     OW53364   4.378   5.697  11.274
17308SOL    HW153365   4.436   5.622  11.290
17308SOL    HW253366   4.320   5.669  11.204
17309SOL     OW53367   4.522   6.942  12.096
17309SOL    HW153368   4.614   6.953  12.072
17309SOL    HW253369   4.473   6.970  12.019
17310SOL     OW53370   4.651   6.092  12.068
17310SOL    HW153371   4.625   6.084  11.976
17310SOL    HW253372   4.689   6.007  12.090
17311SOL     OW53373   4.282   5.652  11.668
17311SOL    HW153374   4.199   5.649  11.715
17311SOL    HW253375   4.273   5.725  11.607
17312SOL     OW53376   5.157   6.791  11.209
17312SOL    HW153377   5.187   6.716  11.260
17312SOL    HW253378   5.072   6.813  11.246
17313SOL     OW53379   4.009   5.634  11.359
17313SOL    HW153380   4.060   5.694  11.304
17313SOL    HW253381   4.073   5.575  11.397
17314SOL     OW53382   4.671   5.838  11.626
17314SOL    HW153383   4.647   5.872  11.540
17314SOL    HW253384   4.765   5.851  11.632
17315SOL     OW53385   4.939   7.166  11.970
17315SOL    HW153386   4.955   7.231  11.902
17315SOL    HW253387   5.020   7.165  12.021
17316SOL     OW53388   4.183   6.738  11.883
17316SOL    HW153389   4.111   6.734  11.947
17316SOL    HW253390   4.196   6.647  11.857
17317SOL     OW53391   4.984   7.377  11.787
17317SOL    HW153392   5.034   7.436  11.731
17317SOL    HW253393   4.922   7.435  11.832
17318SOL     OW53394   4.751   6.116  11.202
17318SOL    HW153395   4.710   6.200  11.181
17318SOL    HW253396   4.818   6.137  11.268
17319SOL     OW53397   4.289   5.798  12.350
17319SOL    HW153398   4.310   5.709  12.321
17319SOL    HW253399   4.196   5.796  12.370
17320SOL     OW53400   4.587   6.043  11.805
17320SOL    HW153401   4.552   6.096  11.733
17320SOL    HW253402   4.616   5.962  11.762
17321SOL     OW53403   4.737   5.634  11.913
17321SOL    HW153404   4.679   5.627  11.837
17321SOL    HW253405   4.717   5.556  11.965
17322SOL     OW53406   5.162   6.738  12.025
17322SOL    HW153407   5.094   6.671  12.030
17322SOL    HW253408   5.183   6.744  11.932
17323SOL     OW53409   5.186   6.192  12.125
17323SOL    HW153410   5.129   6.116  12.132
17323SOL    HW253411   5.246   6.184  12.199
17324SOL     OW53412   5.561   6.393  11.559
17324SOL    HW153413   5.621   6.346  11.616
17324SOL    HW253414   5.537   6.330  11.491
17325SOL     OW53415   4.222   6.979  11.320
17325SOL    HW153416   4.132   6.975  11.354
17325SOL    HW253417   4.214   6.953  11.229
17326SOL     OW53418   5.409   6.852  11.810
17326SOL    HW153419   5.503   6.848  11.827
17326SOL    HW253420   5.384   6.941  11.834
17327SOL     OW53421   5.117   6.161  11.243
17327SOL    HW153422   5.058   6.136  11.313
17327SOL    HW253423   5.202   6.124  11.268
17328SOL     OW53424   4.254   5.847  11.480
17328SOL    HW153425   4.303   5.800  11.413
17328SOL    HW253426   4.221   5.926  11.436
17329SOL     OW53427   4.833   6.755  12.244
17329SOL    HW153428   4.816   6.801  12.326
17329SOL    HW253429   4.813   6.819  12.176
17330SOL     OW53430   5.329   6.681  12.248
17330SOL    HW153431   5.291   6.711  12.330
17330SOL    HW253432   5.262   6.700  12.182
17331SOL     OW53433   4.409   6.645  11.569
17331SOL    HW153434   4.409   6.626  11.662
17331SOL    HW253435   4.487   6.601  11.535
17332SOL     OW53436   4.153   6.427  12.458
17332SOL    HW153437   4.219   6.453  12.522
17332SOL    HW253438   4.147   6.332  12.468
17333SOL     OW53439   4.974   5.945  12.433
17333SOL    HW153440   5.002   6.031  12.465
17333SOL    HW253441   4.882   5.957  12.410
17334SOL     OW53442   4.261   6.111  12.034
17334SOL    HW153443   4.275   6.170  11.961
17334SOL    HW253444   4.327   6.136  12.099
17335SOL     OW53445   4.971   6.937  11.562
17335SOL    HW153446   5.027   7.006  11.596
17335SOL    HW253447   4.884   6.957  11.597
17336SOL     OW53448   5.024   7.036  12.319
17336SOL    HW153449   5.089   7.058  12.386
17336SOL    HW253450   4.960   6.982  12.365
17337SOL     OW53451   5.298   6.198  11.662
17337SOL    HW153452   5.249   6.249  11.726
17337SOL    HW253453   5.344   6.264  11.609
17338SOL     OW53454   4.081   7.153  12.475
17338SOL    HW153455   4.091   7.097  12.398
17338SOL    HW253456   4.171   7.166  12.506
17339SOL     OW53457   4.297   6.472  12.208
17339SOL    HW153458   4.351   6.551  12.205
17339SOL    HW253459   4.257   6.474  12.296
17340SOL     OW53460   5.059   6.437  12.159
17340SOL    HW153461   4.970   6.415  12.131
17340SOL    HW253462   5.106   6.354  12.153
17341SOL     OW53463   4.921   6.115  11.434
17341SOL    HW153464   4.930   6.036  11.487
17341SOL    HW253465   4.879   6.178  11.492
17342SOL     OW53466   4.025   5.766  12.413
17342SOL    HW153467   4.014   5.783  12.507
17342SOL    HW253468   4.003   5.673  12.403
17343SOL     OW53469   3.783   6.899  12.437
17343SOL    HW153470   3.821   6.825  12.485
17343SOL    HW253471   3.788   6.972  12.499
17344SOL     OW53472   4.439   6.213  12.214
17344SOL    HW153473   4.518   6.194  12.164
17344SOL    HW253474   4.420   6.305  12.195
17345SOL     OW53475   4.037   5.648  11.794
17345SOL    HW153476   4.011   5.738  11.816
17345SOL    HW253477   4.045   5.605  11.879
17346SOL     OW53478   5.350   5.965  11.528
17346SOL    HW153479   5.381   5.899  11.589
17346SOL    HW253480   5.324   6.039  11.583
17347SOL     OW53481   4.756   6.337  12.137
17347SOL    HW153482   4.750   6.349  12.232
17347SOL    HW253483   4.728   6.246  12.123
17348SOL     OW53484   5.238   5.863  11.296
17348SOL    HW153485   5.183   5.790  11.325
17348SOL    HW253486   5.279   5.895  11.377
17349SOL     OW53487   5.005   6.410  11.200
17349SOL    HW153488   5.048   6.325  11.205
17349SOL    HW253489   5.039   6.449  11.119
17350SOL     OW53490   4.783   6.936  12.022
17350SOL    HW153491   4.796   6.862  11.963
17350SOL    HW253492   4.846   7.002  11.993
17351SOL     OW53493   4.034   6.411  12.127
17351SOL    HW153494   4.128   6.429  12.137
17351SOL    HW253495   4.026   6.317  12.143
17352SOL     OW53496   4.024   6.136  12.157
17352SOL    HW153497   3.997   6.044  12.164
17352SOL    HW253498   4.108   6.133  12.113
17353SOL     OW53499   4.897   5.803   0.155
17353SOL    HW153500   4.883   5.872   0.221
17353SOL    HW253501   4.923   5.851   0.076
17354SOL     OW53502   3.742   6.896  11.359
17354SOL    HW153503   3.653   6.918  11.330
17354SOL    HW253504   3.732   6.810  11.401
17355SOL     OW53505   3.818   7.365  12.115
17355SOL    HW153506   3.789   7.288  12.067
17355SOL    HW253507   3.906   7.382  12.082
17356SOL     OW53508   4.223   7.169  12.074
17356SOL    HW153509   4.293   7.228  12.100
17356SOL    HW253510   4.264   7.106  12.015
17357SOL     OW53511   4.706   6.375  12.414
17357SOL    HW153512   4.754   6.446  12.457
17357SOL    HW253513   4.614   6.392  12.436
17358SOL     OW53514   3.797   6.155  12.314
17358SOL    HW153515   3.867   6.162  12.249
17358SOL    HW253516   3.783   6.061  12.325
17359SOL     OW53517   4.542   6.155  11.543
17359SOL    HW153518   4.554   6.080  11.484
17359SOL    HW253519   4.466   6.201  11.507
17360SOL     OW53520   5.372   6.185  12.325
17360SOL    HW153521   5.372   6.135  12.406
17360SOL    HW253522   5.463   6.183  12.295
17361SOL     OW53523   4.434   6.033  12.423
17361SOL    HW153524   4.375   5.963  12.396
17361SOL    HW253525   4.425   6.100  12.355
17362SOL     OW53526   4.585   7.256   0.107
17362SOL    HW153527   4.630   7.192   0.051
17362SOL    HW253528   4.628   7.339   0.088
17363SOL     OW53529   4.175   6.073  11.352
17363SOL    HW153530   4.240   6.140  11.373
17363SOL    HW253531   4.093   6.122  11.343
17364SOL     OW53532   5.035   6.604  12.367
17364SOL    HW153533   5.055   6.548  12.292
17364SOL    HW253534   4.968   6.664  12.334
17365SOL     OW53535   5.037   6.447  11.473
17365SOL    HW153536   4.966   6.408  11.523
17365SOL    HW253537   5.016   6.428  11.382
17366SOL     OW53538   5.479   7.334  12.303
17366SOL    HW153539   5.549   7.350  12.239
17366SOL    HW253540   5.464   7.240  12.297
17367SOL     OW53541   4.972   7.304  12.285
17367SOL    HW153542   5.048   7.343  12.243
17367SOL    HW253543   4.987   7.209  12.279
17368SOL     OW53544   3.811   6.863  12.172
17368SOL    HW153545   3.798   6.881  12.266
17368SOL    HW253546   3.742   6.800  12.151
17369SOL     OW53547   5.456   5.751  11.676
17369SOL    HW153548   5.521   5.733  11.608
17369SOL    HW253549   5.435   5.665  11.713
17370SOL     OW53550   5.117   7.153  11.667
17370SOL    HW153551   5.175   7.186  11.599
17370SOL    HW253552   5.068   7.230  11.696
17371SOL     OW53553   5.000   6.519  11.842
17371SOL    HW153554   5.072   6.459  11.855
17371SOL    HW253555   5.036   6.588  11.786
17372SOL     OW53556   4.390   7.203  11.326
17372SOL    HW153557   4.404   7.222  11.233
17372SOL    HW253558   4.341   7.121  11.326
17373SOL     OW53559   5.345   7.377   0.037
17373SOL    HW153560   5.395   7.361  -0.043
17373SOL    HW253561   5.388   7.452   0.078
17374SOL     OW53562   5.568   5.756  12.143
17374SOL    HW153563   5.598   5.669  12.118
17374SOL    HW253564   5.482   5.765  12.102
17375SOL     OW53565   3.981   5.899  11.886
17375SOL    HW153566   3.894   5.932  11.862
17375SOL    HW253567   3.981   5.900  11.982
17376SOL     OW53568   4.932   7.183  11.206
17376SOL    HW153569   4.922   7.091  11.229
17376SOL    HW253570   4.870   7.198  11.135
17377SOL     OW53571   4.526   6.612  12.485
17377SOL    HW153572   4.541   6.654  12.401
17377SOL    HW253573   4.601   6.638  12.539
17378SOL     OW53574   4.623   6.515  11.470
17378SOL    HW153575   4.681   6.539  11.398
17378SOL    HW253576   4.670   6.445  11.516
17379SOL     OW53577   5.210   7.224  11.221
17379SOL    HW153578   5.118   7.208  11.203
17379SOL    HW253579   5.251   7.227  11.134
17380SOL     OW53580   4.787   6.701  11.882
17380SOL    HW153581   4.722   6.647  11.926
17380SOL    HW253582   4.858   6.639  11.860
17381SOL     OW53583   4.755   5.830  12.111
17381SOL    HW153584   4.750   5.770  12.037
17381SOL    HW253585   4.750   5.774  12.189
17382SOL     OW53586   4.313   7.070  11.641
17382SOL    HW153587   4.374   7.022  11.583
17382SOL    HW253588   4.259   7.121  11.581
17383SOL     OW53589   5.490   6.020   0.030
17383SOL    HW153590   5.576   6.016   0.070
17383SOL    HW253591   5.472   5.931   0.001
17384SOL     OW53592   4.012   6.879  11.487
17384SOL    HW153593   3.928   6.883  11.442
17384SOL    HW253594   4.000   6.931  11.566
17385SOL     OW53595   3.800   5.919  11.205
17385SOL    HW153596   3.725   5.892  11.153
17385SOL    HW253597   3.835   5.995  11.159
17386SOL     OW53598   3.780   5.741  11.463
17386SOL    HW153599   3.767   5.813  11.401
17386SOL    HW253600   3.866   5.705  11.441
17387SOL     OW53601   4.907   6.913  11.291
17387SOL    HW153602   4.817   6.882  11.294
17387SOL    HW253603   4.933   6.918  11.383
17388SOL     OW53604   5.210   7.377  12.159
17388SOL    HW153605   5.232   7.449  12.100
17388SOL    HW253606   5.294   7.354  12.200
17389SOL     OW53607   5.412   6.456  12.402
17389SOL    HW153608   5.384   6.372  12.365
17389SOL    HW253609   5.383   6.521  12.339
17390SOL     OW53610   4.941   5.906  11.627
17390SOL    HW153611   5.002   5.833  11.621
17390SOL    HW253612   4.971   5.956  11.703
17391SOL     OW53613   4.296   6.321  11.856
17391SOL    HW153614   4.345   6.402  11.839
17391SOL    HW253615   4.241   6.311  11.778
17392SOL     OW53616   5.546   6.473   0.133
17392SOL    HW153617   5.518   6.555   0.174
17392SOL    HW253618   5.491   6.465   0.055
17393SOL     OW53619   4.587   6.960  11.216
17393SOL    HW153620   4.558   7.006  11.295
17393SOL    HW253621   4.615   7.029  11.156
17394SOL     OW53622   4.391   7.382  12.120
17394SOL    HW153623   4.378   7.470  12.083
17394SOL    HW253624   4.485   7.366  12.111
17395SOL     OW53625   4.606   6.546  12.025
17395SOL    HW153626   4.659   6.478  12.065
17395SOL    HW253627   4.569   6.594  12.099
17396SOL     OW53628   4.780   6.559  11.254
17396SOL    HW153629   4.771   6.618  11.179
17396SOL    HW253630   4.861   6.511  11.236
17397SOL     OW53631   5.573   7.137  12.012
17397SOL    HW153632   5.488   7.126  11.969
17397SOL    HW253633   5.579   7.063  12.073
17398SOL     OW53634   3.796   6.826  11.856
17398SOL    HW153635   3.810   6.777  11.937
17398SOL    HW253636   3.870   6.801  11.800
17399SOL     OW53637   5.531   5.760  12.416
17399SOL    HW153638   5.545   5.665  12.417
17399SOL    HW253639   5.540   5.785  12.324
17400SOL     OW53640   4.153   6.023  11.693
17400SOL    HW153641   4.188   5.954  11.636
17400SOL    HW253642   4.104   5.976  11.760
17401SOL     OW53643   5.425   7.072  12.278
17401SOL    HW153644   5.350   7.032  12.235
17401SOL    HW253645   5.454   7.008  12.342
17402SOL     OW53646   4.547   7.178  11.845
17402SOL    HW153647   4.534   7.253  11.786
17402SOL    HW253648   4.471   7.123  11.831
17403SOL     OW53649   5.164   5.822  12.288
17403SOL    HW153650   5.223   5.774  12.346
17403SOL    HW253651   5.100   5.862  12.348
17404SOL     OW53652   4.722   5.557  12.310
17404SOL    HW153653   4.690   5.513  12.231
17404SOL    HW253654   4.815   5.536  12.313
17405SOL     OW53655   4.499   6.918  11.510
17405SOL    HW153656   4.497   6.823  11.515
17405SOL    HW253657   4.582   6.942  11.551
17406SOL     OW53658   5.089   5.630  11.349
17406SOL    HW153659   5.127   5.559  11.298
17406SOL    HW253660   4.998   5.603  11.363
17407SOL     OW53661   5.017   6.052  11.847
17407SOL    HW153662   4.966   6.133  11.851
17407SOL    HW253663   5.015   6.018  11.936
17408SOL     OW53664   5.311   5.777  12.056
17408SOL    HW153665   5.253   5.803  12.128
17408SOL    HW253666   5.310   5.853  11.997
17409SOL     OW53667   3.765   6.649  11.482
17409SOL    HW153668   3.852   6.636  11.444
17409SOL    HW253669   3.736   6.561  11.507
17410SOL     OW53670   4.615   7.245  11.501
17410SOL    HW153671   4.539   7.232  11.444
17410SOL    HW253672   4.587   7.312  11.564
17411SOL     OW53673   3.952   7.719   0.998
17411SOL    HW153674   3.981   7.689   1.084
17411SOL    HW253675   3.861   7.690   0.992
17412SOL     OW53676   3.716   7.851   0.647
17412SOL    HW153677   3.633   7.881   0.683
17412SOL    HW253678   3.694   7.775   0.594
17413SOL     OW53679   5.352   0.038   0.187
17413SOL    HW153680   5.387  -0.031   0.131
17413SOL    HW253681   5.365   0.005   0.276
17414SOL     OW53682   4.163   7.851   1.530
17414SOL    HW153683   4.238   7.801   1.497
17414SOL    HW253684   4.089   7.792   1.522
17415SOL     OW53685   5.319   7.925   0.701
17415SOL    HW153686   5.228   7.910   0.675
17415SOL    HW253687   5.312   7.961   0.790
17416SOL     OW53688   5.313   7.578   1.462
17416SOL    HW153689   5.357   7.652   1.420
17416SOL    HW253690   5.286   7.611   1.547
17417SOL     OW53691   3.794   0.113   0.575
17417SOL    HW153692   3.783   0.021   0.598
17417SOL    HW253693   3.883   0.134   0.603
17418SOL     OW53694   4.542   7.460   0.524
17418SOL    HW153695   4.584   7.542   0.498
17418SOL    HW253696   4.448   7.480   0.525
17419SOL     OW53697   4.063   7.700   1.813
17419SOL    HW153698   4.065   7.793   1.791
17419SOL    HW253699   3.978   7.687   1.856
17420SOL     OW53700   4.982   7.803   0.933
17420SOL    HW153701   4.895   7.765   0.945
17420SOL    HW253702   5.039   7.747   0.985
17421SOL     OW53703   5.131   7.934   1.696
17421SOL    HW153704   5.130   7.957   1.789
17421SOL    HW253705   5.183   7.854   1.691
17422SOL     OW53706   4.654   0.398   1.509
17422SOL    HW153707   4.709   0.325   1.480
17422SOL    HW253708   4.565   0.371   1.488
17423SOL     OW53709   4.711   7.815   1.242
17423SOL    HW153710   4.625   7.838   1.276
17423SOL    HW253711   4.694   7.749   1.175
17424SOL     OW53712   4.612   7.796   0.215
17424SOL    HW153713   4.696   7.816   0.174
17424SOL    HW253714   4.590   7.708   0.184
17425SOL     OW53715   5.445   0.017   1.849
17425SOL    HW153716   5.403   0.083   1.793
17425SOL    HW253717   5.466  -0.055   1.789
17426SOL     OW53718   4.269   7.627   0.903
17426SOL    HW153719   4.274   7.647   0.996
17426SOL    HW253720   4.269   7.712   0.859
17427SOL     OW53721   3.905   7.732   1.517
17427SOL    HW153722   3.812   7.751   1.527
17427SOL    HW253723   3.914   7.641   1.544
17428SOL     OW53724   5.136   7.545   0.452
17428SOL    HW153725   5.128   7.512   0.362
17428SOL    HW253726   5.230   7.546   0.469
17429SOL     OW53727   5.235   7.671   1.729
17429SOL    HW153728   5.237   7.693   1.822
17429SOL    HW253729   5.178   7.594   1.724
17430SOL     OW53730   4.361   7.547   0.131
17430SOL    HW153731   4.456   7.541   0.129
17430SOL    HW253732   4.330   7.474   0.077
17431SOL     OW53733   4.498   7.722   1.755
17431SOL    HW153734   4.579   7.670   1.749
17431SOL    HW253735   4.447   7.679   1.823
17432SOL     OW53736   5.059   0.009   1.430
17432SOL    HW153737   5.102  -0.009   1.513
17432SOL    HW253738   4.999   0.081   1.449
17433SOL     OW53739   4.273   7.510   0.492
17433SOL    HW153740   4.196   7.514   0.549
17433SOL    HW253741   4.271   7.591   0.442
17434SOL     OW53742   4.031   7.529   0.212
17434SOL    HW153743   4.107   7.586   0.224
17434SOL    HW253744   4.063   7.441   0.236
17435SOL     OW53745   4.675   7.681   0.458
17435SOL    HW153746   4.647   7.738   0.386
17435SOL    HW253747   4.768   7.700   0.468
17436SOL     OW53748   3.867  -0.001   1.362
17436SOL    HW153749   3.919  -0.065   1.411
17436SOL    HW253750   3.862   0.075   1.420
17437SOL     OW53751   4.279   7.667   1.176
17437SOL    HW153752   4.323   7.602   1.231
17437SOL    HW253753   4.189   7.666   1.206
17438SOL     OW53754   4.743   7.497   0.738
17438SOL    HW153755   4.681   7.497   0.665
17438SOL    HW253756   4.716   7.423   0.793
17439SOL     OW53757   5.220   7.952   0.956
17439SOL    HW153758   5.131   7.922   0.971
17439SOL    HW253759   5.252   7.976   1.043
17440SOL     OW53760   4.266   7.722   0.321
17440SOL    HW153761   4.308   7.674   0.249
17440SOL    HW253762   4.315   7.805   0.326
17441SOL     OW53763   4.644   7.532   1.391
17441SOL    HW153764   4.668   7.510   1.301
17441SOL    HW253765   4.723   7.572   1.428
17442SOL     OW53766   4.983   7.801   1.277
17442SOL    HW153767   5.013   7.878   1.325
17442SOL    HW253768   4.889   7.815   1.267
17443SOL     OW53769   4.272   7.938   0.860
17443SOL    HW153770   4.277   8.011   0.798
17443SOL    HW253771   4.342   7.956   0.923
17444SOL     OW53772   4.733   7.588   1.751
17444SOL    HW153773   4.794   7.659   1.731
17444SOL    HW253774   4.780   7.508   1.728
17445SOL     OW53775   4.223   7.487   1.746
17445SOL    HW153776   4.171   7.432   1.687
17445SOL    HW253777   4.166   7.561   1.765
17446SOL     OW53778   4.020   7.640   1.256
17446SOL    HW153779   3.957   7.673   1.319
17446SOL    HW253780   4.004   7.545   1.253
17447SOL     OW53781   4.467   0.049   1.019
17447SOL    HW153782   4.534   0.077   0.957
17447SOL    HW253783   4.427   0.131   1.049
17448SOL     OW53784   4.033   7.519   0.634
17448SOL    HW153785   4.012   7.610   0.655
17448SOL    HW253786   4.045   7.476   0.719
17449SOL     OW53787   5.331   7.816   0.377
17449SOL    HW153788   5.377   7.742   0.418
17449SOL    HW253789   5.281   7.855   0.449
17450SOL     OW53790   5.188   7.708   0.111
17450SOL    HW153791   5.168   7.627   0.158
17450SOL    HW253792   5.241   7.759   0.172
17451SOL     OW53793   4.024   7.980   1.013
17451SOL    HW153794   4.018   7.885   1.007
17451SOL    HW253795   4.110   8.001   0.977
17452SOL     OW53796   4.876   7.826   1.678
17452SOL    HW153797   4.823   7.902   1.702
17452SOL    HW253798   4.966   7.859   1.676
17453SOL     OW53799   4.886   7.635   1.476
17453SOL    HW153800   4.877   7.703   1.542
17453SOL    HW253801   4.932   7.678   1.404
17454SOL     OW53802   3.760   7.961   1.114
17454SOL    HW153803   3.842   7.954   1.064
17454SOL    HW253804   3.789   7.965   1.205
17455SOL     OW53805   3.935   7.949   1.734
17455SOL    HW153806   3.932   7.911   1.647
17455SOL    HW253807   3.873   8.021   1.732
17456SOL     OW53808   4.509   0.035   0.275
17456SOL    HW153809   4.547  -0.053   0.265
17456SOL    HW253810   4.473   0.035   0.364
17457SOL     OW53811   5.346   8.010   1.194
17457SOL    HW153812   5.340   7.974   1.283
17457SOL    HW253813   5.428   7.974   1.160
17458SOL     OW53814   4.446   7.883   1.237
17458SOL    HW153815   4.380   7.815   1.219
17458SOL    HW253816   4.443   7.940   1.160
17459SOL     OW53817   4.638   7.538   0.113
17459SOL    HW153818   4.678   7.579   0.037
17459SOL    HW253819   4.712   7.519   0.171
17460SOL     OW53820   5.453   7.601   0.505
17460SOL    HW153821   5.524   7.580   0.444
17460SOL    HW253822   5.433   7.518   0.547
17461SOL     OW53823   5.569   7.618   0.962
17461SOL    HW153824   5.595   7.528   0.940
17461SOL    HW253825   5.482   7.628   0.924
17462SOL     OW53826   3.975   7.772   0.724
17462SOL    HW153827   3.887   7.806   0.710
17462SOL    HW253828   3.980   7.757   0.818
17463SOL     OW53829   4.748   7.666   0.966
17463SOL    HW153830   4.743   7.625   0.880
17463SOL    HW253831   4.743   7.594   1.028
17464SOL     OW53832   5.465   7.819   1.399
17464SOL    HW153833   5.530   7.889   1.397
17464SOL    HW253834   5.497   7.754   1.336
17465SOL     OW53835   4.404   7.636   1.494
17465SOL    HW153836   4.489   7.612   1.457
17465SOL    HW253837   4.424   7.670   1.582
17466SOL     OW53838   3.780   7.581   0.314
17466SOL    HW153839   3.776   7.674   0.293
17466SOL    HW253840   3.867   7.553   0.284
17467SOL     OW53841   4.506   8.004   1.726
17467SOL    HW153842   4.412   8.021   1.713
17467SOL    HW253843   4.513   7.909   1.728
17468SOL     OW53844   4.946   7.743   0.455
17468SOL    HW153845   5.012   7.674   0.456
17468SOL    HW253846   4.974   7.805   0.522
17469SOL     OW53847   4.373   0.227   0.648
17469SOL    HW153848   4.409   0.315   0.652
17469SOL    HW253849   4.278   0.239   0.652
17470SOL     OW53850   5.473   7.801   1.677
17470SOL    HW153851   5.474   7.817   1.582
17470SOL    HW253852   5.397   7.744   1.690
17471SOL     OW53853   5.534   7.618   1.234
17471SOL    HW153854   5.540   7.523   1.240
17471SOL    HW253855   5.548   7.637   1.141
17472SOL     OW53856   4.032   7.825   0.442
17472SOL    HW153857   4.118   7.792   0.414
17472SOL    HW253858   4.034   7.820   0.537
17473SOL     OW53859   5.149   7.669   1.108
17473SOL    HW153860   5.172   7.586   1.148
17473SOL    HW253861   5.099   7.716   1.175
17474SOL     OW53862   4.730   7.451   1.138
17474SOL    HW153863   4.676   7.385   1.094
17474SOL    HW253864   4.818   7.414   1.138
17475SOL     OW53865   5.084   7.470   0.194
17475SOL    HW153866   5.099   7.438   0.105
17475SOL    HW253867   4.992   7.451   0.212
17476SOL     OW53868   5.043   7.892   0.675
17476SOL    HW153869   5.008   7.981   0.672
17476SOL    HW253870   5.021   7.859   0.762
17477SOL     OW53871   5.309   7.652   0.884
17477SOL    HW153872   5.257   7.670   0.961
17477SOL    HW253873   5.300   7.730   0.830
17478SOL     OW53874   3.958   7.724   2.857
17478SOL    HW153875   3.983   7.692   2.944
17478SOL    HW253876   3.869   7.692   2.844
17479SOL     OW53877   3.700   7.818   2.516
17479SOL    HW153878   3.616   7.858   2.539
17479SOL    HW253879   3.677   7.737   2.471
17480SOL     OW53880   5.412   0.045   2.133
17480SOL    HW153881   5.430   0.045   2.039
17480SOL    HW253882   5.396  -0.047   2.155
17481SOL     OW53883   4.159   7.851   3.393
17481SOL    HW153884   4.234   7.797   3.366
17481SOL    HW253885   4.084   7.793   3.381
17482SOL     OW53886   5.313   7.913   2.563
17482SOL    HW153887   5.221   7.911   2.539
17482SOL    HW253888   5.314   7.953   2.650
17483SOL     OW53889   5.311   7.582   3.319
17483SOL    HW153890   5.350   7.663   3.285
17483SOL    HW253891   5.284   7.605   3.408
17484SOL     OW53892   3.818   0.065   2.482
17484SOL    HW153893   3.786  -0.025   2.487
17484SOL    HW253894   3.803   0.100   2.570
17485SOL     OW53895   4.574   7.453   2.391
17485SOL    HW153896   4.613   7.537   2.365
17485SOL    HW253897   4.480   7.472   2.400
17486SOL     OW53898   4.069   7.703   3.677
17486SOL    HW153899   4.113   7.784   3.703
17486SOL    HW253900   3.979   7.714   3.706
17487SOL     OW53901   4.983   7.786   2.791
17487SOL    HW153902   4.895   7.750   2.804
17487SOL    HW253903   5.038   7.735   2.850
17488SOL     OW53904   5.129   7.941   3.567
17488SOL    HW153905   5.109   7.961   3.659
17488SOL    HW253906   5.180   7.861   3.570
17489SOL     OW53907   4.644   0.355   3.417
17489SOL    HW153908   4.717   0.315   3.369
17489SOL    HW253909   4.573   0.360   3.352
17490SOL     OW53910   4.712   7.829   3.131
17490SOL    HW153911   4.642   7.870   3.183
17490SOL    HW253912   4.672   7.750   3.094
17491SOL     OW53913   4.614   7.774   2.059
17491SOL    HW153914   4.641   7.809   1.974
17491SOL    HW253915   4.589   7.684   2.040
17492SOL     OW53916   5.462   0.005   3.697
17492SOL    HW153917   5.413   0.076   3.655
17492SOL    HW253918   5.475  -0.059   3.627
17493SOL     OW53919   4.320   7.628   2.770
17493SOL    HW153920   4.298   7.647   2.861
17493SOL    HW253921   4.237   7.635   2.723
17494SOL     OW53922   3.910   7.719   3.374
17494SOL    HW153923   3.853   7.766   3.435
17494SOL    HW253924   3.899   7.627   3.397
17495SOL     OW53925   5.117   7.539   2.304
17495SOL    HW153926   5.114   7.519   2.211
17495SOL    HW253927   5.208   7.523   2.330
17496SOL     OW53928   5.238   7.672   3.592
17496SOL    HW153929   5.244   7.695   3.685
17496SOL    HW253930   5.178   7.597   3.590
17497SOL     OW53931   4.373   7.559   1.961
17497SOL    HW153932   4.357   7.490   2.025
17497SOL    HW253933   4.324   7.532   1.884
17498SOL     OW53934   4.490   7.715   3.610
17498SOL    HW153935   4.572   7.666   3.608
17498SOL    HW253936   4.447   7.688   3.691
17499SOL     OW53937   5.058   0.010   3.299
17499SOL    HW153938   5.096  -0.009   3.385
17499SOL    HW253939   4.997   0.082   3.315
17500SOL     OW53940   4.316   7.534   2.392
17500SOL    HW153941   4.241   7.518   2.450
17500SOL    HW253942   4.276   7.554   2.308
17501SOL     OW53943   4.004   7.506   2.034
17501SOL    HW153944   4.077   7.567   2.024
17501SOL    HW253945   4.034   7.444   2.101
17502SOL     OW53946   4.690   7.685   2.315
17502SOL    HW153947   4.658   7.728   2.236
17502SOL    HW253948   4.781   7.714   2.323
17503SOL     OW53949   3.818  -0.006   3.252
17503SOL    HW153950   3.875  -0.060   3.307
17503SOL    HW253951   3.815   0.079   3.297
17504SOL     OW53952   4.273   7.659   3.043
17504SOL    HW153953   4.311   7.592   3.100
17504SOL    HW253954   4.181   7.663   3.068
17505SOL     OW53955   5.225   7.944   2.821
17505SOL    HW153956   5.135   7.917   2.839
17505SOL    HW253957   5.257   7.977   2.905
17506SOL     OW53958   4.244   7.706   2.159
17506SOL    HW153959   4.287   7.656   2.090
17506SOL    HW253960   4.297   7.786   2.168
17507SOL     OW53961   4.640   7.546   3.251
17507SOL    HW153962   4.671   7.517   3.165
17507SOL    HW253963   4.719   7.578   3.295
17508SOL     OW53964   4.985   7.813   3.132
17508SOL    HW153965   5.016   7.885   3.186
17508SOL    HW253966   4.890   7.825   3.130
17509SOL     OW53967   4.728   7.586   3.606
17509SOL    HW153968   4.792   7.656   3.591
17509SOL    HW253969   4.777   7.505   3.591
17510SOL     OW53970   4.222   7.486   3.605
17510SOL    HW153971   4.172   7.428   3.548
17510SOL    HW253972   4.165   7.561   3.621
17511SOL     OW53973   4.011   7.644   3.116
17511SOL    HW153974   3.968   7.673   3.197
17511SOL    HW253975   3.995   7.550   3.113
17512SOL     OW53976   4.465   0.068   2.850
17512SOL    HW153977   4.552   0.059   2.889
17512SOL    HW253978   4.419   0.128   2.908
17513SOL     OW53979   4.078   7.517   2.540
17513SOL    HW153980   4.020   7.593   2.539
17513SOL    HW253981   4.042   7.458   2.474
17514SOL     OW53982   5.324   7.802   2.240
17514SOL    HW153983   5.377   7.733   2.280
17514SOL    HW253984   5.281   7.845   2.314
17515SOL     OW53985   5.203   7.741   1.996
17515SOL    HW153986   5.159   7.658   2.013
17515SOL    HW253987   5.255   7.757   2.075
17516SOL     OW53988   5.045   0.244   1.915
17516SOL    HW153989   5.011   0.160   1.946
17516SOL    HW253990   4.974   0.282   1.863
17517SOL     OW53991   4.012   7.988   2.889
17517SOL    HW153992   4.014   7.893   2.874
17517SOL    HW253993   4.053   8.026   2.811
17518SOL     OW53994   4.875   7.825   3.535
17518SOL    HW153995   4.819   7.899   3.555
17518SOL    HW253996   4.964   7.858   3.544
17519SOL     OW53997   4.888   7.638   3.331
17519SOL    HW153998   4.879   7.701   3.402
17519SOL    HW253999   4.936   7.686   3.263
17520SOL     OW54000   3.753   7.959   2.992
17520SOL    HW154001   3.835   7.953   2.944
17520SOL    HW254002   3.779   7.961   3.084
17521SOL     OW54003   3.911   7.983   3.539
17521SOL    HW154004   3.994   7.936   3.535
17521SOL    HW254005   3.929   8.058   3.596
17522SOL     OW54006   4.517   0.031   2.107
17522SOL    HW154007   4.559  -0.055   2.111
17522SOL    HW254008   4.457   0.031   2.182
17523SOL     OW54009   5.352   8.021   3.053
17523SOL    HW154010   5.340   7.996   3.145
17523SOL    HW254011   5.429   7.972   3.025
17524SOL     OW54012   4.439   7.878   3.072
17524SOL    HW154013   4.379   7.804   3.077
17524SOL    HW254014   4.404   7.934   3.003
17525SOL     OW54015   5.465   7.605   2.368
17525SOL    HW154016   5.533   7.586   2.304
17525SOL    HW254017   5.441   7.520   2.404
17526SOL     OW54018   5.568   7.617   2.818
17526SOL    HW154019   5.593   7.527   2.797
17526SOL    HW254020   5.479   7.625   2.783
17527SOL     OW54021   3.963   7.771   2.584
17527SOL    HW154022   3.871   7.789   2.566
17527SOL    HW254023   3.967   7.758   2.679
17528SOL     OW54024   4.738   7.667   2.833
17528SOL    HW154025   4.650   7.666   2.796
17528SOL    HW254026   4.739   7.594   2.895
17529SOL     OW54027   5.458   7.819   3.248
17529SOL    HW154028   5.525   7.888   3.248
17529SOL    HW254029   5.493   7.753   3.188
17530SOL     OW54030   4.399   7.645   3.355
17530SOL    HW154031   4.484   7.620   3.319
17530SOL    HW254032   4.418   7.671   3.445
17531SOL     OW54033   3.799   7.772   1.913
17531SOL    HW154034   3.728   7.762   1.849
17531SOL    HW254035   3.843   7.853   1.888
17532SOL     OW54036   3.774   7.605   2.150
17532SOL    HW154037   3.768   7.675   2.085
17532SOL    HW254038   3.860   7.566   2.135
17533SOL     OW54039   4.509   7.992   3.579
17533SOL    HW154040   4.417   8.017   3.581
17533SOL    HW254041   4.509   7.897   3.588
17534SOL     OW54042   4.953   7.764   2.322
17534SOL    HW154043   5.012   7.689   2.317
17534SOL    HW254044   4.983   7.814   2.398
17535SOL     OW54045   4.358   0.286   2.506
17535SOL    HW154046   4.432   0.346   2.513
17535SOL    HW254047   4.286   0.340   2.473
17536SOL     OW54048   5.476   7.794   3.520
17536SOL    HW154049   5.467   7.809   3.426
17536SOL    HW254050   5.400   7.742   3.544
17537SOL     OW54051   5.542   7.620   3.090
17537SOL    HW154052   5.541   7.525   3.100
17537SOL    HW254053   5.553   7.634   2.996
17538SOL     OW54054   4.127   7.850   2.376
17538SOL    HW154055   4.145   7.774   2.320
17538SOL    HW254056   4.073   7.815   2.447
17539SOL     OW54057   5.150   7.666   2.979
17539SOL    HW154058   5.179   7.593   3.033
17539SOL    HW254059   5.099   7.721   3.038
17540SOL     OW54060   4.728   7.447   3.009
17540SOL    HW154061   4.672   7.370   3.015
17540SOL    HW254062   4.816   7.411   2.993
17541SOL     OW54063   5.089   7.493   2.030
17541SOL    HW154064   5.128   7.418   1.984
17541SOL    HW254065   5.000   7.464   2.051
17542SOL     OW54066   5.035   7.902   2.547
17542SOL    HW154067   4.981   7.981   2.553
17542SOL    HW254068   5.022   7.857   2.631
17543SOL     OW54069   5.303   7.646   2.750
17543SOL    HW154070   5.253   7.665   2.830
17543SOL    HW254071   5.297   7.726   2.699
17544SOL     OW54072   3.950   7.725   4.719
17544SOL    HW154073   3.979   7.692   4.805
17544SOL    HW254074   3.862   7.688   4.708
17545SOL     OW54075   3.711   7.820   4.375
17545SOL    HW154076   3.629   7.862   4.401
17545SOL    HW254077   3.684   7.739   4.333
17546SOL     OW54078   5.494   8.025   3.975
17546SOL    HW154079   5.480   8.025   3.880
17546SOL    HW254080   5.444   7.949   4.006
17547SOL     OW54081   4.147   7.848   5.272
17547SOL    HW154082   4.226   7.806   5.237
17547SOL    HW254083   4.076   7.787   5.251
17548SOL     OW54084   5.319   7.936   4.423
17548SOL    HW154085   5.228   7.922   4.397
17548SOL    HW254086   5.313   7.965   4.515
17549SOL     OW54087   5.319   7.578   5.187
17549SOL    HW154088   5.347   7.661   5.148
17549SOL    HW254089   5.288   7.603   5.274
17550SOL     OW54090   3.780   0.106   4.333
17550SOL    HW154091   3.787   0.010   4.340
17550SOL    HW254092   3.867   0.137   4.358
17551SOL     OW54093   4.548   7.441   4.237
17551SOL    HW154094   4.588   7.524   4.210
17551SOL    HW254095   4.454   7.461   4.243
17552SOL     OW54096   4.063   7.701   5.569
17552SOL    HW154097   4.096   7.788   5.550
17552SOL    HW254098   3.970   7.713   5.589
17553SOL     OW54099   4.991   7.798   4.656
17553SOL    HW154100   4.902   7.763   4.664
17553SOL    HW254101   5.044   7.743   4.713
17554SOL     OW54102   5.126   7.931   5.423
17554SOL    HW154103   5.116   7.957   5.515
17554SOL    HW254104   5.176   7.849   5.427
17555SOL     OW54105   4.650   0.366   5.264
17555SOL    HW154106   4.680   0.297   5.204
17555SOL    HW254107   4.572   0.401   5.222
17556SOL     OW54108   4.722   7.821   4.975
17556SOL    HW154109   4.638   7.849   5.010
17556SOL    HW254110   4.701   7.745   4.921
17557SOL     OW54111   4.611   7.789   3.907
17557SOL    HW154112   4.673   7.783   3.834
17557SOL    HW254113   4.633   7.714   3.963
17558SOL     OW54114   5.463   0.017   5.562
17558SOL    HW154115   5.401   0.079   5.523
17558SOL    HW254116   5.471  -0.053   5.497
17559SOL     OW54117   4.279   7.639   4.627
17559SOL    HW154118   4.281   7.651   4.722
17559SOL    HW254119   4.274   7.728   4.591
17560SOL     OW54120   3.904   7.717   5.235
17560SOL    HW154121   3.840   7.758   5.293
17560SOL    HW254122   3.895   7.623   5.252
17561SOL     OW54123   5.126   7.553   4.164
17561SOL    HW154124   5.118   7.522   4.073
17561SOL    HW254125   5.217   7.534   4.187
17562SOL     OW54126   5.237   7.669   5.453
17562SOL    HW154127   5.241   7.691   5.546
17562SOL    HW254128   5.177   7.596   5.447
17563SOL     OW54129   4.364   7.567   3.823
17563SOL    HW154130   4.412   7.491   3.856
17563SOL    HW254131   4.314   7.534   3.749
17564SOL     OW54132   4.497   7.721   5.482
17564SOL    HW154133   4.577   7.670   5.475
17564SOL    HW254134   4.447   7.679   5.552
17565SOL     OW54135   5.083   0.018   5.158
17565SOL    HW154136   5.105  -0.011   5.246
17565SOL    HW254137   5.017   0.085   5.170
17566SOL     OW54138   4.282   7.507   4.221
17566SOL    HW154139   4.205   7.511   4.277
17566SOL    HW254140   4.276   7.586   4.167
17567SOL     OW54141   4.016   7.498   3.911
17567SOL    HW154142   4.081   7.562   3.882
17567SOL    HW254143   4.068   7.431   3.956
17568SOL     OW54144   4.670   7.680   4.171
17568SOL    HW154145   4.630   7.766   4.187
17568SOL    HW254146   4.764   7.696   4.180
17569SOL     OW54147   3.822  -0.006   5.110
17569SOL    HW154148   3.880  -0.065   5.159
17569SOL    HW254149   3.829   0.078   5.156
17570SOL     OW54150   4.282   7.666   4.901
17570SOL    HW154151   4.320   7.591   4.948
17570SOL    HW254152   4.191   7.669   4.930
17571SOL     OW54153   4.751   7.486   4.459
17571SOL    HW154154   4.687   7.482   4.388
17571SOL    HW254155   4.725   7.417   4.520
17572SOL     OW54156   5.227   7.946   4.681
17572SOL    HW154157   5.137   7.916   4.687
17572SOL    HW254158   5.242   7.995   4.762
17573SOL     OW54159   4.270   7.718   4.044
17573SOL    HW154160   4.311   7.679   3.967
17573SOL    HW254161   4.303   7.807   4.047
17574SOL     OW54162   4.638   7.547   5.116
17574SOL    HW154163   4.662   7.516   5.029
17574SOL    HW254164   4.720   7.579   5.154
17575SOL     OW54165   4.993   7.807   5.006
17575SOL    HW154166   5.024   7.886   5.051
17575SOL    HW254167   4.899   7.821   4.995
17576SOL     OW54168   4.272   7.929   4.598
17576SOL    HW154169   4.249   7.992   4.529
17576SOL    HW254170   4.346   7.969   4.644
17577SOL     OW54171   4.731   7.587   5.480
17577SOL    HW154172   4.794   7.655   5.456
17577SOL    HW254173   4.776   7.505   5.460
17578SOL     OW54174   4.220   7.494   5.485
17578SOL    HW154175   4.179   7.441   5.417
17578SOL    HW254176   4.159   7.566   5.501
17579SOL     OW54177   4.019   7.654   4.979
17579SOL    HW154178   3.972   7.679   5.059
17579SOL    HW254179   4.000   7.561   4.968
17580SOL     OW54180   4.475   0.063   4.741
17580SOL    HW154181   4.517   0.100   4.663
17580SOL    HW254182   4.417   0.132   4.772
17581SOL     OW54183   4.038   7.520   4.352
17581SOL    HW154184   4.011   7.608   4.378
17581SOL    HW254185   4.047   7.472   4.434
17582SOL     OW54186   5.338   7.816   4.094
17582SOL    HW154187   5.379   7.743   4.140
17582SOL    HW254188   5.293   7.865   4.162
17583SOL     OW54189   5.215   7.739   3.857
17583SOL    HW154190   5.168   7.658   3.878
17583SOL    HW254191   5.264   7.759   3.937
17584SOL     OW54192   5.040   0.252   3.776
17584SOL    HW154193   5.011   0.162   3.793
17584SOL    HW254194   4.972   0.289   3.720
17585SOL     OW54195   4.032   7.977   4.756
17585SOL    HW154196   4.014   7.884   4.742
17585SOL    HW254197   4.114   7.993   4.710
17586SOL     OW54198   4.871   7.827   5.398
17586SOL    HW154199   4.818   7.903   5.421
17586SOL    HW254200   4.961   7.859   5.401
17587SOL     OW54201   4.886   7.636   5.198
17587SOL    HW154202   4.874   7.703   5.266
17587SOL    HW254203   4.933   7.680   5.128
17588SOL     OW54204   3.754   7.956   4.847
17588SOL    HW154205   3.833   7.942   4.795
17588SOL    HW254206   3.785   7.957   4.938
17589SOL     OW54207   3.918   7.970   5.419
17589SOL    HW154208   3.997   7.938   5.375
17589SOL    HW254209   3.944   8.054   5.457
17590SOL     OW54210   4.524   0.040   3.964
17590SOL    HW154211   4.558  -0.048   3.948
17590SOL    HW254212   4.483   0.034   4.051
17591SOL     OW54213   5.354   8.028   4.926
17591SOL    HW154214   5.337   7.975   5.004
17591SOL    HW254215   5.420   7.979   4.877
17592SOL     OW54216   4.450   7.884   4.958
17592SOL    HW154217   4.387   7.813   4.944
17592SOL    HW254218   4.441   7.939   4.880
17593SOL     OW54219   5.456   7.604   4.228
17593SOL    HW154220   5.527   7.586   4.166
17593SOL    HW254221   5.435   7.518   4.265
17594SOL     OW54222   5.571   7.617   4.685
17594SOL    HW154223   5.593   7.526   4.662
17594SOL    HW254224   5.483   7.630   4.650
17595SOL     OW54225   3.972   7.775   4.444
17595SOL    HW154226   3.879   7.790   4.429
17595SOL    HW254227   3.979   7.759   4.538
17596SOL     OW54228   4.757   7.661   4.683
17596SOL    HW154229   4.752   7.614   4.600
17596SOL    HW254230   4.744   7.594   4.750
17597SOL     OW54231   5.458   7.819   5.112
17597SOL    HW154232   5.523   7.889   5.109
17597SOL    HW254233   5.491   7.752   5.051
17598SOL     OW54234   4.399   7.654   5.224
17598SOL    HW154235   4.480   7.627   5.181
17598SOL    HW254236   4.425   7.678   5.313
17599SOL     OW54237   3.814   7.779   3.752
17599SOL    HW154238   3.738   7.751   3.700
17599SOL    HW254239   3.815   7.874   3.743
17600SOL     OW54240   3.783   7.595   4.020
17600SOL    HW154241   3.776   7.679   3.975
17600SOL    HW254242   3.869   7.561   3.994
17601SOL     OW54243   4.511   7.999   5.451
17601SOL    HW154244   4.418   8.020   5.440
17601SOL    HW254245   4.513   7.903   5.454
17602SOL     OW54246   4.938   7.754   4.189
17602SOL    HW154247   5.002   7.684   4.179
17602SOL    HW254248   4.973   7.809   4.259
17603SOL     OW54249   4.372   0.222   4.340
17603SOL    HW154250   4.383   0.314   4.362
17603SOL    HW254251   4.296   0.194   4.391
17604SOL     OW54252   5.472   7.806   5.387
17604SOL    HW154253   5.461   7.822   5.293
17604SOL    HW254254   5.401   7.747   5.410
17605SOL     OW54255   5.550   7.620   4.958
17605SOL    HW154256   5.537   7.526   4.967
17605SOL    HW254257   5.558   7.634   4.863
17606SOL     OW54258   4.066   7.851   4.192
17606SOL    HW154259   4.121   7.783   4.155
17606SOL    HW254260   4.038   7.816   4.277
17607SOL     OW54261   5.148   7.661   4.837
17607SOL    HW154262   5.145   7.571   4.869
17607SOL    HW254263   5.102   7.712   4.904
17608SOL     OW54264   4.731   7.455   4.870
17608SOL    HW154265   4.673   7.381   4.851
17608SOL    HW254266   4.819   7.418   4.865
17609SOL     OW54267   5.092   7.494   3.891
17609SOL    HW154268   5.130   7.417   3.851
17609SOL    HW254269   5.001   7.470   3.909
17610SOL     OW54270   5.042   7.900   4.404
17610SOL    HW154271   4.994   7.983   4.406
17610SOL    HW254272   5.024   7.860   4.489
17611SOL     OW54273   5.310   7.653   4.616
17611SOL    HW154274   5.258   7.660   4.696
17611SOL    HW254275   5.293   7.734   4.568
17612SOL     OW54276   3.964   7.727   6.569
17612SOL    HW154277   4.013   7.647   6.587
17612SOL    HW254278   3.873   7.699   6.561
17613SOL     OW54279   3.708   7.811   6.233
17613SOL    HW154280   3.628   7.854   6.263
17613SOL    HW254281   3.678   7.732   6.189
17614SOL     OW54282   5.488   0.028   5.845
17614SOL    HW154283   5.482   0.033   5.750
17614SOL    HW254284   5.445  -0.055   5.868
17615SOL     OW54285   4.152   7.855   7.127
17615SOL    HW154286   4.233   7.820   7.090
17615SOL    HW254287   4.085   7.793   7.099
17616SOL     OW54288   5.321   7.947   6.282
17616SOL    HW154289   5.230   7.929   6.257
17616SOL    HW254290   5.315   7.979   6.372
17617SOL     OW54291   5.315   7.582   7.052
17617SOL    HW154292   5.344   7.659   7.004
17617SOL    HW254293   5.287   7.617   7.137
17618SOL     OW54294   3.765   0.090   6.242
17618SOL    HW154295   3.778  -0.000   6.214
17618SOL    HW254296   3.846   0.135   6.219
17619SOL     OW54297   4.545   7.437   6.109
17619SOL    HW154298   4.590   7.516   6.081
17619SOL    HW254299   4.452   7.461   6.110
17620SOL     OW54300   4.053   7.693   7.427
17620SOL    HW154301   4.085   7.778   7.395
17620SOL    HW254302   3.961   7.709   7.446
17621SOL     OW54303   4.988   7.806   6.521
17621SOL    HW154304   4.901   7.768   6.532
17621SOL    HW254305   5.045   7.752   6.576
17622SOL     OW54306   5.125   7.933   7.284
17622SOL    HW154307   5.114   7.956   7.376
17622SOL    HW254308   5.176   7.852   7.286
17623SOL     OW54309   4.646   0.354   7.140
17623SOL    HW154310   4.661   0.290   7.070
17623SOL    HW254311   4.592   0.422   7.099
17624SOL     OW54312   4.724   7.819   6.825
17624SOL    HW154313   4.637   7.841   6.858
17624SOL    HW254314   4.708   7.758   6.752
17625SOL     OW54315   4.621   7.778   5.781
17625SOL    HW154316   4.642   7.814   5.695
17625SOL    HW254317   4.628   7.683   5.769
17626SOL     OW54318   5.465   0.024   7.417
17626SOL    HW154319   5.403   0.087   7.379
17626SOL    HW254320   5.467  -0.048   7.355
17627SOL     OW54321   4.265   7.634   6.491
17627SOL    HW154322   4.272   7.654   6.585
17627SOL    HW254323   4.270   7.719   6.448
17628SOL     OW54324   3.902   7.720   7.082
17628SOL    HW154325   3.868   7.805   7.056
17628SOL    HW254326   3.877   7.710   7.174
17629SOL     OW54327   5.128   7.553   6.022
17629SOL    HW154328   5.117   7.523   5.932
17629SOL    HW254329   5.216   7.523   6.046
17630SOL     OW54330   5.242   7.676   7.315
17630SOL    HW154331   5.242   7.696   7.409
17630SOL    HW254332   5.187   7.598   7.307
17631SOL     OW54333   4.380   7.559   5.690
17631SOL    HW154334   4.426   7.479   5.714
17631SOL    HW254335   4.322   7.534   5.618
17632SOL     OW54336   4.487   7.714   7.334
17632SOL    HW154337   4.570   7.666   7.332
17632SOL    HW254338   4.442   7.680   7.411
17633SOL     OW54339   5.093   0.019   7.018
17633SOL    HW154340   5.108  -0.012   7.108
17633SOL    HW254341   5.024   0.085   7.027
17634SOL     OW54342   4.283   7.508   6.085
17634SOL    HW154343   4.201   7.509   6.134
17634SOL    HW254344   4.278   7.584   6.028
17635SOL     OW54345   4.011   7.500   5.772
17635SOL    HW154346   4.066   7.556   5.718
17635SOL    HW254347   4.072   7.437   5.811
17636SOL     OW54348   4.675   7.667   6.040
17636SOL    HW154349   4.645   7.727   5.973
17636SOL    HW254350   4.767   7.692   6.055
17637SOL     OW54351   3.828  -0.009   7.018
17637SOL    HW154352   3.916   0.025   7.006
17637SOL    HW254353   3.773   0.069   7.031
17638SOL     OW54354   4.292   7.642   6.772
17638SOL    HW154355   4.316   7.551   6.760
17638SOL    HW254356   4.298   7.657   6.866
17639SOL     OW54357   4.745   7.503   6.330
17639SOL    HW154358   4.687   7.500   6.254
17639SOL    HW254359   4.722   7.426   6.381
17640SOL     OW54360   5.222   7.958   6.540
17640SOL    HW154361   5.134   7.920   6.545
17640SOL    HW254362   5.229   8.012   6.620
17641SOL     OW54363   4.273   7.713   5.901
17641SOL    HW154364   4.305   7.662   5.826
17641SOL    HW254365   4.322   7.795   5.897
17642SOL     OW54366   4.634   7.538   6.977
17642SOL    HW154367   4.656   7.513   6.887
17642SOL    HW254368   4.715   7.573   7.012
17643SOL     OW54369   4.994   7.796   6.880
17643SOL    HW154370   5.027   7.879   6.914
17643SOL    HW254371   4.902   7.814   6.858
17644SOL     OW54372   4.270   7.917   6.448
17644SOL    HW154373   4.234   7.973   6.379
17644SOL    HW254374   4.331   7.973   6.495
17645SOL     OW54375   4.727   7.587   7.347
17645SOL    HW154376   4.787   7.657   7.320
17645SOL    HW254377   4.770   7.506   7.318
17646SOL     OW54378   4.215   7.486   7.343
17646SOL    HW154379   4.169   7.430   7.281
17646SOL    HW254380   4.156   7.560   7.357
17647SOL     OW54381   4.487   0.063   6.602
17647SOL    HW154382   4.532   0.074   6.519
17647SOL    HW254383   4.417   0.129   6.601
17648SOL     OW54384   4.039   7.514   6.211
17648SOL    HW154385   4.008   7.602   6.233
17648SOL    HW254386   4.049   7.471   6.295
17649SOL     OW54387   5.335   7.814   5.954
17649SOL    HW154388   5.380   7.743   6.000
17649SOL    HW254389   5.274   7.849   6.018
17650SOL     OW54390   5.210   7.738   5.717
17650SOL    HW154391   5.164   7.657   5.737
17650SOL    HW254392   5.262   7.756   5.796
17651SOL     OW54393   5.048   0.248   5.635
17651SOL    HW154394   5.015   0.162   5.659
17651SOL    HW254395   4.979   0.286   5.580
17652SOL     OW54396   4.027   7.986   6.636
17652SOL    HW154397   4.023   7.894   6.611
17652SOL    HW254398   4.097   8.022   6.582
17653SOL     OW54399   4.867   7.829   7.267
17653SOL    HW154400   4.816   7.907   7.289
17653SOL    HW254401   4.958   7.859   7.265
17654SOL     OW54402   4.878   7.633   7.069
17654SOL    HW154403   4.868   7.705   7.132
17654SOL    HW254404   4.928   7.672   6.997
17655SOL     OW54405   3.758   7.919   6.729
17655SOL    HW154406   3.833   7.920   6.670
17655SOL    HW254407   3.764   8.001   6.777
17656SOL     OW54408   3.928   7.944   7.315
17656SOL    HW154409   3.990   7.955   7.242
17656SOL    HW254410   3.891   8.031   7.328
17657SOL     OW54411   4.520   0.032   5.828
17657SOL    HW154412   4.566  -0.052   5.832
17657SOL    HW254413   4.471   0.035   5.911
17658SOL     OW54414   5.354   8.026   6.795
17658SOL    HW154415   5.330   7.959   6.858
17658SOL    HW254416   5.417   7.983   6.737
17659SOL     OW54417   4.448   7.882   6.809
17659SOL    HW154418   4.386   7.817   6.775
17659SOL    HW254419   4.450   7.950   6.743
17660SOL     OW54420   5.463   7.610   6.090
17660SOL    HW154421   5.530   7.593   6.024
17660SOL    HW254422   5.438   7.524   6.123
17661SOL     OW54423   5.573   7.618   6.551
17661SOL    HW154424   5.591   7.528   6.527
17661SOL    HW254425   5.487   7.637   6.512
17662SOL     OW54426   3.969   7.767   6.293
17662SOL    HW154427   3.875   7.782   6.278
17662SOL    HW254428   3.979   7.766   6.388
17663SOL     OW54429   4.753   7.669   6.558
17663SOL    HW154430   4.748   7.629   6.471
17663SOL    HW254431   4.742   7.596   6.619
17664SOL     OW54432   5.464   7.816   6.978
17664SOL    HW154433   5.525   7.889   6.967
17664SOL    HW254434   5.494   7.750   6.915
17665SOL     OW54435   4.393   7.643   7.073
17665SOL    HW154436   4.476   7.619   7.033
17665SOL    HW254437   4.416   7.672   7.161
17666SOL     OW54438   3.802   7.780   5.618
17666SOL    HW154439   3.736   7.750   5.556
17666SOL    HW254440   3.824   7.869   5.588
17667SOL     OW54441   3.782   7.602   5.877
17667SOL    HW154442   3.770   7.676   5.817
17667SOL    HW254443   3.868   7.566   5.853
17668SOL     OW54444   4.513   7.993   7.313
17668SOL    HW154445   4.423   8.022   7.297
17668SOL    HW254446   4.509   7.898   7.310
17669SOL     OW54447   4.940   7.753   6.055
17669SOL    HW154448   5.004   7.683   6.041
17669SOL    HW254449   4.978   7.806   6.125
17670SOL     OW54450   4.361   0.251   6.261
17670SOL    HW154451   4.332   0.335   6.224
17670SOL    HW254452   4.288   0.191   6.246
17671SOL     OW54453   5.482   7.809   7.253
17671SOL    HW154454   5.473   7.821   7.159
17671SOL    HW254455   5.412   7.748   7.276
17672SOL     OW54456   5.552   7.615   6.824
17672SOL    HW154457   5.537   7.521   6.830
17672SOL    HW254458   5.558   7.632   6.730
17673SOL     OW54459   4.099   7.865   6.071
17673SOL    HW154460   4.138   7.795   6.018
17673SOL    HW254461   4.056   7.819   6.143
17674SOL     OW54462   5.155   7.670   6.688
17674SOL    HW154463   5.163   7.575   6.690
17674SOL    HW254464   5.107   7.691   6.769
17675SOL     OW54465   4.717   7.454   6.726
17675SOL    HW154466   4.671   7.384   6.678
17675SOL    HW254467   4.807   7.423   6.732
17676SOL     OW54468   5.088   7.493   5.752
17676SOL    HW154469   5.127   7.417   5.709
17676SOL    HW254470   4.998   7.467   5.770
17677SOL     OW54471   5.047   7.901   6.267
17677SOL    HW154472   4.997   7.982   6.262
17677SOL    HW254473   5.024   7.863   6.352
17678SOL     OW54474   5.321   7.673   6.467
17678SOL    HW154475   5.267   7.676   6.546
17678SOL    HW254476   5.297   7.752   6.419
17679SOL     OW54477   3.957   7.726   8.440
17679SOL    HW154478   3.983   7.694   8.526
17679SOL    HW254479   3.866   7.697   8.431
17680SOL     OW54480   3.719   7.808   8.105
17680SOL    HW154481   3.641   7.855   8.135
17680SOL    HW254482   3.685   7.731   8.060
17681SOL     OW54483   5.474   0.026   7.702
17681SOL    HW154484   5.471   0.036   7.607
17681SOL    HW254485   5.434  -0.059   7.719
17682SOL     OW54486   4.145   7.854   8.994
17682SOL    HW154487   4.223   7.819   8.952
17682SOL    HW254488   4.076   7.792   8.972
17683SOL     OW54489   5.322   7.932   8.149
17683SOL    HW154490   5.231   7.919   8.120
17683SOL    HW254491   5.315   7.963   8.239
17684SOL     OW54492   5.315   7.578   8.910
17684SOL    HW154493   5.350   7.655   8.866
17684SOL    HW254494   5.289   7.610   8.997
17685SOL     OW54495   3.760   0.091   8.083
17685SOL    HW154496   3.786  -0.001   8.074
17685SOL    HW254497   3.843   0.139   8.089
17686SOL     OW54498   4.543   7.435   7.965
17686SOL    HW154499   4.590   7.514   7.939
17686SOL    HW254500   4.451   7.462   7.969
17687SOL     OW54501   4.063   7.693   9.288
17687SOL    HW154502   4.093   7.776   9.251
17687SOL    HW254503   3.970   7.708   9.307
17688SOL     OW54504   4.986   7.806   8.383
17688SOL    HW154505   4.899   7.769   8.394
17688SOL    HW254506   5.043   7.750   8.437
17689SOL     OW54507   5.128   7.940   9.147
17689SOL    HW154508   5.112   7.958   9.240
17689SOL    HW254509   5.181   7.860   9.147
17690SOL     OW54510   4.643   0.369   8.999
17690SOL    HW154511   4.702   0.314   8.947
17690SOL    HW254512   4.563   0.375   8.946
17691SOL     OW54513   4.720   7.818   8.691
17691SOL    HW154514   4.634   7.843   8.724
17691SOL    HW254515   4.701   7.758   8.619
17692SOL     OW54516   4.629   7.777   7.640
17692SOL    HW154517   4.641   7.822   7.557
17692SOL    HW254518   4.660   7.688   7.624
17693SOL     OW54519   5.463   0.025   9.273
17693SOL    HW154520   5.407   0.087   9.225
17693SOL    HW254521   5.473  -0.049   9.213
17694SOL     OW54522   4.272   7.628   8.348
17694SOL    HW154523   4.276   7.645   8.442
17694SOL    HW254524   4.270   7.715   8.308
17695SOL     OW54525   3.917   7.710   8.950
17695SOL    HW154526   3.841   7.759   8.982
17695SOL    HW254527   3.900   7.619   8.977
17696SOL     OW54528   5.125   7.547   7.889
17696SOL    HW154529   5.115   7.521   7.797
17696SOL    HW254530   5.218   7.532   7.908
17697SOL     OW54531   5.241   7.675   9.175
17697SOL    HW154532   5.243   7.696   9.269
17697SOL    HW254533   5.183   7.599   9.169
17698SOL     OW54534   4.368   7.559   7.553
17698SOL    HW154535   4.431   7.488   7.566
17698SOL    HW254536   4.314   7.530   7.479
17699SOL     OW54537   4.491   7.716   9.201
17699SOL    HW154538   4.574   7.668   9.198
17699SOL    HW254539   4.443   7.678   9.275
17700SOL     OW54540   5.073   0.015   8.880
17700SOL    HW154541   5.101  -0.008   8.969
17700SOL    HW254542   5.007   0.084   8.894
17701SOL     OW54543   4.280   7.510   7.944
17701SOL    HW154544   4.208   7.520   8.006
17701SOL    HW254545   4.279   7.590   7.891
17702SOL     OW54546   4.015   7.503   7.633
17702SOL    HW154547   4.052   7.570   7.575
17702SOL    HW254548   4.090   7.449   7.657
17703SOL     OW54549   4.673   7.665   7.903
17703SOL    HW154550   4.642   7.725   7.835
17703SOL    HW254551   4.764   7.690   7.919
17704SOL     OW54552   3.821  -0.007   8.837
17704SOL    HW154553   3.905  -0.033   8.875
17704SOL    HW254554   3.807   0.082   8.870
17705SOL     OW54555   4.282   7.665   8.622
17705SOL    HW154556   4.322   7.596   8.674
17705SOL    HW254557   4.190   7.665   8.648
17706SOL     OW54558   4.749   7.501   8.191
17706SOL    HW154559   4.690   7.504   8.116
17706SOL    HW254560   4.720   7.425   8.242
17707SOL     OW54561   5.225   7.952   8.405
17707SOL    HW154562   5.135   7.921   8.411
17707SOL    HW254563   5.239   8.000   8.487
17708SOL     OW54564   4.271   7.718   7.767
17708SOL    HW154565   4.303   7.670   7.691
17708SOL    HW254566   4.314   7.804   7.761
17709SOL     OW54567   4.643   7.533   8.839
17709SOL    HW154568   4.665   7.510   8.749
17709SOL    HW254569   4.723   7.572   8.875
17710SOL     OW54570   4.990   7.800   8.734
17710SOL    HW154571   5.020   7.881   8.776
17710SOL    HW254572   4.896   7.815   8.719
17711SOL     OW54573   4.269   7.912   8.306
17711SOL    HW154574   4.236   7.977   8.244
17711SOL    HW254575   4.336   7.958   8.356
17712SOL     OW54576   4.730   7.588   9.208
17712SOL    HW154577   4.790   7.659   9.184
17712SOL    HW254578   4.775   7.508   9.181
17713SOL     OW54579   4.217   7.482   9.204
17713SOL    HW154580   4.170   7.428   9.140
17713SOL    HW254581   4.158   7.556   9.220
17714SOL     OW54582   4.020   7.640   8.697
17714SOL    HW154583   3.976   7.670   8.777
17714SOL    HW254584   4.003   7.546   8.695
17715SOL     OW54585   4.480   0.054   8.459
17715SOL    HW154586   4.531   0.066   8.379
17715SOL    HW254587   4.411   0.120   8.453
17716SOL     OW54588   4.010   7.460   8.052
17716SOL    HW154589   3.981   7.551   8.061
17716SOL    HW254590   4.031   7.433   8.142
17717SOL     OW54591   5.333   7.806   7.815
17717SOL    HW154592   5.379   7.737   7.863
17717SOL    HW254593   5.287   7.856   7.883
17718SOL     OW54594   5.208   7.738   7.580
17718SOL    HW154595   5.162   7.656   7.599
17718SOL    HW254596   5.260   7.755   7.659
17719SOL     OW54597   5.040   0.254   7.507
17719SOL    HW154598   5.012   0.164   7.521
17719SOL    HW254599   4.976   0.290   7.446
17720SOL     OW54600   4.026   7.986   8.490
17720SOL    HW154601   4.021   7.894   8.464
17720SOL    HW254602   4.098   8.022   8.439
17721SOL     OW54603   4.872   7.827   9.128
17721SOL    HW154604   4.819   7.903   9.151
17721SOL    HW254605   4.962   7.859   9.128
17722SOL     OW54606   4.885   7.634   8.928
17722SOL    HW154607   4.874   7.703   8.993
17722SOL    HW254608   4.931   7.676   8.856
17723SOL     OW54609   3.754   7.936   8.577
17723SOL    HW154610   3.836   7.940   8.526
17723SOL    HW254611   3.781   7.954   8.667
17724SOL     OW54612   3.926   7.958   9.161
17724SOL    HW154613   3.998   7.939   9.100
17724SOL    HW254614   3.938   8.051   9.182
17725SOL     OW54615   4.523   0.029   7.693
17725SOL    HW154616   4.570  -0.055   7.698
17725SOL    HW254617   4.473   0.033   7.775
17726SOL     OW54618   5.353   8.029   8.653
17726SOL    HW154619   5.336   7.973   8.729
17726SOL    HW254620   5.419   7.981   8.603
17727SOL     OW54621   4.447   7.884   8.680
17727SOL    HW154622   4.384   7.815   8.659
17727SOL    HW254623   4.444   7.943   8.605
17728SOL     OW54624   5.461   7.606   7.953
17728SOL    HW154625   5.529   7.589   7.888
17728SOL    HW254626   5.439   7.519   7.988
17729SOL     OW54627   5.570   7.617   8.411
17729SOL    HW154628   5.595   7.527   8.387
17729SOL    HW254629   5.484   7.629   8.373
17730SOL     OW54630   3.971   7.720   8.156
17730SOL    HW154631   3.882   7.755   8.145
17730SOL    HW254632   3.987   7.723   8.250
17731SOL     OW54633   4.753   7.668   8.419
17731SOL    HW154634   4.748   7.627   8.333
17731SOL    HW254635   4.745   7.595   8.481
17732SOL     OW54636   5.462   7.816   8.838
17732SOL    HW154637   5.525   7.888   8.832
17732SOL    HW254638   5.493   7.751   8.776
17733SOL     OW54639   4.402   7.633   8.945
17733SOL    HW154640   4.486   7.611   8.904
17733SOL    HW254641   4.426   7.668   9.031
17734SOL     OW54642   3.790   7.769   7.488
17734SOL    HW154643   3.722   7.757   7.421
17734SOL    HW254644   3.830   7.853   7.466
17735SOL     OW54645   3.780   7.593   7.743
17735SOL    HW154646   3.754   7.663   7.684
17735SOL    HW254647   3.868   7.568   7.713
17736SOL     OW54648   4.515   7.993   9.173
17736SOL    HW154649   4.424   8.022   9.162
17736SOL    HW254650   4.510   7.898   9.172
17737SOL     OW54651   4.936   7.746   7.923
17737SOL    HW154652   5.001   7.678   7.908
17737SOL    HW254653   4.976   7.803   7.989
17738SOL     OW54654   4.363   0.250   8.121
17738SOL    HW154655   4.330   0.327   8.076
17738SOL    HW254656   4.293   0.185   8.113
17739SOL     OW54657   5.479   7.803   9.113
17739SOL    HW154658   5.469   7.819   9.019
17739SOL    HW254659   5.406   7.746   9.136
17740SOL     OW54660   5.545   7.616   8.682
17740SOL    HW154661   5.540   7.520   8.689
17740SOL    HW254662   5.554   7.632   8.589
17741SOL     OW54663   4.098   7.860   7.955
17741SOL    HW154664   4.137   7.799   7.892
17741SOL    HW254665   4.058   7.804   8.021
17742SOL     OW54666   5.148   7.666   8.557
17742SOL    HW154667   5.156   7.575   8.586
17742SOL    HW254668   5.101   7.710   8.628
17743SOL     OW54669   4.729   7.450   8.587
17743SOL    HW154670   4.676   7.385   8.541
17743SOL    HW254671   4.817   7.413   8.588
17744SOL     OW54672   5.088   7.493   7.618
17744SOL    HW154673   5.127   7.419   7.571
17744SOL    HW254674   4.998   7.466   7.635
17745SOL     OW54675   5.047   7.899   8.128
17745SOL    HW154676   5.003   7.983   8.123
17745SOL    HW254677   5.024   7.864   8.214
17746SOL     OW54678   5.311   7.654   8.334
17746SOL    HW154679   5.258   7.669   8.413
17746SOL    HW254680   5.296   7.731   8.280
17747SOL     OW54681   3.949   7.744  10.308
17747SOL    HW154682   3.982   7.704  10.389
17747SOL    HW254683   3.862   7.705  10.296
17748SOL     OW54684   3.713   7.805   9.962
17748SOL    HW154685   3.632   7.847   9.993
17748SOL    HW254686   3.683   7.727   9.914
17749SOL     OW54687   5.412   0.024   9.552
17749SOL    HW154688   5.436   0.046   9.462
17749SOL    HW254689   5.429  -0.070   9.559
17750SOL     OW54690   4.146   7.851  10.859
17750SOL    HW154691   4.224   7.820  10.814
17750SOL    HW254692   4.078   7.789  10.834
17751SOL     OW54693   5.323   7.919  10.020
17751SOL    HW154694   5.235   7.913   9.985
17751SOL    HW254695   5.311   7.954  10.108
17752SOL     OW54696   5.313   7.577  10.774
17752SOL    HW154697   5.350   7.652  10.727
17752SOL    HW254698   5.288   7.612  10.859
17753SOL     OW54699   3.776   0.082   9.957
17753SOL    HW154700   3.783  -0.009   9.930
17753SOL    HW254701   3.843   0.127   9.905
17754SOL     OW54702   4.543   7.433   9.834
17754SOL    HW154703   4.588   7.512   9.805
17754SOL    HW254704   4.450   7.457   9.835
17755SOL     OW54705   4.062   7.692  11.151
17755SOL    HW154706   4.096   7.775  11.115
17755SOL    HW254707   3.970   7.710  11.169
17756SOL     OW54708   4.984   7.810  10.248
17756SOL    HW154709   4.897   7.771  10.258
17756SOL    HW254710   5.041   7.754  10.300
17757SOL     OW54711   5.129   7.943  11.009
17757SOL    HW154712   5.112   7.963  11.101
17757SOL    HW254713   5.183   7.864  11.012
17758SOL     OW54714   4.649   0.388  10.834
17758SOL    HW154715   4.713   0.325  10.801
17758SOL    HW254716   4.569   0.370  10.785
17759SOL     OW54717   4.716   7.813  10.554
17759SOL    HW154718   4.629   7.840  10.584
17759SOL    HW254719   4.698   7.758  10.477
17760SOL     OW54720   4.626   7.778   9.505
17760SOL    HW154721   4.642   7.825   9.424
17760SOL    HW254722   4.648   7.687   9.486
17761SOL     OW54723   5.461   0.030  11.106
17761SOL    HW154724   5.440   0.088  11.033
17761SOL    HW254725   5.482  -0.054  11.065
17762SOL     OW54726   4.272   7.626  10.211
17762SOL    HW154727   4.278   7.649  10.304
17762SOL    HW254728   4.270   7.711  10.166
17763SOL     OW54729   3.919   7.709  10.808
17763SOL    HW154730   3.840   7.759  10.829
17763SOL    HW254731   3.899   7.620  10.838
17764SOL     OW54732   5.121   7.542   9.751
17764SOL    HW154733   5.112   7.520   9.658
17764SOL    HW254734   5.216   7.547   9.764
17765SOL     OW54735   5.242   7.677  11.039
17765SOL    HW154736   5.246   7.700  11.132
17765SOL    HW254737   5.184   7.601  11.035
17766SOL     OW54738   4.373   7.558   9.410
17766SOL    HW154739   4.427   7.481   9.430
17766SOL    HW254740   4.316   7.529   9.339
17767SOL     OW54741   4.491   7.720  11.061
17767SOL    HW154742   4.574   7.671  11.059
17767SOL    HW254743   4.446   7.688  11.140
17768SOL     OW54744   5.072   0.014  10.744
17768SOL    HW154745   5.101  -0.009  10.832
17768SOL    HW254746   5.006   0.082  10.757
17769SOL     OW54747   4.281   7.505   9.808
17769SOL    HW154748   4.201   7.509   9.859
17769SOL    HW254749   4.278   7.582   9.752
17770SOL     OW54750   4.010   7.500   9.496
17770SOL    HW154751   4.063   7.559   9.442
17770SOL    HW254752   4.074   7.439   9.533
17771SOL     OW54753   4.672   7.662   9.765
17771SOL    HW154754   4.643   7.721   9.695
17771SOL    HW254755   4.763   7.688   9.782
17772SOL     OW54756   3.830  -0.007  10.708
17772SOL    HW154757   3.922  -0.032  10.720
17772SOL    HW254758   3.825   0.082  10.745
17773SOL     OW54759   4.283   7.668  10.484
17773SOL    HW154760   4.322   7.593  10.529
17773SOL    HW254761   4.191   7.666  10.510
17774SOL     OW54762   4.745   7.505  10.057
17774SOL    HW154763   4.688   7.509   9.980
17774SOL    HW254764   4.717   7.427  10.104
17775SOL     OW54765   5.222   7.957  10.272
17775SOL    HW154766   5.132   7.923  10.273
17775SOL    HW254767   5.227   8.013  10.349
17776SOL     OW54768   4.273   7.709   9.624
17776SOL    HW154769   4.304   7.659   9.548
17776SOL    HW254770   4.315   7.794   9.616
17777SOL     OW54771   4.644   7.530  10.702
17777SOL    HW154772   4.665   7.509  10.612
17777SOL    HW254773   4.723   7.571  10.737
17778SOL     OW54774   4.987   7.799  10.597
17778SOL    HW154775   5.018   7.879  10.639
17778SOL    HW254776   4.893   7.814  10.583
17779SOL     OW54777   4.269   7.913  10.172
17779SOL    HW154778   4.237   7.975  10.106
17779SOL    HW254779   4.339   7.961  10.217
17780SOL     OW54780   4.728   7.589  11.070
17780SOL    HW154781   4.788   7.660  11.047
17780SOL    HW254782   4.773   7.509  11.041
17781SOL     OW54783   4.215   7.478  11.070
17781SOL    HW154784   4.170   7.428  11.002
17781SOL    HW254785   4.159   7.554  11.084
17782SOL     OW54786   4.021   7.639  10.557
17782SOL    HW154787   3.979   7.668  10.638
17782SOL    HW254788   4.005   7.545  10.553
17783SOL     OW54789   4.475   0.054  10.319
17783SOL    HW154790   4.530   0.068  10.241
17783SOL    HW254791   4.426   0.135  10.328
17784SOL     OW54792   4.037   7.514   9.937
17784SOL    HW154793   4.010   7.603   9.961
17784SOL    HW254794   4.046   7.469  10.021
17785SOL     OW54795   5.326   7.783   9.682
17785SOL    HW154796   5.377   7.726   9.739
17785SOL    HW254797   5.308   7.860   9.736
17786SOL     OW54798   5.212   7.736   9.441
17786SOL    HW154799   5.161   7.656   9.457
17786SOL    HW254800   5.260   7.751   9.522
17787SOL     OW54801   5.022   0.257   9.388
17787SOL    HW154802   5.009   0.162   9.383
17787SOL    HW254803   4.966   0.292   9.318
17788SOL     OW54804   4.029   8.005  10.354
17788SOL    HW154805   4.018   7.913  10.331
17788SOL    HW254806   4.103   8.035  10.301
17789SOL     OW54807   4.873   7.825  10.994
17789SOL    HW154808   4.821   7.904  11.014
17789SOL    HW254809   4.963   7.856  10.995
17790SOL     OW54810   4.885   7.634  10.793
17790SOL    HW154811   4.875   7.704  10.858
17790SOL    HW254812   4.931   7.675  10.720
17791SOL     OW54813   3.742   7.928  10.455
17791SOL    HW154814   3.808   7.933  10.385
17791SOL    HW254815   3.789   7.951  10.535
17792SOL     OW54816   3.925   7.956  11.028
17792SOL    HW154817   3.988   7.931  10.960
17792SOL    HW254818   3.929   8.051  11.030
17793SOL     OW54819   4.515   0.030   9.556
17793SOL    HW154820   4.563  -0.053   9.562
17793SOL    HW254821   4.469   0.036   9.640
17794SOL     OW54822   5.356   8.030  10.526
17794SOL    HW154823   5.336   7.963  10.591
17794SOL    HW254824   5.416   7.987  10.465
17795SOL     OW54825   4.444   7.889  10.540
17795SOL    HW154826   4.383   7.818  10.521
17795SOL    HW254827   4.442   7.944  10.462
17796SOL     OW54828   5.471   7.602   9.825
17796SOL    HW154829   5.534   7.586   9.755
17796SOL    HW254830   5.446   7.514   9.855
17797SOL     OW54831   5.571   7.617  10.274
17797SOL    HW154832   5.595   7.528  10.249
17797SOL    HW254833   5.485   7.630  10.235
17798SOL     OW54834   3.974   7.766  10.026
17798SOL    HW154835   3.881   7.781  10.011
17798SOL    HW254836   3.983   7.764  10.122
17799SOL     OW54837   4.751   7.670  10.285
17799SOL    HW154838   4.745   7.631  10.198
17799SOL    HW254839   4.745   7.595  10.345
17800SOL     OW54840   5.461   7.818  10.699
17800SOL    HW154841   5.527   7.887  10.695
17800SOL    HW254842   5.492   7.750  10.639
17801SOL     OW54843   4.404   7.630  10.809
17801SOL    HW154844   4.487   7.610  10.767
17801SOL    HW254845   4.428   7.668  10.894
17802SOL     OW54846   3.800   7.777   9.340
17802SOL    HW154847   3.733   7.755   9.275
17802SOL    HW254848   3.835   7.861   9.311
17803SOL     OW54849   3.780   7.602   9.599
17803SOL    HW154850   3.765   7.674   9.538
17803SOL    HW254851   3.866   7.568   9.576
17804SOL     OW54852   4.506   7.998  11.030
17804SOL    HW154853   4.414   8.020  11.022
17804SOL    HW254854   4.508   7.902  11.031
17805SOL     OW54855   4.934   7.742   9.790
17805SOL    HW154856   4.999   7.675   9.771
17805SOL    HW254857   4.978   7.801   9.852
17806SOL     OW54858   4.358   0.246  10.023
17806SOL    HW154859   4.376   0.330   9.980
17806SOL    HW254860   4.303   0.199   9.961
17807SOL     OW54861   5.484   7.792  10.972
17807SOL    HW154862   5.471   7.810  10.879
17807SOL    HW254863   5.406   7.742  10.997
17808SOL     OW54864   5.540   7.614  10.545
17808SOL    HW154865   5.539   7.518  10.550
17808SOL    HW254866   5.551   7.632  10.452
17809SOL     OW54867   4.098   7.858   9.792
17809SOL    HW154868   4.140   7.788   9.742
17809SOL    HW254869   4.061   7.813   9.869
17810SOL     OW54870   5.147   7.668  10.418
17810SOL    HW154871   5.158   7.577  10.446
17810SOL    HW254872   5.099   7.710  10.490
17811SOL     OW54873   4.728   7.448  10.448
17811SOL    HW154874   4.678   7.384  10.397
17811SOL    HW254875   4.817   7.411  10.450
17812SOL     OW54876   5.087   7.493   9.479
17812SOL    HW154877   5.126   7.419   9.433
17812SOL    HW254878   4.997   7.466   9.497
17813SOL     OW54879   5.048   7.899   9.991
17813SOL    HW154880   5.006   7.985   9.982
17813SOL    HW254881   5.022   7.868  10.077
17814SOL     OW54882   5.313   7.654  10.195
17814SOL    HW154883   5.259   7.674  10.271
17814SOL    HW254884   5.300   7.728  10.136
17815SOL     OW54885   3.957   7.715  12.161
17815SOL    HW154886   3.987   7.686  12.247
17815SOL    HW254887   3.864   7.692  12.159
17816SOL     OW54888   3.717   7.809  11.831
17816SOL    HW154889   3.638   7.846  11.870
17816SOL    HW254890   3.687   7.733  11.781
17817SOL     OW54891   5.365   0.026  11.362
17817SOL    HW154892   5.411   0.022  11.278
17817SOL    HW254893   5.422  -0.020  11.423
17818SOL     OW54894   5.316   7.907  11.883
17818SOL    HW154895   5.227   7.901  11.848
17818SOL    HW254896   5.306   7.952  11.967
17819SOL     OW54897   3.779   0.093  11.799
17819SOL    HW154898   3.794  -0.001  11.793
17819SOL    HW254899   3.867   0.131  11.798
17820SOL     OW54900   4.538   7.430  11.689
17820SOL    HW154901   4.586   7.509  11.666
17820SOL    HW254902   4.446   7.457  11.692
17821SOL     OW54903   4.979   7.794  12.103
17821SOL    HW154904   4.890   7.764  12.122
17821SOL    HW254905   5.035   7.744  12.163
17822SOL     OW54906   4.685   7.788  12.422
17822SOL    HW154907   4.615   7.852  12.437
17822SOL    HW254908   4.687   7.776  12.327
17823SOL     OW54909   4.630   7.780  11.363
17823SOL    HW154910   4.662   7.818  11.281
17823SOL    HW254911   4.665   7.691  11.363
17824SOL     OW54912   4.272   7.634  12.051
17824SOL    HW154913   4.274   7.660  12.143
17824SOL    HW254914   4.274   7.717  12.003
17825SOL     OW54915   5.123   7.544  11.615
17825SOL    HW154916   5.118   7.524  11.522
17825SOL    HW254917   5.217   7.557  11.631
17826SOL     OW54918   4.373   7.561  11.274
17826SOL    HW154919   4.441   7.495  11.282
17826SOL    HW254920   4.317   7.530  11.203
17827SOL     OW54921   4.275   7.502  11.665
17827SOL    HW154922   4.196   7.510  11.719
17827SOL    HW254923   4.277   7.583  11.614
17828SOL     OW54924   4.014   7.497  11.357
17828SOL    HW154925   4.063   7.561  11.305
17828SOL    HW254926   4.081   7.439  11.393
17829SOL     OW54927   4.670   7.659  11.630
17829SOL    HW154928   4.636   7.730  11.576
17829SOL    HW254929   4.762   7.682  11.645
17830SOL     OW54930   3.826   0.013   0.062
17830SOL    HW154931   3.914  -0.008   0.092
17830SOL    HW254932   3.794   0.078   0.124
17831SOL     OW54933   4.281   7.668  12.322
17831SOL    HW154934   4.321   7.583  12.336
17831SOL    HW254935   4.194   7.661  12.361
17832SOL     OW54936   4.744   7.507  11.927
17832SOL    HW154937   4.692   7.510  11.847
17832SOL    HW254938   4.716   7.426  11.971
17833SOL     OW54939   5.206   7.960  12.127
17833SOL    HW154940   5.120   7.922  12.146
17833SOL    HW254941   5.241   7.981  12.214
17834SOL     OW54942   4.281   7.711  11.492
17834SOL    HW154943   4.312   7.665  11.413
17834SOL    HW254944   4.320   7.799  11.485
17835SOL     OW54945   4.963   7.857  12.425
17835SOL    HW154946   4.998   7.890  12.507
17835SOL    HW254947   4.877   7.822  12.448
17836SOL     OW54948   4.281   7.927  12.025
17836SOL    HW154949   4.271   7.999  11.962
17836SOL    HW254950   4.349   7.958  12.086
17837SOL     OW54951   4.028   7.627  12.419
17837SOL    HW154952   4.009   7.651  12.510
17837SOL    HW254953   4.001   7.535  12.413
17838SOL     OW54954   4.474   0.046  12.187
17838SOL    HW154955   4.562   0.051  12.151
17838SOL    HW254956   4.451   0.137  12.207
17839SOL     OW54957   4.032   7.512  11.796
17839SOL    HW154958   4.010   7.602  11.817
17839SOL    HW254959   4.043   7.469  11.881
17840SOL     OW54960   5.325   7.795  11.552
17840SOL    HW154961   5.376   7.731  11.601
17840SOL    HW254962   5.310   7.866  11.615
17841SOL     OW54963   5.221   7.736  11.302
17841SOL    HW154964   5.169   7.659  11.325
17841SOL    HW254965   5.264   7.761  11.384
17842SOL     OW54966   4.963   0.264  11.270
17842SOL    HW154967   5.019   0.187  11.263
17842SOL    HW254968   4.946   0.290  11.180
17843SOL     OW54969   4.019   7.986  12.183
17843SOL    HW154970   4.034   7.893  12.165
17843SOL    HW254971   4.099   8.029  12.152
17844SOL     OW54972   4.888   7.713   0.179
17844SOL    HW154973   4.905   7.732   0.272
17844SOL    HW254974   4.974   7.718   0.138
17845SOL     OW54975   3.773   7.958  12.297
17845SOL    HW154976   3.855   7.962  12.248
17845SOL    HW254977   3.800   7.963  12.388
17846SOL     OW54978   4.508   8.018  11.419
17846SOL    HW154979   4.559   7.938  11.411
17846SOL    HW254980   4.488   8.024  11.513
17847SOL     OW54981   5.350   8.015  12.354
17847SOL    HW154982   5.359   7.950  12.424
17847SOL    HW254983   5.433   8.011  12.307
17848SOL     OW54984   4.389   7.909  12.406
17848SOL    HW154985   4.353   7.825  12.376
17848SOL    HW254986   4.418   7.953  12.326
17849SOL     OW54987   5.464   7.601  11.684
17849SOL    HW154988   5.531   7.585  11.617
17849SOL    HW254989   5.442   7.514  11.717
17850SOL     OW54990   5.564   7.618  12.142
17850SOL    HW154991   5.593   7.531  12.114
17850SOL    HW254992   5.478   7.628  12.102
17851SOL     OW54993   3.981   7.766  11.887
17851SOL    HW154994   3.888   7.784  11.872
17851SOL    HW254995   3.987   7.751  11.982
17852SOL     OW54996   4.737   7.675  12.154
17852SOL    HW154997   4.737   7.633  12.068
17852SOL    HW254998   4.737   7.603  12.217
17853SOL     OW54999   5.466   7.839   0.042
17853SOL    HW155000   5.552   7.881   0.046
17853SOL    HW255001   5.482   7.754   0.003
17854SOL     OW55002   3.798   7.779  11.203
17854SOL    HW155003   3.731   7.759  11.138
17854SOL    HW255004   3.839   7.860  11.171
17855SOL     OW55005   3.780   7.601  11.458
17855SOL    HW155006   3.768   7.674  11.397
17855SOL    HW255007   3.869   7.569  11.439
17856SOL     OW55008   4.930   7.740  11.651
17856SOL    HW155009   4.999   7.676  11.635
17856SOL    HW255010   4.969   7.801  11.714
17857SOL     OW55011   4.353   0.246  11.865
17857SOL    HW155012   4.385   0.330  11.830
17857SOL    HW255013   4.306   0.207  11.792
17858SOL     OW55014   5.540   7.606  12.416
17858SOL    HW155015   5.555   7.512  12.411
17858SOL    HW255016   5.546   7.636  12.325
17859SOL     OW55017   4.070   7.848  11.622
17859SOL    HW155018   4.135   7.784  11.593
17859SOL    HW255019   4.053   7.823  11.713
17860SOL     OW55020   5.152   7.694  12.297
17860SOL    HW155021   5.208   7.650  12.361
17860SOL    HW255022   5.095   7.750  12.351
17861SOL     OW55023   4.737   7.444  12.303
17861SOL    HW155024   4.691   7.384  12.243
17861SOL    HW255025   4.826   7.409  12.308
17862SOL     OW55026   5.088   7.496  11.344
17862SOL    HW155027   5.127   7.421  11.299
17862SOL    HW255028   4.997   7.469  11.360
17863SOL     OW55029   5.040   7.895  11.852
17863SOL    HW155030   5.008   7.986  11.857
17863SOL    HW255031   5.021   7.859  11.939
17864SOL     OW55032   5.303   7.651  12.060
17864SOL    HW155033   5.250   7.678  12.135
17864SOL    HW255034   5.298   7.725  12.000
17865SOL     OW55035   5.864   0.611   0.014
17865SOL    HW155036   5.821   0.653   0.089
17865SOL    HW255037   5.792   0.587  -0.045
17866SOL     OW55038   5.782   0.325   0.996
17866SOL    HW155039   5.835   0.271   1.055
17866SOL    HW255040   5.706   0.271   0.975
17867SOL     OW55041   5.595   0.391   0.635
17867SOL    HW155042   5.509   0.412   0.671
17867SOL    HW255043   5.593   0.296   0.622
17868SOL     OW55044   6.158   1.302   1.192
17868SOL    HW155045   6.072   1.306   1.149
17868SOL    HW255046   6.174   1.392   1.222
17869SOL     OW55047   7.127   1.504   0.700
17869SOL    HW155048   7.089   1.483   0.785
17869SOL    HW255049   7.053   1.511   0.641
17870SOL     OW55050   6.718   0.702   0.693
17870SOL    HW155051   6.764   0.785   0.684
17870SOL    HW255052   6.670   0.710   0.776
17871SOL     OW55053   7.297   0.634   0.271
17871SOL    HW155054   7.297   0.633   0.176
17871SOL    HW255055   7.281   0.543   0.297
17872SOL     OW55056   6.325   1.135   1.050
17872SOL    HW155057   6.262   1.173   1.111
17872SOL    HW255058   6.366   1.210   1.008
17873SOL     OW55059   6.463   0.757   1.827
17873SOL    HW155060   6.449   0.828   1.890
17873SOL    HW255061   6.486   0.802   1.745
17874SOL     OW55062   6.273   0.998   0.644
17874SOL    HW155063   6.339   0.989   0.713
17874SOL    HW255064   6.205   1.053   0.683
17875SOL     OW55065   6.301   1.148   1.821
17875SOL    HW155066   6.349   1.224   1.853
17875SOL    HW255067   6.222   1.184   1.782
17876SOL     OW55068   5.920   1.411   1.068
17876SOL    HW155069   5.845   1.370   1.026
17876SOL    HW255070   5.961   1.463   0.998
17877SOL     OW55071   7.045   1.502   1.369
17877SOL    HW155072   7.099   1.580   1.382
17877SOL    HW255073   6.972   1.512   1.430
17878SOL     OW55074   6.032   0.388   1.477
17878SOL    HW155075   6.117   0.345   1.486
17878SOL    HW255076   5.968   0.316   1.480
17879SOL     OW55077   7.204   0.462   0.733
17879SOL    HW155078   7.165   0.499   0.654
17879SOL    HW255079   7.175   0.519   0.804
17880SOL     OW55080   5.798   1.723   0.469
17880SOL    HW155081   5.822   1.795   0.528
17880SOL    HW255082   5.876   1.710   0.414
17881SOL     OW55083   6.722   1.342   1.695
17881SOL    HW155084   6.761   1.336   1.782
17881SOL    HW255085   6.670   1.263   1.685
17882SOL     OW55086   5.807   1.452   0.542
17882SOL    HW155087   5.786   1.545   0.548
17882SOL    HW255088   5.755   1.411   0.611
17883SOL     OW55089   5.860   1.090   0.891
17883SOL    HW155090   5.856   1.001   0.925
17883SOL    HW255091   5.801   1.140   0.948
17884SOL     OW55092   6.183   1.791   1.430
17884SOL    HW155093   6.102   1.774   1.477
17884SOL    HW255094   6.208   1.880   1.457
17885SOL     OW55095   6.161   0.969   0.160
17885SOL    HW155096   6.225   0.990   0.091
17885SOL    HW255097   6.195   1.012   0.238
17886SOL     OW55098   7.243   0.114   1.487
17886SOL    HW155099   7.166   0.091   1.436
17886SOL    HW255100   7.208   0.150   1.569
17887SOL     OW55101   5.703   0.654   0.561
17887SOL    HW155102   5.675   0.565   0.583
17887SOL    HW255103   5.697   0.702   0.643
17888SOL     OW55104   7.428   1.740   0.333
17888SOL    HW155105   7.488   1.712   0.403
17888SOL    HW255106   7.398   1.826   0.361
17889SOL     OW55107   5.608   1.553   0.103
17889SOL    HW155108   5.524   1.507   0.103
17889SOL    HW255109   5.600   1.615   0.176
17890SOL     OW55110   7.273   0.937   0.654
17890SOL    HW155111   7.334   0.886   0.600
17890SOL    HW255112   7.233   1.000   0.594
17891SOL     OW55113   7.228   1.118   0.436
17891SOL    HW155114   7.316   1.115   0.400
17891SOL    HW255115   7.233   1.181   0.509
17892SOL     OW55116   5.708   0.754   1.583
17892SOL    HW155117   5.797   0.789   1.587
17892SOL    HW255118   5.652   0.831   1.581
17893SOL     OW55119   6.206   1.394   0.735
17893SOL    HW155120   6.163   1.309   0.745
17893SOL    HW255121   6.190   1.418   0.644
17894SOL     OW55122   6.869   1.235   1.417
17894SOL    HW155123   6.896   1.165   1.359
17894SOL    HW255124   6.926   1.227   1.493
17895SOL     OW55125   6.421   0.030   0.587
17895SOL    HW155126   6.454   0.107   0.540
17895SOL    HW255127   6.328   0.030   0.568
17896SOL     OW55128   5.772   0.958   1.285
17896SOL    HW155129   5.859   0.922   1.268
17896SOL    HW255130   5.714   0.910   1.225
17897SOL     OW55131   7.084   1.011   0.229
17897SOL    HW155132   7.019   0.952   0.266
17897SOL    HW255133   7.134   1.043   0.304
17898SOL     OW55134   6.770   1.821   1.632
17898SOL    HW155135   6.771   1.883   1.559
17898SOL    HW255136   6.785   1.735   1.591
17899SOL     OW55137   5.897   0.247   1.772
17899SOL    HW155138   5.967   0.303   1.806
17899SOL    HW255139   5.821   0.268   1.826
17900SOL     OW55140   7.053   1.416   0.950
17900SOL    HW155141   6.986   1.433   1.016
17900SOL    HW255142   7.040   1.325   0.924
17901SOL     OW55143   7.330   1.666   0.615
17901SOL    HW155144   7.303   1.750   0.576
17901SOL    HW255145   7.248   1.618   0.627
17902SOL     OW55146   6.175   0.715   0.282
17902SOL    HW155147   6.182   0.802   0.243
17902SOL    HW255148   6.109   0.724   0.350
17903SOL     OW55149   6.881   0.373   0.928
17903SOL    HW155150   6.789   0.347   0.932
17903SOL    HW255151   6.925   0.317   0.992
17904SOL     OW55152   7.158   1.664   0.317
17904SOL    HW155153   7.251   1.676   0.338
17904SOL    HW255154   7.150   1.698   0.228
17905SOL     OW55155   6.360   0.636   1.445
17905SOL    HW155156   6.344   0.604   1.534
17905SOL    HW255157   6.343   0.561   1.389
17906SOL     OW55158   6.985   0.489   1.680
17906SOL    HW155159   6.989   0.531   1.767
17906SOL    HW255160   7.058   0.427   1.681
17907SOL     OW55161   6.537   0.879   1.587
17907SOL    HW155162   6.586   0.806   1.548
17907SOL    HW255163   6.485   0.915   1.516
17908SOL     OW55164   6.594   0.425   1.208
17908SOL    HW155165   6.517   0.433   1.265
17908SOL    HW255166   6.564   0.370   1.136
17909SOL     OW55167   6.642   0.703   0.425
17909SOL    HW155168   6.659   0.697   0.519
17909SOL    HW255169   6.558   0.660   0.413
17910SOL     OW55170   5.677   0.822   0.775
17910SOL    HW155171   5.757   0.814   0.829
17910SOL    HW255172   5.631   0.897   0.813
17911SOL     OW55173   5.707   1.875   1.584
17911SOL    HW155174   5.714   1.852   1.677
17911SOL    HW255175   5.617   1.853   1.560
17912SOL     OW55176   6.472   0.366   0.210
17912SOL    HW155177   6.494   0.443   0.157
17912SOL    HW255178   6.457   0.296   0.147
17913SOL     OW55179   7.302   0.573   1.828
17913SOL    HW155180   7.263   0.647   1.781
17913SOL    HW255181   7.324   0.510   1.759
17914SOL     OW55182   6.964   1.142   0.535
17914SOL    HW155183   7.045   1.137   0.484
17914SOL    HW255184   6.910   1.204   0.487
17915SOL     OW55185   6.056   0.216   0.927
17915SOL    HW155186   6.106   0.244   1.004
17915SOL    HW255187   6.110   0.244   0.852
17916SOL     OW55188   6.580   1.433   0.472
17916SOL    HW155189   6.539   1.511   0.434
17916SOL    HW255190   6.564   1.441   0.566
17917SOL     OW55191   5.938   1.815   0.873
17917SOL    HW155192   5.983   1.731   0.879
17917SOL    HW255193   6.006   1.880   0.896
17918SOL     OW55194   7.389   1.052   0.878
17918SOL    HW155195   7.340   1.028   0.800
17918SOL    HW255196   7.323   1.058   0.947
17919SOL     OW55197   6.810   1.541   1.513
17919SOL    HW155198   6.798   1.470   1.575
17919SOL    HW255199   6.737   1.533   1.452
17920SOL     OW55200   5.894   0.987   0.253
17920SOL    HW155201   5.979   0.990   0.209
17920SOL    HW255202   5.863   0.898   0.238
17921SOL     OW55203   7.064   0.766   0.727
17921SOL    HW155204   7.063   0.717   0.809
17921SOL    HW255205   7.145   0.816   0.729
17922SOL     OW55206   6.058   1.272   1.739
17922SOL    HW155207   6.032   1.276   1.647
17922SOL    HW255208   5.975   1.266   1.787
17923SOL     OW55209   6.649   1.778   0.223
17923SOL    HW155210   6.639   1.740   0.311
17923SOL    HW255211   6.718   1.725   0.183
17924SOL     OW55212   5.770   0.252   1.502
17924SOL    HW155213   5.715   0.329   1.489
17924SOL    HW255214   5.799   0.257   1.593
17925SOL     OW55215   7.245   1.409   0.061
17925SOL    HW155216   7.177   1.474   0.043
17925SOL    HW255217   7.197   1.327   0.073
17926SOL     OW55218   6.035   1.737   0.324
17926SOL    HW155219   6.085   1.786   0.390
17926SOL    HW255220   6.102   1.693   0.272
17927SOL     OW55221   6.992   0.112   0.419
17927SOL    HW155222   6.986   0.061   0.338
17927SOL    HW255223   7.086   0.124   0.434
17928SOL     OW55224   5.841   1.789   1.226
17928SOL    HW155225   5.889   1.718   1.268
17928SOL    HW255226   5.834   1.762   1.134
17929SOL     OW55227   6.525   1.702   0.894
17929SOL    HW155228   6.600   1.650   0.921
17929SOL    HW255229   6.485   1.652   0.823
17930SOL     OW55230   5.976   0.696   0.477
17930SOL    HW155231   5.996   0.602   0.485
17930SOL    HW255232   5.886   0.704   0.508
17931SOL     OW55233   7.141   0.211   1.723
17931SOL    HW155234   7.153   0.247   1.811
17931SOL    HW255235   7.048   0.188   1.720
17932SOL     OW55236   6.175   0.076   0.113
17932SOL    HW155237   6.257   0.077   0.163
17932SOL    HW255238   6.192   0.016   0.040
17933SOL     OW55239   6.353   0.301   1.783
17933SOL    HW155240   6.424   0.239   1.767
17933SOL    HW255241   6.294   0.255   1.842
17934SOL     OW55242   6.461   1.526   1.196
17934SOL    HW155243   6.442   1.485   1.111
17934SOL    HW255244   6.528   1.470   1.235
17935SOL     OW55245   6.923   0.594   1.433
17935SOL    HW155246   6.954   0.562   1.518
17935SOL    HW255247   6.962   0.681   1.425
17936SOL     OW55248   6.407   1.385   0.952
17936SOL    HW155249   6.492   1.376   0.909
17936SOL    HW255250   6.345   1.394   0.880
17937SOL     OW55251   6.511   0.523   0.887
17937SOL    HW155252   6.478   0.509   0.798
17937SOL    HW255253   6.548   0.438   0.912
17938SOL     OW55254   6.165   0.048   0.470
17938SOL    HW155255   6.083   0.016   0.509
17938SOL    HW255256   6.138   0.122   0.415
17939SOL     OW55257   7.050   1.218   0.054
17939SOL    HW155258   7.062   1.139   0.106
17939SOL    HW255259   6.957   1.240   0.065
17940SOL     OW55260   5.915   0.025   0.206
17940SOL    HW155261   6.001   0.048   0.172
17940SOL    HW255262   5.934  -0.028   0.284
17941SOL     OW55263   6.531   0.258   0.465
17941SOL    HW155264   6.503   0.283   0.376
17941SOL    HW255265   6.626   0.266   0.463
17942SOL     OW55266   6.662   0.671   1.458
17942SOL    HW155267   6.607   0.593   1.467
17942SOL    HW255268   6.751   0.637   1.449
17943SOL     OW55269   6.808   1.575   0.792
17943SOL    HW155270   6.817   1.640   0.723
17943SOL    HW255271   6.870   1.603   0.859
17944SOL     OW55272   6.064   1.159   0.727
17944SOL    HW155273   5.999   1.136   0.794
17944SOL    HW255274   6.018   1.147   0.644
17945SOL     OW55275   6.845   1.795   0.613
17945SOL    HW155276   6.899   1.857   0.564
17945SOL    HW255277   6.777   1.848   0.653
17946SOL     OW55278   6.596   0.593   0.087
17946SOL    HW155279   6.610   0.539   0.009
17946SOL    HW255280   6.672   0.576   0.142
17947SOL     OW55281   5.682   0.554   1.401
17947SOL    HW155282   5.772   0.557   1.369
17947SOL    HW255283   5.677   0.626   1.464
17948SOL     OW55284   6.163   0.222   1.191
17948SOL    HW155285   6.189   0.143   1.239
17948SOL    HW255286   6.069   0.230   1.207
17949SOL     OW55287   6.432   0.455   0.633
17949SOL    HW155288   6.408   0.515   0.562
17949SOL    HW255289   6.471   0.380   0.588
17950SOL     OW55290   6.611   0.034   0.779
17950SOL    HW155291   6.545   0.031   0.710
17950SOL    HW255292   6.604  -0.050   0.823
17951SOL     OW55293   7.028   1.157   0.860
17951SOL    HW155294   6.956   1.096   0.850
17951SOL    HW255295   7.062   1.169   0.771
17952SOL     OW55296   7.053   0.607   0.956
17952SOL    HW155297   6.992   0.533   0.962
17952SOL    HW255298   7.106   0.601   1.035
17953SOL     OW55299   7.412   0.823   0.436
17953SOL    HW155300   7.463   0.757   0.483
17953SOL    HW255301   7.366   0.773   0.368
17954SOL     OW55302   6.072   1.407   0.163
17954SOL    HW155303   6.016   1.355   0.220
17954SOL    HW255304   6.010   1.454   0.106
17955SOL     OW55305   7.250   1.263   0.658
17955SOL    HW155306   7.345   1.269   0.671
17955SOL    HW255307   7.219   1.353   0.669
17956SOL     OW55308   6.984   0.549   0.080
17956SOL    HW155309   6.928   0.545   0.158
17956SOL    HW255310   7.043   0.475   0.089
17957SOL     OW55311   6.101   0.260   0.313
17957SOL    HW155312   6.129   0.210   0.236
17957SOL    HW255313   6.080   0.347   0.278
17958SOL     OW55314   7.328   1.255   1.549
17958SOL    HW155315   7.412   1.208   1.552
17958SOL    HW255316   7.351   1.345   1.569
17959SOL     OW55317   6.635   1.355   1.332
17959SOL    HW155318   6.559   1.322   1.380
17959SOL    HW255319   6.710   1.313   1.374
17960SOL     OW55320   7.191   1.625   1.665
17960SOL    HW155321   7.195   1.661   1.577
17960SOL    HW255322   7.260   1.559   1.667
17961SOL     OW55323   6.728   1.222   1.101
17961SOL    HW155324   6.663   1.252   1.163
17961SOL    HW255325   6.697   1.253   1.016
17962SOL     OW55326   7.207   1.098   1.078
17962SOL    HW155327   7.195   1.158   1.152
17962SOL    HW255328   7.132   1.115   1.021
17963SOL     OW55329   6.570   1.113   1.720
17963SOL    HW155330   6.479   1.129   1.745
17963SOL    HW255331   6.567   1.033   1.667
17964SOL     OW55332   6.300   1.067   0.377
17964SOL    HW155333   6.286   1.044   0.469
17964SOL    HW255334   6.377   1.017   0.351
17965SOL     OW55335   6.009   0.824   1.249
17965SOL    HW155336   6.074   0.837   1.319
17965SOL    HW255337   5.977   0.735   1.262
17966SOL     OW55338   6.862   0.401   1.246
17966SOL    HW155339   6.887   0.467   1.311
17966SOL    HW255340   6.769   0.415   1.231
17967SOL     OW55341   5.663   1.573   1.360
17967SOL    HW155342   5.637   1.649   1.308
17967SOL    HW255343   5.759   1.570   1.352
17968SOL     OW55344   5.923   1.124   0.497
17968SOL    HW155345   5.915   1.200   0.439
17968SOL    HW255346   5.926   1.049   0.439
17969SOL     OW55347   6.136   0.538   0.851
17969SOL    HW155348   6.152   0.600   0.780
17969SOL    HW255349   6.204   0.559   0.916
17970SOL     OW55350   6.829   1.346   0.395
17970SOL    HW155351   6.882   1.420   0.423
17970SOL    HW255352   6.741   1.366   0.427
17971SOL     OW55353   6.877   1.463   1.151
17971SOL    HW155354   6.928   1.464   1.232
17971SOL    HW255355   6.822   1.385   1.158
17972SOL     OW55356   7.136   0.606   0.506
17972SOL    HW155357   7.088   0.670   0.560
17972SOL    HW255358   7.165   0.657   0.430
17973SOL     OW55359   5.932   1.532   1.307
17973SOL    HW155360   5.921   1.484   1.225
17973SOL    HW255361   6.026   1.543   1.316
17974SOL     OW55362   6.012   0.739   1.612
17974SOL    HW155363   6.066   0.788   1.551
17974SOL    HW255364   6.063   0.660   1.630
17975SOL     OW55365   7.201   0.783   1.692
17975SOL    HW155366   7.114   0.822   1.685
17975SOL    HW255367   7.251   0.822   1.620
17976SOL     OW55368   6.572   0.117   1.708
17976SOL    HW155369   6.633   0.191   1.714
17976SOL    HW255370   6.562   0.102   1.614
17977SOL     OW55371   6.018  -0.005   1.787
17977SOL    HW155372   6.066  -0.030   1.708
17977SOL    HW255373   5.990   0.085   1.771
17978SOL     OW55374   6.174   0.875   1.032
17978SOL    HW155375   6.209   0.964   1.039
17978SOL    HW255376   6.116   0.866   1.108
17979SOL     OW55377   6.922   0.853   1.021
17979SOL    HW155378   6.834   0.835   0.988
17979SOL    HW255379   6.970   0.772   1.007
17980SOL     OW55380   6.794   0.526   0.276
17980SOL    HW155381   6.805   0.451   0.334
17980SOL    HW255382   6.749   0.592   0.330
17981SOL     OW55383   5.893   0.203   1.233
17981SOL    HW155384   5.837   0.209   1.311
17981SOL    HW255385   5.880   0.114   1.201
17982SOL     OW55386   5.639   1.313   1.269
17982SOL    HW155387   5.666   1.256   1.341
17982SOL    HW255388   5.639   1.401   1.307
17983SOL     OW55389   6.305   0.626   1.051
17983SOL    HW155390   6.382   0.614   0.995
17983SOL    HW255391   6.277   0.716   1.034
17984SOL     OW55392   7.325   0.967   1.860
17984SOL    HW155393   7.285   0.894   1.812
17984SOL    HW255394   7.265   0.984   1.932
17985SOL     OW55395   5.946   0.075   0.658
17985SOL    HW155396   5.933   0.162   0.696
17985SOL    HW255397   5.945   0.016   0.733
17986SOL     OW55398   7.227   0.385   0.371
17986SOL    HW155399   7.236   0.303   0.421
17986SOL    HW255400   7.184   0.445   0.431
17987SOL     OW55401   6.619   0.762   0.963
17987SOL    HW155402   6.605   0.776   1.056
17987SOL    HW255403   6.588   0.673   0.946
17988SOL     OW55404   6.568   1.569   1.725
17988SOL    HW155405   6.550   1.611   1.641
17988SOL    HW255406   6.608   1.485   1.702
17989SOL     OW55407   7.456   1.522   1.576
17989SOL    HW155408   7.446   1.617   1.589
17989SOL    HW255409   7.532   1.499   1.628
17990SOL     OW55410   5.938   0.917   1.809
17990SOL    HW155411   6.015   0.936   1.862
17990SOL    HW255412   5.967   0.851   1.746
17991SOL     OW55413   7.091   0.281   0.156
17991SOL    HW155414   7.137   0.197   0.153
17991SOL    HW255415   7.134   0.329   0.227
17992SOL     OW55416   6.877   0.809   0.056
17992SOL    HW155417   6.925   0.727   0.045
17992SOL    HW255418   6.918   0.870  -0.005
17993SOL     OW55419   6.657   1.346   0.858
17993SOL    HW155420   6.663   1.272   0.796
17993SOL    HW255421   6.716   1.412   0.821
17994SOL     OW55422   5.897   0.812   0.943
17994SOL    HW155423   5.991   0.832   0.938
17994SOL    HW255424   5.893   0.723   0.979
17995SOL     OW55425   5.931   0.544   1.020
17995SOL    HW155426   5.881   0.465   1.004
17995SOL    HW255427   6.003   0.540   0.958
17996SOL     OW55428   6.741   0.359   1.732
17996SOL    HW155429   6.678   0.418   1.775
17996SOL    HW255430   6.813   0.416   1.706
17997SOL     OW55431   6.817   0.228   1.498
17997SOL    HW155432   6.781   0.279   1.571
17997SOL    HW255433   6.757   0.246   1.425
17998SOL     OW55434   5.674   1.778   0.940
17998SOL    HW155435   5.644   1.700   0.893
17998SOL    HW255436   5.763   1.792   0.910
17999SOL     OW55437   6.074   1.574   0.901
17999SOL    HW155438   6.143   1.636   0.925
17999SOL    HW255439   6.117   1.511   0.844
18000SOL     OW55440   6.551   0.784   1.228
18000SOL    HW155441   6.610   0.759   1.299
18000SOL    HW255442   6.468   0.743   1.250
18001SOL     OW55443   5.619   0.552   1.120
18001SOL    HW155444   5.681   0.504   1.066
18001SOL    HW255445   5.656   0.549   1.208
18002SOL     OW55446   5.777   0.536   1.733
18002SOL    HW155447   5.857   0.519   1.684
18002SOL    HW255448   5.736   0.610   1.687
18003SOL     OW55449   6.971   0.928   1.656
18003SOL    HW155450   6.989   1.022   1.652
18003SOL    HW255451   6.965   0.900   1.565
18004SOL     OW55452   6.401   0.577   0.381
18004SOL    HW155453   6.411   0.501   0.324
18004SOL    HW255454   6.326   0.625   0.346
18005SOL     OW55455   7.226   0.611   1.170
18005SOL    HW155456   7.216   0.555   1.247
18005SOL    HW255457   7.313   0.592   1.137
18006SOL     OW55458   5.823   1.546   1.721
18006SOL    HW155459   5.799   1.610   1.788
18006SOL    HW255460   5.830   1.463   1.768
18007SOL     OW55461   6.309   0.449   1.259
18007SOL    HW155462   6.255   0.372   1.241
18007SOL    HW255463   6.296   0.506   1.184
18008SOL     OW55464   6.510   1.676   1.471
18008SOL    HW155465   6.483   1.635   1.390
18008SOL    HW255466   6.503   1.770   1.454
18009SOL     OW55467   6.042   0.490   0.192
18009SOL    HW155468   6.097   0.565   0.214
18009SOL    HW255469   5.986   0.521   0.121
18010SOL     OW55470   5.724   1.145   1.476
18010SOL    HW155471   5.727   1.101   1.561
18010SOL    HW255472   5.742   1.076   1.412
18011SOL     OW55473   6.907   1.045   1.213
18011SOL    HW155474   6.921   0.978   1.146
18011SOL    HW255475   6.843   1.105   1.174
18012SOL     OW55476   6.886   0.843   0.328
18012SOL    HW155477   6.808   0.808   0.371
18012SOL    HW255478   6.876   0.820   0.236
18013SOL     OW55479   7.398   1.708   1.178
18013SOL    HW155480   7.448   1.742   1.104
18013SOL    HW255481   7.353   1.631   1.143
18014SOL     OW55482   6.825   1.732   1.101
18014SOL    HW155483   6.908   1.757   1.061
18014SOL    HW255484   6.837   1.640   1.124
18015SOL     OW55485   5.679   1.264   1.008
18015SOL    HW155486   5.661   1.280   1.100
18015SOL    HW255487   5.608   1.208   0.978
18016SOL     OW55488   6.263   1.676   1.740
18016SOL    HW155489   6.200   1.748   1.733
18016SOL    HW255490   6.331   1.697   1.676
18017SOL     OW55491   6.502   0.121   0.064
18017SOL    HW155492   6.595   0.137   0.081
18017SOL    HW255493   6.469   0.084   0.146
18018SOL     OW55494   7.263   0.145   0.504
18018SOL    HW155495   7.348   0.111   0.476
18018SOL    HW255496   7.240   0.091   0.580
18019SOL     OW55497   6.962   1.571   0.485
18019SOL    HW155498   7.030   1.600   0.424
18019SOL    HW255499   6.922   1.651   0.516
18020SOL     OW55500   5.731   1.794   1.840
18020SOL    HW155501   5.680   1.726   1.885
18020SOL    HW255502   5.772   1.845   1.910
18021SOL     OW55503   6.859   0.936   0.675
18021SOL    HW155504   6.933   0.876   0.689
18021SOL    HW255505   6.893   1.003   0.616
18022SOL     OW55506   6.382   1.281   1.418
18022SOL    HW155507   6.355   1.323   1.500
18022SOL    HW255508   6.307   1.292   1.360
18023SOL     OW55509   6.240   1.624   0.182
18023SOL    HW155510   6.316   1.623   0.123
18023SOL    HW255511   6.202   1.537   0.174
18024SOL     OW55512   7.231   1.721   1.404
18024SOL    HW155513   7.275   1.725   1.319
18024SOL    HW255514   7.213   1.813   1.426
18025SOL     OW55515   7.455   0.161   0.936
18025SOL    HW155516   7.443   0.080   0.986
18025SOL    HW255517   7.366   0.188   0.913
18026SOL     OW55518   5.850   0.324   0.722
18026SOL    HW155519   5.764   0.359   0.700
18026SOL    HW255520   5.853   0.326   0.817
18027SOL     OW55521   6.789   1.604   0.068
18027SOL    HW155522   6.783   1.511   0.089
18027SOL    HW255523   6.755   1.612  -0.021
18028SOL     OW55524   6.409   1.009   1.381
18028SOL    HW155525   6.453   0.997   1.297
18028SOL    HW255526   6.406   1.104   1.393
18029SOL     OW55527   6.516   0.928   0.296
18029SOL    HW155528   6.575   0.949   0.223
18029SOL    HW255529   6.556   0.851   0.337
18030SOL     OW55530   7.049   1.579  -0.003
18030SOL    HW155531   6.965   1.601   0.037
18030SOL    HW255532   7.102   1.658   0.010
18031SOL     OW55533   5.953   1.306   1.493
18031SOL    HW155534   5.939   1.383   1.437
18031SOL    HW255535   5.876   1.252   1.479
18032SOL     OW55536   7.202   1.287   1.293
18032SOL    HW155537   7.246   1.263   1.375
18032SOL    HW255538   7.135   1.350   1.320
18033SOL     OW55539   6.650   1.116   0.716
18033SOL    HW155540   6.577   1.065   0.751
18033SOL    HW255541   6.715   1.051   0.692
18034SOL     OW55542   6.619   0.268   0.936
18034SOL    HW155543   6.614   0.213   0.857
18034SOL    HW255544   6.620   0.205   1.008
18035SOL     OW55545   6.188   1.476   0.476
18035SOL    HW155546   6.238   1.429   0.409
18035SOL    HW255547   6.108   1.502   0.432
18036SOL     OW55548   7.307   0.434   1.376
18036SOL    HW155549   7.388   0.484   1.379
18036SOL    HW255550   7.330   0.354   1.328
18037SOL     OW55551   5.857   1.323   0.316
18037SOL    HW155552   5.770   1.298   0.287
18037SOL    HW255553   5.843   1.376   0.394
18038SOL     OW55554   5.704   1.042   1.731
18038SOL    HW155555   5.627   1.013   1.780
18038SOL    HW255556   5.777   0.994   1.770
18039SOL     OW55557   6.250   0.223   1.510
18039SOL    HW155558   6.312   0.166   1.464
18039SOL    HW255559   6.265   0.203   1.603
18040SOL     OW55560   7.010   0.860   1.395
18040SOL    HW155561   6.958   0.919   1.339
18040SOL    HW255562   7.097   0.860   1.355
18041SOL     OW55563   5.683   0.193   0.275
18041SOL    HW155564   5.694   0.271   0.329
18041SOL    HW255565   5.767   0.149   0.279
18042SOL     OW55566   6.778   1.334   0.119
18042SOL    HW155567   6.684   1.323   0.110
18042SOL    HW255568   6.795   1.324   0.213
18043SOL     OW55569   6.198   0.846   1.439
18043SOL    HW155570   6.258   0.919   1.426
18043SOL    HW255571   6.254   0.769   1.442
18044SOL     OW55572   7.063   1.793   0.977
18044SOL    HW155573   7.084   1.868   0.921
18044SOL    HW255574   7.145   1.745   0.983
18045SOL     OW55575   6.299   0.561   1.699
18045SOL    HW155576   6.347   0.621   1.757
18045SOL    HW255577   6.315   0.474   1.736
18046SOL     OW55578   7.058   1.191   1.627
18046SOL    HW155579   7.044   1.206   1.720
18046SOL    HW255580   7.149   1.215   1.612
18047SOL     OW55581   5.949   1.741   1.566
18047SOL    HW155582   5.867   1.788   1.551
18047SOL    HW255583   5.923   1.659   1.607
18048SOL     OW55584   7.248   0.878   1.253
18048SOL    HW155585   7.242   0.792   1.211
18048SOL    HW255586   7.237   0.941   1.182
18049SOL     OW55587   6.806   0.310   0.444
18049SOL    HW155588   6.869   0.239   0.441
18049SOL    HW255589   6.829   0.358   0.524
18050SOL     OW55590   6.174   0.737   0.669
18050SOL    HW155591   6.213   0.824   0.654
18050SOL    HW255592   6.107   0.729   0.600
18051SOL     OW55593   7.344   0.380   1.639
18051SOL    HW155594   7.321   0.400   1.548
18051SOL    HW255595   7.282   0.311   1.664
18052SOL     OW55596   7.341   0.927   1.506
18052SOL    HW155597   7.319   1.020   1.519
18052SOL    HW255598   7.317   0.910   1.414
18053SOL     OW55599   6.503   1.373   0.063
18053SOL    HW155600   6.441   1.352   0.133
18053SOL    HW255601   6.485   1.465   0.042
18054SOL     OW55602   6.249   1.780   0.932
18054SOL    HW155603   6.232   1.873   0.918
18054SOL    HW255604   6.344   1.772   0.928
18055SOL     OW55605   6.457   0.974   0.855
18055SOL    HW155606   6.507   0.901   0.891
18055SOL    HW255607   6.413   1.013   0.930
18056SOL     OW55608   6.673   0.989   0.076
18056SOL    HW155609   6.712   1.058   0.022
18056SOL    HW255610   6.742   0.923   0.084
18057SOL     OW55611   7.449   1.570   0.839
18057SOL    HW155612   7.412   1.597   0.755
18057SOL    HW255613   7.414   1.482   0.854
18058SOL     OW55614   5.806   1.293   1.847
18058SOL    HW155615   5.761   1.219   1.806
18058SOL    HW255616   5.756   1.310   1.927
18059SOL     OW55617   5.678   1.229   0.671
18059SOL    HW155618   5.691   1.186   0.756
18059SOL    HW255619   5.742   1.187   0.613
18060SOL     OW55620   6.273   1.413   1.633
18060SOL    HW155621   6.196   1.369   1.668
18060SOL    HW255622   6.270   1.501   1.670
18061SOL     OW55623   7.406   0.226   1.236
18061SOL    HW155624   7.336   0.161   1.232
18061SOL    HW255625   7.434   0.236   1.145
18062SOL     OW55626   6.006   0.433   0.520
18062SOL    HW155627   6.033   0.361   0.464
18062SOL    HW255628   5.965   0.391   0.595
18063SOL     OW55629   7.274   1.480   1.105
18063SOL    HW155630   7.203   1.464   1.042
18063SOL    HW255631   7.261   1.414   1.173
18064SOL     OW55632   5.928   0.566   1.295
18064SOL    HW155633   5.979   0.504   1.347
18064SOL    HW255634   5.944   0.541   1.205
18065SOL     OW55635   6.418   1.573   0.680
18065SOL    HW155636   6.401   1.618   0.597
18065SOL    HW255637   6.343   1.514   0.691
18066SOL     OW55638   7.017   0.221   1.114
18066SOL    HW155639   7.073   0.171   1.173
18066SOL    HW255640   6.966   0.278   1.173
18067SOL     OW55641   6.606   0.078   1.122
18067SOL    HW155642   6.563   0.081   1.208
18067SOL    HW255643   6.682   0.022   1.136
18068SOL     OW55644   6.369   1.328   0.309
18068SOL    HW155645   6.339   1.238   0.326
18068SOL    HW255646   6.445   1.338   0.365
18069SOL     OW55647   6.206   1.559   1.288
18069SOL    HW155648   6.205   1.640   1.338
18069SOL    HW255649   6.295   1.554   1.252
18070SOL     OW55650   6.922  -0.012   0.139
18070SOL    HW155651   7.006   0.029   0.121
18070SOL    HW255652   6.860   0.061   0.146
18071SOL     OW55653   6.862   0.459   0.665
18071SOL    HW155654   6.817   0.543   0.675
18071SOL    HW255655   6.877   0.429   0.755
18072SOL     OW55656   7.203   0.228   0.878
18072SOL    HW155657   7.123   0.221   0.929
18072SOL    HW255658   7.189   0.304   0.821
18073SOL     OW55659   5.636   1.078   0.339
18073SOL    HW155660   5.725   1.067   0.307
18073SOL    HW255661   5.613   0.993   0.377
18074SOL     OW55662   6.444   1.650   0.387
18074SOL    HW155663   6.370   1.642   0.327
18074SOL    HW255664   6.434   1.737   0.426
18075SOL     OW55665   5.802   0.638   1.995
18075SOL    HW155666   5.714   0.629   2.031
18075SOL    HW255667   5.793   0.615   1.903
18076SOL     OW55668   5.802   0.301   2.854
18076SOL    HW155669   5.834   0.260   2.934
18076SOL    HW255670   5.719   0.258   2.836
18077SOL     OW55671   5.580   0.391   2.504
18077SOL    HW155672   5.495   0.425   2.532
18077SOL    HW255673   5.584   0.302   2.540
18078SOL     OW55674   6.159   1.302   3.051
18078SOL    HW155675   6.072   1.305   3.011
18078SOL    HW255676   6.173   1.390   3.085
18079SOL     OW55677   7.162   1.518   2.573
18079SOL    HW155678   7.118   1.493   2.654
18079SOL    HW255679   7.091   1.521   2.508
18080SOL     OW55680   6.721   0.698   2.554
18080SOL    HW155681   6.767   0.782   2.544
18080SOL    HW255682   6.672   0.707   2.636
18081SOL     OW55683   7.380   0.597   2.084
18081SOL    HW155684   7.348   0.591   1.994
18081SOL    HW255685   7.337   0.524   2.129
18082SOL     OW55686   6.329   1.138   2.911
18082SOL    HW155687   6.263   1.175   2.971
18082SOL    HW255688   6.371   1.214   2.872
18083SOL     OW55689   6.466   0.750   3.688
18083SOL    HW155690   6.446   0.816   3.754
18083SOL    HW255691   6.488   0.801   3.609
18084SOL     OW55692   6.272   0.993   2.505
18084SOL    HW155693   6.338   0.988   2.574
18084SOL    HW255694   6.203   1.049   2.541
18085SOL     OW55695   6.301   1.148   3.681
18085SOL    HW155696   6.349   1.225   3.712
18085SOL    HW255697   6.220   1.184   3.644
18086SOL     OW55698   5.924   1.405   2.930
18086SOL    HW155699   5.844   1.366   2.893
18086SOL    HW255700   5.956   1.463   2.861
18087SOL     OW55701   7.043   1.506   3.226
18087SOL    HW155702   7.098   1.584   3.237
18087SOL    HW255703   6.974   1.516   3.291
18088SOL     OW55704   6.037   0.381   3.317
18088SOL    HW155705   6.116   0.331   3.336
18088SOL    HW255706   5.965   0.328   3.350
18089SOL     OW55707   7.199   0.452   2.589
18089SOL    HW155708   7.130   0.471   2.526
18089SOL    HW255709   7.197   0.526   2.649
18090SOL     OW55710   5.805   1.717   2.330
18090SOL    HW155711   5.825   1.792   2.387
18090SOL    HW255712   5.876   1.717   2.265
18091SOL     OW55713   6.723   1.342   3.555
18091SOL    HW155714   6.762   1.336   3.642
18091SOL    HW255715   6.671   1.263   3.546
18092SOL     OW55716   5.828   1.448   2.407
18092SOL    HW155717   5.802   1.540   2.406
18092SOL    HW255718   5.769   1.407   2.469
18093SOL     OW55719   5.864   1.091   2.752
18093SOL    HW155720   5.854   1.003   2.787
18093SOL    HW255721   5.804   1.144   2.805
18094SOL     OW55722   6.191   1.784   3.301
18094SOL    HW155723   6.104   1.769   3.340
18094SOL    HW255724   6.210   1.875   3.321
18095SOL     OW55725   6.159   0.987   2.006
18095SOL    HW155726   6.210   1.029   1.936
18095SOL    HW255727   6.199   1.019   2.087
18096SOL     OW55728   7.244   0.119   3.349
18096SOL    HW155729   7.181   0.150   3.284
18096SOL    HW255730   7.205   0.140   3.433
18097SOL     OW55731   5.708   0.659   2.423
18097SOL    HW155732   5.672   0.574   2.448
18097SOL    HW255733   5.699   0.713   2.502
18098SOL     OW55734   7.434   1.748   2.187
18098SOL    HW155735   7.502   1.725   2.250
18098SOL    HW255736   7.448   1.842   2.170
18099SOL     OW55737   5.633   1.584   1.976
18099SOL    HW155738   5.611   1.494   1.998
18099SOL    HW255739   5.604   1.635   2.052
18100SOL     OW55740   7.276   0.922   2.509
18100SOL    HW155741   7.355   0.875   2.483
18100SOL    HW255742   7.253   0.974   2.432
18101SOL     OW55743   7.236   1.103   2.292
18101SOL    HW155744   7.323   1.102   2.250
18101SOL    HW255745   7.244   1.169   2.361
18102SOL     OW55746   5.700   0.755   3.445
18102SOL    HW155747   5.786   0.797   3.456
18102SOL    HW255748   5.638   0.828   3.441
18103SOL     OW55749   6.206   1.392   2.603
18103SOL    HW155750   6.159   1.309   2.609
18103SOL    HW255751   6.197   1.419   2.512
18104SOL     OW55752   6.868   1.236   3.278
18104SOL    HW155753   6.898   1.166   3.220
18104SOL    HW255754   6.926   1.230   3.354
18105SOL     OW55755   6.425   0.031   2.415
18105SOL    HW155756   6.468   0.109   2.380
18105SOL    HW255757   6.334   0.056   2.426
18106SOL     OW55758   5.773   0.957   3.154
18106SOL    HW155759   5.857   0.919   3.130
18106SOL    HW255760   5.711   0.919   3.091
18107SOL     OW55761   7.118   1.004   2.062
18107SOL    HW155762   7.049   0.946   2.094
18107SOL    HW255763   7.160   1.037   2.142
18108SOL     OW55764   6.769   1.822   3.496
18108SOL    HW155765   6.773   1.884   3.424
18108SOL    HW255766   6.786   1.737   3.456
18109SOL     OW55767   5.892   0.233   3.637
18109SOL    HW155768   5.960   0.283   3.681
18109SOL    HW255769   5.812   0.254   3.685
18110SOL     OW55770   7.055   1.417   2.806
18110SOL    HW155771   6.990   1.434   2.874
18110SOL    HW255772   7.039   1.326   2.780
18111SOL     OW55773   7.238   1.763   2.436
18111SOL    HW155774   7.215   1.725   2.351
18111SOL    HW255775   7.222   1.692   2.498
18112SOL     OW55776   6.181   0.718   2.136
18112SOL    HW155777   6.181   0.804   2.093
18112SOL    HW255778   6.116   0.726   2.206
18113SOL     OW55779   6.879   0.374   2.795
18113SOL    HW155780   6.788   0.346   2.798
18113SOL    HW255781   6.924   0.318   2.858
18114SOL     OW55782   7.165   1.674   2.176
18114SOL    HW155783   7.258   1.696   2.166
18114SOL    HW255784   7.134   1.660   2.086
18115SOL     OW55785   6.356   0.644   3.300
18115SOL    HW155786   6.346   0.612   3.389
18115SOL    HW255787   6.348   0.565   3.245
18116SOL     OW55788   6.997   0.488   3.543
18116SOL    HW155789   6.994   0.533   3.627
18116SOL    HW255790   7.067   0.424   3.553
18117SOL     OW55791   6.536   0.880   3.449
18117SOL    HW155792   6.584   0.808   3.409
18117SOL    HW255793   6.486   0.918   3.376
18118SOL     OW55794   6.597   0.413   3.068
18118SOL    HW155795   6.514   0.434   3.111
18118SOL    HW255796   6.572   0.375   2.984
18119SOL     OW55797   6.643   0.701   2.285
18119SOL    HW155798   6.663   0.695   2.379
18119SOL    HW255799   6.558   0.658   2.275
18120SOL     OW55800   5.672   0.827   2.635
18120SOL    HW155801   5.751   0.821   2.689
18120SOL    HW255802   5.622   0.899   2.673
18121SOL     OW55803   5.708   1.875   3.439
18121SOL    HW155804   5.710   1.849   3.531
18121SOL    HW255805   5.617   1.863   3.413
18122SOL     OW55806   6.474   0.356   2.076
18122SOL    HW155807   6.512   0.406   2.003
18122SOL    HW255808   6.443   0.275   2.035
18123SOL     OW55809   7.301   0.572   3.690
18123SOL    HW155810   7.263   0.646   3.643
18123SOL    HW255811   7.325   0.510   3.621
18124SOL     OW55812   6.971   1.143   2.403
18124SOL    HW155813   7.051   1.132   2.351
18124SOL    HW255814   6.918   1.204   2.352
18125SOL     OW55815   6.110   0.241   2.780
18125SOL    HW155816   6.109   0.254   2.875
18125SOL    HW255817   6.121   0.329   2.744
18126SOL     OW55818   6.590   1.445   2.328
18126SOL    HW155819   6.557   1.521   2.279
18126SOL    HW255820   6.574   1.467   2.419
18127SOL     OW55821   5.931   1.808   2.724
18127SOL    HW155822   5.971   1.721   2.733
18127SOL    HW255823   5.987   1.866   2.775
18128SOL     OW55824   7.385   1.051   2.733
18128SOL    HW155825   7.331   1.028   2.658
18128SOL    HW255826   7.323   1.059   2.806
18129SOL     OW55827   6.812   1.544   3.377
18129SOL    HW155828   6.799   1.469   3.436
18129SOL    HW255829   6.736   1.542   3.319
18130SOL     OW55830   5.895   0.960   2.119
18130SOL    HW155831   5.978   0.979   2.075
18130SOL    HW255832   5.868   0.875   2.083
18131SOL     OW55833   7.067   0.756   2.582
18131SOL    HW155834   7.063   0.715   2.668
18131SOL    HW255835   7.145   0.811   2.585
18132SOL     OW55836   6.058   1.271   3.599
18132SOL    HW155837   6.031   1.277   3.507
18132SOL    HW255838   5.975   1.265   3.647
18133SOL     OW55839   6.707   1.778   2.090
18133SOL    HW155840   6.629   1.741   2.131
18133SOL    HW255841   6.733   1.714   2.024
18134SOL     OW55842   5.777   0.266   3.367
18134SOL    HW155843   5.708   0.332   3.367
18134SOL    HW255844   5.796   0.251   3.460
18135SOL     OW55845   7.219   1.385   1.944
18135SOL    HW155846   7.172   1.469   1.941
18135SOL    HW255847   7.151   1.320   1.928
18136SOL     OW55848   6.052   1.753   2.173
18136SOL    HW155849   6.105   1.786   2.246
18136SOL    HW255850   6.114   1.703   2.120
18137SOL     OW55851   7.013   0.132   2.260
18137SOL    HW155852   7.043   0.107   2.173
18137SOL    HW255853   7.094   0.147   2.309
18138SOL     OW55854   5.861   1.796   3.074
18138SOL    HW155855   5.893   1.714   3.113
18138SOL    HW255856   5.799   1.767   3.007
18139SOL     OW55857   6.528   1.700   2.754
18139SOL    HW155858   6.595   1.641   2.788
18139SOL    HW255859   6.491   1.654   2.679
18140SOL     OW55860   5.986   0.690   2.334
18140SOL    HW155861   6.003   0.597   2.350
18140SOL    HW255862   5.892   0.701   2.352
18141SOL     OW55863   7.143   0.206   3.589
18141SOL    HW155864   7.159   0.247   3.675
18141SOL    HW255865   7.053   0.174   3.594
18142SOL     OW55866   6.199   0.144   1.950
18142SOL    HW155867   6.264   0.102   2.006
18142SOL    HW255868   6.179   0.079   1.883
18143SOL     OW55869   6.325   0.291   3.618
18143SOL    HW155870   6.383   0.215   3.616
18143SOL    HW255871   6.267   0.275   3.692
18144SOL     OW55872   6.464   1.529   3.053
18144SOL    HW155873   6.442   1.487   2.971
18144SOL    HW255874   6.529   1.470   3.093
18145SOL     OW55875   6.925   0.595   3.299
18145SOL    HW155876   6.962   0.566   3.383
18145SOL    HW255877   6.960   0.683   3.286
18146SOL     OW55878   6.406   1.391   2.810
18146SOL    HW155879   6.490   1.376   2.766
18146SOL    HW255880   6.341   1.385   2.740
18147SOL     OW55881   6.513   0.521   2.750
18147SOL    HW155882   6.481   0.511   2.661
18147SOL    HW255883   6.550   0.435   2.772
18148SOL     OW55884   6.151   0.025   2.280
18148SOL    HW155885   6.078  -0.003   2.335
18148SOL    HW255886   6.135   0.118   2.265
18149SOL     OW55887   7.015   1.203   1.899
18149SOL    HW155888   7.044   1.129   1.952
18149SOL    HW255889   6.929   1.226   1.935
18150SOL     OW55890   5.881   0.041   2.064
18150SOL    HW155891   5.953   0.043   2.001
18150SOL    HW255892   5.912  -0.015   2.135
18151SOL     OW55893   6.542   0.263   2.327
18151SOL    HW155894   6.511   0.292   2.241
18151SOL    HW255895   6.637   0.278   2.324
18152SOL     OW55896   6.660   0.669   3.323
18152SOL    HW155897   6.607   0.591   3.339
18152SOL    HW255898   6.750   0.636   3.319
18153SOL     OW55899   6.808   1.568   2.651
18153SOL    HW155900   6.823   1.636   2.585
18153SOL    HW255901   6.870   1.588   2.720
18154SOL     OW55902   6.063   1.158   2.582
18154SOL    HW155903   6.000   1.137   2.650
18154SOL    HW255904   6.015   1.147   2.500
18155SOL     OW55905   6.853   1.791   2.477
18155SOL    HW155906   6.899   1.854   2.422
18155SOL    HW255907   6.794   1.844   2.531
18156SOL     OW55908   6.604   0.529   1.897
18156SOL    HW155909   6.560   0.612   1.876
18156SOL    HW255910   6.665   0.552   1.967
18157SOL     OW55911   5.673   0.564   3.255
18157SOL    HW155912   5.765   0.563   3.228
18157SOL    HW255913   5.668   0.632   3.322
18158SOL     OW55914   6.153   0.227   3.062
18158SOL    HW155915   6.192   0.198   3.144
18158SOL    HW255916   6.059   0.223   3.077
18159SOL     OW55917   6.439   0.463   2.494
18159SOL    HW155918   6.411   0.519   2.422
18159SOL    HW255919   6.469   0.382   2.452
18160SOL     OW55920   6.556   0.038   2.654
18160SOL    HW155921   6.512   0.039   2.569
18160SOL    HW255922   6.576  -0.054   2.669
18161SOL     OW55923   7.023   1.156   2.718
18161SOL    HW155924   6.954   1.091   2.727
18161SOL    HW255925   7.037   1.163   2.623
18162SOL     OW55926   7.049   0.614   2.820
18162SOL    HW155927   6.993   0.536   2.823
18162SOL    HW255928   7.106   0.606   2.896
18163SOL     OW55929   7.424   0.807   2.252
18163SOL    HW155930   7.484   0.760   2.310
18163SOL    HW255931   7.404   0.744   2.183
18164SOL     OW55932   6.073   1.419   2.014
18164SOL    HW155933   5.998   1.392   2.066
18164SOL    HW255934   6.067   1.367   1.934
18165SOL     OW55935   7.268   1.271   2.496
18165SOL    HW155936   7.361   1.268   2.518
18165SOL    HW255937   7.240   1.358   2.524
18166SOL     OW55938   6.984   0.579   1.938
18166SOL    HW155939   6.919   0.555   2.003
18166SOL    HW255940   7.068   0.551   1.975
18167SOL     OW55941   6.096   0.277   2.170
18167SOL    HW155942   6.133   0.228   2.096
18167SOL    HW255943   6.071   0.361   2.132
18168SOL     OW55944   7.328   1.245   3.412
18168SOL    HW155945   7.415   1.207   3.401
18168SOL    HW255946   7.343   1.333   3.446
18169SOL     OW55947   6.633   1.349   3.187
18169SOL    HW155948   6.557   1.320   3.238
18169SOL    HW255949   6.708   1.311   3.233
18170SOL     OW55950   7.194   1.630   3.523
18170SOL    HW155951   7.186   1.665   3.434
18170SOL    HW255952   7.275   1.579   3.521
18171SOL     OW55953   6.724   1.214   2.961
18171SOL    HW155954   6.666   1.252   3.027
18171SOL    HW255955   6.692   1.251   2.878
18172SOL     OW55956   7.208   1.098   2.936
18172SOL    HW155957   7.200   1.160   3.009
18172SOL    HW255958   7.132   1.116   2.881
18173SOL     OW55959   6.508   0.122   3.262
18173SOL    HW155960   6.526   0.112   3.168
18173SOL    HW255961   6.595   0.121   3.302
18174SOL     OW55962   6.570   1.113   3.583
18174SOL    HW155963   6.479   1.129   3.610
18174SOL    HW255964   6.566   1.034   3.530
18175SOL     OW55965   6.298   1.064   2.234
18175SOL    HW155966   6.282   1.041   2.325
18175SOL    HW255967   6.373   1.010   2.208
18176SOL     OW55968   6.007   0.820   3.108
18176SOL    HW155969   6.069   0.838   3.179
18176SOL    HW255970   5.974   0.733   3.127
18177SOL     OW55971   6.855   0.381   3.145
18177SOL    HW155972   6.883   0.461   3.189
18177SOL    HW255973   6.767   0.401   3.113
18178SOL     OW55974   5.654   1.573   3.224
18178SOL    HW155975   5.612   1.642   3.173
18178SOL    HW255976   5.748   1.588   3.210
18179SOL     OW55977   5.919   1.125   2.349
18179SOL    HW155978   5.910   1.199   2.289
18179SOL    HW255979   5.917   1.048   2.293
18180SOL     OW55980   6.140   0.513   2.714
18180SOL    HW155981   6.148   0.574   2.641
18180SOL    HW255982   6.201   0.547   2.780
18181SOL     OW55983   6.837   1.349   2.251
18181SOL    HW155984   6.892   1.419   2.285
18181SOL    HW255985   6.749   1.370   2.284
18182SOL     OW55986   6.881   1.463   3.011
18182SOL    HW155987   6.935   1.471   3.089
18182SOL    HW255988   6.825   1.387   3.029
18183SOL     OW55989   7.153   0.630   2.348
18183SOL    HW155990   7.105   0.673   2.419
18183SOL    HW255991   7.194   0.703   2.299
18184SOL     OW55992   5.929   1.540   3.164
18184SOL    HW155993   5.918   1.485   3.086
18184SOL    HW255994   6.024   1.547   3.174
18185SOL     OW55995   6.020   0.733   3.482
18185SOL    HW155996   6.067   0.785   3.417
18185SOL    HW255997   6.082   0.663   3.506
18186SOL     OW55998   7.200   0.782   3.553
18186SOL    HW155999   7.113   0.822   3.548
18186SOL    HW256000   7.250   0.824   3.483
18187SOL     OW56001   6.633   0.071   3.599
18187SOL    HW156002   6.643   0.165   3.585
18187SOL    HW256003   6.538   0.056   3.594
18188SOL     OW56004   6.095   0.036   3.587
18188SOL    HW156005   6.068  -0.021   3.515
18188SOL    HW256006   6.022   0.098   3.597
18189SOL     OW56007   6.172   0.874   2.895
18189SOL    HW156008   6.203   0.964   2.900
18189SOL    HW256009   6.114   0.865   2.970
18190SOL     OW56010   6.920   0.858   2.872
18190SOL    HW156011   6.830   0.837   2.847
18190SOL    HW256012   6.968   0.776   2.862
18191SOL     OW56013   6.783   0.530   2.120
18191SOL    HW156014   6.793   0.451   2.173
18191SOL    HW256015   6.741   0.593   2.179
18192SOL     OW56016   5.882   0.201   3.103
18192SOL    HW156017   5.839   0.230   3.183
18192SOL    HW256018   5.856   0.110   3.093
18193SOL     OW56019   5.657   1.314   3.134
18193SOL    HW156020   5.675   1.258   3.210
18193SOL    HW256021   5.644   1.401   3.171
18194SOL     OW56022   6.297   0.625   2.906
18194SOL    HW156023   6.378   0.621   2.855
18194SOL    HW256024   6.268   0.716   2.897
18195SOL     OW56025   7.326   0.962   3.726
18195SOL    HW156026   7.284   0.892   3.676
18195SOL    HW256027   7.264   0.981   3.796
18196SOL     OW56028   5.971   0.093   2.525
18196SOL    HW156029   5.931   0.173   2.558
18196SOL    HW256030   5.944   0.025   2.587
18197SOL     OW56031   7.226   0.402   2.218
18197SOL    HW156032   7.237   0.329   2.279
18197SOL    HW256033   7.192   0.473   2.273
18198SOL     OW56034   6.619   0.761   2.825
18198SOL    HW156035   6.604   0.774   2.918
18198SOL    HW256036   6.588   0.673   2.807
18199SOL     OW56037   6.571   1.569   3.589
18199SOL    HW156038   6.549   1.611   3.506
18199SOL    HW256039   6.610   1.486   3.564
18200SOL     OW56040   7.432   1.499   3.466
18200SOL    HW156041   7.456   1.528   3.378
18200SOL    HW256042   7.512   1.511   3.517
18201SOL     OW56043   5.941   0.917   3.672
18201SOL    HW156044   6.019   0.935   3.725
18201SOL    HW256045   5.969   0.849   3.611
18202SOL     OW56046   7.174   0.311   1.968
18202SOL    HW156047   7.080   0.297   1.973
18202SOL    HW256048   7.200   0.333   2.057
18203SOL     OW56049   6.870   0.825   1.889
18203SOL    HW156050   6.913   0.740   1.897
18203SOL    HW256051   6.903   0.861   1.807
18204SOL     OW56052   6.654   1.343   2.715
18204SOL    HW156053   6.663   1.269   2.656
18204SOL    HW256054   6.715   1.409   2.681
18205SOL     OW56055   5.894   0.810   2.802
18205SOL    HW156056   5.987   0.833   2.799
18205SOL    HW256057   5.892   0.723   2.840
18206SOL     OW56058   5.921   0.538   2.876
18206SOL    HW156059   5.879   0.453   2.864
18206SOL    HW256060   5.996   0.536   2.816
18207SOL     OW56061   6.749   0.363   3.568
18207SOL    HW156062   6.687   0.420   3.614
18207SOL    HW256063   6.827   0.418   3.556
18208SOL     OW56064   6.759   0.215   3.339
18208SOL    HW156065   6.758   0.268   3.419
18208SOL    HW256066   6.791   0.274   3.271
18209SOL     OW56067   5.602   1.311   2.046
18209SOL    HW156068   5.514   1.329   2.015
18209SOL    HW256069   5.597   1.225   2.087
18210SOL     OW56070   5.672   1.772   2.808
18210SOL    HW156071   5.638   1.697   2.760
18210SOL    HW256072   5.759   1.788   2.770
18211SOL     OW56073   6.073   1.576   2.763
18211SOL    HW156074   6.141   1.641   2.782
18211SOL    HW256075   6.117   1.510   2.711
18212SOL     OW56076   6.551   0.777   3.090
18212SOL    HW156077   6.612   0.753   3.160
18212SOL    HW256078   6.464   0.755   3.124
18213SOL     OW56079   5.622   0.554   2.981
18213SOL    HW156080   5.705   0.546   2.935
18213SOL    HW256081   5.645   0.554   3.074
18214SOL     OW56082   5.768   0.532   3.594
18214SOL    HW156083   5.856   0.533   3.555
18214SOL    HW256084   5.722   0.605   3.550
18215SOL     OW56085   6.971   0.928   3.517
18215SOL    HW156086   6.990   1.022   3.513
18215SOL    HW256087   6.965   0.901   3.425
18216SOL     OW56088   6.404   0.577   2.237
18216SOL    HW156089   6.412   0.500   2.180
18216SOL    HW256090   6.329   0.624   2.202
18217SOL     OW56091   7.226   0.608   3.029
18217SOL    HW156092   7.217   0.554   3.108
18217SOL    HW256093   7.315   0.590   2.998
18218SOL     OW56094   5.832   1.547   3.586
18218SOL    HW156095   5.802   1.613   3.648
18218SOL    HW256096   5.830   1.465   3.635
18219SOL     OW56097   6.321   0.449   3.112
18219SOL    HW156098   6.254   0.381   3.099
18219SOL    HW256099   6.304   0.513   3.042
18220SOL     OW56100   6.514   1.675   3.333
18220SOL    HW156101   6.481   1.635   3.253
18220SOL    HW256102   6.507   1.769   3.319
18221SOL     OW56103   6.036   0.504   2.036
18221SOL    HW156104   6.099   0.572   2.061
18221SOL    HW256105   5.952   0.549   2.029
18222SOL     OW56106   5.729   1.145   3.344
18222SOL    HW156107   5.728   1.100   3.428
18222SOL    HW256108   5.745   1.076   3.280
18223SOL     OW56109   6.905   1.042   3.074
18223SOL    HW156110   6.921   0.978   3.005
18223SOL    HW256111   6.840   1.101   3.037
18224SOL     OW56112   6.907   0.858   2.164
18224SOL    HW156113   6.835   0.826   2.219
18224SOL    HW256114   6.876   0.844   2.074
18225SOL     OW56115   7.361   1.735   3.015
18225SOL    HW156116   7.426   1.759   2.949
18225SOL    HW256117   7.338   1.645   2.994
18226SOL     OW56118   6.825   1.730   2.952
18226SOL    HW156119   6.910   1.757   2.918
18226SOL    HW256120   6.839   1.639   2.980
18227SOL     OW56121   5.686   1.256   2.876
18227SOL    HW156122   5.675   1.276   2.969
18227SOL    HW256123   5.598   1.234   2.845
18228SOL     OW56124   6.262   1.683   3.597
18228SOL    HW156125   6.193   1.749   3.594
18228SOL    HW256126   6.316   1.700   3.520
18229SOL     OW56127   7.270   0.167   2.362
18229SOL    HW156128   7.334   0.141   2.296
18229SOL    HW256129   7.285   0.107   2.435
18230SOL     OW56130   6.980   1.567   2.355
18230SOL    HW156131   7.038   1.603   2.287
18230SOL    HW256132   6.930   1.643   2.385
18231SOL     OW56133   5.732   1.791   3.696
18231SOL    HW156134   5.681   1.725   3.744
18231SOL    HW256135   5.768   1.847   3.764
18232SOL     OW56136   6.862   0.930   2.530
18232SOL    HW156137   6.936   0.871   2.544
18232SOL    HW256138   6.898   1.001   2.477
18233SOL     OW56139   6.380   1.282   3.283
18233SOL    HW156140   6.356   1.325   3.365
18233SOL    HW256141   6.304   1.294   3.226
18234SOL     OW56142   6.254   1.620   2.013
18234SOL    HW156143   6.263   1.637   1.919
18234SOL    HW256144   6.196   1.544   2.018
18235SOL     OW56145   7.203   1.730   3.254
18235SOL    HW156146   7.257   1.734   3.176
18235SOL    HW256147   7.189   1.822   3.278
18236SOL     OW56148   7.454   0.159   2.792
18236SOL    HW156149   7.444   0.080   2.844
18236SOL    HW256150   7.364   0.185   2.772
18237SOL     OW56151   5.846   0.325   2.584
18237SOL    HW156152   5.768   0.374   2.559
18237SOL    HW256153   5.843   0.323   2.680
18238SOL     OW56154   6.792   1.597   1.899
18238SOL    HW156155   6.781   1.506   1.925
18238SOL    HW256156   6.725   1.611   1.832
18239SOL     OW56157   6.410   1.013   3.240
18239SOL    HW156158   6.449   1.008   3.153
18239SOL    HW256159   6.403   1.107   3.258
18240SOL     OW56160   6.505   0.914   2.153
18240SOL    HW156161   6.565   0.947   2.086
18240SOL    HW256162   6.555   0.846   2.198
18241SOL     OW56163   7.069   1.633   1.914
18241SOL    HW156164   6.975   1.620   1.900
18241SOL    HW256165   7.105   1.639   1.826
18242SOL     OW56166   5.957   1.308   3.350
18242SOL    HW156167   5.935   1.388   3.302
18242SOL    HW256168   5.879   1.252   3.341
18243SOL     OW56169   7.192   1.288   3.141
18243SOL    HW156170   7.248   1.268   3.216
18243SOL    HW256171   7.131   1.354   3.173
18244SOL     OW56172   6.653   1.112   2.576
18244SOL    HW156173   6.579   1.063   2.613
18244SOL    HW256174   6.717   1.045   2.552
18245SOL     OW56175   6.618   0.265   2.806
18245SOL    HW156176   6.600   0.208   2.731
18245SOL    HW256177   6.622   0.206   2.881
18246SOL     OW56178   6.206   1.497   2.337
18246SOL    HW156179   6.250   1.441   2.272
18246SOL    HW256180   6.115   1.501   2.308
18247SOL     OW56181   7.305   0.430   3.237
18247SOL    HW156182   7.383   0.485   3.245
18247SOL    HW256183   7.334   0.355   3.185
18248SOL     OW56184   5.855   1.340   2.166
18248SOL    HW156185   5.765   1.336   2.133
18248SOL    HW256186   5.848   1.384   2.250
18249SOL     OW56187   5.704   1.039   3.595
18249SOL    HW156188   5.626   1.012   3.643
18249SOL    HW256189   5.776   0.992   3.637
18250SOL     OW56190   6.264   0.224   3.350
18250SOL    HW156191   6.338   0.168   3.326
18250SOL    HW256192   6.274   0.239   3.444
18251SOL     OW56193   5.664   0.341   1.887
18251SOL    HW156194   5.573   0.332   1.859
18251SOL    HW256195   5.696   0.418   1.839
18252SOL     OW56196   7.008   0.858   3.254
18252SOL    HW156197   6.959   0.919   3.200
18252SOL    HW256198   7.097   0.861   3.219
18253SOL     OW56199   5.693   0.226   2.133
18253SOL    HW156200   5.688   0.277   2.052
18253SOL    HW256201   5.763   0.163   2.117
18254SOL     OW56202   6.764   1.330   1.979
18254SOL    HW156203   6.674   1.297   1.980
18254SOL    HW256204   6.790   1.331   2.071
18255SOL     OW56205   6.193   0.852   3.300
18255SOL    HW156206   6.253   0.926   3.288
18255SOL    HW256207   6.250   0.775   3.302
18256SOL     OW56208   7.074   1.790   2.846
18256SOL    HW156209   7.097   1.864   2.789
18256SOL    HW256210   7.157   1.765   2.886
18257SOL     OW56211   6.293   0.567   3.556
18257SOL    HW156212   6.344   0.622   3.616
18257SOL    HW256213   6.308   0.478   3.586
18258SOL     OW56214   7.057   1.191   3.487
18258SOL    HW156215   7.047   1.207   3.581
18258SOL    HW256216   7.149   1.212   3.469
18259SOL     OW56217   5.952   1.742   3.428
18259SOL    HW156218   5.870   1.789   3.411
18259SOL    HW256219   5.923   1.661   3.472
18260SOL     OW56220   7.247   0.880   3.114
18260SOL    HW156221   7.243   0.796   3.070
18260SOL    HW256222   7.238   0.945   3.044
18261SOL     OW56223   6.811   0.321   2.309
18261SOL    HW156224   6.877   0.253   2.296
18261SOL    HW256225   6.841   0.368   2.387
18262SOL     OW56226   6.170   0.729   2.539
18262SOL    HW156227   6.211   0.814   2.527
18262SOL    HW256228   6.107   0.722   2.468
18263SOL     OW56229   7.345   0.378   3.500
18263SOL    HW156230   7.320   0.396   3.410
18263SOL    HW256231   7.287   0.307   3.527
18264SOL     OW56232   7.334   0.931   3.370
18264SOL    HW156233   7.322   1.025   3.384
18264SOL    HW256234   7.314   0.918   3.278
18265SOL     OW56235   6.453   1.361   1.910
18265SOL    HW156236   6.415   1.382   1.996
18265SOL    HW256237   6.462   1.446   1.867
18266SOL     OW56238   6.247   1.790   2.779
18266SOL    HW156239   6.232   1.884   2.768
18266SOL    HW256240   6.341   1.783   2.792
18267SOL     OW56241   6.457   0.975   2.717
18267SOL    HW156242   6.507   0.903   2.755
18267SOL    HW256243   6.414   1.017   2.791
18268SOL     OW56244   6.666   0.995   1.951
18268SOL    HW156245   6.642   1.042   1.871
18268SOL    HW256246   6.737   0.937   1.924
18269SOL     OW56247   7.427   1.552   2.704
18269SOL    HW156248   7.348   1.544   2.650
18269SOL    HW256249   7.407   1.504   2.784
18270SOL     OW56250   5.805   1.293   3.709
18270SOL    HW156251   5.760   1.222   3.665
18270SOL    HW256252   5.753   1.312   3.787
18271SOL     OW56253   5.684   1.228   2.529
18271SOL    HW156254   5.688   1.189   2.616
18271SOL    HW256255   5.751   1.182   2.479
18272SOL     OW56256   6.275   1.414   3.500
18272SOL    HW156257   6.196   1.369   3.530
18272SOL    HW256258   6.267   1.503   3.533
18273SOL     OW56259   7.406   0.230   3.091
18273SOL    HW156260   7.342   0.160   3.083
18273SOL    HW256261   7.441   0.241   3.002
18274SOL     OW56262   6.022   0.430   2.393
18274SOL    HW156263   6.043   0.363   2.328
18274SOL    HW256264   5.965   0.385   2.456
18275SOL     OW56265   7.288   1.480   2.944
18275SOL    HW156266   7.206   1.462   2.898
18275SOL    HW256267   7.290   1.416   3.015
18276SOL     OW56268   5.924   0.564   3.155
18276SOL    HW156269   5.973   0.502   3.208
18276SOL    HW256270   5.941   0.537   3.064
18277SOL     OW56271   6.403   1.583   2.528
18277SOL    HW156272   6.359   1.574   2.444
18277SOL    HW256273   6.343   1.542   2.591
18278SOL     OW56274   7.012   0.224   2.980
18278SOL    HW156275   7.073   0.168   3.028
18278SOL    HW256276   6.963   0.270   3.047
18279SOL     OW56277   6.599   0.074   2.996
18279SOL    HW156278   6.516   0.037   2.966
18279SOL    HW256279   6.651  -0.002   3.022
18280SOL     OW56280   6.367   1.332   2.183
18280SOL    HW156281   6.337   1.241   2.192
18280SOL    HW256282   6.447   1.336   2.234
18281SOL     OW56283   6.208   1.556   3.151
18281SOL    HW156284   6.206   1.635   3.204
18281SOL    HW256285   6.296   1.554   3.114
18282SOL     OW56286   6.923   7.975   1.981
18282SOL    HW156287   6.988   7.906   1.996
18282SOL    HW256288   6.862   7.967   2.054
18283SOL     OW56289   6.883   0.465   2.533
18283SOL    HW156290   6.830   0.544   2.537
18283SOL    HW256291   6.884   0.432   2.623
18284SOL     OW56292   7.200   0.224   2.739
18284SOL    HW156293   7.120   0.223   2.790
18284SOL    HW256294   7.191   0.300   2.681
18285SOL     OW56295   5.631   1.064   2.168
18285SOL    HW156296   5.724   1.052   2.150
18285SOL    HW256297   5.600   0.976   2.192
18286SOL     OW56298   6.466   1.656   2.193
18286SOL    HW156299   6.402   1.631   2.127
18286SOL    HW256300   6.417   1.711   2.254
18287SOL     OW56301   5.796   0.630   3.859
18287SOL    HW156302   5.712   0.620   3.902
18287SOL    HW256303   5.780   0.605   3.768
18288SOL     OW56304   5.810   0.296   4.707
18288SOL    HW156305   5.840   0.258   4.790
18288SOL    HW256306   5.728   0.251   4.688
18289SOL     OW56307   5.592   0.405   4.356
18289SOL    HW156308   5.506   0.424   4.393
18289SOL    HW256309   5.578   0.331   4.297
18290SOL     OW56310   6.159   1.302   4.911
18290SOL    HW156311   6.071   1.305   4.872
18290SOL    HW256312   6.173   1.389   4.947
18291SOL     OW56313   7.159   1.517   4.436
18291SOL    HW156314   7.117   1.492   4.518
18291SOL    HW256315   7.088   1.518   4.372
18292SOL     OW56316   6.726   0.696   4.415
18292SOL    HW156317   6.768   0.782   4.407
18292SOL    HW256318   6.674   0.703   4.495
18293SOL     OW56319   7.383   0.596   3.945
18293SOL    HW156320   7.350   0.591   3.855
18293SOL    HW256321   7.338   0.526   3.991
18294SOL     OW56322   6.331   1.138   4.776
18294SOL    HW156323   6.263   1.173   4.834
18294SOL    HW256324   6.373   1.215   4.738
18295SOL     OW56325   6.462   0.753   5.548
18295SOL    HW156326   6.440   0.820   5.613
18295SOL    HW256327   6.484   0.803   5.469
18296SOL     OW56328   6.276   0.994   4.364
18296SOL    HW156329   6.340   0.988   4.435
18296SOL    HW256330   6.205   1.047   4.400
18297SOL     OW56331   6.303   1.153   5.544
18297SOL    HW156332   6.349   1.230   5.578
18297SOL    HW256333   6.222   1.188   5.506
18298SOL     OW56334   5.924   1.403   4.790
18298SOL    HW156335   5.844   1.364   4.757
18298SOL    HW256336   5.951   1.464   4.722
18299SOL     OW56337   7.042   1.505   5.088
18299SOL    HW156338   7.096   1.583   5.103
18299SOL    HW256339   6.969   1.514   5.149
18300SOL     OW56340   6.034   0.382   5.190
18300SOL    HW156341   6.115   0.332   5.201
18300SOL    HW256342   5.965   0.322   5.217
18301SOL     OW56343   7.193   0.459   4.449
18301SOL    HW156344   7.117   0.469   4.392
18301SOL    HW256345   7.185   0.531   4.512
18302SOL     OW56346   5.814   1.708   4.207
18302SOL    HW156347   5.828   1.788   4.257
18302SOL    HW256348   5.870   1.718   4.130
18303SOL     OW56349   6.722   1.341   5.415
18303SOL    HW156350   6.760   1.338   5.503
18303SOL    HW256351   6.669   1.262   5.409
18304SOL     OW56352   5.842   1.443   4.278
18304SOL    HW156353   5.814   1.534   4.273
18304SOL    HW256354   5.778   1.400   4.334
18305SOL     OW56355   5.872   1.092   4.621
18305SOL    HW156356   5.854   1.003   4.652
18305SOL    HW256357   5.807   1.146   4.666
18306SOL     OW56358   6.195   1.781   5.165
18306SOL    HW156359   6.109   1.766   5.203
18306SOL    HW256360   6.215   1.872   5.184
18307SOL     OW56361   6.162   0.984   3.865
18307SOL    HW156362   6.212   1.028   3.796
18307SOL    HW256363   6.198   1.019   3.947
18308SOL     OW56364   7.232   0.124   5.206
18308SOL    HW156365   7.156   0.102   5.152
18308SOL    HW256366   7.195   0.149   5.291
18309SOL     OW56367   5.716   0.657   4.287
18309SOL    HW156368   5.677   0.572   4.310
18309SOL    HW256369   5.702   0.711   4.365
18310SOL     OW56370   7.431   1.749   4.055
18310SOL    HW156371   7.502   1.726   4.116
18310SOL    HW256372   7.447   1.841   4.034
18311SOL     OW56373   5.640   1.583   3.839
18311SOL    HW156374   5.609   1.494   3.859
18311SOL    HW256375   5.610   1.636   3.913
18312SOL     OW56376   7.277   0.924   4.370
18312SOL    HW156377   7.354   0.875   4.341
18312SOL    HW256378   7.252   0.977   4.294
18313SOL     OW56379   7.236   1.103   4.153
18313SOL    HW156380   7.322   1.101   4.111
18313SOL    HW256381   7.245   1.170   4.222
18314SOL     OW56382   5.695   0.755   5.306
18314SOL    HW156383   5.778   0.802   5.314
18314SOL    HW256384   5.630   0.824   5.294
18315SOL     OW56385   6.208   1.391   4.456
18315SOL    HW156386   6.174   1.303   4.471
18315SOL    HW256387   6.154   1.427   4.386
18316SOL     OW56388   6.869   1.236   5.138
18316SOL    HW156389   6.900   1.165   5.081
18316SOL    HW256390   6.924   1.230   5.216
18317SOL     OW56391   6.429   0.029   4.282
18317SOL    HW156392   6.467   0.109   4.246
18317SOL    HW256393   6.335   0.044   4.279
18318SOL     OW56394   5.772   0.954   5.022
18318SOL    HW156395   5.856   0.917   4.993
18318SOL    HW256396   5.711   0.931   4.952
18319SOL     OW56397   7.117   1.003   3.924
18319SOL    HW156398   7.047   0.946   3.957
18319SOL    HW256399   7.159   1.036   4.004
18320SOL     OW56400   6.783   1.827   5.356
18320SOL    HW156401   6.778   1.888   5.283
18320SOL    HW256402   6.795   1.741   5.314
18321SOL     OW56403   5.897   0.251   5.496
18321SOL    HW156404   5.963   0.302   5.542
18321SOL    HW256405   5.818   0.262   5.548
18322SOL     OW56406   7.057   1.414   4.671
18322SOL    HW156407   6.991   1.432   4.738
18322SOL    HW256408   7.041   1.324   4.644
18323SOL     OW56409   7.235   1.762   4.301
18323SOL    HW156410   7.221   1.725   4.214
18323SOL    HW256411   7.219   1.689   4.361
18324SOL     OW56412   6.178   0.718   3.998
18324SOL    HW156413   6.175   0.804   3.957
18324SOL    HW256414   6.113   0.723   4.069
18325SOL     OW56415   6.884   0.371   4.658
18325SOL    HW156416   6.792   0.346   4.659
18325SOL    HW256417   6.925   0.316   4.724
18326SOL     OW56418   7.164   1.678   4.035
18326SOL    HW156419   7.257   1.699   4.028
18326SOL    HW256420   7.137   1.659   3.945
18327SOL     OW56421   6.362   0.643   5.163
18327SOL    HW156422   6.348   0.610   5.252
18327SOL    HW256423   6.347   0.567   5.107
18328SOL     OW56424   6.995   0.493   5.404
18328SOL    HW156425   6.991   0.534   5.490
18328SOL    HW256426   7.072   0.436   5.408
18329SOL     OW56427   6.535   0.883   5.310
18329SOL    HW156428   6.584   0.811   5.270
18329SOL    HW256429   6.486   0.921   5.238
18330SOL     OW56430   6.594   0.413   4.931
18330SOL    HW156431   6.511   0.433   4.973
18330SOL    HW256432   6.569   0.374   4.847
18331SOL     OW56433   6.643   0.701   4.146
18331SOL    HW156434   6.663   0.693   4.239
18331SOL    HW256435   6.558   0.659   4.136
18332SOL     OW56436   5.674   0.827   4.496
18332SOL    HW156437   5.750   0.821   4.554
18332SOL    HW256438   5.623   0.899   4.531
18333SOL     OW56439   5.705   1.866   5.300
18333SOL    HW156440   5.710   1.844   5.394
18333SOL    HW256441   5.613   1.851   5.277
18334SOL     OW56442   6.471   0.353   3.937
18334SOL    HW156443   6.510   0.394   3.860
18334SOL    HW256444   6.438   0.269   3.906
18335SOL     OW56445   7.296   0.564   5.553
18335SOL    HW156446   7.260   0.642   5.511
18335SOL    HW256447   7.319   0.506   5.480
18336SOL     OW56448   6.971   1.145   4.263
18336SOL    HW156449   7.051   1.133   4.212
18336SOL    HW256450   6.918   1.205   4.210
18337SOL     OW56451   6.147   0.239   4.657
18337SOL    HW156452   6.124   0.263   4.747
18337SOL    HW256453   6.143   0.321   4.609
18338SOL     OW56454   6.587   1.435   4.235
18338SOL    HW156455   6.542   1.501   4.288
18338SOL    HW256456   6.606   1.364   4.296
18339SOL     OW56457   5.933   1.813   4.587
18339SOL    HW156458   5.976   1.729   4.601
18339SOL    HW256459   5.993   1.877   4.626
18340SOL     OW56460   7.386   1.049   4.597
18340SOL    HW156461   7.332   1.028   4.520
18340SOL    HW256462   7.323   1.058   4.668
18341SOL     OW56463   6.809   1.545   5.234
18341SOL    HW156464   6.795   1.471   5.293
18341SOL    HW256465   6.723   1.563   5.196
18342SOL     OW56466   5.895   0.958   3.983
18342SOL    HW156467   5.974   0.976   3.932
18342SOL    HW256468   5.864   0.873   3.952
18343SOL     OW56469   7.067   0.757   4.442
18343SOL    HW156470   7.062   0.717   4.529
18343SOL    HW256471   7.146   0.812   4.445
18344SOL     OW56472   6.058   1.268   5.457
18344SOL    HW156473   6.031   1.275   5.365
18344SOL    HW256474   5.976   1.263   5.506
18345SOL     OW56475   6.627   1.699   3.985
18345SOL    HW156476   6.694   1.727   4.046
18345SOL    HW256477   6.675   1.678   3.904
18346SOL     OW56478   5.775   0.253   5.236
18346SOL    HW156479   5.706   0.318   5.230
18346SOL    HW256480   5.803   0.255   5.328
18347SOL     OW56481   7.217   1.382   3.818
18347SOL    HW156482   7.176   1.467   3.803
18347SOL    HW256483   7.149   1.318   3.795
18348SOL     OW56484   6.036   1.759   4.027
18348SOL    HW156485   6.079   1.811   4.095
18348SOL    HW256486   6.107   1.728   3.972
18349SOL     OW56487   7.014   0.131   4.118
18349SOL    HW156488   7.050   0.103   4.034
18349SOL    HW256489   7.090   0.143   4.174
18350SOL     OW56490   5.851   1.793   4.941
18350SOL    HW156491   5.889   1.712   4.976
18350SOL    HW256492   5.799   1.766   4.867
18351SOL     OW56493   6.532   1.703   4.617
18351SOL    HW156494   6.593   1.646   4.665
18351SOL    HW256495   6.492   1.645   4.552
18352SOL     OW56496   5.987   0.686   4.198
18352SOL    HW156497   6.005   0.594   4.217
18352SOL    HW256498   5.894   0.696   4.217
18353SOL     OW56499   7.143   0.207   5.452
18353SOL    HW156500   7.160   0.229   5.544
18353SOL    HW256501   7.048   0.195   5.448
18354SOL     OW56502   6.200   0.160   3.820
18354SOL    HW156503   6.264   0.109   3.869
18354SOL    HW256504   6.140   0.094   3.783
18355SOL     OW56505   6.337   0.287   5.488
18355SOL    HW156506   6.379   0.201   5.478
18355SOL    HW256507   6.274   0.274   5.559
18356SOL     OW56508   6.467   1.529   4.912
18356SOL    HW156509   6.441   1.483   4.832
18356SOL    HW256510   6.529   1.470   4.954
18357SOL     OW56511   6.925   0.594   5.157
18357SOL    HW156512   6.959   0.567   5.242
18357SOL    HW256513   6.958   0.683   5.144
18358SOL     OW56514   6.409   1.388   4.674
18358SOL    HW156515   6.492   1.376   4.629
18358SOL    HW256516   6.344   1.390   4.604
18359SOL     OW56517   6.518   0.522   4.614
18359SOL    HW156518   6.488   0.513   4.524
18359SOL    HW256519   6.552   0.435   4.636
18360SOL     OW56520   6.167   0.024   4.142
18360SOL    HW156521   6.096  -0.019   4.189
18360SOL    HW256522   6.141   0.116   4.137
18361SOL     OW56523   7.015   1.202   3.760
18361SOL    HW156524   7.045   1.127   3.812
18361SOL    HW256525   6.929   1.223   3.795
18362SOL     OW56526   5.930   0.021   3.897
18362SOL    HW156527   5.879   0.099   3.918
18362SOL    HW256528   5.926  -0.033   3.976
18363SOL     OW56529   6.544   0.260   4.188
18363SOL    HW156530   6.510   0.292   4.104
18363SOL    HW256531   6.637   0.279   4.186
18364SOL     OW56532   6.662   0.672   5.184
18364SOL    HW156533   6.605   0.596   5.196
18364SOL    HW256534   6.750   0.635   5.177
18365SOL     OW56535   6.819   1.561   4.507
18365SOL    HW156536   6.824   1.633   4.444
18365SOL    HW256537   6.870   1.592   4.582
18366SOL     OW56538   6.068   1.155   4.447
18366SOL    HW156539   6.004   1.135   4.515
18366SOL    HW256540   6.020   1.145   4.365
18367SOL     OW56541   6.842   1.789   4.328
18367SOL    HW156542   6.894   1.857   4.285
18367SOL    HW256543   6.776   1.838   4.377
18368SOL     OW56544   6.612   0.520   3.748
18368SOL    HW156545   6.566   0.602   3.730
18368SOL    HW256546   6.668   0.539   3.823
18369SOL     OW56547   5.681   0.560   5.118
18369SOL    HW156548   5.773   0.564   5.091
18369SOL    HW256549   5.672   0.629   5.183
18370SOL     OW56550   6.148   0.239   4.937
18370SOL    HW156551   6.185   0.202   5.018
18370SOL    HW256552   6.053   0.229   4.948
18371SOL     OW56553   6.453   0.473   4.357
18371SOL    HW156554   6.416   0.523   4.284
18371SOL    HW256555   6.463   0.384   4.322
18372SOL     OW56556   6.561   0.037   4.517
18372SOL    HW156557   6.517   0.039   4.432
18372SOL    HW256558   6.575  -0.056   4.534
18373SOL     OW56559   7.022   1.156   4.580
18373SOL    HW156560   6.955   1.088   4.591
18373SOL    HW256561   7.035   1.162   4.486
18374SOL     OW56562   7.050   0.612   4.680
18374SOL    HW156563   6.993   0.535   4.684
18374SOL    HW256564   7.106   0.605   4.758
18375SOL     OW56565   7.423   0.805   4.116
18375SOL    HW156566   7.484   0.758   4.173
18375SOL    HW256567   7.404   0.744   4.045
18376SOL     OW56568   6.078   1.423   3.876
18376SOL    HW156569   6.004   1.399   3.931
18376SOL    HW256570   6.063   1.377   3.794
18377SOL     OW56571   7.268   1.271   4.357
18377SOL    HW156572   7.361   1.268   4.379
18377SOL    HW256573   7.239   1.358   4.386
18378SOL     OW56574   6.982   0.580   3.799
18378SOL    HW156575   6.916   0.557   3.864
18378SOL    HW256576   7.065   0.550   3.837
18379SOL     OW56577   6.088   0.281   4.036
18379SOL    HW156578   6.127   0.230   3.965
18379SOL    HW256579   6.063   0.364   3.995
18380SOL     OW56580   7.327   1.243   5.272
18380SOL    HW156581   7.414   1.206   5.260
18380SOL    HW256582   7.342   1.331   5.307
18381SOL     OW56583   6.630   1.342   5.043
18381SOL    HW156584   6.555   1.318   5.096
18381SOL    HW256585   6.706   1.312   5.093
18382SOL     OW56586   7.197   1.630   5.386
18382SOL    HW156587   7.187   1.663   5.297
18382SOL    HW256588   7.277   1.577   5.383
18383SOL     OW56589   6.723   1.210   4.820
18383SOL    HW156590   6.669   1.246   4.891
18383SOL    HW256591   6.687   1.249   4.741
18384SOL     OW56592   7.208   1.099   4.800
18384SOL    HW156593   7.201   1.161   4.873
18384SOL    HW256594   7.131   1.116   4.746
18385SOL     OW56595   6.518   0.129   5.131
18385SOL    HW156596   6.528   0.113   5.038
18385SOL    HW256597   6.607   0.123   5.166
18386SOL     OW56598   6.570   1.113   5.449
18386SOL    HW156599   6.479   1.131   5.475
18386SOL    HW256600   6.564   1.034   5.395
18387SOL     OW56601   6.301   1.074   4.092
18387SOL    HW156602   6.281   1.048   4.182
18387SOL    HW256603   6.374   1.017   4.067
18388SOL     OW56604   6.010   0.821   4.969
18388SOL    HW156605   6.071   0.838   5.041
18388SOL    HW256606   5.976   0.733   4.987
18389SOL     OW56607   6.852   0.380   5.003
18389SOL    HW156608   6.880   0.460   5.047
18389SOL    HW256609   6.763   0.399   4.973
18390SOL     OW56610   5.649   1.569   5.088
18390SOL    HW156611   5.596   1.646   5.066
18390SOL    HW256612   5.739   1.597   5.076
18391SOL     OW56613   5.932   1.125   4.209
18391SOL    HW156614   5.913   1.200   4.153
18391SOL    HW256615   5.923   1.049   4.152
18392SOL     OW56616   6.139   0.515   4.579
18392SOL    HW156617   6.148   0.574   4.504
18392SOL    HW256618   6.201   0.548   4.644
18393SOL     OW56619   6.830   1.359   4.111
18393SOL    HW156620   6.892   1.424   4.143
18393SOL    HW256621   6.746   1.385   4.148
18394SOL     OW56622   6.880   1.462   4.873
18394SOL    HW156623   6.934   1.471   4.952
18394SOL    HW256624   6.819   1.391   4.893
18395SOL     OW56625   7.154   0.635   4.203
18395SOL    HW156626   7.106   0.673   4.277
18395SOL    HW256627   7.195   0.709   4.160
18396SOL     OW56628   5.931   1.540   5.025
18396SOL    HW156629   5.917   1.484   4.948
18396SOL    HW256630   6.026   1.546   5.033
18397SOL     OW56631   6.016   0.740   5.341
18397SOL    HW156632   6.066   0.791   5.277
18397SOL    HW256633   6.069   0.663   5.357
18398SOL     OW56634   7.202   0.781   5.419
18398SOL    HW156635   7.115   0.820   5.412
18398SOL    HW256636   7.252   0.820   5.348
18399SOL     OW56637   6.633   0.072   5.466
18399SOL    HW156638   6.646   0.166   5.450
18399SOL    HW256639   6.539   0.059   5.457
18400SOL     OW56640   6.092   0.037   5.446
18400SOL    HW156641   6.064  -0.027   5.381
18400SOL    HW256642   6.013   0.088   5.465
18401SOL     OW56643   6.175   0.873   4.757
18401SOL    HW156644   6.201   0.965   4.759
18401SOL    HW256645   6.115   0.863   4.830
18402SOL     OW56646   6.918   0.857   4.733
18402SOL    HW156647   6.828   0.836   4.710
18402SOL    HW256648   6.965   0.774   4.722
18403SOL     OW56649   6.779   0.529   3.978
18403SOL    HW156650   6.790   0.451   4.033
18403SOL    HW256651   6.737   0.593   4.036
18404SOL     OW56652   5.880   0.202   4.960
18404SOL    HW156653   5.825   0.222   5.037
18404SOL    HW256654   5.854   0.114   4.934
18405SOL     OW56655   5.671   1.313   4.996
18405SOL    HW156656   5.681   1.258   5.074
18405SOL    HW256657   5.652   1.400   5.030
18406SOL     OW56658   6.300   0.626   4.770
18406SOL    HW156659   6.380   0.620   4.716
18406SOL    HW256660   6.270   0.716   4.759
18407SOL     OW56661   7.329   0.958   5.592
18407SOL    HW156662   7.284   0.892   5.538
18407SOL    HW256663   7.265   0.982   5.659
18408SOL     OW56664   5.991   0.089   4.398
18408SOL    HW156665   5.934   0.166   4.409
18408SOL    HW256666   5.942   0.032   4.339
18409SOL     OW56667   7.227   0.403   4.081
18409SOL    HW156668   7.234   0.330   4.142
18409SOL    HW256669   7.194   0.476   4.133
18410SOL     OW56670   6.622   0.763   4.686
18410SOL    HW156671   6.606   0.776   4.779
18410SOL    HW256672   6.590   0.674   4.669
18411SOL     OW56673   6.576   1.573   5.449
18411SOL    HW156674   6.554   1.613   5.365
18411SOL    HW256675   6.607   1.485   5.426
18412SOL     OW56676   7.433   1.496   5.328
18412SOL    HW156677   7.456   1.525   5.240
18412SOL    HW256678   7.512   1.509   5.379
18413SOL     OW56679   5.940   0.912   5.544
18413SOL    HW156680   6.022   0.933   5.589
18413SOL    HW256681   5.966   0.849   5.476
18414SOL     OW56682   7.170   0.316   3.830
18414SOL    HW156683   7.076   0.296   3.835
18414SOL    HW256684   7.195   0.337   3.920
18415SOL     OW56685   6.870   0.827   3.751
18415SOL    HW156686   6.913   0.742   3.759
18415SOL    HW256687   6.903   0.863   3.669
18416SOL     OW56688   6.654   1.346   4.572
18416SOL    HW156689   6.668   1.269   4.517
18416SOL    HW256690   6.721   1.409   4.543
18417SOL     OW56691   5.892   0.810   4.667
18417SOL    HW156692   5.985   0.832   4.661
18417SOL    HW256693   5.890   0.721   4.702
18418SOL     OW56694   5.920   0.537   4.737
18418SOL    HW156695   5.876   0.453   4.722
18418SOL    HW256696   5.995   0.536   4.678
18419SOL     OW56697   6.750   0.361   5.438
18419SOL    HW156698   6.683   0.417   5.477
18419SOL    HW256699   6.822   0.420   5.416
18420SOL     OW56700   6.775   0.211   5.204
18420SOL    HW156701   6.756   0.266   5.279
18420SOL    HW256702   6.794   0.272   5.133
18421SOL     OW56703   5.606   1.308   3.907
18421SOL    HW156704   5.517   1.326   3.876
18421SOL    HW256705   5.600   1.222   3.949
18422SOL     OW56706   5.675   1.770   4.672
18422SOL    HW156707   5.641   1.696   4.623
18422SOL    HW256708   5.761   1.788   4.633
18423SOL     OW56709   6.076   1.578   4.626
18423SOL    HW156710   6.144   1.644   4.640
18423SOL    HW256711   6.121   1.506   4.582
18424SOL     OW56712   6.554   0.779   4.950
18424SOL    HW156713   6.612   0.755   5.022
18424SOL    HW256714   6.466   0.757   4.981
18425SOL     OW56715   5.622   0.542   4.845
18425SOL    HW156716   5.703   0.549   4.796
18425SOL    HW256717   5.648   0.548   4.937
18426SOL     OW56718   5.765   0.536   5.457
18426SOL    HW156719   5.848   0.527   5.410
18426SOL    HW256720   5.720   0.608   5.414
18427SOL     OW56721   6.973   0.926   5.378
18427SOL    HW156722   6.990   1.020   5.375
18427SOL    HW256723   6.966   0.900   5.286
18428SOL     OW56724   6.404   0.579   4.095
18428SOL    HW156725   6.410   0.500   4.040
18428SOL    HW256726   6.327   0.625   4.063
18429SOL     OW56727   7.225   0.607   4.892
18429SOL    HW156728   7.214   0.551   4.969
18429SOL    HW256729   7.313   0.588   4.861
18430SOL     OW56730   5.833   1.548   5.446
18430SOL    HW156731   5.805   1.618   5.506
18430SOL    HW256732   5.830   1.468   5.498
18431SOL     OW56733   6.319   0.452   4.977
18431SOL    HW156734   6.255   0.382   4.964
18431SOL    HW256735   6.303   0.513   4.905
18432SOL     OW56736   6.536   1.670   5.186
18432SOL    HW156737   6.488   1.634   5.112
18432SOL    HW256738   6.521   1.765   5.180
18433SOL     OW56739   6.038   0.505   3.889
18433SOL    HW156740   6.097   0.574   3.919
18433SOL    HW256741   5.952   0.546   3.885
18434SOL     OW56742   5.730   1.144   5.210
18434SOL    HW156743   5.728   1.100   5.295
18434SOL    HW256744   5.744   1.073   5.147
18435SOL     OW56745   6.907   1.041   4.935
18435SOL    HW156746   6.921   0.976   4.865
18435SOL    HW256747   6.841   1.100   4.899
18436SOL     OW56748   6.904   0.859   4.027
18436SOL    HW156749   6.834   0.824   4.082
18436SOL    HW256750   6.874   0.845   3.937
18437SOL     OW56751   7.369   1.730   4.885
18437SOL    HW156752   7.429   1.756   4.816
18437SOL    HW256753   7.339   1.642   4.859
18438SOL     OW56754   6.823   1.728   4.812
18438SOL    HW156755   6.909   1.754   4.777
18438SOL    HW256756   6.837   1.638   4.843
18439SOL     OW56757   5.687   1.256   4.737
18439SOL    HW156758   5.679   1.275   4.830
18439SOL    HW256759   5.598   1.242   4.707
18440SOL     OW56760   6.256   1.678   5.467
18440SOL    HW156761   6.188   1.745   5.470
18440SOL    HW256762   6.314   1.706   5.395
18441SOL     OW56763   7.269   0.164   4.221
18441SOL    HW156764   7.335   0.147   4.154
18441SOL    HW256765   7.306   0.127   4.301
18442SOL     OW56766   6.979   1.571   4.212
18442SOL    HW156767   7.040   1.608   4.148
18442SOL    HW256768   6.932   1.647   4.247
18443SOL     OW56769   5.739   1.789   5.560
18443SOL    HW156770   5.686   1.726   5.608
18443SOL    HW256771   5.778   1.844   5.628
18444SOL     OW56772   6.863   0.933   4.393
18444SOL    HW156773   6.935   0.872   4.406
18444SOL    HW256774   6.899   1.003   4.338
18445SOL     OW56775   6.379   1.284   5.146
18445SOL    HW156776   6.355   1.326   5.228
18445SOL    HW256777   6.302   1.297   5.090
18446SOL     OW56778   6.266   1.623   3.869
18446SOL    HW156779   6.270   1.641   3.775
18446SOL    HW256780   6.201   1.553   3.876
18447SOL     OW56781   7.206   1.728   5.119
18447SOL    HW156782   7.259   1.729   5.039
18447SOL    HW256783   7.192   1.821   5.140
18448SOL     OW56784   7.440   0.174   4.683
18448SOL    HW156785   7.459   0.098   4.628
18448SOL    HW256786   7.353   0.203   4.656
18449SOL     OW56787   5.843   0.317   4.435
18449SOL    HW156788   5.759   0.353   4.408
18449SOL    HW256789   5.841   0.318   4.530
18450SOL     OW56790   6.787   1.608   3.769
18450SOL    HW156791   6.783   1.515   3.789
18450SOL    HW256792   6.725   1.619   3.696
18451SOL     OW56793   6.410   1.015   5.102
18451SOL    HW156794   6.442   1.013   5.012
18451SOL    HW256795   6.401   1.109   5.122
18452SOL     OW56796   6.506   0.917   4.014
18452SOL    HW156797   6.568   0.950   3.949
18452SOL    HW256798   6.554   0.847   4.059
18453SOL     OW56799   7.072   1.633   3.771
18453SOL    HW156800   6.979   1.620   3.754
18453SOL    HW256801   7.112   1.638   3.685
18454SOL     OW56802   5.956   1.308   5.209
18454SOL    HW156803   5.934   1.388   5.162
18454SOL    HW256804   5.878   1.253   5.202
18455SOL     OW56805   7.194   1.289   5.007
18455SOL    HW156806   7.244   1.266   5.086
18455SOL    HW256807   7.131   1.354   5.037
18456SOL     OW56808   6.652   1.117   4.429
18456SOL    HW156809   6.580   1.070   4.470
18456SOL    HW256810   6.717   1.050   4.410
18457SOL     OW56811   6.626   0.263   4.670
18457SOL    HW156812   6.605   0.206   4.596
18457SOL    HW256813   6.628   0.204   4.745
18458SOL     OW56814   6.212   1.544   4.158
18458SOL    HW156815   6.227   1.458   4.119
18458SOL    HW256816   6.118   1.557   4.154
18459SOL     OW56817   7.312   0.421   5.093
18459SOL    HW156818   7.392   0.474   5.096
18459SOL    HW256819   7.339   0.340   5.049
18460SOL     OW56820   5.860   1.343   4.030
18460SOL    HW156821   5.770   1.339   3.996
18460SOL    HW256822   5.852   1.385   4.116
18461SOL     OW56823   5.707   1.039   5.462
18461SOL    HW156824   5.628   1.011   5.508
18461SOL    HW256825   5.777   0.991   5.504
18462SOL     OW56826   6.261   0.220   5.213
18462SOL    HW156827   6.339   0.170   5.188
18462SOL    HW256828   6.269   0.231   5.308
18463SOL     OW56829   5.658   0.326   3.748
18463SOL    HW156830   5.563   0.330   3.758
18463SOL    HW256831   5.680   0.403   3.696
18464SOL     OW56832   7.008   0.857   5.115
18464SOL    HW156833   6.958   0.918   5.061
18464SOL    HW256834   7.097   0.861   5.080
18465SOL     OW56835   5.732   0.190   3.988
18465SOL    HW156836   5.699   0.254   3.925
18465SOL    HW256837   5.656   0.136   4.009
18466SOL     OW56838   6.764   1.335   3.838
18466SOL    HW156839   6.675   1.301   3.837
18466SOL    HW256840   6.789   1.334   3.931
18467SOL     OW56841   6.196   0.850   5.162
18467SOL    HW156842   6.255   0.925   5.150
18467SOL    HW256843   6.255   0.774   5.164
18468SOL     OW56844   7.070   1.791   4.705
18468SOL    HW156845   7.093   1.865   4.649
18468SOL    HW256846   7.154   1.760   4.740
18469SOL     OW56847   6.307   0.557   5.414
18469SOL    HW156848   6.349   0.617   5.475
18469SOL    HW256849   6.320   0.470   5.453
18470SOL     OW56850   7.056   1.189   5.350
18470SOL    HW156851   7.043   1.208   5.443
18470SOL    HW256852   7.147   1.213   5.333
18471SOL     OW56853   5.953   1.742   5.287
18471SOL    HW156854   5.872   1.789   5.269
18471SOL    HW256855   5.925   1.661   5.331
18472SOL     OW56856   7.248   0.879   4.977
18472SOL    HW156857   7.242   0.795   4.932
18472SOL    HW256858   7.238   0.945   4.908
18473SOL     OW56859   6.813   0.324   4.168
18473SOL    HW156860   6.877   0.255   4.155
18473SOL    HW256861   6.843   0.369   4.247
18474SOL     OW56862   6.173   0.729   4.401
18474SOL    HW156863   6.213   0.815   4.386
18474SOL    HW256864   6.107   0.721   4.331
18475SOL     OW56865   7.340   0.380   5.360
18475SOL    HW156866   7.323   0.395   5.267
18475SOL    HW256867   7.282   0.307   5.383
18476SOL     OW56868   7.337   0.926   5.233
18476SOL    HW156869   7.324   1.019   5.249
18476SOL    HW256870   7.316   0.914   5.141
18477SOL     OW56871   6.458   1.361   3.769
18477SOL    HW156872   6.415   1.384   3.851
18477SOL    HW256873   6.463   1.443   3.721
18478SOL     OW56874   6.254   1.783   4.626
18478SOL    HW156875   6.224   1.874   4.628
18478SOL    HW256876   6.346   1.788   4.654
18479SOL     OW56877   6.461   0.980   4.578
18479SOL    HW156878   6.508   0.906   4.615
18479SOL    HW256879   6.415   1.019   4.652
18480SOL     OW56880   6.670   1.001   3.816
18480SOL    HW156881   6.643   1.045   3.735
18480SOL    HW256882   6.739   0.941   3.788
18481SOL     OW56883   7.427   1.557   4.570
18481SOL    HW156884   7.349   1.547   4.515
18481SOL    HW256885   7.410   1.501   4.646
18482SOL     OW56886   5.807   1.295   5.571
18482SOL    HW156887   5.761   1.224   5.526
18482SOL    HW256888   5.753   1.313   5.648
18483SOL     OW56889   5.683   1.233   4.397
18483SOL    HW156890   5.663   1.189   4.480
18483SOL    HW256891   5.747   1.177   4.354
18484SOL     OW56892   6.275   1.415   5.364
18484SOL    HW156893   6.196   1.370   5.392
18484SOL    HW256894   6.267   1.503   5.399
18485SOL     OW56895   7.418   0.203   4.959
18485SOL    HW156896   7.338   0.152   4.968
18485SOL    HW256897   7.427   0.218   4.865
18486SOL     OW56898   6.030   0.427   4.263
18486SOL    HW156899   6.039   0.365   4.190
18486SOL    HW256900   5.963   0.388   4.319
18487SOL     OW56901   7.285   1.480   4.812
18487SOL    HW156902   7.205   1.462   4.763
18487SOL    HW256903   7.285   1.416   4.883
18488SOL     OW56904   5.931   0.564   5.016
18488SOL    HW156905   5.977   0.500   5.070
18488SOL    HW256906   5.943   0.535   4.926
18489SOL     OW56907   6.409   1.580   4.393
18489SOL    HW156908   6.354   1.658   4.379
18489SOL    HW256909   6.346   1.510   4.411
18490SOL     OW56910   7.011   0.217   4.847
18490SOL    HW156911   7.071   0.165   4.900
18490SOL    HW256912   6.959   0.266   4.910
18491SOL     OW56913   6.587   0.074   4.864
18491SOL    HW156914   6.500   0.066   4.825
18491SOL    HW256915   6.611  -0.015   4.890
18492SOL     OW56916   6.377   1.345   4.045
18492SOL    HW156917   6.338   1.258   4.047
18492SOL    HW256918   6.453   1.339   4.103
18493SOL     OW56919   6.210   1.555   5.012
18493SOL    HW156920   6.207   1.633   5.067
18493SOL    HW256921   6.298   1.555   4.974
18494SOL     OW56922   6.928   7.977   3.836
18494SOL    HW156923   7.004   7.925   3.861
18494SOL    HW256924   6.867   7.967   3.909
18495SOL     OW56925   6.891   0.465   4.396
18495SOL    HW156926   6.836   0.543   4.397
18495SOL    HW256927   6.887   0.431   4.485
18496SOL     OW56928   7.195   0.235   4.603
18496SOL    HW156929   7.111   0.232   4.650
18496SOL    HW256930   7.186   0.309   4.543
18497SOL     OW56931   5.633   1.061   4.031
18497SOL    HW156932   5.726   1.049   4.012
18497SOL    HW256933   5.602   0.973   4.055
18498SOL     OW56934   5.796   0.624   5.722
18498SOL    HW156935   5.710   0.617   5.762
18498SOL    HW256936   5.782   0.604   5.630
18499SOL     OW56937   5.811   0.298   6.569
18499SOL    HW156938   5.842   0.258   6.650
18499SOL    HW256939   5.728   0.255   6.551
18500SOL     OW56940   5.591   0.393   6.215
18500SOL    HW156941   5.505   0.413   6.252
18500SOL    HW256942   5.572   0.338   6.139
18501SOL     OW56943   6.158   1.299   6.777
18501SOL    HW156944   6.074   1.305   6.730
18501SOL    HW256945   6.172   1.388   6.809
18502SOL     OW56946   7.158   1.516   6.293
18502SOL    HW156947   7.113   1.495   6.374
18502SOL    HW256948   7.088   1.524   6.228
18503SOL     OW56949   6.730   0.694   6.279
18503SOL    HW156950   6.772   0.780   6.268
18503SOL    HW256951   6.675   0.705   6.357
18504SOL     OW56952   7.385   0.594   5.805
18504SOL    HW156953   7.349   0.591   5.716
18504SOL    HW256954   7.334   0.529   5.854
18505SOL     OW56955   6.339   1.140   6.646
18505SOL    HW156956   6.269   1.177   6.700
18505SOL    HW256957   6.374   1.215   6.599
18506SOL     OW56958   6.464   0.756   7.406
18506SOL    HW156959   6.443   0.827   7.467
18506SOL    HW256960   6.484   0.801   7.323
18507SOL     OW56961   6.274   0.993   6.229
18507SOL    HW156962   6.339   0.991   6.299
18507SOL    HW256963   6.205   1.050   6.261
18508SOL     OW56964   6.302   1.152   7.408
18508SOL    HW156965   6.347   1.231   7.440
18508SOL    HW256966   6.221   1.185   7.369
18509SOL     OW56967   5.926   1.405   6.653
18509SOL    HW156968   5.848   1.367   6.612
18509SOL    HW256969   5.962   1.463   6.585
18510SOL     OW56970   7.052   1.493   6.960
18510SOL    HW156971   7.098   1.577   6.959
18510SOL    HW256972   6.971   1.511   7.008
18511SOL     OW56973   6.027   0.390   7.078
18511SOL    HW156974   6.108   0.339   7.072
18511SOL    HW256975   5.958   0.324   7.074
18512SOL     OW56976   7.189   0.454   6.303
18512SOL    HW156977   7.104   0.460   6.258
18512SOL    HW256978   7.196   0.536   6.352
18513SOL     OW56979   5.807   1.714   6.056
18513SOL    HW156980   5.826   1.791   6.110
18513SOL    HW256981   5.878   1.713   5.991
18514SOL     OW56982   6.751   1.313   7.275
18514SOL    HW156983   6.760   1.339   7.366
18514SOL    HW256984   6.684   1.244   7.275
18515SOL     OW56985   5.824   1.449   6.133
18515SOL    HW156986   5.805   1.543   6.125
18515SOL    HW256987   5.760   1.417   6.197
18516SOL     OW56988   5.870   1.090   6.483
18516SOL    HW156989   5.852   1.001   6.513
18516SOL    HW256990   5.807   1.145   6.530
18517SOL     OW56991   6.205   1.775   7.042
18517SOL    HW156992   6.114   1.766   7.071
18517SOL    HW256993   6.223   1.869   7.050
18518SOL     OW56994   6.166   0.985   5.725
18518SOL    HW156995   6.214   1.033   5.658
18518SOL    HW256996   6.201   1.019   5.808
18519SOL     OW56997   7.255   0.117   7.076
18519SOL    HW156998   7.190   0.103   7.007
18519SOL    HW256999   7.203   0.143   7.152
18520SOL     OW57000   5.717   0.653   6.150
18520SOL    HW157001   5.679   0.568   6.171
18520SOL    HW257002   5.702   0.706   6.229
18521SOL     OW57003   7.433   1.747   5.908
18521SOL    HW157004   7.496   1.724   5.976
18521SOL    HW257005   7.447   1.841   5.893
18522SOL     OW57006   5.638   1.584   5.702
18522SOL    HW157007   5.606   1.496   5.721
18522SOL    HW257008   5.607   1.637   5.776
18523SOL     OW57009   7.279   0.924   6.228
18523SOL    HW157010   7.351   0.876   6.187
18523SOL    HW257011   7.248   0.983   6.160
18524SOL     OW57012   7.235   1.106   6.017
18524SOL    HW157013   7.321   1.107   5.975
18524SOL    HW257014   7.241   1.171   6.087
18525SOL     OW57015   5.695   0.753   7.170
18525SOL    HW157016   5.778   0.801   7.161
18525SOL    HW257017   5.627   0.818   7.153
18526SOL     OW57018   6.205   1.392   6.322
18526SOL    HW157019   6.159   1.308   6.329
18526SOL    HW257020   6.188   1.422   6.233
18527SOL     OW57021   6.864   1.233   7.000
18527SOL    HW157022   6.892   1.168   6.935
18527SOL    HW257023   6.836   1.181   7.075
18528SOL     OW57024   6.428   0.034   6.151
18528SOL    HW157025   6.462   0.114   6.112
18528SOL    HW257026   6.335   0.034   6.129
18529SOL     OW57027   5.769   0.951   6.886
18529SOL    HW157028   5.854   0.917   6.858
18529SOL    HW257029   5.714   0.944   6.808
18530SOL     OW57030   7.119   1.001   5.787
18530SOL    HW157031   7.049   0.945   5.819
18530SOL    HW257032   7.158   1.038   5.866
18531SOL     OW57033   6.783   1.828   7.221
18531SOL    HW157034   6.778   1.898   7.155
18531SOL    HW257035   6.792   1.748   7.170
18532SOL     OW57036   5.901   0.244   7.379
18532SOL    HW157037   5.935   0.333   7.381
18532SOL    HW257038   5.816   0.250   7.423
18533SOL     OW57039   7.060   1.414   6.532
18533SOL    HW157040   6.992   1.434   6.595
18533SOL    HW257041   7.042   1.324   6.504
18534SOL     OW57042   7.248   1.755   6.160
18534SOL    HW157043   7.220   1.726   6.073
18534SOL    HW257044   7.221   1.685   6.219
18535SOL     OW57045   6.180   0.721   5.860
18535SOL    HW157046   6.178   0.807   5.817
18535SOL    HW257047   6.115   0.728   5.930
18536SOL     OW57048   6.886   0.372   6.521
18536SOL    HW157049   6.794   0.346   6.521
18536SOL    HW257050   6.927   0.315   6.586
18537SOL     OW57051   7.165   1.673   5.899
18537SOL    HW157052   7.257   1.696   5.888
18537SOL    HW257053   7.132   1.658   5.810
18538SOL     OW57054   6.356   0.638   7.046
18538SOL    HW157055   6.337   0.599   7.131
18538SOL    HW257056   6.343   0.567   6.983
18539SOL     OW57057   6.994   0.499   7.263
18539SOL    HW157058   6.993   0.536   7.351
18539SOL    HW257059   7.073   0.445   7.260
18540SOL     OW57060   6.536   0.886   7.167
18540SOL    HW157061   6.581   0.810   7.129
18540SOL    HW257062   6.486   0.923   7.094
18541SOL     OW57063   6.591   0.410   6.797
18541SOL    HW157064   6.504   0.431   6.832
18541SOL    HW257065   6.574   0.376   6.709
18542SOL     OW57066   6.645   0.698   6.009
18542SOL    HW157067   6.663   0.690   6.103
18542SOL    HW257068   6.559   0.657   5.998
18543SOL     OW57069   5.672   0.813   6.365
18543SOL    HW157070   5.750   0.814   6.421
18543SOL    HW257071   5.621   0.889   6.395
18544SOL     OW57072   5.703   1.840   7.158
18544SOL    HW157073   5.705   1.827   7.253
18544SOL    HW257074   5.612   1.862   7.138
18545SOL     OW57075   6.470   0.354   5.795
18545SOL    HW157076   6.509   0.399   5.720
18545SOL    HW257077   6.426   0.278   5.757
18546SOL     OW57078   7.282   0.566   7.420
18546SOL    HW157079   7.254   0.644   7.372
18546SOL    HW257080   7.311   0.505   7.352
18547SOL     OW57081   6.967   1.144   6.125
18547SOL    HW157082   7.044   1.137   6.069
18547SOL    HW257083   6.910   1.207   6.081
18548SOL     OW57084   6.150   0.206   6.521
18548SOL    HW157085   6.121   0.279   6.576
18548SOL    HW257086   6.168   0.246   6.436
18549SOL     OW57087   6.580   1.450   6.053
18549SOL    HW157088   6.554   1.523   5.997
18549SOL    HW257089   6.548   1.473   6.140
18550SOL     OW57090   5.938   1.818   6.457
18550SOL    HW157091   5.986   1.735   6.467
18550SOL    HW257092   6.002   1.886   6.479
18551SOL     OW57093   7.389   1.045   6.459
18551SOL    HW157094   7.338   1.028   6.380
18551SOL    HW257095   7.324   1.054   6.529
18552SOL     OW57096   6.816   1.541   7.094
18552SOL    HW157097   6.793   1.467   7.150
18552SOL    HW257098   6.734   1.566   7.052
18553SOL     OW57099   5.896   0.959   5.846
18553SOL    HW157100   5.973   0.983   5.795
18553SOL    HW257101   5.864   0.878   5.806
18554SOL     OW57102   7.075   0.751   6.303
18554SOL    HW157103   7.066   0.716   6.392
18554SOL    HW257104   7.150   0.810   6.308
18555SOL     OW57105   6.052   1.254   7.323
18555SOL    HW157106   6.027   1.266   7.231
18555SOL    HW257107   5.970   1.261   7.371
18556SOL     OW57108   6.719   1.774   5.817
18556SOL    HW157109   6.637   1.743   5.856
18556SOL    HW257110   6.739   1.711   5.748
18557SOL     OW57111   5.772   0.259   7.083
18557SOL    HW157112   5.708   0.328   7.069
18557SOL    HW257113   5.770   0.243   7.177
18558SOL     OW57114   7.219   1.381   5.677
18558SOL    HW157115   7.177   1.467   5.667
18558SOL    HW257116   7.149   1.318   5.656
18559SOL     OW57117   6.048   1.739   5.903
18559SOL    HW157118   6.092   1.796   5.966
18559SOL    HW257119   6.119   1.704   5.849
18560SOL     OW57120   6.994   0.130   5.991
18560SOL    HW157121   6.992   0.089   5.905
18560SOL    HW257122   7.087   0.133   6.014
18561SOL     OW57123   5.844   1.787   6.806
18561SOL    HW157124   5.888   1.706   6.832
18561SOL    HW257125   5.810   1.768   6.719
18562SOL     OW57126   6.530   1.700   6.480
18562SOL    HW157127   6.609   1.650   6.499
18562SOL    HW257128   6.486   1.650   6.410
18563SOL     OW57129   5.990   0.686   6.062
18563SOL    HW157130   6.008   0.594   6.079
18563SOL    HW257131   5.896   0.696   6.078
18564SOL     OW57132   7.127   0.200   7.310
18564SOL    HW157133   7.099   0.238   7.393
18564SOL    HW257134   7.052   0.148   7.281
18565SOL     OW57135   6.200   0.157   5.682
18565SOL    HW157136   6.261   0.102   5.730
18565SOL    HW257137   6.141   0.096   5.638
18566SOL     OW57138   6.356   0.289   7.385
18566SOL    HW157139   6.386   0.206   7.350
18566SOL    HW257140   6.283   0.266   7.443
18567SOL     OW57141   6.459   1.525   6.776
18567SOL    HW157142   6.439   1.490   6.689
18567SOL    HW257143   6.528   1.469   6.809
18568SOL     OW57144   6.922   0.600   7.015
18568SOL    HW157145   6.956   0.572   7.100
18568SOL    HW257146   6.956   0.688   7.003
18569SOL     OW57147   6.409   1.384   6.532
18569SOL    HW157148   6.493   1.378   6.486
18569SOL    HW257149   6.345   1.396   6.461
18570SOL     OW57150   6.516   0.521   6.477
18570SOL    HW157151   6.488   0.515   6.386
18570SOL    HW257152   6.550   0.434   6.497
18571SOL     OW57153   6.176   0.039   6.024
18571SOL    HW157154   6.105  -0.014   6.060
18571SOL    HW257155   6.135   0.121   5.997
18572SOL     OW57156   7.012   1.205   5.623
18572SOL    HW157157   7.038   1.129   5.677
18572SOL    HW257158   6.926   1.230   5.657
18573SOL     OW57159   5.941   0.023   5.785
18573SOL    HW157160   5.889   0.104   5.784
18573SOL    HW257161   5.912  -0.022   5.865
18574SOL     OW57162   6.539   0.262   6.047
18574SOL    HW157163   6.508   0.292   5.961
18574SOL    HW257164   6.633   0.282   6.047
18575SOL     OW57165   6.658   0.670   7.049
18575SOL    HW157166   6.602   0.593   7.060
18575SOL    HW257167   6.745   0.635   7.036
18576SOL     OW57168   6.812   1.579   6.384
18576SOL    HW157169   6.816   1.640   6.310
18576SOL    HW257170   6.872   1.615   6.449
18577SOL     OW57171   6.065   1.153   6.307
18577SOL    HW157172   6.000   1.134   6.374
18577SOL    HW257173   6.017   1.146   6.224
18578SOL     OW57174   6.845   1.790   6.201
18578SOL    HW157175   6.892   1.854   6.147
18578SOL    HW257176   6.773   1.840   6.239
18579SOL     OW57177   6.608   0.525   5.611
18579SOL    HW157178   6.562   0.607   5.591
18579SOL    HW257179   6.665   0.547   5.685
18580SOL     OW57180   5.689   0.550   6.988
18580SOL    HW157181   5.778   0.560   6.955
18580SOL    HW257182   5.677   0.623   7.049
18581SOL     OW57183   6.144   0.258   6.809
18581SOL    HW157184   6.181   0.195   6.871
18581SOL    HW257185   6.051   0.239   6.807
18582SOL     OW57186   6.458   0.476   6.218
18582SOL    HW157187   6.417   0.527   6.147
18582SOL    HW257188   6.466   0.388   6.182
18583SOL     OW57189   6.563   0.034   6.383
18583SOL    HW157190   6.516   0.042   6.300
18583SOL    HW257191   6.579  -0.060   6.392
18584SOL     OW57192   7.027   1.155   6.439
18584SOL    HW157193   6.946   1.104   6.434
18584SOL    HW257194   7.052   1.168   6.347
18585SOL     OW57195   7.049   0.613   6.546
18585SOL    HW157196   6.993   0.535   6.545
18585SOL    HW257197   7.105   0.601   6.622
18586SOL     OW57198   7.425   0.805   5.980
18586SOL    HW157199   7.486   0.756   6.036
18586SOL    HW257200   7.406   0.745   5.908
18587SOL     OW57201   6.074   1.421   5.739
18587SOL    HW157202   6.002   1.393   5.796
18587SOL    HW257203   6.053   1.381   5.655
18588SOL     OW57204   7.262   1.264   6.231
18588SOL    HW157205   7.356   1.266   6.248
18588SOL    HW257206   7.233   1.354   6.250
18589SOL     OW57207   6.982   0.580   5.662
18589SOL    HW157208   6.912   0.557   5.724
18589SOL    HW257209   7.063   0.572   5.713
18590SOL     OW57210   6.089   0.278   5.898
18590SOL    HW157211   6.123   0.226   5.825
18590SOL    HW257212   6.066   0.362   5.858
18591SOL     OW57213   7.335   1.267   7.205
18591SOL    HW157214   7.405   1.203   7.216
18591SOL    HW257215   7.381   1.350   7.190
18592SOL     OW57216   6.629   1.350   6.905
18592SOL    HW157217   6.555   1.323   6.959
18592SOL    HW257218   6.706   1.319   6.952
18593SOL     OW57219   7.191   1.563   7.235
18593SOL    HW157220   7.167   1.619   7.161
18593SOL    HW257221   7.286   1.559   7.232
18594SOL     OW57222   6.726   1.217   6.681
18594SOL    HW157223   6.660   1.251   6.742
18594SOL    HW257224   6.700   1.252   6.596
18595SOL     OW57225   7.200   1.087   6.655
18595SOL    HW157226   7.187   1.151   6.726
18595SOL    HW257227   7.130   1.106   6.593
18596SOL     OW57228   6.518   0.130   6.996
18596SOL    HW157229   6.525   0.113   6.902
18596SOL    HW257230   6.608   0.123   7.028
18597SOL     OW57231   6.570   1.111   7.310
18597SOL    HW157232   6.481   1.134   7.334
18597SOL    HW257233   6.562   1.034   7.254
18598SOL     OW57234   6.298   1.065   5.957
18598SOL    HW157235   6.281   1.042   6.048
18598SOL    HW257236   6.373   1.010   5.933
18599SOL     OW57237   6.009   0.826   6.835
18599SOL    HW157238   6.073   0.840   6.904
18599SOL    HW257239   5.978   0.736   6.849
18600SOL     OW57240   6.849   0.378   6.869
18600SOL    HW157241   6.878   0.461   6.907
18600SOL    HW257242   6.760   0.396   6.838
18601SOL     OW57243   5.653   1.573   6.941
18601SOL    HW157244   5.611   1.642   6.890
18601SOL    HW257245   5.746   1.592   6.936
18602SOL     OW57246   5.923   1.125   6.073
18602SOL    HW157247   5.914   1.201   6.015
18602SOL    HW257248   5.919   1.049   6.015
18603SOL     OW57249   6.135   0.533   6.452
18603SOL    HW157250   6.146   0.589   6.375
18603SOL    HW257251   6.206   0.558   6.510
18604SOL     OW57252   6.829   1.352   5.983
18604SOL    HW157253   6.884   1.424   6.012
18604SOL    HW257254   6.741   1.375   6.012
18605SOL     OW57255   6.883   1.456   6.734
18605SOL    HW157256   6.930   1.451   6.817
18605SOL    HW257257   6.821   1.384   6.737
18606SOL     OW57258   7.158   0.639   6.059
18606SOL    HW157259   7.110   0.670   6.135
18606SOL    HW257260   7.191   0.718   6.017
18607SOL     OW57261   5.934   1.530   6.890
18607SOL    HW157262   5.921   1.481   6.809
18607SOL    HW257263   6.029   1.543   6.896
18608SOL     OW57264   6.006   0.751   7.199
18608SOL    HW157265   6.064   0.800   7.140
18608SOL    HW257266   6.036   0.661   7.193
18609SOL     OW57267   7.205   0.783   7.278
18609SOL    HW157268   7.117   0.820   7.270
18609SOL    HW257269   7.253   0.821   7.205
18610SOL     OW57270   6.633   0.071   7.333
18610SOL    HW157271   6.649   0.164   7.316
18610SOL    HW257272   6.539   0.060   7.321
18611SOL     OW57273   6.090   0.041   7.310
18611SOL    HW157274   6.065  -0.028   7.249
18611SOL    HW257275   6.009   0.091   7.324
18612SOL     OW57276   6.181   0.872   6.622
18612SOL    HW157277   6.198   0.965   6.613
18612SOL    HW257278   6.114   0.866   6.691
18613SOL     OW57279   6.921   0.852   6.608
18613SOL    HW157280   6.833   0.838   6.572
18613SOL    HW257281   6.967   0.770   6.591
18614SOL     OW57282   6.782   0.528   5.842
18614SOL    HW157283   6.790   0.451   5.897
18614SOL    HW257284   6.740   0.594   5.898
18615SOL     OW57285   5.881   0.199   6.819
18615SOL    HW157286   5.820   0.208   6.892
18615SOL    HW257287   5.865   0.111   6.784
18616SOL     OW57288   5.646   1.312   6.860
18616SOL    HW157289   5.673   1.262   6.938
18616SOL    HW257290   5.642   1.402   6.890
18617SOL     OW57291   6.313   0.632   6.642
18617SOL    HW157292   6.384   0.622   6.579
18617SOL    HW257293   6.277   0.719   6.625
18618SOL     OW57294   7.321   0.969   7.447
18618SOL    HW157295   7.284   0.897   7.397
18618SOL    HW257296   7.258   0.985   7.517
18619SOL     OW57297   5.985   0.098   6.252
18619SOL    HW157298   5.937   0.178   6.273
18619SOL    HW257299   5.921   0.042   6.207
18620SOL     OW57300   7.225   0.405   5.938
18620SOL    HW157301   7.226   0.333   6.001
18620SOL    HW257302   7.192   0.480   5.989
18621SOL     OW57303   6.623   0.762   6.545
18621SOL    HW157304   6.610   0.775   6.639
18621SOL    HW257305   6.590   0.674   6.529
18622SOL     OW57306   6.583   1.564   7.300
18622SOL    HW157307   6.561   1.622   7.227
18622SOL    HW257308   6.564   1.476   7.268
18623SOL     OW57309   7.455   1.510   7.186
18623SOL    HW157310   7.472   1.541   7.097
18623SOL    HW257311   7.537   1.528   7.233
18624SOL     OW57312   5.942   0.916   7.412
18624SOL    HW157313   6.023   0.968   7.408
18624SOL    HW257314   5.953   0.850   7.344
18625SOL     OW57315   7.179   0.256   5.715
18625SOL    HW157316   7.084   0.259   5.706
18625SOL    HW257317   7.197   0.309   5.793
18626SOL     OW57318   6.873   0.829   5.612
18626SOL    HW157319   6.913   0.742   5.618
18626SOL    HW257320   6.904   0.865   5.529
18627SOL     OW57321   6.665   1.346   6.444
18627SOL    HW157322   6.669   1.276   6.379
18627SOL    HW257323   6.720   1.416   6.407
18628SOL     OW57324   5.891   0.809   6.531
18628SOL    HW157325   5.983   0.826   6.509
18628SOL    HW257326   5.891   0.720   6.567
18629SOL     OW57327   5.918   0.538   6.607
18629SOL    HW157328   5.876   0.454   6.587
18629SOL    HW257329   5.994   0.541   6.549
18630SOL     OW57330   6.755   0.358   7.306
18630SOL    HW157331   6.685   0.413   7.341
18630SOL    HW257332   6.823   0.420   7.279
18631SOL     OW57333   6.778   0.208   7.070
18631SOL    HW157334   6.757   0.264   7.145
18631SOL    HW257335   6.795   0.269   6.998
18632SOL     OW57336   5.606   1.307   5.770
18632SOL    HW157337   5.517   1.328   5.739
18632SOL    HW257338   5.597   1.222   5.811
18633SOL     OW57339   5.683   1.768   6.543
18633SOL    HW157340   5.649   1.696   6.489
18633SOL    HW257341   5.766   1.791   6.502
18634SOL     OW57342   6.077   1.575   6.493
18634SOL    HW157343   6.145   1.640   6.511
18634SOL    HW257344   6.118   1.514   6.431
18635SOL     OW57345   6.560   0.777   6.810
18635SOL    HW157346   6.608   0.752   6.888
18635SOL    HW257347   6.469   0.750   6.827
18636SOL     OW57348   5.619   0.542   6.709
18636SOL    HW157349   5.695   0.545   6.651
18636SOL    HW257350   5.656   0.543   6.797
18637SOL     OW57351   5.787   0.532   7.315
18637SOL    HW157352   5.841   0.504   7.241
18637SOL    HW257353   5.738   0.607   7.281
18638SOL     OW57354   6.971   0.923   7.247
18638SOL    HW157355   6.959   1.018   7.253
18638SOL    HW257356   6.971   0.905   7.153
18639SOL     OW57357   6.404   0.579   5.957
18639SOL    HW157358   6.407   0.502   5.901
18639SOL    HW257359   6.328   0.628   5.926
18640SOL     OW57360   7.223   0.601   6.759
18640SOL    HW157361   7.215   0.546   6.837
18640SOL    HW257362   7.312   0.585   6.727
18641SOL     OW57363   5.842   1.550   7.316
18641SOL    HW157364   5.811   1.624   7.369
18641SOL    HW257365   5.826   1.473   7.370
18642SOL     OW57366   6.321   0.459   6.848
18642SOL    HW157367   6.257   0.389   6.835
18642SOL    HW257368   6.308   0.518   6.775
18643SOL     OW57369   6.539   1.670   7.043
18643SOL    HW157370   6.497   1.633   6.965
18643SOL    HW257371   6.524   1.765   7.035
18644SOL     OW57372   6.041   0.505   5.757
18644SOL    HW157373   6.098   0.577   5.785
18644SOL    HW257374   5.954   0.544   5.750
18645SOL     OW57375   5.727   1.146   7.070
18645SOL    HW157376   5.725   1.102   7.155
18645SOL    HW257377   5.741   1.075   7.007
18646SOL     OW57378   6.895   1.041   6.801
18646SOL    HW157379   6.914   0.975   6.734
18646SOL    HW257380   6.834   1.101   6.759
18647SOL     OW57381   6.909   0.853   5.888
18647SOL    HW157382   6.834   0.828   5.943
18647SOL    HW257383   6.876   0.847   5.798
18648SOL     OW57384   7.370   1.734   6.749
18648SOL    HW157385   7.432   1.761   6.682
18648SOL    HW257386   7.338   1.649   6.719
18649SOL     OW57387   6.827   1.725   6.688
18649SOL    HW157388   6.908   1.754   6.646
18649SOL    HW257389   6.841   1.633   6.708
18650SOL     OW57390   5.688   1.251   6.602
18650SOL    HW157391   5.669   1.274   6.693
18650SOL    HW257392   5.602   1.229   6.565
18651SOL     OW57393   6.255   1.680   7.318
18651SOL    HW157394   6.186   1.745   7.334
18651SOL    HW257395   6.289   1.702   7.231
18652SOL     OW57396   7.261   0.144   6.052
18652SOL    HW157397   7.347   0.147   6.011
18652SOL    HW257398   7.279   0.115   6.142
18653SOL     OW57399   6.979   1.570   6.081
18653SOL    HW157400   7.035   1.605   6.011
18653SOL    HW257401   6.925   1.644   6.108
18654SOL     OW57402   5.737   1.786   7.424
18654SOL    HW157403   5.685   1.723   7.475
18654SOL    HW257404   5.775   1.844   7.490
18655SOL     OW57405   6.867   0.928   6.253
18655SOL    HW157406   6.942   0.869   6.262
18655SOL    HW257407   6.899   1.001   6.201
18656SOL     OW57408   6.382   1.285   7.014
18656SOL    HW157409   6.353   1.326   7.095
18656SOL    HW257410   6.315   1.308   6.950
18657SOL     OW57411   6.255   1.625   5.742
18657SOL    HW157412   6.263   1.642   5.648
18657SOL    HW257413   6.198   1.548   5.748
18658SOL     OW57414   7.204   1.722   6.985
18658SOL    HW157415   7.259   1.729   6.907
18658SOL    HW257416   7.190   1.812   7.014
18659SOL     OW57417   7.442   0.182   6.547
18659SOL    HW157418   7.441   0.086   6.545
18659SOL    HW257419   7.357   0.207   6.511
18660SOL     OW57420   5.846   0.329   6.298
18660SOL    HW157421   5.758   0.354   6.269
18660SOL    HW257422   5.839   0.326   6.394
18661SOL     OW57423   6.798   1.596   5.619
18661SOL    HW157424   6.784   1.506   5.649
18661SOL    HW257425   6.729   1.612   5.555
18662SOL     OW57426   6.408   1.017   6.959
18662SOL    HW157427   6.427   1.015   6.866
18662SOL    HW257428   6.398   1.110   6.980
18663SOL     OW57429   6.506   0.912   5.881
18663SOL    HW157430   6.565   0.946   5.813
18663SOL    HW257431   6.557   0.843   5.924
18664SOL     OW57432   7.076   1.625   5.635
18664SOL    HW157433   6.981   1.617   5.622
18664SOL    HW257434   7.112   1.635   5.547
18665SOL     OW57435   5.957   1.308   7.077
18665SOL    HW157436   5.944   1.386   7.023
18665SOL    HW257437   5.878   1.255   7.063
18666SOL     OW57438   7.188   1.277   6.853
18666SOL    HW157439   7.276   1.288   6.889
18666SOL    HW257440   7.136   1.344   6.897
18667SOL     OW57441   6.656   1.114   6.304
18667SOL    HW157442   6.579   1.069   6.339
18667SOL    HW257443   6.714   1.044   6.273
18668SOL     OW57444   6.628   0.264   6.535
18668SOL    HW157445   6.603   0.209   6.461
18668SOL    HW257446   6.632   0.205   6.609
18669SOL     OW57447   6.194   1.489   6.068
18669SOL    HW157448   6.236   1.441   5.996
18669SOL    HW257449   6.113   1.524   6.030
18670SOL     OW57450   7.312   0.425   6.974
18670SOL    HW157451   7.391   0.479   6.974
18670SOL    HW257452   7.334   0.349   6.920
18671SOL     OW57453   5.858   1.336   5.894
18671SOL    HW157454   5.770   1.335   5.857
18671SOL    HW257455   5.848   1.383   5.977
18672SOL     OW57456   5.705   1.043   7.325
18672SOL    HW157457   5.624   1.016   7.367
18672SOL    HW257458   5.773   0.989   7.365
18673SOL     OW57459   6.261   0.221   7.079
18673SOL    HW157460   6.340   0.175   7.048
18673SOL    HW257461   6.252   0.192   7.170
18674SOL     OW57462   5.659   0.327   5.614
18674SOL    HW157463   5.564   0.323   5.613
18674SOL    HW257464   5.680   0.406   5.563
18675SOL     OW57465   7.008   0.869   6.984
18675SOL    HW157466   6.955   0.922   6.925
18675SOL    HW257467   7.094   0.866   6.942
18676SOL     OW57468   5.723   0.194   5.855
18676SOL    HW157469   5.697   0.256   5.787
18676SOL    HW257470   5.646   0.137   5.865
18677SOL     OW57471   6.760   1.332   5.703
18677SOL    HW157472   6.666   1.314   5.699
18677SOL    HW257473   6.780   1.331   5.797
18678SOL     OW57474   6.198   0.850   7.028
18678SOL    HW157475   6.257   0.923   7.008
18678SOL    HW257476   6.256   0.774   7.034
18679SOL     OW57477   7.064   1.784   6.557
18679SOL    HW157478   7.066   1.860   6.499
18679SOL    HW257479   7.150   1.783   6.599
18680SOL     OW57480   6.304   0.550   7.300
18680SOL    HW157481   6.359   0.613   7.346
18680SOL    HW257482   6.333   0.465   7.332
18681SOL     OW57483   5.958   1.739   7.149
18681SOL    HW157484   5.876   1.783   7.127
18681SOL    HW257485   5.930   1.659   7.194
18682SOL     OW57486   7.242   0.874   6.836
18682SOL    HW157487   7.237   0.789   6.792
18682SOL    HW257488   7.231   0.938   6.766
18683SOL     OW57489   6.809   0.327   6.036
18683SOL    HW157490   6.870   0.255   6.025
18683SOL    HW257491   6.840   0.374   6.114
18684SOL     OW57492   6.172   0.734   6.266
18684SOL    HW157493   6.212   0.819   6.249
18684SOL    HW257494   6.109   0.723   6.194
18685SOL     OW57495   7.337   0.369   7.242
18685SOL    HW157496   7.329   0.389   7.148
18685SOL    HW257497   7.275   0.297   7.256
18686SOL     OW57498   7.341   0.924   7.085
18686SOL    HW157499   7.342   1.019   7.087
18686SOL    HW257500   7.316   0.901   6.996
18687SOL     OW57501   6.467   1.363   5.643
18687SOL    HW157502   6.421   1.375   5.727
18687SOL    HW257503   6.461   1.449   5.601
18688SOL     OW57504   6.251   1.780   6.518
18688SOL    HW157505   6.225   1.871   6.504
18688SOL    HW257506   6.347   1.782   6.515
18689SOL     OW57507   6.458   0.978   6.443
18689SOL    HW157508   6.506   0.905   6.480
18689SOL    HW257509   6.417   1.020   6.519
18690SOL     OW57510   6.665   0.992   5.679
18690SOL    HW157511   6.640   1.044   5.603
18690SOL    HW257512   6.737   0.937   5.648
18691SOL     OW57513   7.428   1.554   6.428
18691SOL    HW157514   7.356   1.551   6.366
18691SOL    HW257515   7.391   1.517   6.509
18692SOL     OW57516   5.800   1.292   7.434
18692SOL    HW157517   5.758   1.224   7.381
18692SOL    HW257518   5.737   1.311   7.503
18693SOL     OW57519   5.675   1.228   6.254
18693SOL    HW157520   5.679   1.176   6.334
18693SOL    HW257521   5.744   1.191   6.198
18694SOL     OW57522   6.279   1.410   7.237
18694SOL    HW157523   6.193   1.371   7.253
18694SOL    HW257524   6.268   1.502   7.261
18695SOL     OW57525   7.414   0.225   6.824
18695SOL    HW157526   7.346   0.158   6.829
18695SOL    HW257527   7.437   0.229   6.731
18696SOL     OW57528   6.033   0.426   6.123
18696SOL    HW157529   6.036   0.365   6.050
18696SOL    HW257530   5.964   0.393   6.180
18697SOL     OW57531   7.289   1.485   6.661
18697SOL    HW157532   7.207   1.470   6.614
18697SOL    HW257533   7.290   1.418   6.730
18698SOL     OW57534   5.935   0.566   6.881
18698SOL    HW157535   5.983   0.500   6.930
18698SOL    HW257536   5.943   0.540   6.790
18699SOL     OW57537   6.423   1.585   6.254
18699SOL    HW157538   6.403   1.662   6.201
18699SOL    HW257539   6.344   1.531   6.249
18700SOL     OW57540   7.012   0.218   6.710
18700SOL    HW157541   7.074   0.168   6.763
18700SOL    HW257542   6.958   0.265   6.774
18701SOL     OW57543   6.597   0.076   6.732
18701SOL    HW157544   6.511   0.074   6.690
18701SOL    HW257545   6.616  -0.015   6.754
18702SOL     OW57546   6.364   1.332   5.902
18702SOL    HW157547   6.334   1.242   5.916
18702SOL    HW257548   6.439   1.342   5.960
18703SOL     OW57549   6.210   1.551   6.884
18703SOL    HW157550   6.211   1.631   6.937
18703SOL    HW257551   6.294   1.553   6.838
18704SOL     OW57552   6.925   7.981   5.745
18704SOL    HW157553   6.972   7.898   5.739
18704SOL    HW257554   6.843   7.959   5.789
18705SOL     OW57555   6.897   0.467   6.260
18705SOL    HW157556   6.841   0.544   6.260
18705SOL    HW257557   6.889   0.432   6.349
18706SOL     OW57558   7.195   0.232   6.458
18706SOL    HW157559   7.112   0.226   6.505
18706SOL    HW257560   7.186   0.308   6.400
18707SOL     OW57561   5.628   1.062   5.900
18707SOL    HW157562   5.721   1.052   5.880
18707SOL    HW257563   5.599   0.973   5.922
18708SOL     OW57564   6.478   1.666   5.915
18708SOL    HW157565   6.401   1.649   5.860
18708SOL    HW257566   6.449   1.734   5.976
18709SOL     OW57567   5.819   0.612   7.586
18709SOL    HW157568   5.733   0.602   7.628
18709SOL    HW257569   5.803   0.594   7.493
18710SOL     OW57570   5.811   0.298   8.430
18710SOL    HW157571   5.842   0.257   8.511
18710SOL    HW257572   5.729   0.252   8.410
18711SOL     OW57573   5.599   0.398   8.072
18711SOL    HW157574   5.510   0.411   8.107
18711SOL    HW257575   5.587   0.340   7.997
18712SOL     OW57576   6.162   1.302   8.636
18712SOL    HW157577   6.075   1.309   8.596
18712SOL    HW257578   6.179   1.390   8.670
18713SOL     OW57579   7.159   1.516   8.156
18713SOL    HW157580   7.114   1.492   8.238
18713SOL    HW257581   7.088   1.522   8.092
18714SOL     OW57582   6.725   0.694   8.139
18714SOL    HW157583   6.768   0.779   8.127
18714SOL    HW257584   6.674   0.704   8.219
18715SOL     OW57585   7.384   0.596   7.666
18715SOL    HW157586   7.347   0.589   7.579
18715SOL    HW257587   7.342   0.527   7.716
18716SOL     OW57588   6.333   1.138   8.501
18716SOL    HW157589   6.265   1.176   8.557
18716SOL    HW257590   6.372   1.214   8.457
18717SOL     OW57591   6.464   0.755   9.269
18717SOL    HW157592   6.434   0.823   9.329
18717SOL    HW257593   6.486   0.801   9.188
18718SOL     OW57594   6.269   0.986   8.105
18718SOL    HW157595   6.336   0.988   8.173
18718SOL    HW257596   6.202   1.047   8.137
18719SOL     OW57597   6.305   1.155   9.274
18719SOL    HW157598   6.351   1.234   9.299
18719SOL    HW257599   6.221   1.185   9.238
18720SOL     OW57600   5.931   1.401   8.511
18720SOL    HW157601   5.845   1.377   8.477
18720SOL    HW257602   5.962   1.469   8.452
18721SOL     OW57603   7.043   1.500   8.814
18721SOL    HW157604   7.096   1.579   8.825
18721SOL    HW257605   6.970   1.512   8.875
18722SOL     OW57606   6.031   0.383   8.922
18722SOL    HW157607   6.112   0.333   8.928
18722SOL    HW257608   5.961   0.318   8.935
18723SOL     OW57609   7.186   0.454   8.168
18723SOL    HW157610   7.101   0.464   8.125
18723SOL    HW257611   7.192   0.528   8.228
18724SOL     OW57612   5.813   1.709   7.917
18724SOL    HW157613   5.828   1.787   7.971
18724SOL    HW257614   5.881   1.713   7.851
18725SOL     OW57615   6.721   1.341   9.141
18725SOL    HW157616   6.756   1.335   9.230
18725SOL    HW257617   6.669   1.262   9.130
18726SOL     OW57618   5.811   1.447   7.997
18726SOL    HW157619   5.806   1.541   7.981
18726SOL    HW257620   5.749   1.431   8.068
18727SOL     OW57621   5.853   1.096   8.336
18727SOL    HW157622   5.842   1.007   8.368
18727SOL    HW257623   5.795   1.149   8.391
18728SOL     OW57624   6.210   1.778   8.901
18728SOL    HW157625   6.120   1.761   8.929
18728SOL    HW257626   6.220   1.873   8.911
18729SOL     OW57627   6.198   0.964   7.585
18729SOL    HW157628   6.233   1.017   7.513
18729SOL    HW257629   6.228   1.008   7.664
18730SOL     OW57630   7.244   0.117   8.935
18730SOL    HW157631   7.170   0.105   8.876
18730SOL    HW257632   7.204   0.146   9.017
18731SOL     OW57633   5.720   0.655   8.011
18731SOL    HW157634   5.682   0.570   8.030
18731SOL    HW257635   5.702   0.708   8.089
18732SOL     OW57636   7.431   1.752   7.775
18732SOL    HW157637   7.498   1.730   7.840
18732SOL    HW257638   7.446   1.844   7.755
18733SOL     OW57639   5.639   1.583   7.570
18733SOL    HW157640   5.602   1.497   7.589
18733SOL    HW257641   5.608   1.639   7.641
18734SOL     OW57642   7.276   0.924   8.090
18734SOL    HW157643   7.355   0.880   8.059
18734SOL    HW257644   7.249   0.979   8.016
18735SOL     OW57645   7.235   1.108   7.871
18735SOL    HW157646   7.323   1.103   7.835
18735SOL    HW257647   7.243   1.171   7.943
18736SOL     OW57648   5.695   0.754   9.031
18736SOL    HW157649   5.779   0.800   9.032
18736SOL    HW257650   5.630   0.822   9.018
18737SOL     OW57651   6.208   1.395   8.182
18737SOL    HW157652   6.160   1.313   8.192
18737SOL    HW257653   6.187   1.423   8.093
18738SOL     OW57654   6.867   1.232   8.868
18738SOL    HW157655   6.895   1.164   8.807
18738SOL    HW257656   6.928   1.225   8.941
18739SOL     OW57657   6.428   0.033   8.010
18739SOL    HW157658   6.462   0.115   7.974
18739SOL    HW257659   6.334   0.036   7.994
18740SOL     OW57660   5.769   0.949   8.748
18740SOL    HW157661   5.854   0.915   8.719
18740SOL    HW257662   5.715   0.948   8.669
18741SOL     OW57663   7.112   1.021   7.638
18741SOL    HW157664   7.044   0.961   7.669
18741SOL    HW257665   7.156   1.050   7.718
18742SOL     OW57666   6.800   1.813   9.080
18742SOL    HW157667   6.782   1.871   9.007
18742SOL    HW257668   6.802   1.725   9.042
18743SOL     OW57669   5.901   0.244   9.230
18743SOL    HW157670   5.959   0.312   9.263
18743SOL    HW257671   5.820   0.254   9.280
18744SOL     OW57672   7.058   1.416   8.395
18744SOL    HW157673   6.989   1.436   8.458
18744SOL    HW257674   7.042   1.326   8.367
18745SOL     OW57675   7.246   1.756   8.024
18745SOL    HW157676   7.221   1.726   7.937
18745SOL    HW257677   7.221   1.684   8.082
18746SOL     OW57678   6.883   0.373   8.381
18746SOL    HW157679   6.792   0.345   8.383
18746SOL    HW257680   6.927   0.318   8.445
18747SOL     OW57681   7.167   1.669   7.762
18747SOL    HW157682   7.257   1.699   7.751
18747SOL    HW257683   7.132   1.667   7.673
18748SOL     OW57684   6.361   0.645   8.892
18748SOL    HW157685   6.347   0.609   8.980
18748SOL    HW257686   6.346   0.570   8.833
18749SOL     OW57687   6.994   0.491   9.126
18749SOL    HW157688   6.993   0.534   9.211
18749SOL    HW257689   7.067   0.430   9.131
18750SOL     OW57690   6.535   0.884   9.031
18750SOL    HW157691   6.583   0.811   8.992
18750SOL    HW257692   6.487   0.923   8.959
18751SOL     OW57693   6.593   0.412   8.657
18751SOL    HW157694   6.507   0.433   8.694
18751SOL    HW257695   6.573   0.367   8.574
18752SOL     OW57696   6.630   0.689   7.872
18752SOL    HW157697   6.652   0.682   7.965
18752SOL    HW257698   6.545   0.646   7.865
18753SOL     OW57699   5.674   0.820   8.220
18753SOL    HW157700   5.751   0.818   8.277
18753SOL    HW257701   5.619   0.889   8.257
18754SOL     OW57702   5.724   1.877   9.013
18754SOL    HW157703   5.708   1.848   9.103
18754SOL    HW257704   5.672   1.816   8.959
18755SOL     OW57705   6.480   0.351   7.655
18755SOL    HW157706   6.517   0.398   7.580
18755SOL    HW257707   6.446   0.270   7.618
18756SOL     OW57708   7.300   0.574   9.278
18756SOL    HW157709   7.263   0.649   9.230
18756SOL    HW257710   7.322   0.511   9.209
18757SOL     OW57711   6.968   1.145   7.990
18757SOL    HW157712   7.045   1.137   7.934
18757SOL    HW257713   6.911   1.207   7.945
18758SOL     OW57714   6.153   0.226   8.385
18758SOL    HW157715   6.131   0.260   8.471
18758SOL    HW257716   6.149   0.302   8.327
18759SOL     OW57717   6.577   1.446   7.913
18759SOL    HW157718   6.552   1.521   7.858
18759SOL    HW257719   6.548   1.470   8.001
18760SOL     OW57720   5.940   1.818   8.313
18760SOL    HW157721   5.983   1.733   8.328
18760SOL    HW257722   6.005   1.882   8.341
18761SOL     OW57723   7.385   1.044   8.322
18761SOL    HW157724   7.332   1.028   8.244
18761SOL    HW257725   7.322   1.054   8.393
18762SOL     OW57726   6.813   1.543   8.962
18762SOL    HW157727   6.797   1.466   9.017
18762SOL    HW257728   6.734   1.549   8.907
18763SOL     OW57729   5.902   0.931   7.695
18763SOL    HW157730   5.917   0.961   7.606
18763SOL    HW257731   5.824   0.876   7.690
18764SOL     OW57732   7.070   0.754   8.164
18764SOL    HW157733   7.064   0.716   8.252
18764SOL    HW257734   7.147   0.811   8.168
18765SOL     OW57735   6.054   1.263   9.206
18765SOL    HW157736   6.033   1.259   9.113
18765SOL    HW257737   5.969   1.263   9.250
18766SOL     OW57738   6.720   1.763   7.688
18766SOL    HW157739   6.636   1.735   7.722
18766SOL    HW257740   6.735   1.706   7.612
18767SOL     OW57741   5.770   0.253   8.955
18767SOL    HW157742   5.710   0.326   8.937
18767SOL    HW257743   5.788   0.259   9.049
18768SOL     OW57744   7.211   1.378   7.525
18768SOL    HW157745   7.185   1.470   7.534
18768SOL    HW257746   7.145   1.330   7.575
18769SOL     OW57747   6.056   1.734   7.768
18769SOL    HW157748   6.095   1.797   7.828
18769SOL    HW257749   6.126   1.709   7.709
18770SOL     OW57750   6.986   0.130   7.860
18770SOL    HW157751   6.971   0.083   7.778
18770SOL    HW257752   7.082   0.130   7.870
18771SOL     OW57753   5.847   1.793   8.661
18771SOL    HW157754   5.793   1.741   8.721
18771SOL    HW257755   5.806   1.781   8.576
18772SOL     OW57756   6.528   1.705   8.337
18772SOL    HW157757   6.595   1.647   8.373
18772SOL    HW257758   6.488   1.654   8.265
18773SOL     OW57759   5.985   0.698   7.921
18773SOL    HW157760   6.007   0.607   7.939
18773SOL    HW257761   5.893   0.705   7.944
18774SOL     OW57762   7.139   0.208   9.173
18774SOL    HW157763   7.152   0.245   9.260
18774SOL    HW257764   7.047   0.183   9.171
18775SOL     OW57765   6.179   0.160   7.546
18775SOL    HW157766   6.245   0.105   7.588
18775SOL    HW257767   6.141   0.105   7.477
18776SOL     OW57768   6.335   0.282   9.226
18776SOL    HW157769   6.370   0.194   9.216
18776SOL    HW257770   6.269   0.274   9.295
18777SOL     OW57771   6.483   1.534   8.630
18777SOL    HW157772   6.453   1.490   8.551
18777SOL    HW257773   6.541   1.470   8.672
18778SOL     OW57774   6.924   0.594   8.880
18778SOL    HW157775   6.960   0.567   8.964
18778SOL    HW257776   6.958   0.683   8.867
18779SOL     OW57777   6.412   1.386   8.396
18779SOL    HW157778   6.495   1.376   8.349
18779SOL    HW257779   6.347   1.398   8.327
18780SOL     OW57780   6.519   0.521   8.343
18780SOL    HW157781   6.491   0.512   8.252
18780SOL    HW257782   6.553   0.434   8.366
18781SOL     OW57783   6.171   0.032   7.869
18781SOL    HW157784   6.104  -0.019   7.914
18781SOL    HW257785   6.142   0.123   7.877
18782SOL     OW57786   7.003   1.196   7.441
18782SOL    HW157787   7.035   1.127   7.500
18782SOL    HW257788   6.918   1.220   7.478
18783SOL     OW57789   5.885   0.008   7.632
18783SOL    HW157790   5.908   0.095   7.601
18783SOL    HW257791   5.910   0.008   7.725
18784SOL     OW57792   6.541   0.263   7.911
18784SOL    HW157793   6.512   0.286   7.822
18784SOL    HW257794   6.634   0.283   7.912
18785SOL     OW57795   6.661   0.671   8.911
18785SOL    HW157796   6.606   0.594   8.921
18785SOL    HW257797   6.750   0.635   8.901
18786SOL     OW57798   6.814   1.570   8.239
18786SOL    HW157799   6.817   1.636   8.170
18786SOL    HW257800   6.872   1.604   8.307
18787SOL     OW57801   6.062   1.155   8.169
18787SOL    HW157802   5.994   1.140   8.235
18787SOL    HW257803   6.017   1.145   8.085
18788SOL     OW57804   6.846   1.790   8.065
18788SOL    HW157805   6.895   1.853   8.010
18788SOL    HW257806   6.774   1.841   8.101
18789SOL     OW57807   6.609   0.529   7.475
18789SOL    HW157808   6.566   0.612   7.453
18789SOL    HW257809   6.669   0.551   7.547
18790SOL     OW57810   5.684   0.554   8.847
18790SOL    HW157811   5.775   0.561   8.817
18790SOL    HW257812   5.674   0.625   8.910
18791SOL     OW57813   6.147   0.248   8.663
18791SOL    HW157814   6.185   0.192   8.731
18791SOL    HW257815   6.052   0.235   8.672
18792SOL     OW57816   6.459   0.472   8.085
18792SOL    HW157817   6.407   0.521   8.021
18792SOL    HW257818   6.470   0.385   8.047
18793SOL     OW57819   6.559   0.032   8.245
18793SOL    HW157820   6.515   0.037   8.160
18793SOL    HW257821   6.578  -0.061   8.257
18794SOL     OW57822   7.026   1.157   8.304
18794SOL    HW157823   6.948   1.101   8.311
18794SOL    HW257824   7.041   1.165   8.210
18795SOL     OW57825   7.050   0.612   8.405
18795SOL    HW157826   6.993   0.535   8.409
18795SOL    HW257827   7.106   0.604   8.483
18796SOL     OW57828   7.424   0.805   7.839
18796SOL    HW157829   7.484   0.758   7.897
18796SOL    HW257830   7.406   0.744   7.768
18797SOL     OW57831   6.072   1.418   7.606
18797SOL    HW157832   6.002   1.390   7.665
18797SOL    HW257833   6.042   1.393   7.519
18798SOL     OW57834   7.265   1.266   8.083
18798SOL    HW157835   7.358   1.265   8.105
18798SOL    HW257836   7.236   1.354   8.109
18799SOL     OW57837   6.982   0.578   7.524
18799SOL    HW157838   6.917   0.554   7.590
18799SOL    HW257839   7.066   0.573   7.570
18800SOL     OW57840   6.096   0.304   7.759
18800SOL    HW157841   6.124   0.250   7.685
18800SOL    HW257842   6.082   0.391   7.721
18801SOL     OW57843   7.329   1.244   9.003
18801SOL    HW157844   7.416   1.208   8.986
18801SOL    HW257845   7.346   1.333   9.033
18802SOL     OW57846   6.632   1.347   8.774
18802SOL    HW157847   6.555   1.320   8.824
18802SOL    HW257848   6.706   1.308   8.820
18803SOL     OW57849   7.201   1.632   9.115
18803SOL    HW157850   7.186   1.665   9.027
18803SOL    HW257851   7.281   1.580   9.108
18804SOL     OW57852   6.728   1.217   8.546
18804SOL    HW157853   6.664   1.249   8.609
18804SOL    HW257854   6.699   1.252   8.462
18805SOL     OW57855   7.205   1.095   8.522
18805SOL    HW157856   7.196   1.159   8.592
18805SOL    HW257857   7.132   1.113   8.463
18806SOL     OW57858   6.515   0.129   8.858
18806SOL    HW157859   6.520   0.109   8.765
18806SOL    HW257860   6.605   0.123   8.889
18807SOL     OW57861   6.569   1.111   9.176
18807SOL    HW157862   6.477   1.127   9.199
18807SOL    HW257863   6.566   1.034   9.118
18808SOL     OW57864   6.278   1.022   7.834
18808SOL    HW157865   6.274   1.019   7.930
18808SOL    HW257866   6.365   0.987   7.813
18809SOL     OW57867   6.010   0.822   8.693
18809SOL    HW157868   6.071   0.839   8.765
18809SOL    HW257869   5.977   0.734   8.710
18810SOL     OW57870   6.852   0.379   8.728
18810SOL    HW157871   6.881   0.460   8.771
18810SOL    HW257872   6.763   0.398   8.698
18811SOL     OW57873   5.934   1.115   7.924
18811SOL    HW157874   5.920   1.196   7.874
18811SOL    HW257875   5.927   1.045   7.858
18812SOL     OW57876   6.143   0.515   8.304
18812SOL    HW157877   6.156   0.573   8.229
18812SOL    HW257878   6.204   0.548   8.370
18813SOL     OW57879   6.830   1.353   7.840
18813SOL    HW157880   6.883   1.425   7.873
18813SOL    HW257881   6.741   1.373   7.871
18814SOL     OW57882   6.879   1.464   8.595
18814SOL    HW157883   6.931   1.466   8.676
18814SOL    HW257884   6.821   1.388   8.605
18815SOL     OW57885   7.156   0.647   7.919
18815SOL    HW157886   7.109   0.677   7.996
18815SOL    HW257887   7.201   0.725   7.886
18816SOL     OW57888   5.966   1.483   8.791
18816SOL    HW157889   5.911   1.487   8.713
18816SOL    HW257890   6.047   1.526   8.766
18817SOL     OW57891   6.013   0.741   9.063
18817SOL    HW157892   6.063   0.794   9.000
18817SOL    HW257893   6.065   0.662   9.074
18818SOL     OW57894   7.203   0.786   9.140
18818SOL    HW157895   7.115   0.825   9.132
18818SOL    HW257896   7.252   0.824   9.067
18819SOL     OW57897   6.633   0.076   9.194
18819SOL    HW157898   6.647   0.168   9.172
18819SOL    HW257899   6.539   0.062   9.182
18820SOL     OW57900   6.092   0.037   9.174
18820SOL    HW157901   6.065  -0.029   9.110
18820SOL    HW257902   6.015   0.093   9.184
18821SOL     OW57903   6.173   0.874   8.478
18821SOL    HW157904   6.200   0.966   8.479
18821SOL    HW257905   6.115   0.866   8.554
18822SOL     OW57906   6.919   0.855   8.464
18822SOL    HW157907   6.830   0.836   8.436
18822SOL    HW257908   6.967   0.773   8.450
18823SOL     OW57909   6.784   0.531   7.707
18823SOL    HW157910   6.793   0.453   7.762
18823SOL    HW257911   6.737   0.594   7.762
18824SOL     OW57912   5.882   0.199   8.681
18824SOL    HW157913   5.817   0.209   8.750
18824SOL    HW257914   5.865   0.112   8.644
18825SOL     OW57915   5.631   1.326   8.735
18825SOL    HW157916   5.674   1.283   8.809
18825SOL    HW257917   5.636   1.419   8.755
18826SOL     OW57918   6.302   0.628   8.497
18826SOL    HW157919   6.381   0.621   8.443
18826SOL    HW257920   6.271   0.717   8.483
18827SOL     OW57921   7.330   0.961   9.314
18827SOL    HW157922   7.290   0.894   9.259
18827SOL    HW257923   7.264   0.980   9.381
18828SOL     OW57924   5.991   0.099   8.116
18828SOL    HW157925   5.935   0.175   8.133
18828SOL    HW257926   5.934   0.037   8.070
18829SOL     OW57927   7.218   0.409   7.811
18829SOL    HW157928   7.228   0.350   7.886
18829SOL    HW257929   7.187   0.491   7.850
18830SOL     OW57930   6.625   0.762   8.411
18830SOL    HW157931   6.609   0.775   8.505
18830SOL    HW257932   6.592   0.673   8.394
18831SOL     OW57933   6.582   1.578   9.171
18831SOL    HW157934   6.554   1.617   9.089
18831SOL    HW257935   6.615   1.492   9.147
18832SOL     OW57936   7.435   1.499   9.053
18832SOL    HW157937   7.455   1.527   8.964
18832SOL    HW257938   7.516   1.512   9.101
18833SOL     OW57939   5.940   0.906   9.272
18833SOL    HW157940   6.024   0.931   9.310
18833SOL    HW257941   5.962   0.845   9.201
18834SOL     OW57942   7.162   0.220   7.625
18834SOL    HW157943   7.073   0.235   7.594
18834SOL    HW257944   7.181   0.295   7.682
18835SOL     OW57945   6.864   0.820   7.475
18835SOL    HW157946   6.903   0.733   7.484
18835SOL    HW257947   6.898   0.853   7.392
18836SOL     OW57948   6.664   1.343   8.304
18836SOL    HW157949   6.668   1.272   8.240
18836SOL    HW257950   6.719   1.412   8.267
18837SOL     OW57951   5.893   0.811   8.390
18837SOL    HW157952   5.986   0.836   8.392
18837SOL    HW257953   5.892   0.721   8.425
18838SOL     OW57954   5.923   0.537   8.462
18838SOL    HW157955   5.879   0.454   8.446
18838SOL    HW257956   5.998   0.536   8.403
18839SOL     OW57957   6.749   0.359   9.160
18839SOL    HW157958   6.680   0.416   9.195
18839SOL    HW257959   6.821   0.418   9.139
18840SOL     OW57960   6.773   0.209   8.927
18840SOL    HW157961   6.756   0.265   9.002
18840SOL    HW257962   6.794   0.269   8.855
18841SOL     OW57963   5.602   1.308   7.627
18841SOL    HW157964   5.515   1.331   7.594
18841SOL    HW257965   5.589   1.225   7.673
18842SOL     OW57966   5.682   1.778   8.391
18842SOL    HW157967   5.652   1.700   8.344
18842SOL    HW257968   5.769   1.796   8.355
18843SOL     OW57969   6.078   1.580   8.353
18843SOL    HW157970   6.147   1.642   8.377
18843SOL    HW257971   6.122   1.517   8.295
18844SOL     OW57972   6.556   0.777   8.675
18844SOL    HW157973   6.613   0.754   8.748
18844SOL    HW257974   6.467   0.757   8.705
18845SOL     OW57975   5.621   0.538   8.572
18845SOL    HW157976   5.699   0.548   8.517
18845SOL    HW257977   5.653   0.547   8.661
18846SOL     OW57978   5.774   0.534   9.178
18846SOL    HW157979   5.853   0.525   9.126
18846SOL    HW257980   5.726   0.606   9.138
18847SOL     OW57981   6.971   0.928   9.103
18847SOL    HW157982   6.990   1.022   9.097
18847SOL    HW257983   6.962   0.900   9.012
18848SOL     OW57984   6.387   0.555   7.816
18848SOL    HW157985   6.424   0.486   7.761
18848SOL    HW257986   6.292   0.542   7.811
18849SOL     OW57987   7.225   0.608   8.618
18849SOL    HW157988   7.216   0.553   8.696
18849SOL    HW257989   7.313   0.590   8.586
18850SOL     OW57990   5.843   1.546   9.181
18850SOL    HW157991   5.808   1.617   9.236
18850SOL    HW257992   5.830   1.467   9.233
18851SOL     OW57993   6.320   0.455   8.705
18851SOL    HW157994   6.256   0.384   8.693
18851SOL    HW257995   6.304   0.515   8.632
18852SOL     OW57996   6.530   1.674   8.912
18852SOL    HW157997   6.495   1.632   8.833
18852SOL    HW257998   6.509   1.767   8.901
18853SOL     OW57999   6.084   0.590   7.643
18853SOL    HW158000   6.116   0.571   7.555
18853SOL    HW258001   5.989   0.590   7.634
18854SOL     OW58002   5.725   1.143   8.934
18854SOL    HW158003   5.723   1.098   9.018
18854SOL    HW258004   5.737   1.073   8.870
18855SOL     OW58005   6.904   1.042   8.662
18855SOL    HW158006   6.919   0.977   8.593
18855SOL    HW258007   6.841   1.103   8.624
18856SOL     OW58008   6.913   0.864   7.746
18856SOL    HW158009   6.845   0.837   7.807
18856SOL    HW258010   6.876   0.846   7.659
18857SOL     OW58011   7.373   1.729   8.614
18857SOL    HW158012   7.433   1.758   8.545
18857SOL    HW258013   7.342   1.643   8.586
18858SOL     OW58014   6.830   1.736   8.557
18858SOL    HW158015   6.911   1.758   8.512
18858SOL    HW258016   6.837   1.642   8.575
18859SOL     OW58017   5.678   1.257   8.474
18859SOL    HW158018   5.668   1.273   8.568
18859SOL    HW258019   5.598   1.291   8.435
18860SOL     OW58020   6.256   1.682   9.183
18860SOL    HW158021   6.181   1.741   9.191
18860SOL    HW258022   6.293   1.701   9.097
18861SOL     OW58023   7.262   0.100   7.915
18861SOL    HW158024   7.352   0.122   7.936
18861SOL    HW258025   7.228   0.058   7.994
18862SOL     OW58026   6.980   1.569   7.942
18862SOL    HW158027   7.037   1.605   7.874
18862SOL    HW258028   6.926   1.643   7.970
18863SOL     OW58029   5.729   1.792   9.280
18863SOL    HW158030   5.678   1.724   9.325
18863SOL    HW258031   5.765   1.845   9.351
18864SOL     OW58032   6.863   0.927   8.111
18864SOL    HW158033   6.938   0.869   8.125
18864SOL    HW258034   6.898   1.001   8.062
18865SOL     OW58035   6.380   1.286   8.875
18865SOL    HW158036   6.353   1.326   8.957
18865SOL    HW258037   6.308   1.306   8.814
18866SOL     OW58038   6.260   1.620   7.597
18866SOL    HW158039   6.265   1.638   7.504
18866SOL    HW258040   6.200   1.546   7.604
18867SOL     OW58041   7.204   1.724   8.847
18867SOL    HW158042   7.259   1.727   8.768
18867SOL    HW258043   7.187   1.815   8.869
18868SOL     OW58044   7.443   0.181   8.410
18868SOL    HW158045   7.440   0.087   8.430
18868SOL    HW258046   7.358   0.199   8.369
18869SOL     OW58047   5.852   0.333   8.161
18869SOL    HW158048   5.764   0.354   8.129
18869SOL    HW258049   5.842   0.327   8.256
18870SOL     OW58050   6.798   1.597   7.477
18870SOL    HW158051   6.780   1.509   7.508
18870SOL    HW258052   6.733   1.612   7.408
18871SOL     OW58053   6.409   1.018   8.824
18871SOL    HW158054   6.434   1.017   8.732
18871SOL    HW258055   6.399   1.111   8.845
18872SOL     OW58056   6.506   0.910   7.752
18872SOL    HW158057   6.561   0.943   7.681
18872SOL    HW258058   6.556   0.838   7.790
18873SOL     OW58059   7.073   1.616   7.497
18873SOL    HW158060   6.978   1.621   7.492
18873SOL    HW258061   7.103   1.638   7.409
18874SOL     OW58062   5.972   1.270   8.953
18874SOL    HW158063   5.973   1.348   8.898
18874SOL    HW258064   5.886   1.230   8.939
18875SOL     OW58065   7.192   1.287   8.724
18875SOL    HW158066   7.250   1.270   8.798
18875SOL    HW258067   7.130   1.352   8.757
18876SOL     OW58068   6.654   1.111   8.162
18876SOL    HW158069   6.580   1.065   8.201
18876SOL    HW258070   6.715   1.042   8.136
18877SOL     OW58071   6.627   0.262   8.395
18877SOL    HW158072   6.604   0.207   8.321
18877SOL    HW258073   6.630   0.202   8.470
18878SOL     OW58074   6.188   1.491   7.925
18878SOL    HW158075   6.223   1.448   7.847
18878SOL    HW258076   6.115   1.544   7.893
18879SOL     OW58077   7.308   0.432   8.827
18879SOL    HW158078   7.389   0.484   8.829
18879SOL    HW258079   7.332   0.353   8.777
18880SOL     OW58080   5.854   1.327   7.762
18880SOL    HW158081   5.771   1.336   7.715
18880SOL    HW258082   5.842   1.375   7.843
18881SOL     OW58083   5.708   1.038   9.187
18881SOL    HW158084   5.628   1.010   9.233
18881SOL    HW258085   5.778   0.987   9.229
18882SOL     OW58086   6.263   0.226   8.946
18882SOL    HW158087   6.337   0.173   8.917
18882SOL    HW258088   6.278   0.241   9.039
18883SOL     OW58089   5.658   0.328   7.481
18883SOL    HW158090   5.563   0.314   7.475
18883SOL    HW258091   5.674   0.404   7.425
18884SOL     OW58092   7.008   0.858   8.841
18884SOL    HW158093   6.956   0.918   8.787
18884SOL    HW258094   7.095   0.861   8.803
18885SOL     OW58095   5.707   0.240   7.750
18885SOL    HW158096   5.684   0.276   7.665
18885SOL    HW258097   5.687   0.147   7.744
18886SOL     OW58098   6.761   1.332   7.559
18886SOL    HW158099   6.666   1.322   7.555
18886SOL    HW258100   6.782   1.330   7.652
18887SOL     OW58101   6.196   0.852   8.887
18887SOL    HW158102   6.253   0.927   8.873
18887SOL    HW258103   6.255   0.777   8.890
18888SOL     OW58104   7.067   1.794   8.431
18888SOL    HW158105   7.082   1.863   8.365
18888SOL    HW258106   7.155   1.766   8.457
18889SOL     OW58107   6.308   0.553   9.142
18889SOL    HW158108   6.352   0.615   9.201
18889SOL    HW258109   6.325   0.467   9.180
18890SOL     OW58110   7.061   1.188   9.075
18890SOL    HW158111   7.051   1.209   9.168
18890SOL    HW258112   7.151   1.212   9.055
18891SOL     OW58113   5.966   1.741   9.017
18891SOL    HW158114   5.888   1.787   8.988
18891SOL    HW258115   5.934   1.656   9.048
18892SOL     OW58116   7.247   0.879   8.703
18892SOL    HW158117   7.242   0.795   8.658
18892SOL    HW258118   7.236   0.944   8.633
18893SOL     OW58119   6.808   0.332   7.901
18893SOL    HW158120   6.868   0.258   7.891
18893SOL    HW258121   6.839   0.378   7.978
18894SOL     OW58122   6.185   0.721   8.119
18894SOL    HW158123   6.219   0.810   8.118
18894SOL    HW258124   6.108   0.724   8.062
18895SOL     OW58125   7.342   0.379   9.091
18895SOL    HW158126   7.323   0.399   8.999
18895SOL    HW258127   7.282   0.308   9.113
18896SOL     OW58128   7.344   0.930   8.955
18896SOL    HW158129   7.325   1.023   8.969
18896SOL    HW258130   7.320   0.914   8.864
18897SOL     OW58131   6.480   1.363   7.508
18897SOL    HW158132   6.431   1.364   7.591
18897SOL    HW258133   6.463   1.448   7.469
18898SOL     OW58134   6.256   1.783   8.387
18898SOL    HW158135   6.229   1.873   8.368
18898SOL    HW258136   6.350   1.783   8.372
18899SOL     OW58137   6.460   0.977   8.308
18899SOL    HW158138   6.510   0.905   8.347
18899SOL    HW258139   6.419   1.020   8.382
18900SOL     OW58140   6.657   0.986   7.542
18900SOL    HW158141   6.634   1.039   7.465
18900SOL    HW258142   6.727   0.929   7.511
18901SOL     OW58143   7.427   1.556   8.293
18901SOL    HW158144   7.353   1.548   8.233
18901SOL    HW258145   7.400   1.507   8.371
18902SOL     OW58146   5.796   1.291   9.297
18902SOL    HW158147   5.756   1.221   9.245
18902SOL    HW258148   5.733   1.306   9.367
18903SOL     OW58149   5.665   1.218   8.124
18903SOL    HW158150   5.682   1.175   8.208
18903SOL    HW258151   5.744   1.201   8.073
18904SOL     OW58152   6.278   1.409   9.101
18904SOL    HW158153   6.191   1.371   9.117
18904SOL    HW258154   6.267   1.502   9.124
18905SOL     OW58155   7.409   0.224   8.687
18905SOL    HW158156   7.338   0.160   8.685
18905SOL    HW258157   7.436   0.234   8.595
18906SOL     OW58158   6.032   0.441   7.988
18906SOL    HW158159   6.036   0.376   7.917
18906SOL    HW258160   5.966   0.406   8.047
18907SOL     OW58161   7.286   1.482   8.532
18907SOL    HW158162   7.206   1.465   8.483
18907SOL    HW258163   7.286   1.416   8.601
18908SOL     OW58164   5.931   0.564   8.741
18908SOL    HW158165   5.979   0.500   8.793
18908SOL    HW258166   5.945   0.536   8.651
18909SOL     OW58167   6.423   1.583   8.116
18909SOL    HW158168   6.398   1.657   8.061
18909SOL    HW258169   6.344   1.528   8.119
18910SOL     OW58170   7.017   0.225   8.567
18910SOL    HW158171   7.074   0.167   8.617
18910SOL    HW258172   6.964   0.270   8.632
18911SOL     OW58173   6.591   0.075   8.591
18911SOL    HW158174   6.505   0.068   8.549
18911SOL    HW258175   6.613  -0.014   8.616
18912SOL     OW58176   6.369   1.323   7.759
18912SOL    HW158177   6.334   1.238   7.787
18912SOL    HW258178   6.438   1.342   7.822
18913SOL     OW58179   6.229   1.556   8.735
18913SOL    HW158180   6.223   1.636   8.788
18913SOL    HW258181   6.312   1.564   8.689
18914SOL     OW58182   6.920   7.978   7.630
18914SOL    HW158183   6.965   7.896   7.610
18914SOL    HW258184   6.835   7.951   7.664
18915SOL     OW58185   6.897   0.470   8.123
18915SOL    HW158186   6.840   0.546   8.123
18915SOL    HW258187   6.888   0.434   8.212
18916SOL     OW58188   7.196   0.225   8.317
18916SOL    HW158189   7.119   0.222   8.373
18916SOL    HW258190   7.183   0.302   8.262
18917SOL     OW58191   5.615   1.072   7.767
18917SOL    HW158192   5.710   1.083   7.771
18917SOL    HW258193   5.601   0.978   7.777
18918SOL     OW58194   6.475   1.664   7.777
18918SOL    HW158195   6.400   1.649   7.720
18918SOL    HW258196   6.447   1.734   7.836
18919SOL     OW58197   5.797   0.623   9.447
18919SOL    HW158198   5.709   0.617   9.484
18919SOL    HW258199   5.785   0.606   9.353
18920SOL     OW58200   5.809   0.301  10.295
18920SOL    HW158201   5.841   0.259  10.374
18920SOL    HW258202   5.728   0.254  10.274
18921SOL     OW58203   5.597   0.392   9.933
18921SOL    HW158204   5.507   0.405   9.964
18921SOL    HW258205   5.588   0.336   9.856
18922SOL     OW58206   6.158   1.301  10.502
18922SOL    HW158207   6.075   1.302  10.455
18922SOL    HW258208   6.171   1.392  10.530
18923SOL     OW58209   7.161   1.520  10.022
18923SOL    HW158210   7.118   1.489  10.102
18923SOL    HW258211   7.092   1.518   9.956
18924SOL     OW58212   6.730   0.694  10.005
18924SOL    HW158213   6.770   0.780   9.993
18924SOL    HW258214   6.674   0.703  10.082
18925SOL     OW58215   7.375   0.602   9.534
18925SOL    HW158216   7.345   0.597   9.443
18925SOL    HW258217   7.333   0.527   9.577
18926SOL     OW58218   6.342   1.143  10.371
18926SOL    HW158219   6.272   1.177  10.426
18926SOL    HW258220   6.374   1.219  10.322
18927SOL     OW58221   6.468   0.753  11.134
18927SOL    HW158222   6.452   0.821  11.199
18927SOL    HW258223   6.488   0.800  11.053
18928SOL     OW58224   6.275   0.995   9.953
18928SOL    HW158225   6.338   0.991  10.025
18928SOL    HW258226   6.205   1.051   9.986
18929SOL     OW58227   6.302   1.150  11.133
18929SOL    HW158228   6.351   1.227  11.165
18929SOL    HW258229   6.224   1.187  11.093
18930SOL     OW58230   5.920   1.407  10.376
18930SOL    HW158231   5.844   1.365  10.336
18930SOL    HW258232   5.958   1.461  10.307
18931SOL     OW58233   7.042   1.496  10.681
18931SOL    HW158234   7.074   1.586  10.688
18931SOL    HW258235   6.966   1.493  10.739
18932SOL     OW58236   6.029   0.385  10.791
18932SOL    HW158237   6.113   0.338  10.793
18932SOL    HW258238   5.963   0.316  10.793
18933SOL     OW58239   7.200   0.449  10.031
18933SOL    HW158240   7.120   0.450   9.978
18933SOL    HW258241   7.208   0.539  10.064
18934SOL     OW58242   5.812   1.716   9.781
18934SOL    HW158243   5.834   1.794   9.833
18934SOL    HW258244   5.877   1.715   9.711
18935SOL     OW58245   6.723   1.341  11.005
18935SOL    HW158246   6.760   1.335  11.093
18935SOL    HW258247   6.671   1.262  10.995
18936SOL     OW58248   5.832   1.452   9.860
18936SOL    HW158249   5.808   1.544   9.850
18936SOL    HW258250   5.765   1.416   9.918
18937SOL     OW58251   5.877   1.094  10.216
18937SOL    HW158252   5.858   1.004  10.242
18937SOL    HW258253   5.808   1.146  10.258
18938SOL     OW58254   6.193   1.786  10.752
18938SOL    HW158255   6.107   1.771  10.791
18938SOL    HW258256   6.212   1.879  10.771
18939SOL     OW58257   6.169   0.983   9.449
18939SOL    HW158258   6.215   1.032   9.382
18939SOL    HW258259   6.203   1.016   9.532
18940SOL     OW58260   7.262   0.102  10.812
18940SOL    HW158261   7.187   0.085  10.755
18940SOL    HW258262   7.223   0.136  10.893
18941SOL     OW58263   5.719   0.650   9.875
18941SOL    HW158264   5.681   0.564   9.892
18941SOL    HW258265   5.702   0.700   9.955
18942SOL     OW58266   7.428   1.749   9.658
18942SOL    HW158267   7.508   1.726   9.705
18942SOL    HW258268   7.448   1.835   9.619
18943SOL     OW58269   5.643   1.582   9.426
18943SOL    HW158270   5.603   1.496   9.443
18943SOL    HW258271   5.615   1.636   9.499
18944SOL     OW58272   7.288   0.929   9.957
18944SOL    HW158273   7.350   0.870   9.913
18944SOL    HW258274   7.251   0.982   9.887
18945SOL     OW58275   7.233   1.102   9.740
18945SOL    HW158276   7.318   1.099   9.697
18945SOL    HW258277   7.241   1.170   9.806
18946SOL     OW58278   5.701   0.752  10.892
18946SOL    HW158279   5.787   0.794  10.892
18946SOL    HW258280   5.639   0.823  10.875
18947SOL     OW58281   6.205   1.395  10.046
18947SOL    HW158282   6.160   1.310  10.052
18947SOL    HW258283   6.186   1.425   9.957
18948SOL     OW58284   6.872   1.238  10.727
18948SOL    HW158285   6.897   1.167  10.668
18948SOL    HW258286   6.927   1.226  10.804
18949SOL     OW58287   6.427   0.038   9.877
18949SOL    HW158288   6.461   0.118   9.837
18949SOL    HW258289   6.335   0.036   9.852
18950SOL     OW58290   5.770   0.957  10.604
18950SOL    HW158291   5.855   0.919  10.582
18950SOL    HW258292   5.714   0.933  10.530
18951SOL     OW58293   7.118   1.001   9.509
18951SOL    HW158294   7.048   0.942   9.538
18951SOL    HW258295   7.157   1.034   9.590
18952SOL     OW58296   6.780   1.823  10.940
18952SOL    HW158297   6.772   1.884  10.867
18952SOL    HW258298   6.784   1.736  10.899
18953SOL     OW58299   5.892   0.237  11.080
18953SOL    HW158300   5.960   0.294  11.116
18953SOL    HW258301   5.818   0.250  11.139
18954SOL     OW58302   7.064   1.412  10.256
18954SOL    HW158303   6.993   1.431  10.317
18954SOL    HW258304   7.045   1.324  10.224
18955SOL     OW58305   7.220   1.759   9.879
18955SOL    HW158306   7.273   1.713   9.814
18955SOL    HW258307   7.198   1.692   9.944
18956SOL     OW58308   6.180   0.723   9.585
18956SOL    HW158309   6.176   0.806   9.538
18956SOL    HW258310   6.114   0.731   9.653
18957SOL     OW58311   6.886   0.368  10.245
18957SOL    HW158312   6.794   0.346  10.242
18957SOL    HW258313   6.922   0.313  10.314
18958SOL     OW58314   7.155   1.702   9.603
18958SOL    HW158315   7.250   1.699   9.597
18958SOL    HW258316   7.125   1.675   9.516
18959SOL     OW58317   6.358   0.646  10.758
18959SOL    HW158318   6.345   0.609  10.846
18959SOL    HW258319   6.347   0.571  10.699
18960SOL     OW58320   6.995   0.490  10.992
18960SOL    HW158321   6.991   0.534  11.077
18960SOL    HW258322   7.062   0.424  11.002
18961SOL     OW58323   6.537   0.882  10.894
18961SOL    HW158324   6.584   0.808  10.856
18961SOL    HW258325   6.486   0.919  10.822
18962SOL     OW58326   6.593   0.415  10.514
18962SOL    HW158327   6.508   0.432  10.555
18962SOL    HW258328   6.571   0.375  10.429
18963SOL     OW58329   6.645   0.697   9.734
18963SOL    HW158330   6.662   0.687   9.827
18963SOL    HW258331   6.559   0.657   9.721
18964SOL     OW58332   5.672   0.807  10.094
18964SOL    HW158333   5.750   0.811  10.149
18964SOL    HW258334   5.621   0.884  10.118
18965SOL     OW58335   5.707   1.879  10.890
18965SOL    HW158336   5.707   1.856  10.983
18965SOL    HW258337   5.633   1.832  10.853
18966SOL     OW58338   6.473   0.356   9.518
18966SOL    HW158339   6.514   0.405   9.446
18966SOL    HW258340   6.443   0.274   9.478
18967SOL     OW58341   7.303   0.573  11.139
18967SOL    HW158342   7.264   0.648  11.092
18967SOL    HW258343   7.325   0.511  11.070
18968SOL     OW58344   6.972   1.146   9.857
18968SOL    HW158345   7.045   1.129   9.797
18968SOL    HW258346   6.913   1.202   9.808
18969SOL     OW58347   6.145   0.202  10.245
18969SOL    HW158348   6.119   0.279  10.296
18969SOL    HW258349   6.166   0.237  10.158
18970SOL     OW58350   6.594   1.464   9.783
18970SOL    HW158351   6.556   1.528   9.723
18970SOL    HW258352   6.547   1.478   9.866
18971SOL     OW58353   5.940   1.818  10.183
18971SOL    HW158354   5.983   1.732  10.189
18971SOL    HW258355   6.009   1.881  10.199
18972SOL     OW58356   7.391   1.062  10.181
18972SOL    HW158357   7.345   1.032  10.102
18972SOL    HW258358   7.323   1.064  10.249
18973SOL     OW58359   6.809   1.538  10.822
18973SOL    HW158360   6.794   1.468  10.886
18973SOL    HW258361   6.733   1.533  10.763
18974SOL     OW58362   5.897   0.956   9.570
18974SOL    HW158363   5.971   0.983   9.517
18974SOL    HW258364   5.863   0.878   9.526
18975SOL     OW58365   7.073   0.759  10.032
18975SOL    HW158366   7.064   0.716  10.117
18975SOL    HW258367   7.152   0.813  10.040
18976SOL     OW58368   6.057   1.275  11.051
18976SOL    HW158369   6.031   1.281  10.959
18976SOL    HW258370   5.975   1.265  11.099
18977SOL     OW58371   6.730   1.755   9.584
18977SOL    HW158372   6.639   1.734   9.602
18977SOL    HW258373   6.750   1.705   9.504
18978SOL     OW58374   5.770   0.245  10.819
18978SOL    HW158375   5.711   0.318  10.804
18978SOL    HW258376   5.796   0.253  10.910
18979SOL     OW58377   7.214   1.391   9.418
18979SOL    HW158378   7.176   1.473   9.387
18979SOL    HW258379   7.151   1.324   9.393
18980SOL     OW58380   6.048   1.743   9.620
18980SOL    HW158381   6.096   1.796   9.684
18980SOL    HW258382   6.117   1.703   9.567
18981SOL     OW58383   7.002   0.131   9.718
18981SOL    HW158384   7.011   0.098   9.629
18981SOL    HW258385   7.092   0.139   9.750
18982SOL     OW58386   5.845   1.792  10.527
18982SOL    HW158387   5.888   1.710  10.553
18982SOL    HW258388   5.809   1.774  10.441
18983SOL     OW58389   6.526   1.700  10.200
18983SOL    HW158390   6.586   1.636  10.237
18983SOL    HW258391   6.483   1.653  10.127
18984SOL     OW58392   5.991   0.687   9.788
18984SOL    HW158393   6.009   0.594   9.804
18984SOL    HW258394   5.896   0.695   9.801
18985SOL     OW58395   7.149   0.205  11.037
18985SOL    HW158396   7.163   0.244  11.124
18985SOL    HW258397   7.057   0.178  11.038
18986SOL     OW58398   6.179   0.140   9.411
18986SOL    HW158399   6.252   0.091   9.448
18986SOL    HW258400   6.153   0.089   9.334
18987SOL     OW58401   6.336   0.283  11.084
18987SOL    HW158402   6.374   0.196  11.075
18987SOL    HW258403   6.273   0.274  11.156
18988SOL     OW58404   6.463   1.529  10.502
18988SOL    HW158405   6.440   1.486  10.419
18988SOL    HW258406   6.527   1.470  10.542
18989SOL     OW58407   6.924   0.593  10.745
18989SOL    HW158408   6.960   0.565  10.829
18989SOL    HW258409   6.959   0.682  10.734
18990SOL     OW58410   6.405   1.391  10.258
18990SOL    HW158411   6.488   1.377  10.213
18990SOL    HW258412   6.340   1.397  10.189
18991SOL     OW58413   6.517   0.522  10.199
18991SOL    HW158414   6.488   0.515  10.108
18991SOL    HW258415   6.551   0.435  10.220
18992SOL     OW58416   6.178   0.036   9.743
18992SOL    HW158417   6.107  -0.014   9.784
18992SOL    HW258418   6.138   0.122   9.725
18993SOL     OW58419   7.019   1.209   9.351
18993SOL    HW158420   7.043   1.130   9.398
18993SOL    HW258421   6.929   1.227   9.377
18994SOL     OW58422   5.867   0.052   9.518
18994SOL    HW158423   5.934   0.104   9.473
18994SOL    HW258424   5.916   0.000   9.582
18995SOL     OW58425   6.539   0.265   9.771
18995SOL    HW158426   6.509   0.294   9.685
18995SOL    HW258427   6.633   0.281   9.770
18996SOL     OW58428   6.660   0.667  10.772
18996SOL    HW158429   6.604   0.590  10.785
18996SOL    HW258430   6.748   0.632  10.764
18997SOL     OW58431   6.817   1.564  10.107
18997SOL    HW158432   6.813   1.623  10.033
18997SOL    HW258433   6.876   1.606  10.169
18998SOL     OW58434   6.066   1.156  10.032
18998SOL    HW158435   6.001   1.136  10.100
18998SOL    HW258436   6.018   1.147   9.950
18999SOL     OW58437   6.841   1.813   9.860
18999SOL    HW158438   6.779   1.808   9.787
18999SOL    HW258439   6.792   1.856   9.930
19000SOL     OW58440   6.607   0.526   9.337
19000SOL    HW158441   6.563   0.608   9.315
19000SOL    HW258442   6.669   0.549   9.406
19001SOL     OW58443   5.688   0.548  10.713
19001SOL    HW158444   5.778   0.556  10.681
19001SOL    HW258445   5.679   0.620  10.776
19002SOL     OW58446   6.150   0.253  10.534
19002SOL    HW158447   6.185   0.188  10.595
19002SOL    HW258448   6.055   0.236  10.534
19003SOL     OW58449   6.458   0.477   9.940
19003SOL    HW158450   6.417   0.527   9.869
19003SOL    HW258451   6.472   0.390   9.902
19004SOL     OW58452   6.562   0.031  10.108
19004SOL    HW158453   6.516   0.040  10.025
19004SOL    HW258454   6.576  -0.063  10.118
19005SOL     OW58455   7.021   1.158  10.160
19005SOL    HW158456   6.948   1.097  10.170
19005SOL    HW258457   7.034   1.164  10.065
19006SOL     OW58458   7.045   0.618  10.272
19006SOL    HW158459   6.994   0.537  10.269
19006SOL    HW258460   7.105   0.606  10.346
19007SOL     OW58461   7.424   0.808   9.707
19007SOL    HW158462   7.485   0.757   9.761
19007SOL    HW258463   7.400   0.749   9.636
19008SOL     OW58464   6.079   1.421   9.462
19008SOL    HW158465   6.005   1.392   9.516
19008SOL    HW258466   6.064   1.381   9.377
19009SOL     OW58467   7.270   1.273   9.941
19009SOL    HW158468   7.363   1.271   9.962
19009SOL    HW258469   7.241   1.360   9.969
19010SOL     OW58470   6.985   0.579   9.384
19010SOL    HW158471   6.919   0.555   9.449
19010SOL    HW258472   7.067   0.545   9.420
19011SOL     OW58473   6.087   0.275   9.623
19011SOL    HW158474   6.125   0.226   9.550
19011SOL    HW258475   6.064   0.360   9.585
19012SOL     OW58476   7.328   1.251  10.861
19012SOL    HW158477   7.411   1.204  10.867
19012SOL    HW258478   7.351   1.341  10.885
19013SOL     OW58479   6.634   1.360  10.646
19013SOL    HW158480   6.558   1.325  10.692
19013SOL    HW258481   6.709   1.315  10.685
19014SOL     OW58482   7.194   1.629  10.975
19014SOL    HW158483   7.204   1.660  10.886
19014SOL    HW258484   7.255   1.555  10.982
19015SOL     OW58485   6.730   1.225  10.409
19015SOL    HW158486   6.657   1.244  10.468
19015SOL    HW258487   6.698   1.251  10.323
19016SOL     OW58488   7.208   1.100  10.384
19016SOL    HW158489   7.194   1.158  10.459
19016SOL    HW258490   7.131   1.113  10.329
19017SOL     OW58491   6.518   0.130  10.722
19017SOL    HW158492   6.523   0.112  10.628
19017SOL    HW258493   6.607   0.119  10.753
19018SOL     OW58494   6.569   1.114  11.031
19018SOL    HW158495   6.479   1.129  11.057
19018SOL    HW258496   6.566   1.035  10.977
19019SOL     OW58497   6.297   1.064   9.681
19019SOL    HW158498   6.279   1.040   9.772
19019SOL    HW258499   6.374   1.012   9.657
19020SOL     OW58500   6.006   0.825  10.560
19020SOL    HW158501   6.071   0.839  10.629
19020SOL    HW258502   5.976   0.735  10.574
19021SOL     OW58503   6.849   0.384  10.586
19021SOL    HW158504   6.878   0.463  10.632
19021SOL    HW258505   6.760   0.404  10.557
19022SOL     OW58506   5.661   1.574  10.673
19022SOL    HW158507   5.622   1.634  10.610
19022SOL    HW258508   5.755   1.577  10.654
19023SOL     OW58509   5.924   1.123   9.798
19023SOL    HW158510   5.916   1.198   9.738
19023SOL    HW258511   5.920   1.046   9.741
19024SOL     OW58512   6.134   0.535  10.176
19024SOL    HW158513   6.146   0.591  10.100
19024SOL    HW258514   6.206   0.557  10.234
19025SOL     OW58515   6.830   1.345   9.712
19025SOL    HW158516   6.887   1.416   9.741
19025SOL    HW258517   6.743   1.372   9.739
19026SOL     OW58518   6.880   1.459  10.452
19026SOL    HW158519   6.922   1.454  10.538
19026SOL    HW258520   6.821   1.384  10.450
19027SOL     OW58521   7.157   0.631   9.795
19027SOL    HW158522   7.106   0.674   9.863
19027SOL    HW258523   7.179   0.700   9.733
19028SOL     OW58524   5.931   1.534  10.611
19028SOL    HW158525   5.920   1.484  10.530
19028SOL    HW258526   6.026   1.546  10.619
19029SOL     OW58527   6.009   0.744  10.922
19029SOL    HW158528   6.064   0.793  10.861
19029SOL    HW258529   6.055   0.661  10.935
19030SOL     OW58530   7.203   0.783  11.000
19030SOL    HW158531   7.116   0.821  10.994
19030SOL    HW258532   7.252   0.822  10.928
19031SOL     OW58533   6.633   0.074  11.046
19031SOL    HW158534   6.645   0.168  11.032
19031SOL    HW258535   6.539   0.061  11.040
19032SOL     OW58536   6.092   0.034  11.039
19032SOL    HW158537   6.066  -0.028  10.970
19032SOL    HW258538   6.016   0.092  11.047
19033SOL     OW58539   6.182   0.870  10.349
19033SOL    HW158540   6.194   0.964  10.339
19033SOL    HW258541   6.114   0.862  10.417
19034SOL     OW58542   6.918   0.859  10.328
19034SOL    HW158543   6.830   0.842  10.296
19034SOL    HW258544   6.965   0.777  10.314
19035SOL     OW58545   6.785   0.529   9.566
19035SOL    HW158546   6.793   0.449   9.620
19035SOL    HW258547   6.741   0.592   9.623
19036SOL     OW58548   5.884   0.197  10.543
19036SOL    HW158549   5.816   0.201  10.610
19036SOL    HW258550   5.871   0.111  10.502
19037SOL     OW58551   5.632   1.311  10.587
19037SOL    HW158552   5.666   1.257  10.658
19037SOL    HW258553   5.636   1.401  10.621
19038SOL     OW58554   6.314   0.629  10.366
19038SOL    HW158555   6.385   0.620  10.303
19038SOL    HW258556   6.279   0.717  10.350
19039SOL     OW58557   7.325   0.970  11.167
19039SOL    HW158558   7.286   0.895  11.121
19039SOL    HW258559   7.266   0.985  11.241
19040SOL     OW58560   5.985   0.095   9.971
19040SOL    HW158561   5.931   0.171   9.991
19040SOL    HW258562   5.927   0.036   9.924
19041SOL     OW58563   7.226   0.400   9.667
19041SOL    HW158564   7.237   0.325   9.725
19041SOL    HW258565   7.195   0.471   9.723
19042SOL     OW58566   6.622   0.763  10.273
19042SOL    HW158567   6.607   0.775  10.367
19042SOL    HW258568   6.590   0.675  10.255
19043SOL     OW58569   6.572   1.570  11.034
19043SOL    HW158570   6.551   1.611  10.950
19043SOL    HW258571   6.608   1.485  11.010
19044SOL     OW58572   7.456   1.522  10.894
19044SOL    HW158573   7.445   1.614  10.916
19044SOL    HW258574   7.536   1.495  10.939
19045SOL     OW58575   5.938   0.919  11.122
19045SOL    HW158576   6.018   0.934  11.171
19045SOL    HW258577   5.962   0.853  11.056
19046SOL     OW58578   7.169   0.305   9.419
19046SOL    HW158579   7.074   0.293   9.423
19046SOL    HW258580   7.193   0.330   9.508
19047SOL     OW58581   6.879   0.829   9.340
19047SOL    HW158582   6.919   0.742   9.345
19047SOL    HW258583   6.907   0.864   9.256
19048SOL     OW58584   6.657   1.343  10.168
19048SOL    HW158585   6.661   1.270  10.106
19048SOL    HW258586   6.716   1.408  10.132
19049SOL     OW58587   5.892   0.812  10.257
19049SOL    HW158588   5.983   0.825  10.230
19049SOL    HW258589   5.890   0.723  10.292
19050SOL     OW58590   5.916   0.541  10.329
19050SOL    HW158591   5.875   0.456  10.310
19050SOL    HW258592   5.993   0.543  10.272
19051SOL     OW58593   6.748   0.358  11.016
19051SOL    HW158594   6.682   0.414  11.057
19051SOL    HW258595   6.822   0.416  11.000
19052SOL     OW58596   6.783   0.207  10.784
19052SOL    HW158597   6.763   0.259  10.861
19052SOL    HW258598   6.795   0.271  10.714
19053SOL     OW58599   5.606   1.306   9.498
19053SOL    HW158600   5.518   1.326   9.467
19053SOL    HW258601   5.598   1.220   9.539
19054SOL     OW58602   5.685   1.772  10.270
19054SOL    HW158603   5.647   1.701  10.218
19054SOL    HW258604   5.768   1.792  10.227
19055SOL     OW58605   6.076   1.576  10.217
19055SOL    HW158606   6.146   1.637  10.240
19055SOL    HW258607   6.116   1.516  10.155
19056SOL     OW58608   6.556   0.780  10.537
19056SOL    HW158609   6.608   0.753  10.613
19056SOL    HW258610   6.467   0.749  10.557
19057SOL     OW58611   5.620   0.545  10.433
19057SOL    HW158612   5.695   0.544  10.373
19057SOL    HW258613   5.659   0.544  10.520
19058SOL     OW58614   5.774   0.535  11.046
19058SOL    HW158615   5.850   0.515  10.992
19058SOL    HW258616   5.731   0.608  11.001
19059SOL     OW58617   6.972   0.926  10.965
19059SOL    HW158618   6.989   1.020  10.961
19059SOL    HW258619   6.964   0.899  10.874
19060SOL     OW58620   6.403   0.580   9.680
19060SOL    HW158621   6.408   0.504   9.623
19060SOL    HW258622   6.327   0.629   9.649
19061SOL     OW58623   7.227   0.610  10.480
19061SOL    HW158624   7.215   0.556  10.558
19061SOL    HW258625   7.313   0.586  10.447
19062SOL     OW58626   5.823   1.545  11.034
19062SOL    HW158627   5.800   1.602  11.108
19062SOL    HW258628   5.830   1.458  11.073
19063SOL     OW58629   6.323   0.455  10.572
19063SOL    HW158630   6.260   0.385  10.559
19063SOL    HW258631   6.310   0.514  10.498
19064SOL     OW58632   6.516   1.676  10.780
19064SOL    HW158633   6.485   1.633  10.700
19064SOL    HW258634   6.503   1.770  10.764
19065SOL     OW58635   6.040   0.504   9.488
19065SOL    HW158636   6.097   0.577   9.512
19065SOL    HW258637   5.953   0.543   9.478
19066SOL     OW58638   5.727   1.147  10.792
19066SOL    HW158639   5.729   1.103  10.877
19066SOL    HW258640   5.741   1.077  10.728
19067SOL     OW58641   6.908   1.048  10.522
19067SOL    HW158642   6.919   0.980  10.456
19067SOL    HW258643   6.844   1.108  10.484
19068SOL     OW58644   6.906   0.854   9.616
19068SOL    HW158645   6.831   0.823   9.666
19068SOL    HW258646   6.879   0.845   9.525
19069SOL     OW58647   7.375   1.721  10.462
19069SOL    HW158648   7.433   1.749  10.390
19069SOL    HW258649   7.341   1.637  10.433
19070SOL     OW58650   6.831   1.733  10.420
19070SOL    HW158651   6.911   1.754  10.371
19070SOL    HW258652   6.838   1.639  10.436
19071SOL     OW58653   5.682   1.257  10.324
19071SOL    HW158654   5.655   1.275  10.414
19071SOL    HW258655   5.607   1.211  10.285
19072SOL     OW58656   6.265   1.678  11.053
19072SOL    HW158657   6.198   1.746  11.048
19072SOL    HW258658   6.325   1.697  10.981
19073SOL     OW58659   7.271   0.159   9.799
19073SOL    HW158660   7.306   0.122   9.719
19073SOL    HW258661   7.328   0.125   9.868
19074SOL     OW58662   6.984   1.570   9.804
19074SOL    HW158663   7.031   1.593   9.724
19074SOL    HW258664   6.923   1.643   9.817
19075SOL     OW58665   5.717   1.803  11.151
19075SOL    HW158666   5.673   1.730  11.195
19075SOL    HW258667   5.769   1.845  11.221
19076SOL     OW58668   6.864   0.930   9.982
19076SOL    HW158669   6.938   0.871   9.993
19076SOL    HW258670   6.898   1.002   9.928
19077SOL     OW58671   6.380   1.283  10.728
19077SOL    HW158672   6.353   1.326  10.809
19077SOL    HW258673   6.306   1.297  10.668
19078SOL     OW58674   6.259   1.626   9.461
19078SOL    HW158675   6.266   1.642   9.367
19078SOL    HW258676   6.200   1.550   9.467
19079SOL     OW58677   7.276   1.728  10.715
19079SOL    HW158678   7.282   1.735  10.619
19079SOL    HW258679   7.244   1.814  10.743
19080SOL     OW58680   7.442   0.131  10.275
19080SOL    HW158681   7.464   0.093  10.190
19080SOL    HW258682   7.358   0.174  10.262
19081SOL     OW58683   5.848   0.325  10.022
19081SOL    HW158684   5.761   0.349   9.990
19081SOL    HW258685   5.839   0.326  10.118
19082SOL     OW58686   6.791   1.606   9.357
19082SOL    HW158687   6.783   1.513   9.378
19082SOL    HW258688   6.728   1.621   9.287
19083SOL     OW58689   6.409   1.014  10.687
19083SOL    HW158690   6.436   1.006  10.596
19083SOL    HW258691   6.402   1.108  10.702
19084SOL     OW58692   6.513   0.920   9.612
19084SOL    HW158693   6.570   0.951   9.541
19084SOL    HW258694   6.560   0.846   9.650
19085SOL     OW58695   7.070   1.639   9.354
19085SOL    HW158696   6.977   1.626   9.336
19085SOL    HW258697   7.110   1.643   9.268
19086SOL     OW58698   5.953   1.313  10.805
19086SOL    HW158699   5.941   1.385  10.744
19086SOL    HW258700   5.878   1.255  10.789
19087SOL     OW58701   7.206   1.288  10.605
19087SOL    HW158702   7.247   1.261  10.687
19087SOL    HW258703   7.137   1.348  10.631
19088SOL     OW58704   6.653   1.113  10.029
19088SOL    HW158705   6.577   1.066  10.062
19088SOL    HW258706   6.713   1.044   9.999
19089SOL     OW58707   6.628   0.263  10.256
19089SOL    HW158708   6.603   0.207  10.183
19089SOL    HW258709   6.631   0.204  10.331
19090SOL     OW58710   6.194   1.496   9.792
19090SOL    HW158711   6.240   1.444   9.727
19090SOL    HW258712   6.110   1.516   9.752
19091SOL     OW58713   7.301   0.431  10.686
19091SOL    HW158714   7.384   0.479  10.691
19091SOL    HW258715   7.324   0.350  10.641
19092SOL     OW58716   5.865   1.334   9.621
19092SOL    HW158717   5.779   1.334   9.579
19092SOL    HW258718   5.852   1.383   9.702
19093SOL     OW58719   5.707   1.052  11.051
19093SOL    HW158720   5.628   1.018  11.095
19093SOL    HW258721   5.778   0.997  11.085
19094SOL     OW58722   6.263   0.227  10.814
19094SOL    HW158723   6.337   0.174  10.785
19094SOL    HW258724   6.281   0.246  10.906
19095SOL     OW58725   5.665   0.330   9.341
19095SOL    HW158726   5.570   0.320   9.330
19095SOL    HW258727   5.687   0.407   9.289
19096SOL     OW58728   7.008   0.859  10.702
19096SOL    HW158729   6.956   0.918  10.648
19096SOL    HW258730   7.095   0.860  10.662
19097SOL     OW58731   5.665   0.226   9.615
19097SOL    HW158732   5.660   0.274   9.532
19097SOL    HW258733   5.726   0.155   9.597
19098SOL     OW58734   6.758   1.336   9.425
19098SOL    HW158735   6.663   1.328   9.415
19098SOL    HW258736   6.774   1.323   9.518
19099SOL     OW58737   6.195   0.853  10.751
19099SOL    HW158738   6.254   0.926  10.735
19099SOL    HW258739   6.252   0.776  10.755
19100SOL     OW58740   7.064   1.790  10.281
19100SOL    HW158741   7.082   1.869  10.230
19100SOL    HW258742   7.150   1.759  10.309
19101SOL     OW58743   6.306   0.555  11.008
19101SOL    HW158744   6.353   0.615  11.067
19101SOL    HW258745   6.324   0.468  11.044
19102SOL     OW58746   7.057   1.190  10.938
19102SOL    HW158747   7.043   1.205  11.031
19102SOL    HW258748   7.149   1.212  10.924
19103SOL     OW58749   5.953   1.744  10.880
19103SOL    HW158750   5.873   1.791  10.857
19103SOL    HW258751   5.922   1.661  10.917
19104SOL     OW58752   7.247   0.878  10.561
19104SOL    HW158753   7.242   0.792  10.520
19104SOL    HW258754   7.236   0.940  10.489
19105SOL     OW58755   6.810   0.324   9.761
19105SOL    HW158756   6.873   0.253   9.748
19105SOL    HW258757   6.842   0.371   9.838
19106SOL     OW58758   6.170   0.737   9.992
19106SOL    HW158759   6.212   0.821   9.972
19106SOL    HW258760   6.108   0.724   9.920
19107SOL     OW58761   7.342   0.382  10.949
19107SOL    HW158762   7.316   0.401  10.859
19107SOL    HW258763   7.282   0.313  10.978
19108SOL     OW58764   7.342   0.929  10.813
19108SOL    HW158765   7.315   1.020  10.828
19108SOL    HW258766   7.318   0.911  10.723
19109SOL     OW58767   6.480   1.375   9.374
19109SOL    HW158768   6.418   1.391   9.445
19109SOL    HW258769   6.468   1.448   9.314
19110SOL     OW58770   6.253   1.781  10.252
19110SOL    HW158771   6.229   1.871  10.230
19110SOL    HW258772   6.347   1.777  10.235
19111SOL     OW58773   6.457   0.978  10.169
19111SOL    HW158774   6.504   0.903  10.204
19111SOL    HW258775   6.416   1.018  10.245
19112SOL     OW58776   6.671   0.995   9.406
19112SOL    HW158777   6.641   1.043   9.328
19112SOL    HW258778   6.741   0.938   9.374
19113SOL     OW58779   7.426   1.556  10.151
19113SOL    HW158780   7.344   1.544  10.103
19113SOL    HW258781   7.437   1.475  10.201
19114SOL     OW58782   5.801   1.291  11.154
19114SOL    HW158783   5.765   1.214  11.110
19114SOL    HW258784   5.744   1.303  11.231
19115SOL     OW58785   5.682   1.234   9.976
19115SOL    HW158786   5.677   1.173  10.051
19115SOL    HW258787   5.745   1.193   9.917
19116SOL     OW58788   6.276   1.412  10.946
19116SOL    HW158789   6.196   1.370  10.978
19116SOL    HW258790   6.272   1.501  10.982
19117SOL     OW58791   7.392   0.211  10.558
19117SOL    HW158792   7.328   0.143  10.535
19117SOL    HW258793   7.434   0.233  10.475
19118SOL     OW58794   6.034   0.426   9.849
19118SOL    HW158795   6.036   0.366   9.775
19118SOL    HW258796   5.965   0.393   9.905
19119SOL     OW58797   7.277   1.476  10.416
19119SOL    HW158798   7.206   1.459  10.354
19119SOL    HW258799   7.265   1.411  10.485
19120SOL     OW58800   5.933   0.566  10.605
19120SOL    HW158801   5.982   0.500  10.655
19120SOL    HW258802   5.943   0.538  10.514
19121SOL     OW58803   6.418   1.581   9.980
19121SOL    HW158804   6.389   1.649   9.919
19121SOL    HW258805   6.345   1.520   9.983
19122SOL     OW58806   6.994   0.208  10.443
19122SOL    HW158807   7.068   0.186  10.500
19122SOL    HW258808   6.938   0.264  10.496
19123SOL     OW58809   6.596   0.076  10.455
19123SOL    HW158810   6.510   0.073  10.413
19123SOL    HW258811   6.615  -0.015  10.478
19124SOL     OW58812   6.358   1.333   9.636
19124SOL    HW158813   6.321   1.245   9.639
19124SOL    HW258814   6.444   1.325   9.677
19125SOL     OW58815   6.207   1.558  10.601
19125SOL    HW158816   6.207   1.638  10.654
19125SOL    HW258817   6.293   1.556  10.560
19126SOL     OW58818   6.930   7.979   9.450
19126SOL    HW158819   6.982   7.899   9.452
19126SOL    HW258820   6.852   7.959   9.501
19127SOL     OW58821   6.897   0.466   9.985
19127SOL    HW158822   6.840   0.543   9.985
19127SOL    HW258823   6.891   0.431  10.074
19128SOL     OW58824   7.208   0.248  10.213
19128SOL    HW158825   7.114   0.239  10.231
19128SOL    HW258826   7.213   0.314  10.144
19129SOL     OW58827   5.630   1.061   9.630
19129SOL    HW158828   5.722   1.050   9.604
19129SOL    HW258829   5.601   0.972   9.651
19130SOL     OW58830   6.473   1.671   9.643
19130SOL    HW158831   6.401   1.649   9.584
19130SOL    HW258832   6.438   1.738   9.701
19131SOL     OW58833   5.798   0.638  11.307
19131SOL    HW158834   5.712   0.623  11.346
19131SOL    HW258835   5.788   0.612  11.215
19132SOL     OW58836   5.779   0.331  12.171
19132SOL    HW158837   5.849   0.274  12.204
19132SOL    HW258838   5.708   0.272  12.149
19133SOL     OW58839   5.593   0.393  11.809
19133SOL    HW158840   5.502   0.404  11.837
19133SOL    HW258841   5.600   0.301  11.784
19134SOL     OW58842   6.131   1.247  12.338
19134SOL    HW158843   6.062   1.304  12.306
19134SOL    HW258844   6.155   1.284  12.424
19135SOL     OW58845   7.165   1.521  11.886
19135SOL    HW158846   7.123   1.495  11.968
19135SOL    HW258847   7.093   1.522  11.822
19136SOL     OW58848   6.726   0.698  11.861
19136SOL    HW158849   6.769   0.784  11.855
19136SOL    HW258850   6.674   0.704  11.941
19137SOL     OW58851   7.382   0.596  11.394
19137SOL    HW158852   7.349   0.589  11.305
19137SOL    HW258853   7.340   0.524  11.441
19138SOL     OW58854   6.333   1.123  12.207
19138SOL    HW158855   6.266   1.152  12.268
19138SOL    HW258856   6.366   1.204  12.167
19139SOL     OW58857   6.286   1.007  11.807
19139SOL    HW158858   6.350   0.990  11.875
19139SOL    HW258859   6.224   1.068  11.847
19140SOL     OW58860   5.934   1.418  12.235
19140SOL    HW158861   5.863   1.373  12.189
19140SOL    HW258862   5.977   1.471  12.168
19141SOL     OW58863   7.192   0.450  11.899
19141SOL    HW158864   7.114   0.462  11.845
19141SOL    HW258865   7.188   0.521  11.963
19142SOL     OW58866   5.804   1.716  11.634
19142SOL    HW158867   5.830   1.789  11.690
19142SOL    HW258868   5.877   1.706  11.572
19143SOL     OW58869   5.819   1.448  11.713
19143SOL    HW158870   5.801   1.542  11.708
19143SOL    HW258871   5.761   1.416  11.782
19144SOL     OW58872   6.159   0.987  11.315
19144SOL    HW158873   6.209   1.030  11.245
19144SOL    HW258874   6.199   1.019  11.396
19145SOL     OW58875   5.713   0.639  11.718
19145SOL    HW158876   5.681   0.551  11.736
19145SOL    HW258877   5.706   0.685  11.801
19146SOL     OW58878   7.432   1.748  11.493
19146SOL    HW158879   7.497   1.723  11.558
19146SOL    HW258880   7.447   1.841  11.477
19147SOL     OW58881   5.635   1.589  11.292
19147SOL    HW158882   5.615   1.496  11.308
19147SOL    HW258883   5.603   1.633  11.371
19148SOL     OW58884   7.277   0.924  11.825
19148SOL    HW158885   7.358   0.877  11.809
19148SOL    HW258886   7.258   0.969  11.742
19149SOL     OW58887   7.236   1.102  11.601
19149SOL    HW158888   7.323   1.101  11.561
19149SOL    HW258889   7.243   1.168  11.671
19150SOL     OW58890   5.762   0.748   0.222
19150SOL    HW158891   5.747   0.709   0.308
19150SOL    HW258892   5.679   0.790   0.200
19151SOL     OW58893   6.196   1.397  11.897
19151SOL    HW158894   6.152   1.312  11.906
19151SOL    HW258895   6.181   1.422  11.806
19152SOL     OW58896   6.431   0.015  11.717
19152SOL    HW158897   6.458   0.103  11.692
19152SOL    HW258898   6.336   0.021  11.725
19153SOL     OW58899   5.765   0.949  12.413
19153SOL    HW158900   5.849   0.909  12.435
19153SOL    HW258901   5.709   0.929  12.488
19154SOL     OW58902   7.119   1.004  11.372
19154SOL    HW158903   7.048   0.946  11.403
19154SOL    HW258904   7.161   1.035  11.452
19155SOL     OW58905   7.056   1.413  12.116
19155SOL    HW158906   6.988   1.429  12.182
19155SOL    HW258907   7.040   1.323  12.087
19156SOL     OW58908   7.239   1.765  11.745
19156SOL    HW158909   7.214   1.725  11.661
19156SOL    HW258910   7.225   1.695  11.809
19157SOL     OW58911   6.179   0.719  11.444
19157SOL    HW158912   6.177   0.805  11.401
19157SOL    HW258913   6.114   0.726  11.513
19158SOL     OW58914   6.883   0.379  12.106
19158SOL    HW158915   6.793   0.344  12.103
19158SOL    HW258916   6.930   0.321  12.165
19159SOL     OW58917   7.162   1.675  11.486
19159SOL    HW158918   7.255   1.695  11.476
19159SOL    HW258919   7.131   1.660  11.397
19160SOL     OW58920   6.581   0.408  12.381
19160SOL    HW158921   6.489   0.425  12.400
19160SOL    HW258922   6.580   0.331  12.324
19161SOL     OW58923   6.643   0.701  11.594
19161SOL    HW158924   6.664   0.693  11.687
19161SOL    HW258925   6.559   0.658  11.584
19162SOL     OW58926   5.684   0.793  11.936
19162SOL    HW158927   5.764   0.793  11.989
19162SOL    HW258928   5.626   0.854  11.981
19163SOL     OW58929   6.468   0.354  11.382
19163SOL    HW158930   6.511   0.397  11.308
19163SOL    HW258931   6.444   0.267  11.350
19164SOL     OW58932   6.971   1.145  11.712
19164SOL    HW158933   7.049   1.131  11.659
19164SOL    HW258934   6.917   1.205  11.661
19165SOL     OW58935   6.048   0.264  12.087
19165SOL    HW158936   6.100   0.260  12.167
19165SOL    HW258937   6.112   0.273  12.017
19166SOL     OW58938   6.585   1.446  11.638
19166SOL    HW158939   6.555   1.523  11.589
19166SOL    HW258940   6.561   1.466  11.729
19167SOL     OW58941   5.943   1.822  12.041
19167SOL    HW158942   5.989   1.738  12.049
19167SOL    HW258943   6.011   1.888  12.057
19168SOL     OW58944   7.381   1.067  12.043
19168SOL    HW158945   7.330   1.034  11.969
19168SOL    HW258946   7.320   1.069  12.116
19169SOL     OW58947   5.891   0.959  11.431
19169SOL    HW158948   5.972   0.980  11.385
19169SOL    HW258949   5.864   0.875  11.394
19170SOL     OW58950   7.065   0.757  11.889
19170SOL    HW158951   7.061   0.711  11.973
19170SOL    HW258952   7.145   0.809  11.894
19171SOL     OW58953   6.715   1.777  11.401
19171SOL    HW158954   6.636   1.742  11.443
19171SOL    HW258955   6.737   1.713  11.333
19172SOL     OW58956   7.220   1.386  11.250
19172SOL    HW158957   7.172   1.469  11.252
19172SOL    HW258958   7.153   1.320  11.237
19173SOL     OW58959   6.048   1.738  11.486
19173SOL    HW158960   6.096   1.791  11.550
19173SOL    HW258961   6.116   1.700  11.430
19174SOL     OW58962   7.008   0.136  11.563
19174SOL    HW158963   7.044   0.105  11.480
19174SOL    HW258964   7.085   0.150  11.619
19175SOL     OW58965   5.818   1.796  12.395
19175SOL    HW158966   5.850   1.722  12.448
19175SOL    HW258967   5.799   1.758  12.310
19176SOL     OW58968   6.530   1.693  12.070
19176SOL    HW158969   6.611   1.643  12.083
19176SOL    HW258970   6.483   1.646  12.001
19177SOL     OW58971   5.988   0.686  11.646
19177SOL    HW158972   6.013   0.596  11.665
19177SOL    HW258973   5.893   0.687  11.656
19178SOL     OW58974   6.184   0.148  11.269
19178SOL    HW158975   6.250   0.098  11.316
19178SOL    HW258976   6.153   0.089  11.200
19179SOL     OW58977   6.392   1.367  12.102
19179SOL    HW158978   6.482   1.371  12.069
19179SOL    HW258979   6.337   1.384  12.026
19180SOL     OW58980   6.512   0.523  12.064
19180SOL    HW158981   6.486   0.515  11.972
19180SOL    HW258982   6.549   0.437  12.086
19181SOL     OW58983   6.163   0.057  11.634
19181SOL    HW158984   6.086   0.018  11.676
19181SOL    HW258985   6.128   0.135  11.590
19182SOL     OW58986   7.016   1.204  11.210
19182SOL    HW158987   7.045   1.129  11.262
19182SOL    HW258988   6.929   1.226  11.245
19183SOL     OW58989   5.881   0.044  11.401
19183SOL    HW158990   5.955   0.104  11.402
19183SOL    HW258991   5.900  -0.019  11.470
19184SOL     OW58992   6.533   0.261  11.637
19184SOL    HW158993   6.506   0.294  11.552
19184SOL    HW258994   6.627   0.275  11.640
19185SOL     OW58995   6.801   1.579  11.970
19185SOL    HW158996   6.815   1.642  11.899
19185SOL    HW258997   6.876   1.592  12.028
19186SOL     OW58998   6.063   1.151  11.895
19186SOL    HW158999   6.040   1.075  11.949
19186SOL    HW259000   6.009   1.142  11.817
19187SOL     OW59001   6.846   1.791  11.784
19187SOL    HW159002   6.894   1.855  11.732
19187SOL    HW259003   6.775   1.841  11.824
19188SOL     OW59004   6.610   0.521  11.197
19188SOL    HW159005   6.567   0.604  11.178
19188SOL    HW259006   6.669   0.540  11.271
19189SOL     OW59007   6.165   0.242  12.338
19189SOL    HW159008   6.204   0.167  12.383
19189SOL    HW259009   6.073   0.240  12.364
19190SOL     OW59010   6.457   0.482  11.803
19190SOL    HW159011   6.421   0.528  11.727
19190SOL    HW259012   6.466   0.391  11.775
19191SOL     OW59013   6.607   0.030  11.928
19191SOL    HW159014   6.550   0.022  11.852
19191SOL    HW259015   6.566  -0.025  11.995
19192SOL     OW59016   7.017   1.154  12.025
19192SOL    HW159017   6.954   1.081  12.029
19192SOL    HW259018   7.034   1.165  11.931
19193SOL     OW59019   7.047   0.611  12.124
19193SOL    HW159020   6.992   0.533  12.128
19193SOL    HW259021   7.108   0.601  12.198
19194SOL     OW59022   7.422   0.808  11.561
19194SOL    HW159023   7.480   0.762  11.621
19194SOL    HW259024   7.403   0.744  11.492
19195SOL     OW59025   6.076   1.423  11.321
19195SOL    HW159026   6.002   1.390  11.372
19195SOL    HW259027   6.073   1.372  11.239
19196SOL     OW59028   7.267   1.275  11.801
19196SOL    HW159029   7.360   1.270  11.825
19196SOL    HW259030   7.239   1.361  11.832
19197SOL     OW59031   6.983   0.579  11.249
19197SOL    HW159032   6.916   0.556  11.313
19197SOL    HW259033   7.066   0.551  11.289
19198SOL     OW59034   6.077   0.273  11.478
19198SOL    HW159035   6.127   0.231  11.408
19198SOL    HW259036   6.056   0.360  11.443
19199SOL     OW59037   6.689   1.239  12.287
19199SOL    HW159038   6.605   1.248  12.332
19199SOL    HW259039   6.672   1.268  12.198
19200SOL     OW59040   7.194   1.098  12.244
19200SOL    HW159041   7.161   1.128  12.328
19200SOL    HW259042   7.123   1.117  12.182
19201SOL     OW59043   6.300   1.066  11.539
19201SOL    HW159044   6.289   1.046  11.632
19201SOL    HW259045   6.374   1.012  11.511
19202SOL     OW59046   6.017   0.831  12.443
19202SOL    HW159047   6.071   0.849  12.520
19202SOL    HW259048   5.985   0.742  12.457
19203SOL     OW59049   6.841   0.360  12.441
19203SOL    HW159050   6.882   0.441  12.471
19203SOL    HW259051   6.754   0.387  12.411
19204SOL     OW59052   5.906   1.121  11.667
19204SOL    HW159053   5.912   1.194  11.605
19204SOL    HW259054   5.907   1.043  11.613
19205SOL     OW59055   6.121   0.569  12.034
19205SOL    HW159056   6.148   0.624  11.960
19205SOL    HW259057   6.199   0.563  12.089
19206SOL     OW59058   6.833   1.352  11.562
19206SOL    HW159059   6.889   1.421  11.597
19206SOL    HW259060   6.745   1.372  11.594
19207SOL     OW59061   6.871   1.447  12.314
19207SOL    HW159062   6.928   1.445  12.391
19207SOL    HW259063   6.814   1.371  12.324
19208SOL     OW59064   7.152   0.633  11.651
19208SOL    HW159065   7.104   0.670  11.725
19208SOL    HW259066   7.196   0.708  11.611
19209SOL     OW59067   5.956   1.561  12.465
19209SOL    HW159068   5.928   1.501  12.395
19209SOL    HW259069   6.046   1.584  12.442
19210SOL     OW59070   6.140   0.906  12.200
19210SOL    HW159071   6.206   0.974  12.214
19210SOL    HW259072   6.113   0.882  12.289
19211SOL     OW59073   6.909   0.854  12.170
19211SOL    HW159074   6.821   0.825  12.143
19211SOL    HW259075   6.963   0.776  12.164
19212SOL     OW59076   6.779   0.528  11.427
19212SOL    HW159077   6.790   0.451  11.482
19212SOL    HW259078   6.738   0.593  11.485
19213SOL     OW59079   5.907   0.190  12.399
19213SOL    HW159080   5.836   0.192  12.464
19213SOL    HW259081   5.892   0.110  12.350
19214SOL     OW59082   5.675   1.338  12.446
19214SOL    HW159083   5.660   1.272  12.514
19214SOL    HW259084   5.667   1.422  12.492
19215SOL     OW59085   6.318   0.638  12.223
19215SOL    HW159086   6.389   0.607  12.167
19215SOL    HW259087   6.295   0.724  12.187
19216SOL     OW59088   5.953   0.081  11.836
19216SOL    HW159089   5.938   0.166  11.876
19216SOL    HW259090   6.007   0.033  11.899
19217SOL     OW59091   7.226   0.401  11.529
19217SOL    HW159092   7.237   0.328  11.590
19217SOL    HW259093   7.193   0.473  11.583
19218SOL     OW59094   6.623   0.762  12.131
19218SOL    HW159095   6.602   0.781  12.223
19218SOL    HW259096   6.591   0.673  12.117
19219SOL     OW59097   7.174   0.311  11.278
19219SOL    HW159098   7.079   0.295  11.283
19219SOL    HW259099   7.199   0.330  11.369
19220SOL     OW59100   6.871   0.826  11.200
19220SOL    HW159101   6.913   0.740  11.209
19220SOL    HW259102   6.904   0.860  11.117
19221SOL     OW59103   6.654   1.346  12.030
19221SOL    HW159104   6.663   1.272  11.970
19221SOL    HW259105   6.713   1.412  11.994
19222SOL     OW59106   5.887   0.841  12.120
19222SOL    HW159107   5.980   0.861  12.131
19222SOL    HW259108   5.881   0.748  12.138
19223SOL     OW59109   5.884   0.574  12.153
19223SOL    HW159110   5.855   0.483  12.158
19223SOL    HW259111   5.971   0.570  12.112
19224SOL     OW59112   6.755   0.200   0.146
19224SOL    HW159113   6.757   0.256   0.223
19224SOL    HW259114   6.791   0.254   0.076
19225SOL     OW59115   5.604   1.312  11.361
19225SOL    HW159116   5.515   1.332  11.332
19225SOL    HW259117   5.597   1.224  11.399
19226SOL     OW59118   5.682   1.784  12.112
19226SOL    HW159119   5.649   1.706  12.067
19226SOL    HW259120   5.771   1.794  12.081
19227SOL     OW59121   6.081   1.581  12.070
19227SOL    HW159122   6.151   1.642  12.094
19227SOL    HW259123   6.122   1.518  12.012
19228SOL     OW59124   6.542   0.811  12.389
19228SOL    HW159125   6.600   0.849  12.455
19228SOL    HW259126   6.500   0.737  12.433
19229SOL     OW59127   5.652   0.547  12.321
19229SOL    HW159128   5.720   0.556  12.254
19229SOL    HW259129   5.643   0.453  12.333
19230SOL     OW59130   6.404   0.578  11.541
19230SOL    HW159131   6.411   0.501  11.485
19230SOL    HW259132   6.328   0.625  11.508
19231SOL     OW59133   7.233   0.605  12.324
19231SOL    HW159134   7.231   0.559  12.407
19231SOL    HW259135   7.323   0.594  12.293
19232SOL     OW59136   6.321   0.452  12.424
19232SOL    HW159137   6.256   0.385  12.402
19232SOL    HW259138   6.302   0.524  12.363
19233SOL     OW59139   6.473   1.659   0.038
19233SOL    HW159140   6.491   1.715  -0.037
19233SOL    HW259141   6.527   1.695   0.108
19234SOL     OW59142   6.037   0.505  11.344
19234SOL    HW159143   6.098   0.574  11.369
19234SOL    HW259144   5.953   0.549  11.335
19235SOL     OW59145   6.871   1.039  12.367
19235SOL    HW159146   6.889   0.979  12.295
19235SOL    HW259147   6.815   1.107  12.328
19236SOL     OW59148   6.905   0.861  11.475
19236SOL    HW159149   6.836   0.824  11.530
19236SOL    HW259150   6.874   0.846  11.385
19237SOL     OW59151   7.332   1.748  12.297
19237SOL    HW159152   7.406   1.766  12.239
19237SOL    HW259153   7.321   1.653  12.293
19238SOL     OW59154   6.832   1.718  12.275
19238SOL    HW159155   6.912   1.754  12.237
19238SOL    HW259156   6.849   1.624  12.281
19239SOL     OW59157   5.696   1.241  12.199
19239SOL    HW159158   5.695   1.278  12.287
19239SOL    HW259159   5.617   1.277  12.157
19240SOL     OW59160   7.257   0.168  11.681
19240SOL    HW159161   7.323   0.134  11.620
19240SOL    HW259162   7.266   0.113  11.759
19241SOL     OW59163   6.980   1.568  11.669
19241SOL    HW159164   7.036   1.602  11.600
19241SOL    HW259165   6.927   1.643  11.698
19242SOL     OW59166   6.864   0.935  11.845
19242SOL    HW159167   6.936   0.873  11.857
19242SOL    HW259168   6.900   1.004  11.789
19243SOL     OW59169   6.253   1.629  11.327
19243SOL    HW159170   6.268   1.644  11.234
19243SOL    HW259171   6.199   1.550  11.331
19244SOL     OW59172   7.215   1.784   0.048
19244SOL    HW159173   7.263   1.779  -0.034
19244SOL    HW259174   7.259   1.854   0.097
19245SOL     OW59175   7.462   0.160  12.087
19245SOL    HW159176   7.455   0.084  12.145
19245SOL    HW259177   7.371   0.185  12.070
19246SOL     OW59178   5.856   0.340  11.885
19246SOL    HW159179   5.764   0.365  11.880
19246SOL    HW259180   5.876   0.340  11.979
19247SOL     OW59181   6.794   1.596  11.208
19247SOL    HW159182   6.782   1.505  11.236
19247SOL    HW259183   6.726   1.610  11.141
19248SOL     OW59184   6.377   1.029  12.504
19248SOL    HW159185   6.417   0.983  12.429
19248SOL    HW259186   6.451   1.050  12.561
19249SOL     OW59187   6.507   0.914  11.462
19249SOL    HW159188   6.567   0.947  11.396
19249SOL    HW259189   6.556   0.845  11.508
19250SOL     OW59190   7.069   1.634  11.224
19250SOL    HW159191   6.975   1.620  11.211
19250SOL    HW259192   7.104   1.641  11.135
19251SOL     OW59193   6.654   1.115  11.888
19251SOL    HW159194   6.580   1.063  11.921
19251SOL    HW259195   6.720   1.050  11.864
19252SOL     OW59196   6.629   0.266  12.094
19252SOL    HW159197   6.613   0.215  12.014
19252SOL    HW259198   6.637   0.200  12.163
19253SOL     OW59199   6.190   1.490  11.642
19253SOL    HW159200   6.245   1.438  11.583
19253SOL    HW259201   6.115   1.516  11.589
19254SOL     OW59202   7.327   0.458   0.043
19254SOL    HW159203   7.386   0.435   0.115
19254SOL    HW259204   7.340   0.387  -0.020
19255SOL     OW59205   5.861   1.336  11.475
19255SOL    HW159206   5.773   1.333  11.438
19255SOL    HW259207   5.850   1.381  11.559
19256SOL     OW59208   5.664   0.333  11.208
19256SOL    HW159209   5.572   0.320  11.186
19256SOL    HW259210   5.691   0.409  11.157
19257SOL     OW59211   5.641   0.182  11.463
19257SOL    HW159212   5.647   0.248  11.394
19257SOL    HW259213   5.719   0.128  11.451
19258SOL     OW59214   6.763   1.330  11.289
19258SOL    HW159215   6.672   1.299  11.289
19258SOL    HW259216   6.788   1.331  11.382
19259SOL     OW59217   7.075   1.786  12.157
19259SOL    HW159218   7.097   1.860  12.100
19259SOL    HW259219   7.155   1.769  12.205
19260SOL     OW59220   7.259   0.870  12.406
19260SOL    HW159221   7.242   0.784  12.369
19260SOL    HW259222   7.239   0.931  12.334
19261SOL     OW59223   6.807   0.324  11.619
19261SOL    HW159224   6.871   0.254  11.604
19261SOL    HW259225   6.839   0.369  11.697
19262SOL     OW59226   6.174   0.754  11.842
19262SOL    HW159227   6.218   0.834  11.814
19262SOL    HW259228   6.112   0.735  11.771
19263SOL     OW59229   7.401   0.908   0.129
19263SOL    HW159230   7.354   0.978   0.176
19263SOL    HW259231   7.346   0.891   0.052
19264SOL     OW59232   6.457   1.364  11.223
19264SOL    HW159233   6.416   1.387  11.307
19264SOL    HW259234   6.464   1.448  11.177
19265SOL     OW59235   6.253   1.787  12.111
19265SOL    HW159236   6.240   1.879  12.089
19265SOL    HW259237   6.348   1.776  12.110
19266SOL     OW59238   6.461   0.967  12.018
19266SOL    HW159239   6.512   0.896  12.057
19266SOL    HW259240   6.420   1.011  12.092
19267SOL     OW59241   6.667   0.996  11.261
19267SOL    HW159242   6.642   1.042  11.181
19267SOL    HW259243   6.737   0.937  11.234
19268SOL     OW59244   7.433   1.553  12.017
19268SOL    HW159245   7.349   1.543  11.971
19268SOL    HW259246   7.426   1.493  12.091
19269SOL     OW59247   5.676   1.225  11.837
19269SOL    HW159248   5.661   1.150  11.895
19269SOL    HW259249   5.742   1.194  11.774
19270SOL     OW59250   7.408   0.247  12.394
19270SOL    HW159251   7.459   0.176  12.434
19270SOL    HW259252   7.434   0.246  12.302
19271SOL     OW59253   6.038   0.427  11.706
19271SOL    HW159254   6.036   0.362  11.635
19271SOL    HW259255   5.972   0.397  11.768
19272SOL     OW59256   7.293   1.482  12.270
19272SOL    HW159257   7.210   1.451  12.233
19272SOL    HW259258   7.301   1.434  12.353
19273SOL     OW59259   6.413   1.586  11.847
19273SOL    HW159260   6.392   1.651  11.780
19273SOL    HW259261   6.339   1.526  11.846
19274SOL     OW59262   7.029   0.231  12.284
19274SOL    HW159263   7.086   0.168  12.328
19274SOL    HW259264   6.972   0.265  12.353
19275SOL     OW59265   6.626   0.077  12.280
19275SOL    HW159266   6.532   0.062  12.270
19275SOL    HW259267   6.656   0.004  12.334
19276SOL     OW59268   6.363   1.335  11.494
19276SOL    HW159269   6.338   1.243  11.501
19276SOL    HW259270   6.445   1.340  11.544
19277SOL     OW59271   6.927   7.973  11.289
19277SOL    HW159272   6.983   7.897  11.304
19277SOL    HW259273   6.865   7.971  11.361
19278SOL     OW59274   6.891   0.466  11.843
19278SOL    HW159275   6.835   0.545  11.846
19278SOL    HW259276   6.887   0.432  11.933
19279SOL     OW59277   7.205   0.219  12.046
19279SOL    HW159278   7.131   0.216  12.106
19279SOL    HW259279   7.189   0.295  11.991
19280SOL     OW59280   5.628   1.062  11.488
19280SOL    HW159281   5.719   1.051  11.462
19280SOL    HW259282   5.599   0.973  11.510
19281SOL     OW59283   6.476   1.666  11.509
19281SOL    HW159284   6.400   1.650  11.453
19281SOL    HW259285   6.449   1.738  11.566
19282SOL     OW59286   5.817   2.438   0.025
19282SOL    HW159287   5.791   2.481   0.106
19282SOL    HW259288   5.854   2.508  -0.029
19283SOL     OW59289   5.812   2.144   0.992
19283SOL    HW159290   5.838   2.112   1.078
19283SOL    HW259291   5.722   2.112   0.981
19284SOL     OW59292   5.575   2.247   0.638
19284SOL    HW159293   5.500   2.281   0.687
19284SOL    HW259294   5.544   2.165   0.599
19285SOL     OW59295   6.157   3.163   1.189
19285SOL    HW159296   6.071   3.169   1.148
19285SOL    HW259297   6.174   3.252   1.222
19286SOL     OW59298   7.156   3.383   0.714
19286SOL    HW159299   7.112   3.359   0.796
19286SOL    HW259300   7.085   3.386   0.649
19287SOL     OW59301   6.716   2.565   0.693
19287SOL    HW159302   6.764   2.647   0.681
19287SOL    HW259303   6.671   2.575   0.776
19288SOL     OW59304   7.306   2.488   0.263
19288SOL    HW159305   7.327   2.486   0.170
19288SOL    HW259306   7.269   2.401   0.281
19289SOL     OW59307   6.324   2.995   1.049
19289SOL    HW159308   6.260   3.034   1.108
19289SOL    HW259309   6.367   3.070   1.008
19290SOL     OW59310   6.462   2.617   1.827
19290SOL    HW159311   6.447   2.684   1.894
19290SOL    HW259312   6.482   2.666   1.748
19291SOL     OW59313   6.270   2.852   0.644
19291SOL    HW159314   6.338   2.849   0.712
19291SOL    HW259315   6.203   2.910   0.680
19292SOL     OW59316   6.302   3.011   1.821
19292SOL    HW159317   6.348   3.088   1.855
19292SOL    HW259318   6.222   3.047   1.782
19293SOL     OW59319   5.922   3.272   1.067
19293SOL    HW159320   5.845   3.232   1.026
19293SOL    HW259321   5.961   3.326   0.998
19294SOL     OW59322   7.045   3.367   1.364
19294SOL    HW159323   7.099   3.445   1.376
19294SOL    HW259324   6.974   3.377   1.427
19295SOL     OW59325   6.039   2.244   1.465
19295SOL    HW159326   6.113   2.185   1.480
19295SOL    HW259327   5.962   2.194   1.492
19296SOL     OW59328   7.197   2.308   0.752
19296SOL    HW159329   7.165   2.342   0.669
19296SOL    HW259330   7.162   2.368   0.818
19297SOL     OW59331   5.803   3.579   0.472
19297SOL    HW159332   5.822   3.653   0.529
19297SOL    HW259333   5.881   3.569   0.418
19298SOL     OW59334   6.723   3.205   1.694
19298SOL    HW159335   6.763   3.201   1.781
19298SOL    HW259336   6.670   3.126   1.688
19299SOL     OW59337   5.806   3.311   0.543
19299SOL    HW159338   5.792   3.406   0.543
19299SOL    HW259339   5.751   3.279   0.615
19300SOL     OW59340   5.860   2.953   0.891
19300SOL    HW159341   5.852   2.865   0.928
19300SOL    HW259342   5.802   3.007   0.944
19301SOL     OW59343   6.183   3.653   1.428
19301SOL    HW159344   6.102   3.635   1.476
19301SOL    HW259345   6.208   3.741   1.456
19302SOL     OW59346   6.163   2.829   0.147
19302SOL    HW159347   6.232   2.846   0.083
19302SOL    HW259348   6.193   2.874   0.227
19303SOL     OW59349   7.193   1.983   1.468
19303SOL    HW159350   7.207   2.064   1.419
19303SOL    HW259351   7.162   2.012   1.554
19304SOL     OW59352   5.705   2.512   0.566
19304SOL    HW159353   5.673   2.425   0.590
19304SOL    HW259354   5.698   2.563   0.646
19305SOL     OW59355   7.441   3.599   0.323
19305SOL    HW159356   7.505   3.577   0.391
19305SOL    HW259357   7.456   3.692   0.305
19306SOL     OW59358   5.617   3.390   0.127
19306SOL    HW159359   5.528   3.355   0.115
19306SOL    HW259360   5.606   3.464   0.186
19307SOL     OW59361   7.273   2.793   0.642
19307SOL    HW159362   7.326   2.747   0.577
19307SOL    HW259363   7.232   2.864   0.594
19308SOL     OW59364   7.227   2.984   0.432
19308SOL    HW159365   7.316   2.980   0.397
19308SOL    HW259366   7.232   3.048   0.503
19309SOL     OW59367   5.709   2.610   1.581
19309SOL    HW159368   5.797   2.647   1.589
19309SOL    HW259369   5.650   2.686   1.587
19310SOL     OW59370   6.206   3.255   0.734
19310SOL    HW159371   6.162   3.170   0.744
19310SOL    HW259372   6.188   3.279   0.643
19311SOL     OW59373   6.869   3.096   1.416
19311SOL    HW159374   6.901   3.027   1.358
19311SOL    HW259375   6.926   3.091   1.493
19312SOL     OW59376   6.413   1.882   0.525
19312SOL    HW159377   6.450   1.967   0.499
19312SOL    HW259378   6.319   1.897   0.529
19313SOL     OW59379   5.775   2.823   1.284
19313SOL    HW159380   5.860   2.783   1.267
19313SOL    HW259381   5.713   2.772   1.231
19314SOL     OW59382   7.080   2.877   0.226
19314SOL    HW159383   7.019   2.816   0.267
19314SOL    HW259384   7.133   2.910   0.299
19315SOL     OW59385   6.775   3.684   1.629
19315SOL    HW159386   6.776   3.745   1.555
19315SOL    HW259387   6.794   3.599   1.590
19316SOL     OW59388   5.936   2.111   1.844
19316SOL    HW159389   5.972   2.197   1.863
19316SOL    HW259390   5.842   2.121   1.853
19317SOL     OW59391   7.054   3.279   0.949
19317SOL    HW159392   6.987   3.297   1.015
19317SOL    HW259393   7.039   3.188   0.923
19318SOL     OW59394   7.235   3.624   0.585
19318SOL    HW159395   7.214   3.590   0.498
19318SOL    HW259396   7.218   3.551   0.644
19319SOL     OW59397   6.161   2.571   0.271
19319SOL    HW159398   6.177   2.660   0.240
19319SOL    HW259399   6.101   2.581   0.345
19320SOL     OW59400   6.867   2.240   0.936
19320SOL    HW159401   6.777   2.206   0.941
19320SOL    HW259402   6.918   2.184   0.994
19321SOL     OW59403   7.175   3.541   0.325
19321SOL    HW159404   7.270   3.550   0.323
19321SOL    HW259405   7.148   3.560   0.236
19322SOL     OW59406   6.382   2.478   1.441
19322SOL    HW159407   6.355   2.453   1.529
19322SOL    HW259408   6.348   2.408   1.385
19323SOL     OW59409   6.978   2.336   1.679
19323SOL    HW159410   6.981   2.381   1.764
19323SOL    HW259411   7.034   2.260   1.690
19324SOL     OW59412   6.531   2.746   1.590
19324SOL    HW159413   6.588   2.681   1.549
19324SOL    HW259414   6.484   2.787   1.516
19325SOL     OW59415   6.584   2.266   1.227
19325SOL    HW159416   6.494   2.283   1.255
19325SOL    HW259417   6.575   2.228   1.140
19326SOL     OW59418   6.639   2.566   0.426
19326SOL    HW159419   6.657   2.561   0.520
19326SOL    HW259420   6.554   2.524   0.416
19327SOL     OW59421   5.678   2.682   0.775
19327SOL    HW159422   5.757   2.678   0.830
19327SOL    HW259423   5.628   2.755   0.810
19328SOL     OW59424   5.708   3.735   1.586
19328SOL    HW159425   5.717   3.713   1.678
19328SOL    HW259426   5.617   3.713   1.565
19329SOL     OW59427   6.470   2.224   0.220
19329SOL    HW159428   6.506   2.287   0.158
19329SOL    HW259429   6.470   2.141   0.172
19330SOL     OW59430   7.288   2.425   1.828
19330SOL    HW159431   7.254   2.502   1.782
19330SOL    HW259432   7.316   2.365   1.758
19331SOL     OW59433   6.964   3.005   0.535
19331SOL    HW159434   7.045   3.002   0.483
19331SOL    HW259435   6.909   3.067   0.489
19332SOL     OW59436   6.138   2.037   0.904
19332SOL    HW159437   6.139   2.063   0.996
19332SOL    HW259438   6.138   2.120   0.855
19333SOL     OW59439   6.579   3.294   0.475
19333SOL    HW159440   6.540   3.371   0.433
19333SOL    HW259441   6.560   3.306   0.568
19334SOL     OW59442   5.938   3.677   0.875
19334SOL    HW159443   5.984   3.594   0.881
19334SOL    HW259444   6.005   3.743   0.897
19335SOL     OW59445   7.397   2.897   0.866
19335SOL    HW159446   7.342   2.871   0.793
19335SOL    HW259447   7.335   2.915   0.938
19336SOL     OW59448   6.812   3.406   1.512
19336SOL    HW159449   6.799   3.333   1.574
19336SOL    HW259450   6.730   3.412   1.464
19337SOL     OW59451   5.902   2.847   0.261
19337SOL    HW159452   5.984   2.853   0.212
19337SOL    HW259453   5.870   2.759   0.243
19338SOL     OW59454   7.063   2.627   0.725
19338SOL    HW159455   7.063   2.580   0.808
19338SOL    HW259456   7.144   2.679   0.727
19339SOL     OW59457   6.061   3.128   1.733
19339SOL    HW159458   6.033   3.133   1.642
19339SOL    HW259459   5.979   3.126   1.783
19340SOL     OW59460   6.650   3.638   0.223
19340SOL    HW159461   6.628   3.591   0.304
19340SOL    HW259462   6.720   3.586   0.184
19341SOL     OW59463   5.786   2.131   1.506
19341SOL    HW159464   5.709   2.186   1.522
19341SOL    HW259465   5.762   2.046   1.542
19342SOL     OW59466   7.241   3.275   0.057
19342SOL    HW159467   7.175   3.343   0.042
19342SOL    HW259468   7.190   3.194   0.067
19343SOL     OW59469   6.041   3.588   0.333
19343SOL    HW159470   6.087   3.649   0.391
19343SOL    HW259471   6.110   3.555   0.275
19344SOL     OW59472   6.999   1.960   0.448
19344SOL    HW159473   6.994   1.926   0.359
19344SOL    HW259474   7.093   1.973   0.463
19345SOL     OW59475   5.839   3.652   1.227
19345SOL    HW159476   5.888   3.583   1.271
19345SOL    HW259477   5.835   3.625   1.136
19346SOL     OW59478   6.525   3.566   0.895
19346SOL    HW159479   6.600   3.515   0.925
19346SOL    HW259480   6.487   3.513   0.825
19347SOL     OW59481   5.975   2.553   0.477
19347SOL    HW159482   5.991   2.460   0.486
19347SOL    HW259483   5.887   2.566   0.512
19348SOL     OW59484   7.107   2.084   1.720
19348SOL    HW159485   7.122   2.102   1.813
19348SOL    HW259486   7.033   2.023   1.719
19349SOL     OW59487   6.219   1.958   0.095
19349SOL    HW159488   6.314   1.968   0.100
19349SOL    HW259489   6.205   1.863   0.098
19350SOL     OW59490   6.348   2.140   1.752
19350SOL    HW159491   6.431   2.093   1.751
19350SOL    HW259492   6.301   2.106   1.828
19351SOL     OW59493   6.462   3.386   1.193
19351SOL    HW159494   6.441   3.345   1.109
19351SOL    HW259495   6.528   3.329   1.232
19352SOL     OW59496   6.923   2.451   1.434
19352SOL    HW159497   6.954   2.422   1.520
19352SOL    HW259498   6.958   2.539   1.424
19353SOL     OW59499   6.408   3.245   0.951
19353SOL    HW159500   6.493   3.237   0.908
19353SOL    HW259501   6.346   3.257   0.879
19354SOL     OW59502   6.518   2.371   0.897
19354SOL    HW159503   6.490   2.363   0.806
19354SOL    HW259504   6.545   2.283   0.922
19355SOL     OW59505   6.142   1.919   0.501
19355SOL    HW159506   6.063   1.921   0.556
19355SOL    HW259507   6.131   1.994   0.443
19356SOL     OW59508   7.043   3.086   0.054
19356SOL    HW159509   7.055   3.005   0.104
19356SOL    HW259510   6.952   3.111   0.072
19357SOL     OW59511   5.898   1.957   0.208
19357SOL    HW159512   5.967   2.013   0.244
19357SOL    HW259513   5.926   1.868   0.227
19358SOL     OW59514   6.535   2.119   0.463
19358SOL    HW159515   6.509   2.156   0.379
19358SOL    HW259516   6.631   2.127   0.464
19359SOL     OW59517   6.666   2.552   1.454
19359SOL    HW159518   6.598   2.485   1.458
19359SOL    HW259519   6.748   2.503   1.450
19360SOL     OW59520   6.808   3.433   0.791
19360SOL    HW159521   6.817   3.500   0.723
19360SOL    HW259522   6.867   3.462   0.861
19361SOL     OW59523   6.064   3.017   0.725
19361SOL    HW159524   6.000   2.996   0.793
19361SOL    HW259525   6.016   3.010   0.643
19362SOL     OW59526   6.843   3.651   0.608
19362SOL    HW159527   6.889   3.715   0.553
19362SOL    HW259528   6.774   3.702   0.651
19363SOL     OW59529   6.609   2.410   0.065
19363SOL    HW159530   6.600   2.494   0.021
19363SOL    HW259531   6.677   2.425   0.132
19364SOL     OW59532   5.671   2.418   1.390
19364SOL    HW159533   5.763   2.418   1.366
19364SOL    HW259534   5.663   2.486   1.457
19365SOL     OW59535   6.141   2.088   1.176
19365SOL    HW159536   6.183   2.023   1.232
19365SOL    HW259537   6.049   2.087   1.203
19366SOL     OW59538   6.450   2.322   0.638
19366SOL    HW159539   6.410   2.379   0.573
19366SOL    HW259540   6.477   2.244   0.589
19367SOL     OW59541   6.607   1.916   0.742
19367SOL    HW159542   6.544   1.911   0.670
19367SOL    HW259543   6.582   1.843   0.799
19368SOL     OW59544   7.028   3.019   0.859
19368SOL    HW159545   6.952   2.961   0.858
19368SOL    HW259546   7.050   3.031   0.767
19369SOL     OW59547   7.052   2.467   0.955
19369SOL    HW159548   6.988   2.397   0.963
19369SOL    HW259549   7.104   2.462   1.035
19370SOL     OW59550   7.417   2.675   0.436
19370SOL    HW159551   7.461   2.604   0.483
19370SOL    HW259552   7.373   2.631   0.363
19371SOL     OW59553   6.081   3.254   0.170
19371SOL    HW159554   6.013   3.216   0.226
19371SOL    HW259555   6.034   3.301   0.102
19372SOL     OW59556   7.250   3.131   0.653
19372SOL    HW159557   7.345   3.130   0.665
19372SOL    HW259558   7.224   3.221   0.672
19373SOL     OW59559   6.980   2.409   0.080
19373SOL    HW159560   6.928   2.408   0.160
19373SOL    HW259561   7.034   2.330   0.086
19374SOL     OW59562   6.107   2.108   0.306
19374SOL    HW159563   6.163   2.069   0.239
19374SOL    HW259564   6.086   2.195   0.272
19375SOL     OW59565   7.329   3.105   1.547
19375SOL    HW159566   7.417   3.068   1.536
19375SOL    HW259567   7.343   3.192   1.582
19376SOL     OW59568   6.635   3.206   1.321
19376SOL    HW159569   6.559   3.180   1.373
19376SOL    HW259570   6.710   3.172   1.369
19377SOL     OW59571   7.195   3.491   1.660
19377SOL    HW159572   7.187   3.526   1.571
19377SOL    HW259573   7.275   3.439   1.658
19378SOL     OW59574   6.720   3.067   1.097
19378SOL    HW159575   6.667   3.109   1.165
19378SOL    HW259576   6.694   3.110   1.016
19379SOL     OW59577   7.214   2.961   1.069
19379SOL    HW159578   7.206   3.022   1.142
19379SOL    HW259579   7.139   2.979   1.013
19380SOL     OW59580   6.506   1.950   1.389
19380SOL    HW159581   6.528   1.935   1.297
19380SOL    HW259582   6.585   1.991   1.426
19381SOL     OW59583   6.570   2.978   1.724
19381SOL    HW159584   6.480   2.997   1.751
19381SOL    HW259585   6.563   2.898   1.672
19382SOL     OW59586   6.293   2.920   0.373
19382SOL    HW159587   6.280   2.900   0.466
19382SOL    HW259588   6.372   2.871   0.350
19383SOL     OW59589   6.010   2.681   1.251
19383SOL    HW159590   6.076   2.693   1.319
19383SOL    HW259591   5.974   2.594   1.267
19384SOL     OW59592   6.848   2.234   1.287
19384SOL    HW159593   6.879   2.313   1.331
19384SOL    HW259594   6.758   2.254   1.263
19385SOL     OW59595   5.664   3.436   1.360
19385SOL    HW159596   5.640   3.516   1.314
19385SOL    HW259597   5.759   3.431   1.353
19386SOL     OW59598   5.915   2.993   0.496
19386SOL    HW159599   5.907   3.071   0.442
19386SOL    HW259600   5.922   2.921   0.433
19387SOL     OW59601   6.129   2.384   0.854
19387SOL    HW159602   6.144   2.445   0.781
19387SOL    HW259603   6.194   2.410   0.920
19388SOL     OW59604   6.828   3.211   0.395
19388SOL    HW159605   6.884   3.282   0.427
19388SOL    HW259606   6.741   3.232   0.429
19389SOL     OW59607   6.879   3.326   1.152
19389SOL    HW159608   6.936   3.335   1.229
19389SOL    HW259609   6.816   3.258   1.177
19390SOL     OW59610   7.149   2.466   0.516
19390SOL    HW159611   7.100   2.528   0.570
19390SOL    HW259612   7.178   2.518   0.441
19391SOL     OW59613   5.931   3.394   1.307
19391SOL    HW159614   5.921   3.345   1.225
19391SOL    HW259615   6.026   3.405   1.317
19392SOL     OW59616   6.011   2.610   1.609
19392SOL    HW159617   6.072   2.652   1.548
19392SOL    HW259618   6.051   2.526   1.629
19393SOL     OW59619   7.200   2.641   1.690
19393SOL    HW159620   7.113   2.682   1.685
19393SOL    HW259621   7.250   2.684   1.621
19394SOL     OW59622   6.583   2.001   1.762
19394SOL    HW159623   6.641   2.074   1.740
19394SOL    HW259624   6.633   1.923   1.737
19395SOL     OW59625   6.080   1.895   1.751
19395SOL    HW159626   6.028   1.844   1.688
19395SOL    HW259627   6.026   1.972   1.770
19396SOL     OW59628   6.172   2.736   1.033
19396SOL    HW159629   6.207   2.825   1.036
19396SOL    HW259630   6.115   2.730   1.110
19397SOL     OW59631   6.923   2.716   1.015
19397SOL    HW159632   6.833   2.700   0.984
19397SOL    HW259633   6.968   2.633   1.001
19398SOL     OW59634   6.792   2.390   0.281
19398SOL    HW159635   6.809   2.317   0.340
19398SOL    HW259636   6.746   2.455   0.334
19399SOL     OW59637   5.878   2.058   1.247
19399SOL    HW159638   5.840   2.091   1.328
19399SOL    HW259639   5.860   1.964   1.248
19400SOL     OW59640   5.646   3.176   1.270
19400SOL    HW159641   5.668   3.119   1.343
19400SOL    HW259642   5.641   3.264   1.308
19401SOL     OW59643   6.297   2.487   1.045
19401SOL    HW159644   6.378   2.481   0.994
19401SOL    HW259645   6.268   2.578   1.033
19402SOL     OW59646   7.327   2.823   1.861
19402SOL    HW159647   7.281   2.754   1.813
19402SOL    HW259648   7.267   2.845   1.933
19403SOL     OW59649   5.896   1.925   0.628
19403SOL    HW159650   5.871   2.014   0.650
19403SOL    HW259651   5.905   1.881   0.712
19404SOL     OW59652   7.185   2.255   0.344
19404SOL    HW159653   7.227   2.179   0.384
19404SOL    HW259654   7.160   2.310   0.417
19405SOL     OW59655   6.619   2.618   0.957
19405SOL    HW159656   6.604   2.635   1.050
19405SOL    HW259657   6.590   2.528   0.944
19406SOL     OW59658   6.570   3.434   1.723
19406SOL    HW159659   6.554   3.474   1.638
19406SOL    HW259660   6.607   3.348   1.703
19407SOL     OW59661   7.433   3.358   1.602
19407SOL    HW159662   7.457   3.388   1.514
19407SOL    HW259663   7.512   3.373   1.654
19408SOL     OW59664   5.938   2.777   1.816
19408SOL    HW159665   6.019   2.799   1.863
19408SOL    HW259666   5.966   2.717   1.747
19409SOL     OW59667   7.081   2.143   0.119
19409SOL    HW159668   7.047   2.058   0.146
19409SOL    HW259669   7.126   2.177   0.197
19410SOL     OW59670   6.873   2.667   0.057
19410SOL    HW159671   6.926   2.588   0.047
19410SOL    HW259672   6.914   2.731  -0.003
19411SOL     OW59673   6.659   3.206   0.859
19411SOL    HW159674   6.665   3.134   0.796
19411SOL    HW259675   6.717   3.274   0.823
19412SOL     OW59676   5.897   2.670   0.942
19412SOL    HW159677   5.990   2.692   0.944
19412SOL    HW259678   5.893   2.581   0.977
19413SOL     OW59679   5.910   2.393   1.012
19413SOL    HW159680   5.874   2.305   1.002
19413SOL    HW259681   5.986   2.394   0.954
19414SOL     OW59682   6.721   2.232   1.690
19414SOL    HW159683   6.673   2.287   1.751
19414SOL    HW259684   6.807   2.274   1.684
19415SOL     OW59685   6.746   2.057   1.475
19415SOL    HW159686   6.734   2.119   1.547
19415SOL    HW259687   6.788   2.109   1.406
19416SOL     OW59688   5.673   3.639   0.940
19416SOL    HW159689   5.645   3.561   0.892
19416SOL    HW259690   5.763   3.653   0.910
19417SOL     OW59691   6.074   3.436   0.901
19417SOL    HW159692   6.143   3.498   0.924
19417SOL    HW259693   6.117   3.373   0.843
19418SOL     OW59694   6.553   2.644   1.219
19418SOL    HW159695   6.614   2.630   1.291
19418SOL    HW259696   6.469   2.613   1.253
19419SOL     OW59697   5.625   2.414   1.117
19419SOL    HW159698   5.710   2.414   1.072
19419SOL    HW259699   5.648   2.414   1.210
19420SOL     OW59700   5.773   2.388   1.731
19420SOL    HW159701   5.830   2.350   1.663
19420SOL    HW259702   5.736   2.466   1.690
19421SOL     OW59703   6.971   2.788   1.655
19421SOL    HW159704   6.990   2.882   1.652
19421SOL    HW259705   6.965   2.763   1.563
19422SOL     OW59706   6.397   2.442   0.378
19422SOL    HW159707   6.408   2.364   0.322
19422SOL    HW259708   6.320   2.486   0.344
19423SOL     OW59709   7.219   2.466   1.173
19423SOL    HW159710   7.209   2.409   1.249
19423SOL    HW259711   7.309   2.450   1.143
19424SOL     OW59712   5.823   3.409   1.722
19424SOL    HW159713   5.799   3.474   1.787
19424SOL    HW259714   5.831   3.327   1.771
19425SOL     OW59715   6.307   2.304   1.246
19425SOL    HW159716   6.244   2.234   1.227
19425SOL    HW259717   6.294   2.368   1.176
19426SOL     OW59718   6.523   3.534   1.464
19426SOL    HW159719   6.485   3.496   1.385
19426SOL    HW259720   6.512   3.628   1.454
19427SOL     OW59721   6.041   2.337   0.184
19427SOL    HW159722   6.089   2.415   0.212
19427SOL    HW259723   5.966   2.370   0.136
19428SOL     OW59724   5.725   3.007   1.477
19428SOL    HW159725   5.725   2.961   1.561
19428SOL    HW259726   5.743   2.939   1.413
19429SOL     OW59727   6.905   2.902   1.214
19429SOL    HW159728   6.923   2.838   1.144
19429SOL    HW259729   6.839   2.960   1.177
19430SOL     OW59730   6.890   2.704   0.330
19430SOL    HW159731   6.812   2.671   0.374
19430SOL    HW259732   6.877   2.680   0.238
19431SOL     OW59733   7.362   3.597   1.152
19431SOL    HW159734   7.427   3.622   1.087
19431SOL    HW259735   7.339   3.507   1.131
19432SOL     OW59736   6.824   3.592   1.090
19432SOL    HW159737   6.909   3.618   1.057
19432SOL    HW259738   6.837   3.501   1.120
19433SOL     OW59739   5.682   3.122   1.010
19433SOL    HW159740   5.667   3.141   1.102
19433SOL    HW259741   5.603   3.074   0.982
19434SOL     OW59742   6.262   3.537   1.744
19434SOL    HW159743   6.200   3.609   1.739
19434SOL    HW259744   6.334   3.563   1.687
19435SOL     OW59745   6.489   1.971   0.102
19435SOL    HW159746   6.538   1.991   0.023
19435SOL    HW259747   6.550   1.922   0.156
19436SOL     OW59748   6.979   3.428   0.494
19436SOL    HW159749   7.040   3.463   0.429
19436SOL    HW259750   6.929   3.505   0.523
19437SOL     OW59751   5.738   3.657   1.841
19437SOL    HW159752   5.686   3.592   1.889
19437SOL    HW259753   5.782   3.708   1.910
19438SOL     OW59754   6.858   2.795   0.668
19438SOL    HW159755   6.932   2.738   0.684
19438SOL    HW259756   6.892   2.865   0.612
19439SOL     OW59757   6.383   3.142   1.421
19439SOL    HW159758   6.358   3.185   1.503
19439SOL    HW259759   6.309   3.158   1.362
19440SOL     OW59760   6.248   3.471   0.196
19440SOL    HW159761   6.309   3.481   0.122
19440SOL    HW259762   6.206   3.387   0.179
19441SOL     OW59763   7.205   3.592   1.392
19441SOL    HW159764   7.258   3.596   1.313
19441SOL    HW259765   7.190   3.683   1.417
19442SOL     OW59766   7.426   2.027   0.965
19442SOL    HW159767   7.458   1.941   0.938
19442SOL    HW259768   7.340   2.034   0.923
19443SOL     OW59769   5.836   2.175   0.714
19443SOL    HW159770   5.749   2.209   0.695
19443SOL    HW259771   5.840   2.170   0.810
19444SOL     OW59772   6.782   3.461   0.065
19444SOL    HW159773   6.781   3.367   0.081
19444SOL    HW259774   6.741   3.472  -0.021
19445SOL     OW59775   6.411   2.873   1.377
19445SOL    HW159776   6.449   2.871   1.289
19445SOL    HW259777   6.402   2.966   1.398
19446SOL     OW59778   6.510   2.782   0.292
19446SOL    HW159779   6.571   2.809   0.223
19446SOL    HW259780   6.557   2.714   0.340
19447SOL     OW59781   7.045   3.450   0.003
19447SOL    HW159782   6.961   3.479   0.036
19447SOL    HW259783   7.102   3.526   0.010
19448SOL     OW59784   5.955   3.165   1.488
19448SOL    HW159785   5.938   3.244   1.437
19448SOL    HW259786   5.875   3.113   1.479
19449SOL     OW59787   7.194   3.149   1.280
19449SOL    HW159788   7.247   3.129   1.357
19449SOL    HW259789   7.132   3.215   1.310
19450SOL     OW59790   6.650   2.977   0.713
19450SOL    HW159791   6.577   2.928   0.751
19450SOL    HW259792   6.715   2.910   0.690
19451SOL     OW59793   6.615   2.106   0.962
19451SOL    HW159794   6.612   2.059   0.879
19451SOL    HW259795   6.608   2.038   1.029
19452SOL     OW59796   6.184   3.338   0.476
19452SOL    HW159797   6.223   3.297   0.400
19452SOL    HW259798   6.113   3.392   0.441
19453SOL     OW59799   7.312   2.253   1.374
19453SOL    HW159800   7.386   2.314   1.376
19453SOL    HW259801   7.342   2.181   1.318
19454SOL     OW59802   5.849   3.193   0.309
19454SOL    HW159803   5.775   3.222   0.255
19454SOL    HW259804   5.837   3.239   0.393
19455SOL     OW59805   5.700   2.890   1.723
19455SOL    HW159806   5.623   2.868   1.775
19455SOL    HW259807   5.774   2.851   1.771
19456SOL     OW59808   6.264   2.052   1.497
19456SOL    HW159809   6.349   2.030   1.458
19456SOL    HW259810   6.285   2.088   1.583
19457SOL     OW59811   7.008   2.716   1.392
19457SOL    HW159812   6.958   2.778   1.339
19457SOL    HW259813   7.097   2.722   1.357
19458SOL     OW59814   5.649   2.012   0.304
19458SOL    HW159815   5.658   2.105   0.325
19458SOL    HW259816   5.734   1.987   0.268
19459SOL     OW59817   6.777   3.188   0.119
19459SOL    HW159818   6.682   3.188   0.109
19459SOL    HW259819   6.791   3.186   0.213
19460SOL     OW59820   6.210   2.692   1.434
19460SOL    HW159821   6.266   2.769   1.422
19460SOL    HW259822   6.271   2.619   1.440
19461SOL     OW59823   7.073   3.652   0.985
19461SOL    HW159824   7.094   3.723   0.926
19461SOL    HW259825   7.157   3.627   1.024
19462SOL     OW59826   6.305   2.419   1.693
19462SOL    HW159827   6.348   2.478   1.755
19462SOL    HW259828   6.320   2.332   1.728
19463SOL     OW59829   7.057   3.050   1.626
19463SOL    HW159830   7.044   3.069   1.719
19463SOL    HW259831   7.148   3.075   1.610
19464SOL     OW59832   5.950   3.602   1.565
19464SOL    HW159833   5.868   3.650   1.553
19464SOL    HW259834   5.924   3.521   1.609
19465SOL     OW59835   7.249   2.744   1.250
19465SOL    HW159836   7.239   2.660   1.205
19465SOL    HW259837   7.239   2.809   1.180
19466SOL     OW59838   6.814   2.172   0.447
19466SOL    HW159839   6.878   2.100   0.448
19466SOL    HW259840   6.831   2.221   0.527
19467SOL     OW59841   6.172   2.589   0.671
19467SOL    HW159842   6.211   2.676   0.663
19467SOL    HW259843   6.105   2.587   0.603
19468SOL     OW59844   7.338   2.222   1.644
19468SOL    HW159845   7.320   2.240   1.552
19468SOL    HW259846   7.265   2.167   1.673
19469SOL     OW59847   7.330   2.794   1.506
19469SOL    HW159848   7.319   2.887   1.524
19469SOL    HW259849   7.308   2.784   1.414
19470SOL     OW59850   6.508   3.232   0.055
19470SOL    HW159851   6.453   3.211   0.131
19470SOL    HW259852   6.489   3.324   0.037
19471SOL     OW59853   6.249   3.640   0.930
19471SOL    HW159854   6.230   3.733   0.918
19471SOL    HW259855   6.345   3.635   0.927
19472SOL     OW59856   6.457   2.836   0.853
19472SOL    HW159857   6.507   2.764   0.892
19472SOL    HW259858   6.415   2.878   0.928
19473SOL     OW59859   6.672   2.851   0.078
19473SOL    HW159860   6.711   2.930   0.040
19473SOL    HW259861   6.744   2.789   0.082
19474SOL     OW59862   7.427   3.417   0.845
19474SOL    HW159863   7.351   3.408   0.787
19474SOL    HW259864   7.402   3.370   0.924
19475SOL     OW59865   5.821   3.161   1.856
19475SOL    HW159866   5.750   3.104   1.827
19475SOL    HW259867   5.800   3.179   1.948
19476SOL     OW59868   5.674   3.086   0.672
19476SOL    HW159869   5.687   3.044   0.757
19476SOL    HW259870   5.746   3.053   0.618
19477SOL     OW59871   6.274   3.276   1.633
19477SOL    HW159872   6.196   3.231   1.667
19477SOL    HW259873   6.269   3.363   1.671
19478SOL     OW59874   7.397   2.038   1.234
19478SOL    HW159875   7.403   1.944   1.247
19478SOL    HW259876   7.406   2.050   1.140
19479SOL     OW59877   6.001   2.291   0.519
19479SOL    HW159878   6.045   2.218   0.475
19479SOL    HW259879   5.958   2.251   0.594
19480SOL     OW59880   7.288   3.341   1.082
19480SOL    HW159881   7.205   3.324   1.037
19480SOL    HW259882   7.290   3.278   1.154
19481SOL     OW59883   5.925   2.424   1.293
19481SOL    HW159884   5.976   2.363   1.347
19481SOL    HW259885   5.939   2.394   1.204
19482SOL     OW59886   6.420   3.434   0.680
19482SOL    HW159887   6.403   3.492   0.606
19482SOL    HW259888   6.343   3.378   0.686
19483SOL     OW59889   7.010   2.094   1.117
19483SOL    HW159890   7.017   2.006   1.152
19483SOL    HW259891   6.961   2.143   1.183
19484SOL     OW59892   6.596   1.880   1.130
19484SOL    HW159893   6.539   1.815   1.087
19484SOL    HW259894   6.682   1.838   1.132
19485SOL     OW59895   6.384   3.177   0.298
19485SOL    HW159896   6.344   3.094   0.323
19485SOL    HW259897   6.449   3.194   0.367
19486SOL     OW59898   6.206   3.419   1.288
19486SOL    HW159899   6.204   3.501   1.338
19486SOL    HW259900   6.295   3.415   1.252
19487SOL     OW59901   6.955   1.897   0.181
19487SOL    HW159902   6.959   1.845   0.101
19487SOL    HW259903   6.870   1.943   0.176
19488SOL     OW59904   6.856   2.321   0.669
19488SOL    HW159905   6.811   2.405   0.677
19488SOL    HW259906   6.867   2.292   0.760
19489SOL     OW59907   7.165   2.054   0.886
19489SOL    HW159908   7.113   2.084   0.960
19489SOL    HW259909   7.167   2.128   0.826
19490SOL     OW59910   5.620   2.937   0.326
19490SOL    HW159911   5.714   2.951   0.314
19490SOL    HW259912   5.614   2.854   0.374
19491SOL     OW59913   6.452   3.512   0.381
19491SOL    HW159914   6.377   3.500   0.322
19491SOL    HW259915   6.437   3.597   0.421
19492SOL     OW59916   5.804   2.466   2.000
19492SOL    HW159917   5.717   2.467   2.039
19492SOL    HW259918   5.789   2.455   1.907
19493SOL     OW59919   5.813   2.139   2.848
19493SOL    HW159920   5.839   2.110   2.936
19493SOL    HW259921   5.722   2.111   2.840
19494SOL     OW59922   5.570   2.247   2.503
19494SOL    HW159923   5.496   2.282   2.552
19494SOL    HW259924   5.536   2.169   2.459
19495SOL     OW59925   6.158   3.161   3.051
19495SOL    HW159926   6.073   3.167   3.008
19495SOL    HW259927   6.174   3.248   3.086
19496SOL     OW59928   7.160   3.379   2.574
19496SOL    HW159929   7.116   3.358   2.656
19496SOL    HW259930   7.089   3.384   2.510
19497SOL     OW59931   6.711   2.561   2.553
19497SOL    HW159932   6.762   2.640   2.538
19497SOL    HW259933   6.671   2.574   2.639
19498SOL     OW59934   7.378   2.454   2.081
19498SOL    HW159935   7.345   2.450   1.991
19498SOL    HW259936   7.333   2.383   2.127
19499SOL     OW59937   6.328   2.997   2.911
19499SOL    HW159938   6.262   3.034   2.970
19499SOL    HW259939   6.370   3.073   2.871
19500SOL     OW59940   6.439   2.642   3.715
19500SOL    HW159941   6.360   2.695   3.728
19500SOL    HW259942   6.474   2.672   3.631
19501SOL     OW59943   6.272   2.847   2.508
19501SOL    HW159944   6.339   2.850   2.577
19501SOL    HW259945   6.203   2.906   2.540
19502SOL     OW59946   6.302   3.025   3.680
19502SOL    HW159947   6.350   3.103   3.707
19502SOL    HW259948   6.221   3.058   3.641
19503SOL     OW59949   5.927   3.265   2.928
19503SOL    HW159950   5.846   3.231   2.891
19503SOL    HW259951   5.961   3.325   2.861
19504SOL     OW59952   7.044   3.367   3.227
19504SOL    HW159953   7.097   3.445   3.240
19504SOL    HW259954   6.970   3.378   3.287
19505SOL     OW59955   6.041   2.241   3.323
19505SOL    HW159956   6.108   2.175   3.341
19505SOL    HW259957   5.959   2.202   3.354
19506SOL     OW59958   7.190   2.301   2.613
19506SOL    HW159959   7.124   2.322   2.548
19506SOL    HW259960   7.182   2.370   2.680
19507SOL     OW59961   5.806   3.577   2.333
19507SOL    HW159962   5.824   3.652   2.390
19507SOL    HW259963   5.882   3.573   2.274
19508SOL     OW59964   6.721   3.201   3.553
19508SOL    HW159965   6.765   3.199   3.639
19508SOL    HW259966   6.671   3.119   3.550
19509SOL     OW59967   5.824   3.304   2.400
19509SOL    HW159968   5.801   3.396   2.405
19509SOL    HW259969   5.767   3.261   2.464
19510SOL     OW59970   5.868   2.953   2.759
19510SOL    HW159971   5.846   2.865   2.789
19510SOL    HW259972   5.805   3.010   2.803
19511SOL     OW59973   6.198   3.640   3.308
19511SOL    HW159974   6.109   3.630   3.344
19511SOL    HW259975   6.219   3.732   3.321
19512SOL     OW59976   6.165   2.845   2.003
19512SOL    HW159977   6.214   2.892   1.935
19512SOL    HW259978   6.200   2.879   2.085
19513SOL     OW59979   7.180   1.993   3.322
19513SOL    HW159980   7.213   2.071   3.279
19513SOL    HW259981   7.157   2.022   3.411
19514SOL     OW59982   5.716   2.510   2.427
19514SOL    HW159983   5.664   2.432   2.449
19514SOL    HW259984   5.701   2.570   2.500
19515SOL     OW59985   7.433   3.611   2.188
19515SOL    HW159986   7.500   3.588   2.252
19515SOL    HW259987   7.448   3.704   2.170
19516SOL     OW59988   5.635   3.446   1.974
19516SOL    HW159989   5.610   3.356   1.994
19516SOL    HW259990   5.605   3.496   2.050
19517SOL     OW59991   7.269   2.778   2.503
19517SOL    HW159992   7.355   2.741   2.485
19517SOL    HW259993   7.250   2.834   2.428
19518SOL     OW59994   7.238   2.966   2.291
19518SOL    HW159995   7.325   2.965   2.250
19518SOL    HW259996   7.245   3.031   2.362
19519SOL     OW59997   5.695   2.612   3.441
19519SOL    HW159998   5.774   2.665   3.448
19519SOL    HW259999   5.624   2.675   3.431
19520SOL     OW60000   6.211   3.254   2.597
19520SOL    HW160001   6.164   3.171   2.607
19520SOL    HW260002   6.191   3.281   2.507
19521SOL     OW60003   6.868   3.093   3.281
19521SOL    HW160004   6.901   3.026   3.221
19521SOL    HW260005   6.927   3.089   3.356
19522SOL     OW60006   5.772   2.816   3.163
19522SOL    HW160007   5.854   2.779   3.130
19522SOL    HW260008   5.707   2.792   3.097
19523SOL     OW60009   7.120   2.866   2.062
19523SOL    HW160010   7.051   2.807   2.094
19523SOL    HW260011   7.161   2.900   2.141
19524SOL     OW60012   6.771   3.690   3.494
19524SOL    HW160013   6.772   3.759   3.428
19524SOL    HW260014   6.791   3.610   3.446
19525SOL     OW60015   5.935   2.117   3.700
19525SOL    HW160016   5.964   2.208   3.706
19525SOL    HW260017   5.840   2.121   3.711
19526SOL     OW60018   7.060   3.277   2.813
19526SOL    HW160019   6.991   3.295   2.877
19526SOL    HW260020   7.042   3.187   2.784
19527SOL     OW60021   7.239   3.626   2.435
19527SOL    HW160022   7.215   3.588   2.350
19527SOL    HW260023   7.220   3.557   2.498
19528SOL     OW60024   6.182   2.576   2.139
19528SOL    HW160025   6.184   2.661   2.095
19528SOL    HW260026   6.116   2.586   2.208
19529SOL     OW60027   6.869   2.237   2.799
19529SOL    HW160028   6.780   2.206   2.812
19529SOL    HW260029   6.922   2.181   2.856
19530SOL     OW60030   7.164   3.539   2.174
19530SOL    HW160031   7.257   3.561   2.165
19530SOL    HW260032   7.135   3.522   2.084
19531SOL     OW60033   6.386   2.480   3.299
19531SOL    HW160034   6.366   2.454   3.389
19531SOL    HW260035   6.348   2.410   3.245
19532SOL     OW60036   6.975   2.335   3.541
19532SOL    HW160037   6.980   2.382   3.624
19532SOL    HW260038   7.034   2.261   3.551
19533SOL     OW60039   6.526   2.743   3.462
19533SOL    HW160040   6.585   2.679   3.421
19533SOL    HW260041   6.482   2.786   3.388
19534SOL     OW60042   6.584   2.267   3.093
19534SOL    HW160043   6.495   2.286   3.122
19534SOL    HW260044   6.574   2.231   3.005
19535SOL     OW60045   6.641   2.558   2.283
19535SOL    HW160046   6.659   2.559   2.377
19535SOL    HW260047   6.556   2.516   2.274
19536SOL     OW60048   5.677   2.691   2.626
19536SOL    HW160049   5.750   2.683   2.686
19536SOL    HW260050   5.622   2.760   2.664
19537SOL     OW60051   5.706   3.727   3.445
19537SOL    HW160052   5.706   3.705   3.537
19537SOL    HW260053   5.617   3.711   3.415
19538SOL     OW60054   6.492   2.201   2.049
19538SOL    HW160055   6.531   2.270   1.995
19538SOL    HW260056   6.502   2.121   1.997
19539SOL     OW60057   7.279   2.427   3.693
19539SOL    HW160058   7.248   2.504   3.645
19539SOL    HW260059   7.312   2.368   3.625
19540SOL     OW60060   6.967   3.004   2.403
19540SOL    HW160061   7.048   3.000   2.352
19540SOL    HW260062   6.913   3.068   2.358
19541SOL     OW60063   6.172   2.069   2.758
19541SOL    HW160064   6.165   2.073   2.853
19541SOL    HW260065   6.144   2.156   2.728
19542SOL     OW60066   6.578   3.309   2.327
19542SOL    HW160067   6.555   3.385   2.275
19542SOL    HW260068   6.550   3.330   2.416
19543SOL     OW60069   5.936   3.675   2.724
19543SOL    HW160070   5.980   3.591   2.739
19543SOL    HW260071   5.998   3.740   2.757
19544SOL     OW60072   7.382   2.907   2.733
19544SOL    HW160073   7.323   2.894   2.659
19544SOL    HW260074   7.324   2.919   2.808
19545SOL     OW60075   6.809   3.406   3.370
19545SOL    HW160076   6.793   3.330   3.425
19545SOL    HW260077   6.722   3.429   3.336
19546SOL     OW60078   5.901   2.826   2.123
19546SOL    HW160079   5.981   2.842   2.073
19546SOL    HW260080   5.864   2.747   2.084
19547SOL     OW60081   7.067   2.608   2.577
19547SOL    HW160082   7.067   2.574   2.667
19547SOL    HW260083   7.143   2.667   2.575
19548SOL     OW60084   6.051   3.128   3.601
19548SOL    HW160085   6.026   3.136   3.508
19548SOL    HW260086   5.967   3.126   3.647
19549SOL     OW60087   6.717   3.643   2.086
19549SOL    HW160088   6.639   3.610   2.129
19549SOL    HW260089   6.739   3.576   2.021
19550SOL     OW60090   5.781   2.149   3.378
19550SOL    HW160091   5.697   2.191   3.358
19550SOL    HW260092   5.757   2.063   3.412
19551SOL     OW60093   7.217   3.243   1.951
19551SOL    HW160094   7.176   3.329   1.941
19551SOL    HW260095   7.147   3.181   1.931
19552SOL     OW60096   6.046   3.599   2.180
19552SOL    HW160097   6.090   3.654   2.245
19552SOL    HW260098   6.118   3.562   2.128
19553SOL     OW60099   6.985   1.971   2.308
19553SOL    HW160100   6.981   1.945   2.216
19553SOL    HW260101   7.079   1.979   2.326
19554SOL     OW60102   5.856   3.656   3.080
19554SOL    HW160103   5.891   3.573   3.113
19554SOL    HW260104   5.798   3.631   3.008
19555SOL     OW60105   6.528   3.558   2.762
19555SOL    HW160106   6.600   3.504   2.794
19555SOL    HW260107   6.489   3.507   2.692
19556SOL     OW60108   5.990   2.536   2.342
19556SOL    HW160109   6.001   2.443   2.364
19556SOL    HW260110   5.897   2.553   2.358
19557SOL     OW60111   7.110   2.086   3.582
19557SOL    HW160112   7.123   2.105   3.675
19557SOL    HW260113   7.041   2.020   3.580
19558SOL     OW60114   6.242   1.972   1.954
19558SOL    HW160115   6.300   1.897   1.970
19558SOL    HW260116   6.182   1.942   1.886
19559SOL     OW60117   6.346   2.138   3.614
19559SOL    HW160118   6.427   2.088   3.617
19559SOL    HW260119   6.294   2.105   3.688
19560SOL     OW60120   6.461   3.379   3.053
19560SOL    HW160121   6.440   3.340   2.968
19560SOL    HW260122   6.531   3.323   3.088
19561SOL     OW60123   6.922   2.450   3.294
19561SOL    HW160124   6.953   2.421   3.380
19561SOL    HW260125   6.957   2.539   3.285
19562SOL     OW60126   6.411   3.242   2.810
19562SOL    HW160127   6.495   3.236   2.765
19562SOL    HW260128   6.347   3.255   2.739
19563SOL     OW60129   6.521   2.365   2.760
19563SOL    HW160130   6.478   2.350   2.677
19563SOL    HW260131   6.550   2.278   2.789
19564SOL     OW60132   6.149   1.948   2.366
19564SOL    HW160133   6.067   1.932   2.413
19564SOL    HW260134   6.122   1.995   2.287
19565SOL     OW60135   7.011   3.066   1.899
19565SOL    HW160136   7.040   2.992   1.953
19565SOL    HW260137   6.927   3.091   1.937
19566SOL     OW60138   5.870   1.918   2.044
19566SOL    HW160139   5.921   1.981   1.993
19566SOL    HW260140   5.936   1.861   2.085
19567SOL     OW60141   6.503   2.118   2.311
19567SOL    HW160142   6.496   2.142   2.219
19567SOL    HW260143   6.597   2.118   2.328
19568SOL     OW60144   6.666   2.554   3.322
19568SOL    HW160145   6.596   2.488   3.318
19568SOL    HW260146   6.747   2.504   3.314
19569SOL     OW60147   6.817   3.429   2.653
19569SOL    HW160148   6.822   3.496   2.585
19569SOL    HW260149   6.864   3.465   2.727
19570SOL     OW60150   6.067   3.014   2.585
19570SOL    HW160151   6.003   2.997   2.654
19570SOL    HW260152   6.018   3.007   2.504
19571SOL     OW60153   6.847   3.647   2.472
19571SOL    HW160154   6.891   3.717   2.423
19571SOL    HW260155   6.772   3.690   2.514
19572SOL     OW60156   6.611   2.392   1.890
19572SOL    HW160157   6.566   2.474   1.870
19572SOL    HW260158   6.675   2.416   1.957
19573SOL     OW60159   5.683   2.420   3.249
19573SOL    HW160160   5.776   2.426   3.226
19573SOL    HW260161   5.670   2.488   3.315
19574SOL     OW60162   6.146   2.082   3.034
19574SOL    HW160163   6.184   2.023   3.099
19574SOL    HW260164   6.053   2.086   3.057
19575SOL     OW60165   6.411   2.318   2.504
19575SOL    HW160166   6.372   2.403   2.483
19575SOL    HW260167   6.483   2.309   2.441
19576SOL     OW60168   6.634   1.916   2.625
19576SOL    HW160169   6.574   1.912   2.551
19576SOL    HW260170   6.607   1.844   2.682
19577SOL     OW60171   7.026   3.018   2.720
19577SOL    HW160172   6.949   2.962   2.731
19577SOL    HW260173   7.036   3.026   2.625
19578SOL     OW60174   7.051   2.471   2.822
19578SOL    HW160175   6.990   2.398   2.831
19578SOL    HW260176   7.107   2.466   2.899
19579SOL     OW60177   7.427   2.666   2.249
19579SOL    HW160178   7.486   2.619   2.308
19579SOL    HW260179   7.407   2.603   2.180
19580SOL     OW60180   6.076   3.283   2.017
19580SOL    HW160181   6.000   3.260   2.070
19580SOL    HW260182   6.065   3.234   1.935
19581SOL     OW60183   7.267   3.130   2.498
19581SOL    HW160184   7.360   3.130   2.520
19581SOL    HW260185   7.237   3.217   2.526
19582SOL     OW60186   6.978   2.435   1.933
19582SOL    HW160187   6.916   2.413   2.003
19582SOL    HW260188   7.064   2.415   1.971
19583SOL     OW60189   6.136   2.121   2.160
19583SOL    HW160190   6.176   2.074   2.086
19583SOL    HW260191   6.101   2.201   2.121
19584SOL     OW60192   7.328   3.105   3.411
19584SOL    HW160193   7.416   3.069   3.400
19584SOL    HW260194   7.343   3.193   3.446
19585SOL     OW60195   6.636   3.198   3.177
19585SOL    HW160196   6.560   3.178   3.231
19585SOL    HW260197   6.711   3.168   3.229
19586SOL     OW60198   7.196   3.490   3.522
19586SOL    HW160199   7.187   3.525   3.434
19586SOL    HW260200   7.277   3.439   3.520
19587SOL     OW60201   6.717   3.058   2.954
19587SOL    HW160202   6.669   3.102   3.024
19587SOL    HW260203   6.694   3.107   2.874
19588SOL     OW60204   7.208   2.961   2.938
19588SOL    HW160205   7.201   3.024   3.010
19588SOL    HW260206   7.134   2.980   2.881
19589SOL     OW60207   6.510   1.949   3.255
19589SOL    HW160208   6.531   1.934   3.162
19589SOL    HW260209   6.588   1.991   3.290
19590SOL     OW60210   6.573   2.968   3.607
19590SOL    HW160211   6.482   2.995   3.621
19590SOL    HW260212   6.567   2.891   3.551
19591SOL     OW60213   6.298   2.924   2.234
19591SOL    HW160214   6.281   2.903   2.326
19591SOL    HW260215   6.372   2.869   2.210
19592SOL     OW60216   6.013   2.684   3.109
19592SOL    HW160217   6.074   2.698   3.181
19592SOL    HW260218   5.978   2.596   3.125
19593SOL     OW60219   6.850   2.234   3.146
19593SOL    HW160220   6.881   2.312   3.191
19593SOL    HW260221   6.758   2.253   3.125
19594SOL     OW60222   5.653   3.436   3.223
19594SOL    HW160223   5.608   3.497   3.164
19594SOL    HW260224   5.746   3.452   3.207
19595SOL     OW60225   5.926   2.986   2.352
19595SOL    HW160226   5.911   3.066   2.301
19595SOL    HW260227   5.920   2.915   2.288
19596SOL     OW60228   6.141   2.372   2.711
19596SOL    HW160229   6.151   2.437   2.642
19596SOL    HW260230   6.195   2.405   2.783
19597SOL     OW60231   6.829   3.214   2.257
19597SOL    HW160232   6.885   3.285   2.289
19597SOL    HW260233   6.742   3.235   2.289
19598SOL     OW60234   6.880   3.322   3.015
19598SOL    HW160235   6.937   3.333   3.091
19598SOL    HW260236   6.811   3.263   3.045
19599SOL     OW60237   7.164   2.483   2.346
19599SOL    HW160238   7.113   2.521   2.417
19599SOL    HW260239   7.208   2.557   2.305
19600SOL     OW60240   5.932   3.398   3.164
19600SOL    HW160241   5.919   3.344   3.086
19600SOL    HW260242   6.027   3.408   3.171
19601SOL     OW60243   6.003   2.628   3.478
19601SOL    HW160244   6.070   2.656   3.416
19601SOL    HW260245   6.005   2.532   3.474
19602SOL     OW60246   7.195   2.643   3.553
19602SOL    HW160247   7.109   2.685   3.548
19602SOL    HW260248   7.247   2.685   3.485
19603SOL     OW60249   6.584   1.999   3.630
19603SOL    HW160250   6.637   2.074   3.603
19603SOL    HW260251   6.631   1.922   3.595
19604SOL     OW60252   6.076   1.899   3.615
19604SOL    HW160253   6.024   1.849   3.552
19604SOL    HW260254   6.023   1.976   3.634
19605SOL     OW60255   6.171   2.735   2.893
19605SOL    HW160256   6.201   2.826   2.892
19605SOL    HW260257   6.114   2.730   2.970
19606SOL     OW60258   6.923   2.718   2.872
19606SOL    HW160259   6.832   2.699   2.847
19606SOL    HW260260   6.969   2.635   2.861
19607SOL     OW60261   6.784   2.384   2.123
19607SOL    HW160262   6.788   2.307   2.179
19607SOL    HW260263   6.745   2.452   2.178
19608SOL     OW60264   5.884   2.064   3.105
19608SOL    HW160265   5.830   2.094   3.177
19608SOL    HW260266   5.870   1.969   3.103
19609SOL     OW60267   5.675   3.176   3.136
19609SOL    HW160268   5.681   3.121   3.214
19609SOL    HW260269   5.652   3.263   3.169
19610SOL     OW60270   6.292   2.489   2.905
19610SOL    HW160271   6.379   2.494   2.866
19610SOL    HW260272   6.258   2.578   2.901
19611SOL     OW60273   7.326   2.821   3.726
19611SOL    HW160274   7.280   2.754   3.676
19611SOL    HW260275   7.265   2.844   3.796
19612SOL     OW60276   5.904   1.927   2.483
19612SOL    HW160277   5.868   2.014   2.504
19612SOL    HW260278   5.907   1.882   2.567
19613SOL     OW60279   7.213   2.249   2.214
19613SOL    HW160280   7.240   2.182   2.277
19613SOL    HW260281   7.187   2.324   2.267
19614SOL     OW60282   6.622   2.614   2.819
19614SOL    HW160283   6.607   2.632   2.912
19614SOL    HW260284   6.594   2.523   2.808
19615SOL     OW60285   6.572   3.429   3.588
19615SOL    HW160286   6.554   3.473   3.505
19615SOL    HW260287   6.611   3.346   3.563
19616SOL     OW60288   7.434   3.358   3.466
19616SOL    HW160289   7.457   3.389   3.378
19616SOL    HW260290   7.514   3.373   3.518
19617SOL     OW60291   5.954   2.780   3.701
19617SOL    HW160292   6.039   2.823   3.702
19617SOL    HW260293   5.958   2.720   3.626
19618SOL     OW60294   7.119   2.126   1.985
19618SOL    HW160295   7.054   2.063   2.017
19618SOL    HW260296   7.151   2.170   2.063
19619SOL     OW60297   6.867   2.684   1.885
19619SOL    HW160298   6.910   2.599   1.892
19619SOL    HW260299   6.902   2.722   1.804
19620SOL     OW60300   6.664   3.205   2.718
19620SOL    HW160301   6.670   3.134   2.654
19620SOL    HW260302   6.721   3.273   2.683
19621SOL     OW60303   5.892   2.666   2.802
19621SOL    HW160304   5.983   2.693   2.809
19621SOL    HW260305   5.890   2.578   2.841
19622SOL     OW60306   5.918   2.386   2.876
19622SOL    HW160307   5.876   2.301   2.864
19622SOL    HW260308   5.991   2.386   2.815
19623SOL     OW60309   6.721   2.229   3.553
19623SOL    HW160310   6.671   2.286   3.612
19623SOL    HW260311   6.806   2.271   3.546
19624SOL     OW60312   6.750   2.057   3.338
19624SOL    HW160313   6.737   2.120   3.409
19624SOL    HW260314   6.792   2.107   3.268
19625SOL     OW60315   5.594   3.173   2.045
19625SOL    HW160316   5.506   3.191   2.012
19625SOL    HW260317   5.587   3.086   2.084
19626SOL     OW60318   5.676   3.637   2.808
19626SOL    HW160319   5.640   3.562   2.761
19626SOL    HW260320   5.762   3.651   2.769
19627SOL     OW60321   6.076   3.436   2.763
19627SOL    HW160322   6.142   3.502   2.782
19627SOL    HW260323   6.119   3.372   2.707
19628SOL     OW60324   6.554   2.639   3.081
19628SOL    HW160325   6.617   2.632   3.152
19628SOL    HW260326   6.470   2.614   3.120
19629SOL     OW60327   5.626   2.409   2.979
19629SOL    HW160328   5.711   2.413   2.935
19629SOL    HW260329   5.647   2.411   3.072
19630SOL     OW60330   5.779   2.388   3.588
19630SOL    HW160331   5.781   2.322   3.519
19630SOL    HW260332   5.737   2.464   3.547
19631SOL     OW60333   6.965   2.789   3.521
19631SOL    HW160334   6.987   2.882   3.517
19631SOL    HW260335   6.959   2.762   3.429
19632SOL     OW60336   6.402   2.425   2.230
19632SOL    HW160337   6.409   2.361   2.160
19632SOL    HW260338   6.332   2.484   2.203
19633SOL     OW60339   7.224   2.461   3.033
19633SOL    HW160340   7.216   2.408   3.112
19633SOL    HW260341   7.313   2.446   3.003
19634SOL     OW60342   5.829   3.413   3.595
19634SOL    HW160343   5.801   3.474   3.663
19634SOL    HW260344   5.825   3.327   3.636
19635SOL     OW60345   6.308   2.303   3.106
19635SOL    HW160346   6.244   2.234   3.090
19635SOL    HW260347   6.290   2.368   3.037
19636SOL     OW60348   6.539   3.527   3.323
19636SOL    HW160349   6.493   3.493   3.246
19636SOL    HW260350   6.529   3.622   3.316
19637SOL     OW60351   6.044   2.351   2.052
19637SOL    HW160352   6.100   2.426   2.072
19637SOL    HW260353   5.957   2.388   2.039
19638SOL     OW60354   5.729   3.006   3.351
19638SOL    HW160355   5.726   2.961   3.435
19638SOL    HW260356   5.743   2.936   3.287
19639SOL     OW60357   6.904   2.900   3.076
19639SOL    HW160358   6.924   2.838   3.006
19639SOL    HW260359   6.837   2.958   3.039
19640SOL     OW60360   6.911   2.715   2.159
19640SOL    HW160361   6.837   2.697   2.217
19640SOL    HW260362   6.875   2.705   2.071
19641SOL     OW60363   7.364   3.596   3.018
19641SOL    HW160364   7.427   3.621   2.951
19641SOL    HW260365   7.339   3.507   2.995
19642SOL     OW60366   6.827   3.585   2.944
19642SOL    HW160367   6.913   3.611   2.911
19642SOL    HW260368   6.840   3.497   2.978
19643SOL     OW60369   5.685   3.117   2.876
19643SOL    HW160370   5.682   3.136   2.970
19643SOL    HW260371   5.594   3.118   2.848
19644SOL     OW60372   6.258   3.543   3.611
19644SOL    HW160373   6.190   3.610   3.608
19644SOL    HW260374   6.316   3.564   3.537
19645SOL     OW60375   7.306   2.024   2.360
19645SOL    HW160376   7.378   2.008   2.298
19645SOL    HW260377   7.291   1.940   2.402
19646SOL     OW60378   6.979   3.430   2.354
19646SOL    HW160379   7.035   3.468   2.286
19646SOL    HW260380   6.927   3.503   2.387
19647SOL     OW60381   5.726   3.672   3.723
19647SOL    HW160382   5.685   3.598   3.767
19647SOL    HW260383   5.674   3.748   3.749
19648SOL     OW60384   6.861   2.783   2.518
19648SOL    HW160385   6.937   2.727   2.535
19648SOL    HW260386   6.897   2.859   2.472
19649SOL     OW60387   6.383   3.144   3.289
19649SOL    HW160388   6.357   3.188   3.370
19649SOL    HW260389   6.313   3.165   3.227
19650SOL     OW60390   6.253   3.490   2.019
19650SOL    HW160391   6.264   3.504   1.925
19650SOL    HW260392   6.199   3.412   2.026
19651SOL     OW60393   7.206   3.589   3.255
19651SOL    HW160394   7.259   3.594   3.176
19651SOL    HW260395   7.193   3.681   3.281
19652SOL     OW60396   7.430   2.029   2.824
19652SOL    HW160397   7.459   1.940   2.801
19652SOL    HW260398   7.342   2.035   2.787
19653SOL     OW60399   5.833   2.180   2.571
19653SOL    HW160400   5.745   2.210   2.548
19653SOL    HW260401   5.832   2.170   2.666
19654SOL     OW60402   6.797   3.458   1.895
19654SOL    HW160403   6.783   3.369   1.925
19654SOL    HW260404   6.727   3.473   1.831
19655SOL     OW60405   6.412   2.874   3.244
19655SOL    HW160406   6.442   2.874   3.153
19655SOL    HW260407   6.401   2.967   3.266
19656SOL     OW60408   6.501   2.766   2.150
19656SOL    HW160409   6.559   2.804   2.085
19656SOL    HW260410   6.556   2.704   2.198
19657SOL     OW60411   7.075   3.492   1.910
19657SOL    HW160412   6.981   3.480   1.896
19657SOL    HW260413   7.112   3.498   1.822
19658SOL     OW60414   5.956   3.172   3.353
19658SOL    HW160415   5.939   3.248   3.298
19658SOL    HW260416   5.878   3.117   3.341
19659SOL     OW60417   7.194   3.150   3.143
19659SOL    HW160418   7.248   3.131   3.220
19659SOL    HW260419   7.132   3.217   3.173
19660SOL     OW60420   6.656   2.972   2.574
19660SOL    HW160421   6.582   2.927   2.614
19660SOL    HW260422   6.716   2.902   2.548
19661SOL     OW60423   6.618   2.108   2.834
19661SOL    HW160424   6.627   2.056   2.754
19661SOL    HW260425   6.608   2.042   2.903
19662SOL     OW60426   6.189   3.346   2.341
19662SOL    HW160427   6.231   3.301   2.268
19662SOL    HW260428   6.105   3.376   2.306
19663SOL     OW60429   7.316   2.253   3.240
19663SOL    HW160430   7.388   2.316   3.241
19663SOL    HW260431   7.345   2.183   3.182
19664SOL     OW60432   5.845   3.207   2.153
19664SOL    HW160433   5.753   3.200   2.129
19664SOL    HW260434   5.845   3.248   2.240
19665SOL     OW60435   5.708   2.902   3.605
19665SOL    HW160436   5.624   2.878   3.644
19665SOL    HW260437   5.773   2.851   3.653
19666SOL     OW60438   6.265   2.048   3.356
19666SOL    HW160439   6.351   2.027   3.320
19666SOL    HW260440   6.283   2.086   3.442
19667SOL     OW60441   5.673   2.180   1.885
19667SOL    HW160442   5.578   2.171   1.879
19667SOL    HW260443   5.693   2.260   1.837
19668SOL     OW60444   7.006   2.716   3.257
19668SOL    HW160445   6.956   2.778   3.204
19668SOL    HW260446   7.095   2.721   3.223
19669SOL     OW60447   5.643   2.012   2.166
19669SOL    HW160448   5.627   2.097   2.126
19669SOL    HW260449   5.726   1.982   2.129
19670SOL     OW60450   6.762   3.194   1.982
19670SOL    HW160451   6.669   3.170   1.982
19670SOL    HW260452   6.786   3.196   2.075
19671SOL     OW60453   6.209   2.691   3.300
19671SOL    HW160454   6.265   2.768   3.287
19671SOL    HW260455   6.270   2.618   3.303
19672SOL     OW60456   7.075   3.642   2.839
19672SOL    HW160457   7.090   3.717   2.781
19672SOL    HW260458   7.157   3.633   2.888
19673SOL     OW60459   6.331   2.410   3.552
19673SOL    HW160460   6.336   2.459   3.634
19673SOL    HW260461   6.330   2.318   3.580
19674SOL     OW60462   7.058   3.048   3.488
19674SOL    HW160463   7.046   3.069   3.581
19674SOL    HW260464   7.149   3.072   3.470
19675SOL     OW60465   5.954   3.604   3.430
19675SOL    HW160466   5.873   3.652   3.409
19675SOL    HW260467   5.924   3.524   3.473
19676SOL     OW60468   7.245   2.742   3.115
19676SOL    HW160469   7.242   2.659   3.068
19676SOL    HW260470   7.236   2.809   3.047
19677SOL     OW60471   6.789   2.174   2.323
19677SOL    HW160472   6.854   2.104   2.316
19677SOL    HW260473   6.819   2.227   2.397
19678SOL     OW60474   6.197   2.574   2.522
19678SOL    HW160475   6.227   2.665   2.526
19678SOL    HW260476   6.121   2.576   2.463
19679SOL     OW60477   7.339   2.223   3.512
19679SOL    HW160478   7.325   2.243   3.420
19679SOL    HW260479   7.264   2.169   3.537
19680SOL     OW60480   7.329   2.793   3.372
19680SOL    HW160481   7.321   2.887   3.386
19680SOL    HW260482   7.311   2.781   3.279
19681SOL     OW60483   6.458   3.222   1.914
19681SOL    HW160484   6.419   3.233   2.001
19681SOL    HW260485   6.460   3.310   1.877
19682SOL     OW60486   6.249   3.642   2.779
19682SOL    HW160487   6.224   3.734   2.773
19682SOL    HW260488   6.343   3.644   2.798
19683SOL     OW60489   6.459   2.837   2.718
19683SOL    HW160490   6.509   2.767   2.760
19683SOL    HW260491   6.416   2.883   2.790
19684SOL     OW60492   6.662   2.850   1.952
19684SOL    HW160493   6.640   2.905   1.877
19684SOL    HW260494   6.734   2.795   1.922
19685SOL     OW60495   7.422   3.413   2.704
19685SOL    HW160496   7.344   3.407   2.650
19685SOL    HW260497   7.399   3.370   2.786
19686SOL     OW60498   5.797   3.154   3.704
19686SOL    HW160499   5.758   3.080   3.657
19686SOL    HW260500   5.736   3.171   3.776
19687SOL     OW60501   5.681   3.091   2.535
19687SOL    HW160502   5.664   3.050   2.620
19687SOL    HW260503   5.751   3.038   2.496
19688SOL     OW60504   6.274   3.275   3.506
19688SOL    HW160505   6.188   3.239   3.526
19688SOL    HW260506   6.269   3.365   3.538
19689SOL     OW60507   7.392   2.041   3.094
19689SOL    HW160508   7.401   1.947   3.107
19689SOL    HW260509   7.407   2.053   3.000
19690SOL     OW60510   6.052   2.248   2.411
19690SOL    HW160511   6.010   2.226   2.328
19690SOL    HW260512   5.983   2.238   2.476
19691SOL     OW60513   7.291   3.341   2.945
19691SOL    HW160514   7.208   3.325   2.900
19691SOL    HW260515   7.292   3.278   3.017
19692SOL     OW60516   5.938   2.427   3.154
19692SOL    HW160517   5.982   2.361   3.207
19692SOL    HW260518   5.943   2.393   3.065
19693SOL     OW60519   6.425   3.437   2.535
19693SOL    HW160520   6.394   3.512   2.484
19693SOL    HW260521   6.348   3.381   2.545
19694SOL     OW60522   7.016   2.094   2.981
19694SOL    HW160523   7.041   2.014   3.028
19694SOL    HW260524   6.964   2.144   3.044
19695SOL     OW60525   6.598   1.878   2.996
19695SOL    HW160526   6.540   1.811   2.961
19695SOL    HW260527   6.685   1.839   2.993
19696SOL     OW60528   6.366   3.193   2.175
19696SOL    HW160529   6.338   3.104   2.194
19696SOL    HW260530   6.439   3.209   2.236
19697SOL     OW60531   6.210   3.413   3.156
19697SOL    HW160532   6.209   3.493   3.209
19697SOL    HW260533   6.296   3.413   3.114
19698SOL     OW60534   6.946   1.910   2.040
19698SOL    HW160535   6.981   1.838   1.989
19698SOL    HW260536   6.855   1.886   2.058
19699SOL     OW60537   6.871   2.324   2.537
19699SOL    HW160538   6.825   2.408   2.543
19699SOL    HW260539   6.874   2.293   2.628
19700SOL     OW60540   7.167   2.051   2.749
19700SOL    HW160541   7.115   2.079   2.825
19700SOL    HW260542   7.169   2.128   2.692
19701SOL     OW60543   5.631   2.926   2.166
19701SOL    HW160544   5.726   2.919   2.154
19701SOL    HW260545   5.604   2.836   2.187
19702SOL     OW60546   6.480   3.529   2.190
19702SOL    HW160547   6.402   3.512   2.138
19702SOL    HW260548   6.453   3.595   2.254
19703SOL     OW60549   5.807   2.468   3.859
19703SOL    HW160550   5.719   2.467   3.898
19703SOL    HW260551   5.791   2.455   3.765
19704SOL     OW60552   5.815   2.142   4.711
19704SOL    HW160553   5.839   2.112   4.799
19704SOL    HW260554   5.725   2.113   4.700
19705SOL     OW60555   5.571   2.248   4.366
19705SOL    HW160556   5.494   2.284   4.411
19705SOL    HW260557   5.538   2.169   4.323
19706SOL     OW60558   6.161   3.164   4.908
19706SOL    HW160559   6.073   3.173   4.870
19706SOL    HW260560   6.181   3.251   4.943
19707SOL     OW60561   7.154   3.378   4.438
19707SOL    HW160562   7.114   3.359   4.523
19707SOL    HW260563   7.081   3.379   4.376
19708SOL     OW60564   6.718   2.564   4.407
19708SOL    HW160565   6.769   2.645   4.402
19708SOL    HW260566   6.671   2.569   4.490
19709SOL     OW60567   7.379   2.453   3.942
19709SOL    HW160568   7.344   2.450   3.853
19709SOL    HW260569   7.334   2.383   3.989
19710SOL     OW60570   6.328   2.997   4.772
19710SOL    HW160571   6.262   3.035   4.830
19710SOL    HW260572   6.372   3.073   4.733
19711SOL     OW60573   6.463   2.616   5.554
19711SOL    HW160574   6.440   2.679   5.623
19711SOL    HW260575   6.481   2.670   5.477
19712SOL     OW60576   6.282   2.846   4.381
19712SOL    HW160577   6.346   2.844   4.452
19712SOL    HW260578   6.212   2.903   4.413
19713SOL     OW60579   6.298   3.015   5.539
19713SOL    HW160580   6.341   3.092   5.575
19713SOL    HW260581   6.218   3.048   5.499
19714SOL     OW60582   5.928   3.269   4.795
19714SOL    HW160583   5.844   3.233   4.766
19714SOL    HW260584   5.952   3.333   4.728
19715SOL     OW60585   7.044   3.368   5.088
19715SOL    HW160586   7.097   3.446   5.103
19715SOL    HW260587   6.969   3.379   5.148
19716SOL     OW60588   6.041   2.241   5.178
19716SOL    HW160589   6.110   2.181   5.205
19716SOL    HW260590   5.960   2.201   5.211
19717SOL     OW60591   7.186   2.302   4.475
19717SOL    HW160592   7.117   2.320   4.411
19717SOL    HW260593   7.175   2.370   4.541
19718SOL     OW60594   5.873   3.590   4.160
19718SOL    HW160595   5.870   3.655   4.230
19718SOL    HW260596   5.781   3.580   4.132
19719SOL     OW60597   6.723   3.203   5.414
19719SOL    HW160598   6.761   3.203   5.501
19719SOL    HW260599   6.669   3.124   5.411
19720SOL     OW60600   5.830   3.294   4.286
19720SOL    HW160601   5.799   3.379   4.319
19720SOL    HW260602   5.780   3.229   4.337
19721SOL     OW60603   5.872   2.956   4.626
19721SOL    HW160604   5.851   2.866   4.652
19721SOL    HW260605   5.808   3.010   4.674
19722SOL     OW60606   6.198   3.637   5.166
19722SOL    HW160607   6.111   3.628   5.204
19722SOL    HW260608   6.221   3.729   5.180
19723SOL     OW60609   6.272   2.823   3.856
19723SOL    HW160610   6.275   2.893   3.792
19723SOL    HW260611   6.251   2.866   3.939
19724SOL     OW60612   7.195   1.994   5.180
19724SOL    HW160613   7.199   2.082   5.142
19724SOL    HW260614   7.167   2.008   5.270
19725SOL     OW60615   5.714   2.510   4.289
19725SOL    HW160616   5.666   2.431   4.311
19725SOL    HW260617   5.701   2.568   4.365
19726SOL     OW60618   7.438   3.611   4.055
19726SOL    HW160619   7.509   3.589   4.115
19726SOL    HW260620   7.451   3.704   4.036
19727SOL     OW60621   5.641   3.456   3.856
19727SOL    HW160622   5.595   3.372   3.858
19727SOL    HW260623   5.624   3.495   3.941
19728SOL     OW60624   7.268   2.775   4.361
19728SOL    HW160625   7.357   2.743   4.347
19728SOL    HW260626   7.251   2.832   4.286
19729SOL     OW60627   7.240   2.968   4.153
19729SOL    HW160628   7.327   2.967   4.113
19729SOL    HW260629   7.248   3.032   4.224
19730SOL     OW60630   5.714   2.602   5.312
19730SOL    HW160631   5.805   2.630   5.317
19730SOL    HW260632   5.664   2.676   5.348
19731SOL     OW60633   6.208   3.256   4.454
19731SOL    HW160634   6.165   3.171   4.468
19731SOL    HW260635   6.168   3.290   4.374
19732SOL     OW60636   6.872   3.095   5.138
19732SOL    HW160637   6.909   3.027   5.082
19732SOL    HW260638   6.926   3.091   5.217
19733SOL     OW60639   6.398   1.847   4.188
19733SOL    HW160640   6.448   1.929   4.184
19733SOL    HW260641   6.309   1.874   4.210
19734SOL     OW60642   5.763   2.832   5.043
19734SOL    HW160643   5.848   2.795   5.019
19734SOL    HW260644   5.705   2.805   4.973
19735SOL     OW60645   7.118   2.870   3.925
19735SOL    HW160646   7.053   2.809   3.960
19735SOL    HW260647   7.162   2.905   4.002
19736SOL     OW60648   6.789   3.687   5.361
19736SOL    HW160649   6.793   3.754   5.293
19736SOL    HW260650   6.799   3.604   5.314
19737SOL     OW60651   5.938   2.113   5.567
19737SOL    HW160652   5.971   2.200   5.588
19737SOL    HW260653   5.843   2.120   5.577
19738SOL     OW60654   7.054   3.276   4.681
19738SOL    HW160655   6.988   3.290   4.749
19738SOL    HW260656   7.039   3.186   4.651
19739SOL     OW60657   7.220   3.629   4.294
19739SOL    HW160658   7.215   3.583   4.210
19739SOL    HW260659   7.211   3.560   4.360
19740SOL     OW60660   6.165   2.588   4.005
19740SOL    HW160661   6.144   2.667   3.955
19740SOL    HW260662   6.100   2.586   4.075
19741SOL     OW60663   6.870   2.234   4.658
19741SOL    HW160664   6.779   2.206   4.668
19741SOL    HW260665   6.919   2.178   4.718
19742SOL     OW60666   7.173   3.532   4.030
19742SOL    HW160667   7.265   3.557   4.023
19742SOL    HW260668   7.145   3.519   3.939
19743SOL     OW60669   6.393   2.474   5.166
19743SOL    HW160670   6.364   2.451   5.254
19743SOL    HW260671   6.352   2.409   5.110
19744SOL     OW60672   6.980   2.336   5.405
19744SOL    HW160673   6.980   2.382   5.489
19744SOL    HW260674   7.037   2.260   5.419
19745SOL     OW60675   6.530   2.750   5.313
19745SOL    HW160676   6.589   2.685   5.272
19745SOL    HW260677   6.486   2.791   5.239
19746SOL     OW60678   6.587   2.263   4.956
19746SOL    HW160679   6.502   2.289   4.992
19746SOL    HW260680   6.567   2.231   4.868
19747SOL     OW60681   6.639   2.582   4.139
19747SOL    HW160682   6.664   2.581   4.232
19747SOL    HW260683   6.561   2.528   4.134
19748SOL     OW60684   5.685   2.690   4.489
19748SOL    HW160685   5.755   2.684   4.554
19748SOL    HW260686   5.627   2.759   4.522
19749SOL     OW60687   5.696   3.686   5.285
19749SOL    HW160688   5.691   3.683   5.380
19749SOL    HW260689   5.605   3.681   5.256
19750SOL     OW60690   6.493   2.211   3.922
19750SOL    HW160691   6.534   2.275   3.862
19750SOL    HW260692   6.487   2.131   3.870
19751SOL     OW60693   7.295   2.425   5.552
19751SOL    HW160694   7.258   2.502   5.509
19751SOL    HW260695   7.317   2.365   5.481
19752SOL     OW60696   6.970   3.004   4.264
19752SOL    HW160697   7.051   3.002   4.214
19752SOL    HW260698   6.914   3.066   4.216
19753SOL     OW60699   6.150   2.038   4.633
19753SOL    HW160700   6.148   2.062   4.726
19753SOL    HW260701   6.131   2.120   4.587
19754SOL     OW60702   6.576   3.311   4.184
19754SOL    HW160703   6.552   3.389   4.133
19754SOL    HW260704   6.544   3.330   4.272
19755SOL     OW60705   5.934   3.667   4.582
19755SOL    HW160706   5.981   3.587   4.603
19755SOL    HW260707   5.975   3.734   4.637
19756SOL     OW60708   7.379   2.898   4.597
19756SOL    HW160709   7.319   2.896   4.523
19756SOL    HW260710   7.323   2.916   4.673
19757SOL     OW60711   6.807   3.407   5.228
19757SOL    HW160712   6.789   3.334   5.287
19757SOL    HW260713   6.721   3.440   5.203
19758SOL     OW60714   5.894   2.800   3.971
19758SOL    HW160715   5.906   2.797   3.876
19758SOL    HW260716   5.847   2.719   3.991
19759SOL     OW60717   7.066   2.608   4.437
19759SOL    HW160718   7.065   2.575   4.526
19759SOL    HW260719   7.142   2.667   4.433
19760SOL     OW60720   6.051   3.121   5.435
19760SOL    HW160721   6.009   3.121   5.348
19760SOL    HW260722   5.978   3.124   5.496
19761SOL     OW60723   6.725   3.627   3.974
19761SOL    HW160724   6.637   3.600   4.002
19761SOL    HW260725   6.745   3.570   3.900
19762SOL     OW60726   5.783   2.142   5.234
19762SOL    HW160727   5.701   2.191   5.224
19762SOL    HW260728   5.757   2.058   5.271
19763SOL     OW60729   7.217   3.244   3.814
19763SOL    HW160730   7.178   3.330   3.802
19763SOL    HW260731   7.148   3.182   3.793
19764SOL     OW60732   6.987   1.968   4.168
19764SOL    HW160733   6.985   1.942   4.076
19764SOL    HW260734   7.080   1.979   4.188
19765SOL     OW60735   5.862   3.651   4.936
19765SOL    HW160736   5.895   3.573   4.980
19765SOL    HW260737   5.775   3.626   4.905
19766SOL     OW60738   6.594   3.538   4.582
19766SOL    HW160739   6.571   3.572   4.669
19766SOL    HW260740   6.514   3.494   4.553
19767SOL     OW60741   5.981   2.547   4.203
19767SOL    HW160742   6.000   2.454   4.219
19767SOL    HW260743   5.889   2.557   4.225
19768SOL     OW60744   7.112   2.081   5.443
19768SOL    HW160745   7.129   2.096   5.536
19768SOL    HW260746   7.033   2.028   5.442
19769SOL     OW60747   6.242   1.970   3.818
19769SOL    HW160748   6.307   1.900   3.813
19769SOL    HW260749   6.175   1.944   3.755
19770SOL     OW60750   6.346   2.135   5.476
19770SOL    HW160751   6.428   2.087   5.476
19770SOL    HW260752   6.299   2.104   5.553
19771SOL     OW60753   6.470   3.377   4.904
19771SOL    HW160754   6.448   3.333   4.822
19771SOL    HW260755   6.537   3.321   4.944
19772SOL     OW60756   6.928   2.447   5.156
19772SOL    HW160757   6.956   2.422   5.245
19772SOL    HW260758   6.956   2.538   5.147
19773SOL     OW60759   6.414   3.240   4.666
19773SOL    HW160760   6.499   3.230   4.623
19773SOL    HW260761   6.351   3.250   4.595
19774SOL     OW60762   6.535   2.373   4.618
19774SOL    HW160763   6.505   2.364   4.527
19774SOL    HW260764   6.551   2.283   4.646
19775SOL     OW60765   6.142   1.926   4.216
19775SOL    HW160766   6.065   1.927   4.273
19775SOL    HW260767   6.132   2.004   4.161
19776SOL     OW60768   7.011   3.068   3.760
19776SOL    HW160769   7.040   2.996   3.816
19776SOL    HW260770   6.927   3.095   3.798
19777SOL     OW60771   5.859   1.925   3.901
19777SOL    HW160772   5.914   1.994   3.864
19777SOL    HW260773   5.920   1.867   3.946
19778SOL     OW60774   6.530   2.097   4.174
19778SOL    HW160775   6.506   2.140   4.092
19778SOL    HW260776   6.621   2.122   4.189
19779SOL     OW60777   6.665   2.554   5.176
19779SOL    HW160778   6.589   2.496   5.184
19779SOL    HW260779   6.740   2.494   5.179
19780SOL     OW60780   6.826   3.411   4.519
19780SOL    HW160781   6.747   3.461   4.539
19780SOL    HW260782   6.883   3.424   4.595
19781SOL     OW60783   6.070   3.013   4.445
19781SOL    HW160784   6.004   2.998   4.512
19781SOL    HW260785   6.023   3.001   4.362
19782SOL     OW60786   6.613   2.395   3.752
19782SOL    HW160787   6.573   2.480   3.734
19782SOL    HW260788   6.679   2.414   3.819
19783SOL     OW60789   5.677   2.419   5.113
19783SOL    HW160790   5.769   2.425   5.089
19783SOL    HW260791   5.666   2.487   5.181
19784SOL     OW60792   6.144   2.085   4.905
19784SOL    HW160793   6.182   2.032   4.975
19784SOL    HW260794   6.051   2.089   4.925
19785SOL     OW60795   6.449   2.325   4.361
19785SOL    HW160796   6.362   2.364   4.348
19785SOL    HW260797   6.449   2.247   4.305
19786SOL     OW60798   6.626   1.912   4.468
19786SOL    HW160799   6.552   1.931   4.412
19786SOL    HW260800   6.596   1.841   4.525
19787SOL     OW60801   7.027   3.016   4.586
19787SOL    HW160802   6.955   2.954   4.600
19787SOL    HW260803   7.033   3.024   4.490
19788SOL     OW60804   7.051   2.470   4.680
19788SOL    HW160805   6.988   2.399   4.692
19788SOL    HW260806   7.106   2.467   4.758
19789SOL     OW60807   7.428   2.666   4.109
19789SOL    HW160808   7.487   2.619   4.168
19789SOL    HW260809   7.408   2.602   4.040
19790SOL     OW60810   6.064   3.286   3.880
19790SOL    HW160811   5.991   3.255   3.933
19790SOL    HW260812   6.051   3.243   3.795
19791SOL     OW60813   7.269   3.130   4.362
19791SOL    HW160814   7.362   3.128   4.384
19791SOL    HW260815   7.238   3.216   4.391
19792SOL     OW60816   6.977   2.437   3.794
19792SOL    HW160817   6.920   2.414   3.868
19792SOL    HW260818   7.066   2.419   3.826
19793SOL     OW60819   6.115   2.119   4.025
19793SOL    HW160820   6.163   2.075   3.954
19793SOL    HW260821   6.088   2.202   3.987
19794SOL     OW60822   7.327   3.105   5.271
19794SOL    HW160823   7.415   3.070   5.258
19794SOL    HW260824   7.342   3.193   5.306
19795SOL     OW60825   6.641   3.194   5.031
19795SOL    HW160826   6.564   3.178   5.086
19795SOL    HW260827   6.715   3.167   5.085
19796SOL     OW60828   7.199   3.490   5.385
19796SOL    HW160829   7.188   3.525   5.296
19796SOL    HW260830   7.279   3.438   5.381
19797SOL     OW60831   6.711   3.044   4.811
19797SOL    HW160832   6.673   3.094   4.883
19797SOL    HW260833   6.690   3.096   4.732
19798SOL     OW60834   7.210   2.963   4.803
19798SOL    HW160835   7.203   3.026   4.875
19798SOL    HW260836   7.135   2.982   4.747
19799SOL     OW60837   6.513   1.947   5.119
19799SOL    HW160838   6.534   1.940   5.026
19799SOL    HW260839   6.589   1.993   5.156
19800SOL     OW60840   6.570   2.977   5.453
19800SOL    HW160841   6.481   2.999   5.480
19800SOL    HW260842   6.560   2.898   5.400
19801SOL     OW60843   6.270   2.924   4.114
19801SOL    HW160844   6.178   2.949   4.128
19801SOL    HW260845   6.300   2.894   4.200
19802SOL     OW60846   6.005   2.690   4.980
19802SOL    HW160847   6.072   2.699   5.048
19802SOL    HW260848   5.969   2.602   4.992
19803SOL     OW60849   6.853   2.236   5.004
19803SOL    HW160850   6.883   2.314   5.051
19803SOL    HW260851   6.761   2.255   4.983
19804SOL     OW60852   5.662   3.434   5.055
19804SOL    HW160853   5.602   3.488   5.003
19804SOL    HW260854   5.721   3.497   5.097
19805SOL     OW60855   5.998   2.979   4.161
19805SOL    HW160856   5.947   3.056   4.135
19805SOL    HW260857   5.958   2.907   4.113
19806SOL     OW60858   6.140   2.377   4.574
19806SOL    HW160859   6.152   2.438   4.501
19806SOL    HW260860   6.198   2.410   4.643
19807SOL     OW60861   6.824   3.204   4.113
19807SOL    HW160862   6.884   3.273   4.142
19807SOL    HW260863   6.739   3.229   4.149
19808SOL     OW60864   6.874   3.322   4.882
19808SOL    HW160865   6.933   3.333   4.956
19808SOL    HW260866   6.796   3.280   4.919
19809SOL     OW60867   7.165   2.484   4.206
19809SOL    HW160868   7.113   2.522   4.277
19809SOL    HW260869   7.213   2.559   4.169
19810SOL     OW60870   5.954   3.401   5.034
19810SOL    HW160871   5.933   3.352   4.954
19810SOL    HW260872   6.049   3.410   5.031
19811SOL     OW60873   6.004   2.614   5.330
19811SOL    HW160874   6.072   2.650   5.272
19811SOL    HW260875   6.035   2.526   5.351
19812SOL     OW60876   7.200   2.639   5.414
19812SOL    HW160877   7.114   2.679   5.410
19812SOL    HW260878   7.251   2.683   5.346
19813SOL     OW60879   6.584   1.999   5.480
19813SOL    HW160880   6.640   2.075   5.462
19813SOL    HW260881   6.640   1.924   5.460
19814SOL     OW60882   6.077   1.894   5.479
19814SOL    HW160883   6.026   1.848   5.413
19814SOL    HW260884   6.025   1.972   5.500
19815SOL     OW60885   6.168   2.736   4.763
19815SOL    HW160886   6.200   2.826   4.760
19815SOL    HW260887   6.111   2.732   4.839
19816SOL     OW60888   6.919   2.719   4.726
19816SOL    HW160889   6.827   2.699   4.709
19816SOL    HW260890   6.964   2.635   4.717
19817SOL     OW60891   6.781   2.390   3.987
19817SOL    HW160892   6.789   2.313   4.043
19817SOL    HW260893   6.749   2.460   4.045
19818SOL     OW60894   5.881   2.062   4.968
19818SOL    HW160895   5.834   2.094   5.045
19818SOL    HW260896   5.865   1.968   4.967
19819SOL     OW60897   5.658   3.161   5.055
19819SOL    HW160898   5.565   3.153   5.073
19819SOL    HW260899   5.674   3.256   5.051
19820SOL     OW60900   6.296   2.491   4.767
19820SOL    HW160901   6.382   2.499   4.725
19820SOL    HW260902   6.260   2.579   4.764
19821SOL     OW60903   7.328   2.818   5.588
19821SOL    HW160904   7.281   2.752   5.537
19821SOL    HW260905   7.266   2.843   5.657
19822SOL     OW60906   5.902   1.931   4.346
19822SOL    HW160907   5.869   2.019   4.365
19822SOL    HW260908   5.904   1.887   4.431
19823SOL     OW60909   7.209   2.248   4.077
19823SOL    HW160910   7.238   2.184   4.141
19823SOL    HW260911   7.185   2.325   4.128
19824SOL     OW60912   6.633   2.618   4.683
19824SOL    HW160913   6.614   2.635   4.775
19824SOL    HW260914   6.603   2.528   4.669
19825SOL     OW60915   6.578   3.436   5.451
19825SOL    HW160916   6.557   3.478   5.367
19825SOL    HW260917   6.607   3.348   5.427
19826SOL     OW60918   7.436   3.357   5.324
19826SOL    HW160919   7.458   3.389   5.237
19826SOL    HW260920   7.515   3.372   5.376
19827SOL     OW60921   5.945   2.782   5.544
19827SOL    HW160922   6.026   2.800   5.590
19827SOL    HW260923   5.970   2.723   5.473
19828SOL     OW60924   7.115   2.128   3.847
19828SOL    HW160925   7.055   2.063   3.882
19828SOL    HW260926   7.150   2.173   3.924
19829SOL     OW60927   6.859   2.683   3.753
19829SOL    HW160928   6.905   2.600   3.757
19829SOL    HW260929   6.891   2.725   3.673
19830SOL     OW60930   6.662   3.188   4.569
19830SOL    HW160931   6.664   3.119   4.503
19830SOL    HW260932   6.723   3.254   4.537
19831SOL     OW60933   5.894   2.668   4.668
19831SOL    HW160934   5.986   2.693   4.682
19831SOL    HW260935   5.889   2.578   4.702
19832SOL     OW60936   5.918   2.389   4.736
19832SOL    HW160937   5.877   2.303   4.724
19832SOL    HW260938   5.993   2.388   4.675
19833SOL     OW60939   6.723   2.232   5.413
19833SOL    HW160940   6.672   2.285   5.474
19833SOL    HW260941   6.808   2.275   5.409
19834SOL     OW60942   6.753   2.060   5.198
19834SOL    HW160943   6.737   2.121   5.270
19834SOL    HW260944   6.790   2.114   5.128
19835SOL     OW60945   5.606   3.169   3.901
19835SOL    HW160946   5.518   3.190   3.871
19835SOL    HW260947   5.596   3.086   3.948
19836SOL     OW60948   5.663   3.647   4.638
19836SOL    HW160949   5.630   3.563   4.606
19836SOL    HW260950   5.756   3.646   4.617
19837SOL     OW60951   6.090   3.447   4.629
19837SOL    HW160952   6.161   3.508   4.648
19837SOL    HW260953   6.132   3.375   4.581
19838SOL     OW60954   6.555   2.642   4.939
19838SOL    HW160955   6.615   2.626   5.013
19838SOL    HW260956   6.468   2.630   4.976
19839SOL     OW60957   5.621   2.402   4.844
19839SOL    HW160958   5.704   2.410   4.798
19839SOL    HW260959   5.644   2.410   4.937
19840SOL     OW60960   5.775   2.378   5.457
19840SOL    HW160961   5.798   2.320   5.384
19840SOL    HW260962   5.739   2.456   5.415
19841SOL     OW60963   6.974   2.786   5.378
19841SOL    HW160964   6.991   2.880   5.377
19841SOL    HW260965   6.964   2.762   5.285
19842SOL     OW60966   6.413   2.481   4.017
19842SOL    HW160967   6.416   2.386   4.002
19842SOL    HW260968   6.319   2.501   4.025
19843SOL     OW60969   7.224   2.463   4.890
19843SOL    HW160970   7.209   2.414   4.971
19843SOL    HW260971   7.313   2.440   4.864
19844SOL     OW60972   5.848   3.415   5.454
19844SOL    HW160973   5.814   3.486   5.508
19844SOL    HW260974   5.834   3.336   5.506
19845SOL     OW60975   6.309   2.306   4.968
19845SOL    HW160976   6.243   2.238   4.954
19845SOL    HW260977   6.292   2.370   4.899
19846SOL     OW60978   6.557   3.527   5.178
19846SOL    HW160979   6.501   3.493   5.108
19846SOL    HW260980   6.554   3.622   5.168
19847SOL     OW60981   6.050   2.355   3.905
19847SOL    HW160982   6.097   2.432   3.937
19847SOL    HW260983   5.960   2.386   3.893
19848SOL     OW60984   6.908   2.897   4.934
19848SOL    HW160985   6.925   2.836   4.862
19848SOL    HW260986   6.837   2.953   4.901
19849SOL     OW60987   6.916   2.713   4.025
19849SOL    HW160988   6.841   2.698   4.083
19849SOL    HW260989   6.881   2.701   3.936
19850SOL     OW60990   7.345   3.601   4.862
19850SOL    HW160991   7.418   3.625   4.805
19850SOL    HW260992   7.333   3.507   4.848
19851SOL     OW60993   6.839   3.590   4.800
19851SOL    HW160994   6.928   3.611   4.773
19851SOL    HW260995   6.845   3.503   4.840
19852SOL     OW60996   5.689   3.116   4.771
19852SOL    HW160997   5.683   3.123   4.866
19852SOL    HW260998   5.601   3.135   4.739
19853SOL     OW60999   6.253   3.539   5.464
19853SOL    HW161000   6.185   3.606   5.473
19853SOL    HW261001   6.306   3.568   5.389
19854SOL     OW61002   7.306   2.024   4.224
19854SOL    HW161003   7.376   2.009   4.160
19854SOL    HW261004   7.292   1.939   4.265
19855SOL     OW61005   6.983   3.416   4.191
19855SOL    HW161006   7.051   3.448   4.131
19855SOL    HW261007   6.923   3.489   4.202
19856SOL     OW61008   5.735   3.650   5.557
19856SOL    HW161009   5.682   3.588   5.606
19856SOL    HW261010   5.774   3.707   5.623
19857SOL     OW61011   6.864   2.789   4.386
19857SOL    HW161012   6.939   2.732   4.402
19857SOL    HW261013   6.901   2.864   4.339
19858SOL     OW61014   6.387   3.146   5.147
19858SOL    HW161015   6.362   3.186   5.230
19858SOL    HW261016   6.317   3.170   5.086
19859SOL     OW61017   6.225   3.503   3.891
19859SOL    HW161018   6.245   3.517   3.798
19859SOL    HW261019   6.178   3.420   3.893
19860SOL     OW61020   7.209   3.589   5.115
19860SOL    HW161021   7.255   3.596   5.032
19860SOL    HW261022   7.196   3.679   5.144
19861SOL     OW61023   7.429   2.027   4.705
19861SOL    HW161024   7.456   1.941   4.673
19861SOL    HW261025   7.343   2.041   4.667
19862SOL     OW61026   5.833   2.181   4.432
19862SOL    HW161027   5.745   2.212   4.410
19862SOL    HW261028   5.832   2.174   4.528
19863SOL     OW61029   6.797   3.465   3.762
19863SOL    HW161030   6.784   3.373   3.786
19863SOL    HW261031   6.730   3.482   3.695
19864SOL     OW61032   6.411   2.876   5.098
19864SOL    HW161033   6.443   2.883   5.008
19864SOL    HW261034   6.400   2.967   5.126
19865SOL     OW61035   7.077   3.491   3.770
19865SOL    HW161036   6.983   3.483   3.756
19865SOL    HW261037   7.114   3.498   3.682
19866SOL     OW61038   5.909   3.161   5.195
19866SOL    HW161039   5.940   3.251   5.181
19866SOL    HW261040   5.831   3.154   5.140
19867SOL     OW61041   7.194   3.151   5.008
19867SOL    HW161042   7.246   3.132   5.086
19867SOL    HW261043   7.131   3.218   5.036
19868SOL     OW61044   6.645   2.962   4.417
19868SOL    HW161045   6.578   2.919   4.470
19868SOL    HW261046   6.714   2.896   4.406
19869SOL     OW61047   6.619   2.105   4.686
19869SOL    HW161048   6.624   2.054   4.606
19869SOL    HW261049   6.608   2.040   4.756
19870SOL     OW61050   6.151   3.367   4.184
19870SOL    HW161051   6.199   3.309   4.124
19870SOL    HW261052   6.061   3.335   4.181
19871SOL     OW61053   7.323   2.245   5.089
19871SOL    HW161054   7.387   2.315   5.098
19871SOL    HW261055   7.367   2.179   5.035
19872SOL     OW61056   5.855   3.200   4.037
19872SOL    HW161057   5.769   3.197   3.995
19872SOL    HW261058   5.839   3.240   4.122
19873SOL     OW61059   5.700   2.859   5.435
19873SOL    HW161060   5.624   2.857   5.494
19873SOL    HW261061   5.775   2.844   5.493
19874SOL     OW61062   6.266   2.046   5.219
19874SOL    HW161063   6.354   2.026   5.186
19874SOL    HW261064   6.282   2.083   5.306
19875SOL     OW61065   5.670   2.176   3.746
19875SOL    HW161066   5.576   2.158   3.738
19875SOL    HW261067   5.682   2.262   3.707
19876SOL     OW61068   7.008   2.713   5.114
19876SOL    HW161069   6.957   2.775   5.061
19876SOL    HW261070   7.098   2.722   5.082
19877SOL     OW61071   5.637   2.014   4.032
19877SOL    HW161072   5.616   2.100   3.996
19877SOL    HW261073   5.718   1.988   3.988
19878SOL     OW61074   6.759   3.196   3.839
19878SOL    HW161075   6.664   3.186   3.834
19878SOL    HW261076   6.779   3.194   3.933
19879SOL     OW61077   6.213   2.688   5.157
19879SOL    HW161078   6.267   2.766   5.147
19879SOL    HW261079   6.276   2.617   5.168
19880SOL     OW61080   7.095   3.648   4.707
19880SOL    HW161081   7.115   3.728   4.659
19880SOL    HW261082   7.173   3.633   4.761
19881SOL     OW61083   6.313   2.417   5.415
19881SOL    HW161084   6.348   2.476   5.481
19881SOL    HW261085   6.319   2.330   5.455
19882SOL     OW61086   7.057   3.048   5.351
19882SOL    HW161087   7.042   3.069   5.443
19882SOL    HW261088   7.148   3.075   5.335
19883SOL     OW61089   5.957   3.608   5.291
19883SOL    HW161090   5.872   3.648   5.272
19883SOL    HW261091   5.935   3.528   5.339
19884SOL     OW61092   7.250   2.744   4.976
19884SOL    HW161093   7.243   2.662   4.926
19884SOL    HW261094   7.239   2.813   4.910
19885SOL     OW61095   6.800   2.180   4.179
19885SOL    HW161096   6.865   2.109   4.176
19885SOL    HW261097   6.825   2.232   4.255
19886SOL     OW61098   6.198   2.574   4.380
19886SOL    HW161099   6.226   2.665   4.385
19886SOL    HW261100   6.119   2.576   4.326
19887SOL     OW61101   7.335   2.227   5.363
19887SOL    HW161102   7.317   2.239   5.270
19887SOL    HW261103   7.265   2.170   5.394
19888SOL     OW61104   7.333   2.794   5.234
19888SOL    HW161105   7.319   2.887   5.251
19888SOL    HW261106   7.314   2.784   5.141
19889SOL     OW61107   6.471   3.227   3.781
19889SOL    HW161108   6.423   3.247   3.861
19889SOL    HW261109   6.472   3.310   3.732
19890SOL     OW61110   6.279   3.654   4.647
19890SOL    HW161111   6.233   3.736   4.630
19890SOL    HW261112   6.332   3.672   4.725
19891SOL     OW61113   6.466   2.837   4.587
19891SOL    HW161114   6.519   2.769   4.630
19891SOL    HW261115   6.423   2.883   4.659
19892SOL     OW61116   6.641   2.825   3.840
19892SOL    HW161117   6.623   2.892   3.774
19892SOL    HW261118   6.722   2.783   3.810
19893SOL     OW61119   7.424   3.410   4.565
19893SOL    HW161120   7.343   3.406   4.515
19893SOL    HW261121   7.401   3.371   4.650
19894SOL     OW61122   5.828   3.169   5.590
19894SOL    HW161123   5.738   3.143   5.570
19894SOL    HW261124   5.829   3.178   5.685
19895SOL     OW61125   5.691   3.087   4.406
19895SOL    HW161126   5.656   3.062   4.491
19895SOL    HW261127   5.706   3.004   4.361
19896SOL     OW61128   6.269   3.274   5.359
19896SOL    HW161129   6.189   3.230   5.386
19896SOL    HW261130   6.261   3.362   5.396
19897SOL     OW61131   7.463   2.019   4.976
19897SOL    HW161132   7.395   1.954   4.992
19897SOL    HW261133   7.457   2.037   4.882
19898SOL     OW61134   6.028   2.287   4.258
19898SOL    HW161135   6.031   2.216   4.193
19898SOL    HW261136   5.965   2.256   4.324
19899SOL     OW61137   7.294   3.336   4.804
19899SOL    HW161138   7.208   3.321   4.765
19899SOL    HW261139   7.297   3.278   4.880
19900SOL     OW61140   5.931   2.429   5.014
19900SOL    HW161141   5.978   2.365   5.066
19900SOL    HW261142   5.940   2.398   4.924
19901SOL     OW61143   6.416   3.423   4.387
19901SOL    HW161144   6.374   3.503   4.356
19901SOL    HW261145   6.344   3.365   4.411
19902SOL     OW61146   7.011   2.087   4.843
19902SOL    HW161147   7.006   1.999   4.880
19902SOL    HW261148   6.964   2.143   4.905
19903SOL     OW61149   6.600   1.883   4.857
19903SOL    HW161150   6.537   1.816   4.832
19903SOL    HW261151   6.685   1.840   4.852
19904SOL     OW61152   6.359   3.197   4.044
19904SOL    HW161153   6.340   3.106   4.066
19904SOL    HW261154   6.434   3.220   4.099
19905SOL     OW61155   6.224   3.414   5.011
19905SOL    HW161156   6.221   3.493   5.065
19905SOL    HW261157   6.312   3.416   4.972
19906SOL     OW61158   6.944   1.907   3.898
19906SOL    HW161159   6.978   1.829   3.853
19906SOL    HW261160   6.852   1.912   3.870
19907SOL     OW61161   6.876   2.325   4.397
19907SOL    HW161162   6.827   2.407   4.400
19907SOL    HW261163   6.875   2.293   4.487
19908SOL     OW61164   7.171   2.055   4.616
19908SOL    HW161165   7.115   2.080   4.690
19908SOL    HW261166   7.169   2.130   4.557
19909SOL     OW61167   5.636   2.929   4.036
19909SOL    HW161168   5.727   2.919   4.010
19909SOL    HW261169   5.607   2.841   4.057
19910SOL     OW61170   6.472   3.532   4.051
19910SOL    HW161171   6.391   3.515   4.003
19910SOL    HW261172   6.448   3.597   4.117
19911SOL     OW61173   5.805   2.468   5.723
19911SOL    HW161174   5.717   2.470   5.762
19911SOL    HW261175   5.789   2.454   5.629
19912SOL     OW61176   5.813   2.143   6.576
19912SOL    HW161177   5.837   2.112   6.664
19912SOL    HW261178   5.722   2.115   6.565
19913SOL     OW61179   5.573   2.243   6.230
19913SOL    HW161180   5.495   2.280   6.271
19913SOL    HW261181   5.541   2.166   6.184
19914SOL     OW61182   6.158   3.162   6.777
19914SOL    HW161183   6.074   3.166   6.732
19914SOL    HW261184   6.172   3.250   6.811
19915SOL     OW61185   7.158   3.382   6.297
19915SOL    HW161186   7.115   3.352   6.377
19915SOL    HW261187   7.088   3.386   6.232
19916SOL     OW61188   6.717   2.557   6.282
19916SOL    HW161189   6.764   2.638   6.263
19916SOL    HW261190   6.668   2.575   6.362
19917SOL     OW61191   7.382   2.455   5.807
19917SOL    HW161192   7.349   2.451   5.718
19917SOL    HW261193   7.331   2.390   5.855
19918SOL     OW61194   6.336   3.001   6.645
19918SOL    HW161195   6.267   3.038   6.699
19918SOL    HW261196   6.374   3.077   6.600
19919SOL     OW61197   6.458   2.619   7.410
19919SOL    HW161198   6.424   2.686   7.469
19919SOL    HW261199   6.479   2.667   7.330
19920SOL     OW61200   6.271   2.852   6.227
19920SOL    HW161201   6.338   2.853   6.296
19920SOL    HW261202   6.202   2.910   6.260
19921SOL     OW61203   6.302   3.018   7.408
19921SOL    HW161204   6.346   3.098   7.439
19921SOL    HW261205   6.221   3.049   7.368
19922SOL     OW61206   5.928   3.264   6.651
19922SOL    HW161207   5.848   3.227   6.614
19922SOL    HW261208   5.960   3.324   6.583
19923SOL     OW61209   7.042   3.365   6.953
19923SOL    HW161210   7.092   3.446   6.965
19923SOL    HW261211   6.966   3.376   7.011
19924SOL     OW61212   6.043   2.247   7.054
19924SOL    HW161213   6.110   2.180   7.065
19924SOL    HW261214   5.960   2.202   7.073
19925SOL     OW61215   7.194   2.304   6.344
19925SOL    HW161216   7.128   2.337   6.283
19925SOL    HW261217   7.178   2.352   6.425
19926SOL     OW61218   5.848   3.557   6.080
19926SOL    HW161219   5.851   3.642   6.124
19926SOL    HW261220   5.841   3.578   5.987
19927SOL     OW61221   6.724   3.201   7.278
19927SOL    HW161222   6.756   3.198   7.368
19927SOL    HW261223   6.670   3.122   7.270
19928SOL     OW61224   5.839   3.290   6.124
19928SOL    HW161225   5.831   3.385   6.125
19928SOL    HW261226   5.774   3.259   6.188
19929SOL     OW61227   5.874   2.952   6.490
19929SOL    HW161228   5.846   2.864   6.515
19929SOL    HW261229   5.808   3.010   6.528
19930SOL     OW61230   6.198   3.642   7.036
19930SOL    HW161231   6.110   3.628   7.069
19930SOL    HW261232   6.215   3.735   7.049
19931SOL     OW61233   6.167   2.845   5.722
19931SOL    HW161234   6.214   2.896   5.656
19931SOL    HW261235   6.200   2.878   5.806
19932SOL     OW61236   7.188   1.980   7.062
19932SOL    HW161237   7.221   2.059   7.019
19932SOL    HW261238   7.153   2.011   7.146
19933SOL     OW61239   5.715   2.510   6.152
19933SOL    HW161240   5.668   2.430   6.172
19933SOL    HW261241   5.701   2.567   6.227
19934SOL     OW61242   7.431   3.611   5.911
19934SOL    HW161243   7.496   3.588   5.977
19934SOL    HW261244   7.448   3.704   5.893
19935SOL     OW61245   5.642   3.444   5.704
19935SOL    HW161246   5.599   3.360   5.718
19935SOL    HW261247   5.618   3.497   5.781
19936SOL     OW61248   7.278   2.782   6.208
19936SOL    HW161249   7.349   2.737   6.163
19936SOL    HW261250   7.247   2.847   6.145
19937SOL     OW61251   7.236   2.970   6.007
19937SOL    HW161252   7.322   2.967   5.966
19937SOL    HW261253   7.242   3.039   6.073
19938SOL     OW61254   5.693   2.612   7.169
19938SOL    HW161255   5.775   2.662   7.170
19938SOL    HW261256   5.625   2.678   7.155
19939SOL     OW61257   6.210   3.256   6.321
19939SOL    HW161258   6.164   3.173   6.331
19939SOL    HW261259   6.189   3.285   6.233
19940SOL     OW61260   6.864   3.093   7.003
19940SOL    HW161261   6.890   3.024   6.942
19940SOL    HW261262   6.925   3.085   7.076
19941SOL     OW61263   6.408   1.863   6.102
19941SOL    HW161264   6.449   1.945   6.076
19941SOL    HW261265   6.314   1.882   6.105
19942SOL     OW61266   5.768   2.812   6.888
19942SOL    HW161267   5.852   2.779   6.855
19942SOL    HW261268   5.712   2.815   6.810
19943SOL     OW61269   7.121   2.861   5.783
19943SOL    HW161270   7.052   2.804   5.815
19943SOL    HW261271   7.158   2.901   5.861
19944SOL     OW61272   6.793   3.686   7.217
19944SOL    HW161273   6.780   3.746   7.143
19944SOL    HW261274   6.793   3.599   7.177
19945SOL     OW61275   5.936   2.110   7.433
19945SOL    HW161276   5.972   2.198   7.441
19945SOL    HW261277   5.841   2.122   7.440
19946SOL     OW61278   7.061   3.276   6.530
19946SOL    HW161279   6.991   3.293   6.593
19946SOL    HW261280   7.044   3.187   6.499
19947SOL     OW61281   7.241   3.622   6.159
19947SOL    HW161282   7.216   3.589   6.073
19947SOL    HW261283   7.218   3.551   6.219
19948SOL     OW61284   6.179   2.577   5.860
19948SOL    HW161285   6.178   2.662   5.818
19948SOL    HW261286   6.114   2.584   5.930
19949SOL     OW61287   6.867   2.223   6.515
19949SOL    HW161288   6.777   2.193   6.524
19949SOL    HW261289   6.916   2.169   6.578
19950SOL     OW61290   7.163   3.540   5.898
19950SOL    HW161291   7.255   3.561   5.887
19950SOL    HW261292   7.131   3.523   5.810
19951SOL     OW61293   6.392   2.474   7.026
19951SOL    HW161294   6.360   2.451   7.113
19951SOL    HW261295   6.351   2.410   6.967
19952SOL     OW61296   6.973   2.342   7.263
19952SOL    HW161297   6.973   2.386   7.348
19952SOL    HW261298   7.050   2.285   7.265
19953SOL     OW61299   6.529   2.750   7.174
19953SOL    HW161300   6.586   2.683   7.135
19953SOL    HW261301   6.486   2.791   7.099
19954SOL     OW61302   6.580   2.259   6.817
19954SOL    HW161303   6.491   2.278   6.846
19954SOL    HW261304   6.574   2.257   6.721
19955SOL     OW61305   6.641   2.557   6.010
19955SOL    HW161306   6.658   2.554   6.104
19955SOL    HW261307   6.556   2.515   6.000
19956SOL     OW61308   5.674   2.677   6.361
19956SOL    HW161309   5.749   2.678   6.420
19956SOL    HW261310   5.620   2.751   6.388
19957SOL     OW61311   5.711   3.742   7.165
19957SOL    HW161312   5.710   3.715   7.257
19957SOL    HW261313   5.623   3.720   7.133
19958SOL     OW61314   6.485   2.207   5.782
19958SOL    HW161315   6.525   2.273   5.725
19958SOL    HW261316   6.483   2.128   5.728
19959SOL     OW61317   7.289   2.431   7.417
19959SOL    HW161318   7.256   2.507   7.368
19959SOL    HW261319   7.316   2.369   7.350
19960SOL     OW61320   6.967   3.009   6.133
19960SOL    HW161321   7.046   3.009   6.080
19960SOL    HW261322   6.909   3.072   6.089
19961SOL     OW61323   6.139   2.032   6.488
19961SOL    HW161324   6.139   2.066   6.578
19961SOL    HW261325   6.133   2.110   6.433
19962SOL     OW61326   6.581   3.311   6.053
19962SOL    HW161327   6.554   3.385   5.999
19962SOL    HW261328   6.549   3.331   6.141
19963SOL     OW61329   5.937   3.677   6.451
19963SOL    HW161330   5.978   3.591   6.461
19963SOL    HW261331   6.004   3.739   6.480
19964SOL     OW61332   7.393   2.907   6.434
19964SOL    HW161333   7.329   2.876   6.369
19964SOL    HW261334   7.341   2.925   6.512
19965SOL     OW61335   6.811   3.403   7.097
19965SOL    HW161336   6.796   3.329   7.156
19965SOL    HW261337   6.731   3.409   7.045
19966SOL     OW61338   5.899   2.826   5.850
19966SOL    HW161339   5.974   2.843   5.793
19966SOL    HW261340   5.862   2.744   5.817
19967SOL     OW61341   7.078   2.623   6.301
19967SOL    HW161342   7.061   2.639   6.394
19967SOL    HW261343   7.154   2.677   6.280
19968SOL     OW61344   6.055   3.125   7.319
19968SOL    HW161345   6.027   3.135   7.228
19968SOL    HW261346   5.973   3.124   7.369
19969SOL     OW61347   6.723   3.636   5.823
19969SOL    HW161348   6.640   3.606   5.861
19969SOL    HW261349   6.741   3.573   5.753
19970SOL     OW61350   5.783   2.158   7.085
19970SOL    HW161351   5.725   2.230   7.059
19970SOL    HW261352   5.731   2.106   7.146
19971SOL     OW61353   7.218   3.241   5.675
19971SOL    HW161354   7.178   3.328   5.665
19971SOL    HW261355   7.147   3.180   5.656
19972SOL     OW61356   6.062   3.625   5.872
19972SOL    HW161357   6.093   3.663   5.954
19972SOL    HW261358   6.134   3.571   5.841
19973SOL     OW61359   6.986   1.965   6.034
19973SOL    HW161360   6.978   1.944   5.941
19973SOL    HW261361   7.079   1.983   6.047
19974SOL     OW61362   5.858   3.657   6.799
19974SOL    HW161363   5.889   3.572   6.829
19974SOL    HW261364   5.802   3.636   6.723
19975SOL     OW61365   6.528   3.565   6.476
19975SOL    HW161366   6.594   3.506   6.512
19975SOL    HW261367   6.488   3.515   6.404
19976SOL     OW61368   5.989   2.548   6.060
19976SOL    HW161369   6.002   2.455   6.077
19976SOL    HW261370   5.896   2.563   6.078
19977SOL     OW61371   7.105   2.083   7.308
19977SOL    HW161372   7.119   2.096   7.402
19977SOL    HW261373   7.011   2.066   7.300
19978SOL     OW61374   6.240   1.976   5.683
19978SOL    HW161375   6.288   1.896   5.706
19978SOL    HW261376   6.179   1.947   5.615
19979SOL     OW61377   6.348   2.137   7.341
19979SOL    HW161378   6.429   2.086   7.343
19979SOL    HW261379   6.299   2.108   7.418
19980SOL     OW61380   6.465   3.392   6.777
19980SOL    HW161381   6.442   3.350   6.694
19980SOL    HW261382   6.529   3.333   6.817
19981SOL     OW61383   6.920   2.448   7.010
19981SOL    HW161384   6.949   2.425   7.099
19981SOL    HW261385   6.954   2.536   6.996
19982SOL     OW61386   6.411   3.249   6.536
19982SOL    HW161387   6.493   3.237   6.490
19982SOL    HW261388   6.345   3.258   6.467
19983SOL     OW61389   6.522   2.354   6.490
19983SOL    HW161390   6.492   2.353   6.399
19983SOL    HW261391   6.550   2.264   6.507
19984SOL     OW61392   6.143   1.925   6.078
19984SOL    HW161393   6.064   1.926   6.133
19984SOL    HW261394   6.134   2.002   6.022
19985SOL     OW61395   7.010   3.067   5.623
19985SOL    HW161396   7.035   2.992   5.678
19985SOL    HW261397   6.925   3.094   5.658
19986SOL     OW61398   5.872   1.914   5.771
19986SOL    HW161399   5.925   1.986   5.737
19986SOL    HW261400   5.934   1.855   5.814
19987SOL     OW61401   6.530   2.105   6.037
19987SOL    HW161402   6.503   2.145   5.954
19987SOL    HW261403   6.622   2.128   6.046
19988SOL     OW61404   6.664   2.551   7.050
19988SOL    HW161405   6.588   2.493   7.040
19988SOL    HW261406   6.739   2.496   7.031
19989SOL     OW61407   6.813   3.429   6.376
19989SOL    HW161408   6.818   3.498   6.310
19989SOL    HW261409   6.871   3.459   6.446
19990SOL     OW61410   6.068   3.017   6.311
19990SOL    HW161411   6.004   2.999   6.380
19990SOL    HW261412   6.019   3.009   6.230
19991SOL     OW61413   6.846   3.652   6.202
19991SOL    HW161414   6.890   3.717   6.147
19991SOL    HW261415   6.771   3.699   6.239
19992SOL     OW61416   6.612   2.391   5.612
19992SOL    HW161417   6.564   2.472   5.594
19992SOL    HW261418   6.671   2.413   5.684
19993SOL     OW61419   5.680   2.408   6.989
19993SOL    HW161420   5.769   2.422   6.956
19993SOL    HW261421   5.665   2.481   7.049
19994SOL     OW61422   6.140   2.090   6.760
19994SOL    HW161423   6.178   2.023   6.817
19994SOL    HW261424   6.047   2.091   6.784
19995SOL     OW61425   6.450   2.313   6.229
19995SOL    HW161426   6.399   2.377   6.179
19995SOL    HW261427   6.468   2.242   6.167
19996SOL     OW61428   6.616   1.910   6.326
19996SOL    HW161429   6.551   1.920   6.257
19996SOL    HW261430   6.582   1.839   6.381
19997SOL     OW61431   7.013   3.028   6.428
19997SOL    HW161432   6.998   2.940   6.463
19997SOL    HW261433   6.991   3.021   6.335
19998SOL     OW61434   7.085   2.415   6.579
19998SOL    HW161435   6.997   2.383   6.563
19998SOL    HW261436   7.075   2.510   6.583
19999SOL     OW61437   7.435   2.668   5.977
19999SOL    HW161438   7.492   2.616   6.035
19999SOL    HW261439   7.409   2.607   5.908
20000SOL     OW61440   6.076   3.287   5.741
20000SOL    HW161441   6.004   3.262   5.800
20000SOL    HW261442   6.042   3.270   5.653
20001SOL     OW61443   7.271   3.146   6.200
20001SOL    HW161444   7.360   3.144   6.234
20001SOL    HW261445   7.231   3.224   6.239
20002SOL     OW61446   6.976   2.434   5.658
20002SOL    HW161447   6.909   2.416   5.724
20002SOL    HW261448   7.059   2.423   5.704
20003SOL     OW61449   6.110   2.119   5.889
20003SOL    HW161450   6.163   2.080   5.819
20003SOL    HW261451   6.083   2.204   5.854
20004SOL     OW61452   7.329   3.105   7.137
20004SOL    HW161453   7.417   3.070   7.123
20004SOL    HW261454   7.345   3.194   7.171
20005SOL     OW61455   6.629   3.214   6.916
20005SOL    HW161456   6.554   3.183   6.967
20005SOL    HW261457   6.705   3.174   6.958
20006SOL     OW61458   7.202   3.493   7.253
20006SOL    HW161459   7.187   3.525   7.164
20006SOL    HW261460   7.282   3.439   7.246
20007SOL     OW61461   6.731   3.084   6.687
20007SOL    HW161462   6.664   3.115   6.747
20007SOL    HW261463   6.701   3.112   6.600
20008SOL     OW61464   7.251   2.987   6.655
20008SOL    HW161465   7.224   3.041   6.729
20008SOL    HW261466   7.173   2.936   6.633
20009SOL     OW61467   6.515   1.944   6.978
20009SOL    HW161468   6.529   1.934   6.884
20009SOL    HW261469   6.591   1.993   7.010
20010SOL     OW61470   6.569   2.974   7.319
20010SOL    HW161471   6.479   2.995   7.342
20010SOL    HW261472   6.562   2.898   7.262
20011SOL     OW61473   6.298   2.924   5.955
20011SOL    HW161474   6.279   2.903   6.046
20011SOL    HW261475   6.371   2.867   5.931
20012SOL     OW61476   6.011   2.684   6.836
20012SOL    HW161477   6.077   2.694   6.905
20012SOL    HW261478   5.973   2.598   6.852
20013SOL     OW61479   6.845   2.227   6.871
20013SOL    HW161480   6.877   2.309   6.910
20013SOL    HW261481   6.754   2.246   6.847
20014SOL     OW61482   5.652   3.437   6.948
20014SOL    HW161483   5.606   3.499   6.891
20014SOL    HW261484   5.745   3.453   6.929
20015SOL     OW61485   5.928   2.985   6.078
20015SOL    HW161486   5.909   3.066   6.031
20015SOL    HW261487   5.922   2.917   6.011
20016SOL     OW61488   6.137   2.385   6.445
20016SOL    HW161489   6.148   2.443   6.369
20016SOL    HW261490   6.201   2.417   6.509
20017SOL     OW61491   6.829   3.214   5.982
20017SOL    HW161492   6.884   3.285   6.014
20017SOL    HW261493   6.741   3.235   6.013
20018SOL     OW61494   6.880   3.323   6.729
20018SOL    HW161495   6.926   3.323   6.813
20018SOL    HW261496   6.826   3.244   6.732
20019SOL     OW61497   7.159   2.487   6.068
20019SOL    HW161498   7.115   2.518   6.147
20019SOL    HW261499   7.174   2.567   6.017
20020SOL     OW61500   5.930   3.400   6.885
20020SOL    HW161501   5.917   3.345   6.807
20020SOL    HW261502   6.025   3.409   6.893
20021SOL     OW61503   6.011   2.613   7.196
20021SOL    HW161504   6.071   2.656   7.136
20021SOL    HW261505   6.044   2.524   7.203
20022SOL     OW61506   7.200   2.644   7.276
20022SOL    HW161507   7.113   2.684   7.267
20022SOL    HW261508   7.252   2.683   7.206
20023SOL     OW61509   6.587   1.999   7.356
20023SOL    HW161510   6.637   2.076   7.332
20023SOL    HW261511   6.638   1.925   7.323
20024SOL     OW61512   6.072   1.889   7.348
20024SOL    HW161513   6.026   1.846   7.276
20024SOL    HW261514   6.021   1.968   7.366
20025SOL     OW61515   6.175   2.735   6.621
20025SOL    HW161516   6.196   2.828   6.614
20025SOL    HW261517   6.112   2.730   6.693
20026SOL     OW61518   6.781   2.388   5.845
20026SOL    HW161519   6.787   2.311   5.901
20026SOL    HW261520   6.741   2.455   5.900
20027SOL     OW61521   5.880   2.056   6.835
20027SOL    HW161522   5.834   2.089   6.912
20027SOL    HW261523   5.861   1.963   6.833
20028SOL     OW61524   5.676   3.176   6.863
20028SOL    HW161525   5.681   3.121   6.941
20028SOL    HW261526   5.653   3.263   6.896
20029SOL     OW61527   6.303   2.494   6.638
20029SOL    HW161528   6.382   2.497   6.585
20029SOL    HW261529   6.265   2.582   6.629
20030SOL     OW61530   7.330   2.816   7.453
20030SOL    HW161531   7.285   2.753   7.397
20030SOL    HW261532   7.265   2.840   7.519
20031SOL     OW61533   5.901   1.923   6.208
20031SOL    HW161534   5.870   2.012   6.225
20031SOL    HW261535   5.904   1.883   6.295
20032SOL     OW61536   7.214   2.251   5.941
20032SOL    HW161537   7.238   2.186   6.007
20032SOL    HW261538   7.184   2.327   5.992
20033SOL     OW61539   6.587   2.615   6.529
20033SOL    HW161540   6.596   2.633   6.622
20033SOL    HW261541   6.575   2.520   6.524
20034SOL     OW61542   6.581   3.437   7.308
20034SOL    HW161543   6.552   3.478   7.227
20034SOL    HW261544   6.611   3.350   7.282
20035SOL     OW61545   7.438   3.357   7.192
20035SOL    HW161546   7.456   3.389   7.104
20035SOL    HW261547   7.519   3.372   7.240
20036SOL     OW61548   5.941   2.764   7.416
20036SOL    HW161549   6.027   2.791   7.449
20036SOL    HW261550   5.961   2.709   7.340
20037SOL     OW61551   7.129   2.122   5.710
20037SOL    HW161552   7.059   2.064   5.740
20037SOL    HW261553   7.155   2.170   5.788
20038SOL     OW61554   6.866   2.684   5.607
20038SOL    HW161555   6.909   2.599   5.615
20038SOL    HW261556   6.902   2.722   5.527
20039SOL     OW61557   6.660   3.202   6.440
20039SOL    HW161558   6.667   3.129   6.378
20039SOL    HW261559   6.718   3.270   6.404
20040SOL     OW61560   5.889   2.666   6.533
20040SOL    HW161561   5.981   2.692   6.521
20040SOL    HW261562   5.894   2.577   6.566
20041SOL     OW61563   5.920   2.390   6.605
20041SOL    HW161564   5.877   2.305   6.589
20041SOL    HW261565   5.994   2.391   6.545
20042SOL     OW61566   6.721   2.229   7.283
20042SOL    HW161567   6.669   2.287   7.338
20042SOL    HW261568   6.804   2.276   7.270
20043SOL     OW61569   6.754   2.056   7.068
20043SOL    HW161570   6.736   2.122   7.135
20043SOL    HW261571   6.790   2.106   6.994
20044SOL     OW61572   5.593   3.166   5.765
20044SOL    HW161573   5.505   3.186   5.733
20044SOL    HW261574   5.585   3.080   5.806
20045SOL     OW61575   5.680   3.632   6.539
20045SOL    HW161576   5.643   3.561   6.488
20045SOL    HW261577   5.764   3.651   6.496
20046SOL     OW61578   6.076   3.438   6.491
20046SOL    HW161579   6.144   3.502   6.513
20046SOL    HW261580   6.120   3.377   6.431
20047SOL     OW61581   6.564   2.638   6.801
20047SOL    HW161582   6.622   2.634   6.877
20047SOL    HW261583   6.477   2.616   6.836
20048SOL     OW61584   5.618   2.388   6.715
20048SOL    HW161585   5.689   2.413   6.657
20048SOL    HW261586   5.651   2.404   6.803
20049SOL     OW61587   5.777   2.393   7.316
20049SOL    HW161588   5.826   2.355   7.242
20049SOL    HW261589   5.735   2.471   7.280
20050SOL     OW61590   6.971   2.788   7.237
20050SOL    HW161591   6.989   2.882   7.233
20050SOL    HW261592   6.962   2.761   7.146
20051SOL     OW61593   6.403   2.434   5.953
20051SOL    HW161594   6.399   2.359   5.894
20051SOL    HW261595   6.329   2.488   5.928
20052SOL     OW61596   7.246   2.453   6.819
20052SOL    HW161597   7.163   2.444   6.773
20052SOL    HW261598   7.312   2.431   6.754
20053SOL     OW61599   5.835   3.412   7.313
20053SOL    HW161600   5.805   3.481   7.372
20053SOL    HW261601   5.826   3.331   7.363
20054SOL     OW61602   6.305   2.304   6.832
20054SOL    HW161603   6.241   2.237   6.808
20054SOL    HW261604   6.295   2.371   6.764
20055SOL     OW61605   6.525   3.535   7.050
20055SOL    HW161606   6.488   3.495   6.971
20055SOL    HW261607   6.507   3.629   7.039
20056SOL     OW61608   6.047   2.351   5.763
20056SOL    HW161609   6.102   2.424   5.791
20056SOL    HW261610   5.959   2.389   5.756
20057SOL     OW61611   5.729   3.004   7.076
20057SOL    HW161612   5.727   2.960   7.161
20057SOL    HW261613   5.741   2.933   7.013
20058SOL     OW61614   6.903   2.898   6.801
20058SOL    HW161615   6.942   2.846   6.731
20058SOL    HW261616   6.840   2.955   6.756
20059SOL     OW61617   6.917   2.711   5.886
20059SOL    HW161618   6.848   2.701   5.952
20059SOL    HW261619   6.871   2.706   5.803
20060SOL     OW61620   7.373   3.588   6.752
20060SOL    HW161621   7.431   3.616   6.681
20060SOL    HW261622   7.339   3.503   6.724
20061SOL     OW61623   6.827   3.595   6.692
20061SOL    HW161624   6.909   3.618   6.650
20061SOL    HW261625   6.835   3.501   6.712
20062SOL     OW61626   5.689   3.117   6.602
20062SOL    HW161627   5.681   3.136   6.696
20062SOL    HW261628   5.599   3.121   6.569
20063SOL     OW61629   6.254   3.540   7.324
20063SOL    HW161630   6.186   3.606   7.335
20063SOL    HW261631   6.299   3.565   7.243
20064SOL     OW61632   7.312   2.023   6.090
20064SOL    HW161633   7.381   2.008   6.026
20064SOL    HW261634   7.296   1.938   6.129
20065SOL     OW61635   6.980   3.431   6.081
20065SOL    HW161636   7.034   3.468   6.010
20065SOL    HW261637   6.925   3.504   6.109
20066SOL     OW61638   5.731   3.651   7.423
20066SOL    HW161639   5.678   3.589   7.472
20066SOL    HW261640   5.773   3.705   7.490
20067SOL     OW61641   6.859   2.779   6.225
20067SOL    HW161642   6.936   2.728   6.250
20067SOL    HW261643   6.894   2.860   6.188
20068SOL     OW61644   6.377   3.141   7.014
20068SOL    HW161645   6.352   3.185   7.095
20068SOL    HW261646   6.306   3.161   6.953
20069SOL     OW61647   6.267   3.483   5.740
20069SOL    HW161648   6.270   3.501   5.646
20069SOL    HW261649   6.207   3.408   5.747
20070SOL     OW61650   7.206   3.589   6.985
20070SOL    HW161651   7.258   3.591   6.904
20070SOL    HW261652   7.192   3.680   7.007
20071SOL     OW61653   7.430   2.029   6.549
20071SOL    HW161654   7.451   1.941   6.517
20071SOL    HW261655   7.342   2.046   6.515
20072SOL     OW61656   5.833   2.172   6.294
20072SOL    HW161657   5.747   2.207   6.271
20072SOL    HW261658   5.835   2.173   6.390
20073SOL     OW61659   6.800   3.460   5.621
20073SOL    HW161660   6.784   3.370   5.650
20073SOL    HW261661   6.731   3.477   5.557
20074SOL     OW61662   6.411   2.874   6.958
20074SOL    HW161663   6.430   2.878   6.864
20074SOL    HW261664   6.399   2.966   6.983
20075SOL     OW61665   6.500   2.764   5.872
20075SOL    HW161666   6.562   2.804   5.811
20075SOL    HW261667   6.553   2.702   5.922
20076SOL     OW61668   7.078   3.487   5.635
20076SOL    HW161669   6.983   3.479   5.622
20076SOL    HW261670   7.113   3.495   5.546
20077SOL     OW61671   5.955   3.171   7.073
20077SOL    HW161672   5.936   3.249   7.021
20077SOL    HW261673   5.877   3.116   7.064
20078SOL     OW61674   7.205   3.160   6.874
20078SOL    HW161675   7.243   3.131   6.957
20078SOL    HW261676   7.137   3.223   6.900
20079SOL     OW61677   6.657   2.971   6.296
20079SOL    HW161678   6.581   2.928   6.336
20079SOL    HW261679   6.714   2.899   6.270
20080SOL     OW61680   6.619   2.098   6.545
20080SOL    HW161681   6.618   2.047   6.464
20080SOL    HW261682   6.606   2.033   6.614
20081SOL     OW61683   6.186   3.353   6.067
20081SOL    HW161684   6.217   3.308   5.989
20081SOL    HW261685   6.097   3.381   6.045
20082SOL     OW61686   7.306   2.222   6.984
20082SOL    HW161687   7.294   2.307   6.942
20082SOL    HW261688   7.350   2.169   6.918
20083SOL     OW61689   5.842   3.207   5.871
20083SOL    HW161690   5.750   3.202   5.847
20083SOL    HW261691   5.842   3.244   5.959
20084SOL     OW61692   5.709   2.899   7.328
20084SOL    HW161693   5.627   2.872   7.370
20084SOL    HW261694   5.777   2.848   7.372
20085SOL     OW61695   6.265   2.045   7.084
20085SOL    HW161696   6.351   2.032   7.044
20085SOL    HW261697   6.283   2.088   7.168
20086SOL     OW61698   5.671   2.173   5.613
20086SOL    HW161699   5.577   2.163   5.598
20086SOL    HW261700   5.693   2.256   5.572
20087SOL     OW61701   7.009   2.712   6.976
20087SOL    HW161702   6.956   2.769   6.921
20087SOL    HW261703   7.097   2.717   6.937
20088SOL     OW61704   5.642   2.013   5.888
20088SOL    HW161705   5.624   2.096   5.845
20088SOL    HW261706   5.726   1.984   5.852
20089SOL     OW61707   6.760   3.195   5.704
20089SOL    HW161708   6.666   3.177   5.700
20089SOL    HW261709   6.781   3.195   5.797
20090SOL     OW61710   6.213   2.690   7.021
20090SOL    HW161711   6.266   2.768   7.006
20090SOL    HW261712   6.276   2.618   7.026
20091SOL     OW61713   7.066   3.655   6.571
20091SOL    HW161714   7.086   3.722   6.506
20091SOL    HW261715   7.152   3.620   6.596
20092SOL     OW61716   6.309   2.417   7.275
20092SOL    HW161717   6.346   2.479   7.338
20092SOL    HW261718   6.320   2.331   7.316
20093SOL     OW61719   7.059   3.048   7.212
20093SOL    HW161720   7.044   3.072   7.304
20093SOL    HW261721   7.149   3.075   7.195
20094SOL     OW61722   5.954   3.606   7.153
20094SOL    HW161723   5.874   3.654   7.132
20094SOL    HW261724   5.924   3.526   7.197
20095SOL     OW61725   7.265   2.734   6.850
20095SOL    HW161726   7.264   2.640   6.832
20095SOL    HW261727   7.232   2.774   6.770
20096SOL     OW61728   6.800   2.181   6.041
20096SOL    HW161729   6.862   2.107   6.043
20096SOL    HW261730   6.825   2.234   6.116
20097SOL     OW61731   6.181   2.586   6.257
20097SOL    HW161732   6.216   2.675   6.247
20097SOL    HW261733   6.113   2.580   6.190
20098SOL     OW61734   7.343   2.208   7.253
20098SOL    HW161735   7.339   2.226   7.159
20098SOL    HW261736   7.263   2.159   7.272
20099SOL     OW61737   7.348   2.792   7.101
20099SOL    HW161738   7.325   2.884   7.116
20099SOL    HW261739   7.326   2.777   7.009
20100SOL     OW61740   6.465   3.222   5.639
20100SOL    HW161741   6.423   3.228   5.725
20100SOL    HW261742   6.459   3.311   5.604
20101SOL     OW61743   6.253   3.642   6.521
20101SOL    HW161744   6.228   3.733   6.505
20101SOL    HW261745   6.349   3.641   6.510
20102SOL     OW61746   6.455   2.844   6.437
20102SOL    HW161747   6.497   2.765   6.470
20102SOL    HW261748   6.415   2.885   6.515
20103SOL     OW61749   6.669   2.855   5.682
20103SOL    HW161750   6.642   2.908   5.607
20103SOL    HW261751   6.737   2.797   5.647
20104SOL     OW61752   7.423   3.420   6.434
20104SOL    HW161753   7.351   3.410   6.372
20104SOL    HW261754   7.395   3.369   6.510
20105SOL     OW61755   5.803   3.156   7.430
20105SOL    HW161756   5.760   3.085   7.382
20105SOL    HW261757   5.746   3.173   7.505
20106SOL     OW61758   5.681   3.093   6.264
20106SOL    HW161759   5.656   3.039   6.339
20106SOL    HW261760   5.747   3.040   6.218
20107SOL     OW61761   6.277   3.272   7.235
20107SOL    HW161762   6.193   3.232   7.256
20107SOL    HW261763   6.268   3.363   7.263
20108SOL     OW61764   7.408   2.028   6.822
20108SOL    HW161765   7.401   1.933   6.820
20108SOL    HW261766   7.417   2.054   6.731
20109SOL     OW61767   6.021   2.286   6.118
20109SOL    HW161768   6.035   2.216   6.054
20109SOL    HW261769   5.959   2.250   6.181
20110SOL     OW61770   7.285   3.342   6.672
20110SOL    HW161771   7.206   3.323   6.620
20110SOL    HW261772   7.282   3.278   6.743
20111SOL     OW61773   5.926   2.426   6.880
20111SOL    HW161774   5.981   2.365   6.928
20111SOL    HW261775   5.937   2.401   6.788
20112SOL     OW61776   6.421   3.440   6.257
20112SOL    HW161777   6.389   3.509   6.199
20112SOL    HW261778   6.347   3.380   6.267
20113SOL     OW61779   7.008   2.083   6.709
20113SOL    HW161780   7.035   2.012   6.767
20113SOL    HW261781   6.956   2.141   6.765
20114SOL     OW61782   6.595   1.872   6.716
20114SOL    HW161783   6.542   1.810   6.665
20114SOL    HW261784   6.682   1.832   6.718
20115SOL     OW61785   6.369   3.190   5.896
20115SOL    HW161786   6.338   3.102   5.915
20115SOL    HW261787   6.438   3.205   5.961
20116SOL     OW61788   6.210   3.415   6.881
20116SOL    HW161789   6.208   3.494   6.934
20116SOL    HW261790   6.295   3.417   6.837
20117SOL     OW61791   6.947   1.915   5.763
20117SOL    HW161792   6.977   1.846   5.704
20117SOL    HW261793   6.857   1.890   5.786
20118SOL     OW61794   6.877   2.326   6.260
20118SOL    HW161795   6.826   2.406   6.264
20118SOL    HW261796   6.875   2.290   6.349
20119SOL     OW61797   7.168   2.057   6.478
20119SOL    HW161798   7.113   2.084   6.552
20119SOL    HW261799   7.168   2.132   6.419
20120SOL     OW61800   5.630   2.926   5.896
20120SOL    HW161801   5.724   2.919   5.879
20120SOL    HW261802   5.603   2.836   5.918
20121SOL     OW61803   6.481   3.530   5.919
20121SOL    HW161804   6.406   3.511   5.862
20121SOL    HW261805   6.450   3.598   5.978
20122SOL     OW61806   5.806   2.459   7.588
20122SOL    HW161807   5.717   2.465   7.624
20122SOL    HW261808   5.793   2.458   7.493
20123SOL     OW61809   5.815   2.144   8.437
20123SOL    HW161810   5.838   2.110   8.524
20123SOL    HW261811   5.724   2.117   8.425
20124SOL     OW61812   5.574   2.242   8.091
20124SOL    HW161813   5.496   2.278   8.133
20124SOL    HW261814   5.543   2.164   8.046
20125SOL     OW61815   6.159   3.156   8.638
20125SOL    HW161816   6.076   3.160   8.591
20125SOL    HW261817   6.171   3.246   8.671
20126SOL     OW61818   7.163   3.378   8.155
20126SOL    HW161819   7.115   3.354   8.235
20126SOL    HW261820   7.095   3.385   8.088
20127SOL     OW61821   6.729   2.555   8.144
20127SOL    HW161822   6.774   2.638   8.128
20127SOL    HW261823   6.675   2.571   8.222
20128SOL     OW61824   7.380   2.459   7.668
20128SOL    HW161825   7.347   2.458   7.579
20128SOL    HW261826   7.336   2.385   7.711
20129SOL     OW61827   6.357   3.006   8.526
20129SOL    HW161828   6.278   3.038   8.568
20129SOL    HW261829   6.388   3.080   8.474
20130SOL     OW61830   6.464   2.623   9.279
20130SOL    HW161831   6.420   2.688   9.335
20130SOL    HW261832   6.480   2.668   9.197
20131SOL     OW61833   6.274   2.852   8.093
20131SOL    HW161834   6.338   2.856   8.164
20131SOL    HW261835   6.203   2.910   8.121
20132SOL     OW61836   6.300   3.019   9.268
20132SOL    HW161837   6.343   3.101   9.293
20132SOL    HW261838   6.218   3.046   9.228
20133SOL     OW61839   5.929   3.263   8.514
20133SOL    HW161840   5.849   3.225   8.479
20133SOL    HW261841   5.959   3.324   8.445
20134SOL     OW61842   7.046   3.359   8.819
20134SOL    HW161843   7.097   3.440   8.826
20134SOL    HW261844   6.971   3.374   8.876
20135SOL     OW61845   6.039   2.244   8.922
20135SOL    HW161846   6.104   2.173   8.925
20135SOL    HW261847   5.956   2.201   8.941
20136SOL     OW61848   7.181   2.301   8.189
20136SOL    HW161849   7.102   2.303   8.135
20136SOL    HW261850   7.189   2.389   8.224
20137SOL     OW61851   5.851   3.561   7.930
20137SOL    HW161852   5.859   3.646   7.975
20137SOL    HW261853   5.783   3.575   7.865
20138SOL     OW61854   6.722   3.199   9.140
20138SOL    HW161855   6.756   3.195   9.230
20138SOL    HW261856   6.670   3.120   9.130
20139SOL     OW61857   5.847   3.298   8.006
20139SOL    HW161858   5.836   3.392   7.997
20139SOL    HW261859   5.776   3.271   8.064
20140SOL     OW61860   5.885   2.948   8.366
20140SOL    HW161861   5.845   2.863   8.381
20140SOL    HW261862   5.818   3.011   8.393
20141SOL     OW61863   6.203   3.638   8.905
20141SOL    HW161864   6.111   3.628   8.931
20141SOL    HW261865   6.219   3.733   8.912
20142SOL     OW61866   6.178   2.841   7.584
20142SOL    HW161867   6.220   2.896   7.517
20142SOL    HW261868   6.208   2.877   7.667
20143SOL     OW61869   7.177   1.987   8.908
20143SOL    HW161870   7.220   2.042   8.842
20143SOL    HW261871   7.142   2.049   8.972
20144SOL     OW61872   5.719   2.504   8.014
20144SOL    HW161873   5.668   2.425   8.031
20144SOL    HW261874   5.700   2.561   8.089
20145SOL     OW61875   7.430   3.613   7.773
20145SOL    HW161876   7.496   3.590   7.838
20145SOL    HW261877   7.446   3.705   7.753
20146SOL     OW61878   5.636   3.454   7.578
20146SOL    HW161879   5.594   3.369   7.594
20146SOL    HW261880   5.620   3.503   7.659
20147SOL     OW61881   7.277   2.782   8.085
20147SOL    HW161882   7.348   2.737   8.040
20147SOL    HW261883   7.244   2.845   8.021
20148SOL     OW61884   7.232   2.970   7.880
20148SOL    HW161885   7.318   2.970   7.837
20148SOL    HW261886   7.240   3.033   7.951
20149SOL     OW61887   5.696   2.613   9.033
20149SOL    HW161888   5.776   2.663   9.025
20149SOL    HW261889   5.626   2.676   9.016
20150SOL     OW61890   6.206   3.254   8.186
20150SOL    HW161891   6.158   3.171   8.194
20150SOL    HW261892   6.186   3.285   8.098
20151SOL     OW61893   6.863   3.088   8.874
20151SOL    HW161894   6.893   3.027   8.808
20151SOL    HW261895   6.930   3.086   8.942
20152SOL     OW61896   6.408   1.863   7.963
20152SOL    HW161897   6.449   1.946   7.937
20152SOL    HW261898   6.314   1.883   7.967
20153SOL     OW61899   5.767   2.812   8.752
20153SOL    HW161900   5.849   2.780   8.713
20153SOL    HW261901   5.708   2.824   8.678
20154SOL     OW61902   7.121   2.861   7.649
20154SOL    HW161903   7.051   2.804   7.679
20154SOL    HW261904   7.158   2.900   7.728
20155SOL     OW61905   6.785   3.684   9.081
20155SOL    HW161906   6.777   3.748   9.010
20155SOL    HW261907   6.791   3.599   9.036
20156SOL     OW61908   5.926   2.111   9.298
20156SOL    HW161909   5.956   2.201   9.281
20156SOL    HW261910   5.831   2.120   9.307
20157SOL     OW61911   7.058   3.279   8.394
20157SOL    HW161912   6.989   3.299   8.456
20157SOL    HW261913   7.041   3.189   8.366
20158SOL     OW61914   7.239   3.625   8.020
20158SOL    HW161915   7.215   3.593   7.933
20158SOL    HW261916   7.220   3.552   8.078
20159SOL     OW61917   6.180   2.583   7.724
20159SOL    HW161918   6.176   2.666   7.676
20159SOL    HW261919   6.113   2.592   7.792
20160SOL     OW61920   6.871   2.241   8.389
20160SOL    HW161921   6.781   2.208   8.391
20160SOL    HW261922   6.919   2.180   8.446
20161SOL     OW61923   7.163   3.538   7.761
20161SOL    HW161924   7.255   3.560   7.748
20161SOL    HW261925   7.129   3.523   7.673
20162SOL     OW61926   6.383   2.480   8.894
20162SOL    HW161927   6.353   2.452   8.980
20162SOL    HW261928   6.348   2.415   8.833
20163SOL     OW61929   6.537   2.742   9.029
20163SOL    HW161930   6.584   2.666   8.995
20163SOL    HW261931   6.495   2.780   8.952
20164SOL     OW61932   6.589   2.254   8.675
20164SOL    HW161933   6.500   2.274   8.702
20164SOL    HW261934   6.582   2.230   8.582
20165SOL     OW61935   6.643   2.551   7.870
20165SOL    HW161936   6.657   2.547   7.965
20165SOL    HW261937   6.556   2.513   7.858
20166SOL     OW61938   5.670   2.666   8.225
20166SOL    HW161939   5.740   2.671   8.289
20166SOL    HW261940   5.615   2.742   8.243
20167SOL     OW61941   5.703   3.732   9.013
20167SOL    HW161942   5.691   3.705   9.104
20167SOL    HW261943   5.623   3.703   8.969
20168SOL     OW61944   6.492   2.207   7.644
20168SOL    HW161945   6.527   2.278   7.590
20168SOL    HW261946   6.492   2.131   7.586
20169SOL     OW61947   7.265   2.430   9.283
20169SOL    HW161948   7.242   2.503   9.226
20169SOL    HW261949   7.307   2.367   9.224
20170SOL     OW61950   6.965   3.004   7.988
20170SOL    HW161951   7.042   2.997   7.931
20170SOL    HW261952   6.908   3.068   7.946
20171SOL     OW61953   6.146   2.034   8.349
20171SOL    HW161954   6.142   2.075   8.435
20171SOL    HW261955   6.130   2.107   8.288
20172SOL     OW61956   6.584   3.314   7.919
20172SOL    HW161957   6.556   3.384   7.859
20172SOL    HW261958   6.545   3.338   8.003
20173SOL     OW61959   5.941   3.679   8.312
20173SOL    HW161960   5.980   3.592   8.324
20173SOL    HW261961   6.011   3.740   8.334
20174SOL     OW61962   7.381   2.896   8.331
20174SOL    HW161963   7.334   2.894   8.248
20174SOL    HW261964   7.313   2.909   8.397
20175SOL     OW61965   6.812   3.403   8.959
20175SOL    HW161966   6.795   3.326   9.013
20175SOL    HW261967   6.732   3.414   8.907
20176SOL     OW61968   5.902   2.819   7.710
20176SOL    HW161969   5.972   2.848   7.652
20176SOL    HW261970   5.862   2.745   7.664
20177SOL     OW61971   7.084   2.602   8.163
20177SOL    HW161972   7.073   2.580   8.256
20177SOL    HW261973   7.155   2.667   8.162
20178SOL     OW61974   6.051   3.122   9.184
20178SOL    HW161975   6.025   3.133   9.092
20178SOL    HW261976   5.968   3.122   9.232
20179SOL     OW61977   6.724   3.630   7.688
20179SOL    HW161978   6.639   3.603   7.722
20179SOL    HW261979   6.741   3.571   7.615
20180SOL     OW61980   5.783   2.141   8.959
20180SOL    HW161981   5.700   2.181   8.934
20180SOL    HW261982   5.760   2.051   8.983
20181SOL     OW61983   7.219   3.246   7.545
20181SOL    HW161984   7.179   3.331   7.530
20181SOL    HW261985   7.151   3.183   7.522
20182SOL     OW61986   6.085   3.645   7.715
20182SOL    HW161987   6.093   3.659   7.809
20182SOL    HW261988   6.139   3.568   7.697
20183SOL     OW61989   6.987   1.965   7.897
20183SOL    HW161990   6.975   1.944   7.804
20183SOL    HW261991   7.080   1.985   7.906
20184SOL     OW61992   5.858   3.654   8.656
20184SOL    HW161993   5.887   3.567   8.682
20184SOL    HW261994   5.797   3.638   8.583
20185SOL     OW61995   6.532   3.562   8.335
20185SOL    HW161996   6.609   3.509   8.354
20185SOL    HW261997   6.486   3.515   8.266
20186SOL     OW61998   5.993   2.544   7.930
20186SOL    HW161999   6.006   2.451   7.946
20186SOL    HW262000   5.899   2.558   7.942
20187SOL     OW62001   7.073   2.131   9.162
20187SOL    HW162002   7.091   2.130   9.255
20187SOL    HW262003   7.020   2.053   9.146
20188SOL     OW62004   6.238   1.972   7.548
20188SOL    HW162005   6.302   1.901   7.552
20188SOL    HW262006   6.176   1.946   7.481
20189SOL     OW62007   6.363   2.138   9.222
20189SOL    HW162008   6.440   2.081   9.215
20189SOL    HW262009   6.302   2.089   9.277
20190SOL     OW62010   6.465   3.389   8.640
20190SOL    HW162011   6.443   3.353   8.554
20190SOL    HW262012   6.532   3.328   8.674
20191SOL     OW62013   6.992   2.447   8.914
20191SOL    HW162014   7.076   2.450   8.868
20191SOL    HW262015   6.953   2.533   8.897
20192SOL     OW62016   6.409   3.247   8.396
20192SOL    HW162017   6.491   3.241   8.348
20192SOL    HW262018   6.342   3.257   8.329
20193SOL     OW62019   6.520   2.369   8.343
20193SOL    HW162020   6.492   2.364   8.251
20193SOL    HW262021   6.542   2.279   8.366
20194SOL     OW62022   6.143   1.925   7.942
20194SOL    HW162023   6.063   1.926   7.994
20194SOL    HW262024   6.135   2.002   7.886
20195SOL     OW62025   7.014   3.071   7.487
20195SOL    HW162026   7.035   2.993   7.539
20195SOL    HW262027   6.926   3.095   7.517
20196SOL     OW62028   5.871   1.915   7.631
20196SOL    HW162029   5.917   1.986   7.586
20196SOL    HW262030   5.941   1.864   7.672
20197SOL     OW62031   6.530   2.106   7.900
20197SOL    HW162032   6.503   2.144   7.816
20197SOL    HW262033   6.623   2.128   7.907
20198SOL     OW62034   6.652   2.483   8.925
20198SOL    HW162035   6.557   2.471   8.926
20198SOL    HW262036   6.671   2.515   8.836
20199SOL     OW62037   6.809   3.440   8.246
20199SOL    HW162038   6.812   3.500   8.172
20199SOL    HW262039   6.874   3.475   8.308
20200SOL     OW62040   6.068   3.013   8.175
20200SOL    HW162041   6.002   2.997   8.242
20200SOL    HW262042   6.019   3.007   8.092
20201SOL     OW62043   6.844   3.654   8.065
20201SOL    HW162044   6.889   3.716   8.008
20201SOL    HW262045   6.768   3.703   8.098
20202SOL     OW62046   6.606   2.396   7.475
20202SOL    HW162047   6.558   2.476   7.451
20202SOL    HW262048   6.672   2.427   7.538
20203SOL     OW62049   5.679   2.415   8.845
20203SOL    HW162050   5.770   2.423   8.817
20203SOL    HW262051   5.666   2.488   8.906
20204SOL     OW62052   6.148   2.094   8.624
20204SOL    HW162053   6.176   2.007   8.652
20204SOL    HW262054   6.055   2.097   8.647
20205SOL     OW62055   6.454   2.320   8.084
20205SOL    HW162056   6.402   2.379   8.029
20205SOL    HW262057   6.471   2.244   8.028
20206SOL     OW62058   6.617   1.918   8.190
20206SOL    HW162059   6.553   1.926   8.119
20206SOL    HW262060   6.585   1.845   8.243
20207SOL     OW62061   7.028   3.019   8.301
20207SOL    HW162062   6.943   2.978   8.291
20207SOL    HW262063   7.060   3.031   8.212
20208SOL     OW62064   7.046   2.476   8.415
20208SOL    HW162065   6.989   2.400   8.408
20208SOL    HW262066   7.102   2.457   8.491
20209SOL     OW62067   7.427   2.666   7.845
20209SOL    HW162068   7.490   2.617   7.898
20209SOL    HW262069   7.406   2.608   7.772
20210SOL     OW62070   6.075   3.282   7.602
20210SOL    HW162071   6.005   3.254   7.661
20210SOL    HW262072   6.045   3.255   7.515
20211SOL     OW62073   7.265   3.120   8.101
20211SOL    HW162074   7.360   3.119   8.115
20211SOL    HW262075   7.239   3.211   8.115
20212SOL     OW62076   6.977   2.435   7.517
20212SOL    HW162077   6.916   2.415   7.588
20212SOL    HW262078   7.064   2.423   7.556
20213SOL     OW62079   6.114   2.119   7.754
20213SOL    HW162080   6.163   2.077   7.683
20213SOL    HW262081   6.087   2.203   7.718
20214SOL     OW62082   7.336   3.099   9.026
20214SOL    HW162083   7.420   3.069   8.992
20214SOL    HW262084   7.350   3.191   9.047
20215SOL     OW62085   6.631   3.208   8.777
20215SOL    HW162086   6.555   3.180   8.827
20215SOL    HW262087   6.705   3.169   8.823
20216SOL     OW62088   7.203   3.489   9.114
20216SOL    HW162089   7.186   3.524   9.026
20216SOL    HW262090   7.284   3.438   9.104
20217SOL     OW62091   6.725   3.079   8.548
20217SOL    HW162092   6.659   3.112   8.608
20217SOL    HW262093   6.699   3.115   8.463
20218SOL     OW62094   7.193   2.949   8.525
20218SOL    HW162095   7.184   3.017   8.592
20218SOL    HW262096   7.125   2.968   8.462
20219SOL     OW62097   6.513   1.953   8.845
20219SOL    HW162098   6.530   1.939   8.752
20219SOL    HW262099   6.589   2.003   8.875
20220SOL     OW62100   6.567   2.968   9.181
20220SOL    HW162101   6.476   2.990   9.202
20220SOL    HW262102   6.561   2.893   9.122
20221SOL     OW62103   6.299   2.927   7.819
20221SOL    HW162104   6.277   2.903   7.909
20221SOL    HW262105   6.376   2.874   7.799
20222SOL     OW62106   6.013   2.682   8.696
20222SOL    HW162107   6.073   2.694   8.769
20222SOL    HW262108   5.974   2.596   8.711
20223SOL     OW62109   6.850   2.230   8.744
20223SOL    HW162110   6.879   2.317   8.772
20223SOL    HW262111   6.761   2.244   8.714
20224SOL     OW62112   5.655   3.427   8.802
20224SOL    HW162113   5.605   3.488   8.748
20224SOL    HW262114   5.746   3.450   8.785
20225SOL     OW62115   5.938   2.981   7.935
20225SOL    HW162116   5.920   3.060   7.884
20225SOL    HW262117   5.928   2.909   7.872
20226SOL     OW62118   6.141   2.391   8.317
20226SOL    HW162119   6.148   2.444   8.237
20226SOL    HW262120   6.206   2.428   8.376
20227SOL     OW62121   6.829   3.210   7.852
20227SOL    HW162122   6.884   3.284   7.877
20227SOL    HW262123   6.741   3.236   7.878
20228SOL     OW62124   6.880   3.325   8.596
20228SOL    HW162125   6.930   3.325   8.678
20228SOL    HW262126   6.819   3.252   8.605
20229SOL     OW62127   7.168   2.480   7.926
20229SOL    HW162128   7.121   2.517   8.001
20229SOL    HW262129   7.193   2.556   7.874
20230SOL     OW62130   5.935   3.396   8.747
20230SOL    HW162131   5.920   3.344   8.669
20230SOL    HW262132   6.030   3.406   8.751
20231SOL     OW62133   6.004   2.615   9.059
20231SOL    HW162134   6.070   2.652   9.000
20231SOL    HW262135   6.007   2.521   9.042
20232SOL     OW62136   7.170   2.608   9.106
20232SOL    HW162137   7.096   2.668   9.109
20232SOL    HW262138   7.236   2.654   9.055
20233SOL     OW62139   6.589   1.982   9.197
20233SOL    HW162140   6.634   2.026   9.125
20233SOL    HW262141   6.625   1.893   9.197
20234SOL     OW62142   6.071   1.897   9.212
20234SOL    HW162143   6.027   1.848   9.142
20234SOL    HW262144   6.014   1.973   9.228
20235SOL     OW62145   6.185   2.733   8.489
20235SOL    HW162146   6.171   2.821   8.453
20235SOL    HW262147   6.115   2.723   8.554
20236SOL     OW62148   6.920   2.715   8.472
20236SOL    HW162149   6.840   2.711   8.419
20236SOL    HW262150   6.966   2.633   8.453
20237SOL     OW62151   6.792   2.384   7.712
20237SOL    HW162152   6.792   2.306   7.767
20237SOL    HW262153   6.747   2.451   7.764
20238SOL     OW62154   5.889   2.058   8.694
20238SOL    HW162155   5.833   2.087   8.767
20238SOL    HW262156   5.873   1.964   8.688
20239SOL     OW62157   5.674   3.169   8.724
20239SOL    HW162158   5.680   3.120   8.806
20239SOL    HW262159   5.653   3.258   8.750
20240SOL     OW62160   6.326   2.503   8.514
20240SOL    HW162161   6.384   2.493   8.439
20240SOL    HW262162   6.281   2.586   8.498
20241SOL     OW62163   7.325   2.814   9.310
20241SOL    HW162164   7.271   2.813   9.231
20241SOL    HW262165   7.263   2.828   9.381
20242SOL     OW62166   5.899   1.924   8.067
20242SOL    HW162167   5.866   2.012   8.084
20242SOL    HW262168   5.904   1.883   8.154
20243SOL     OW62169   7.211   2.242   7.804
20243SOL    HW162170   7.242   2.181   7.871
20243SOL    HW262171   7.187   2.321   7.852
20244SOL     OW62172   6.620   2.614   8.408
20244SOL    HW162173   6.621   2.621   8.504
20244SOL    HW262174   6.589   2.525   8.391
20245SOL     OW62175   6.576   3.432   9.171
20245SOL    HW162176   6.550   3.476   9.090
20245SOL    HW262177   6.613   3.348   9.141
20246SOL     OW62178   7.439   3.358   9.048
20246SOL    HW162179   7.459   3.386   8.958
20246SOL    HW262180   7.521   3.375   9.096
20247SOL     OW62181   5.940   2.763   9.280
20247SOL    HW162182   6.027   2.793   9.306
20247SOL    HW262183   5.955   2.707   9.204
20248SOL     OW62184   7.119   2.118   7.574
20248SOL    HW162185   7.050   2.063   7.611
20248SOL    HW262186   7.153   2.167   7.649
20249SOL     OW62187   6.876   2.689   7.473
20249SOL    HW162188   6.915   2.601   7.474
20249SOL    HW262189   6.905   2.726   7.389
20250SOL     OW62190   6.667   3.208   8.310
20250SOL    HW162191   6.669   3.137   8.246
20250SOL    HW262192   6.719   3.278   8.271
20251SOL     OW62193   5.883   2.661   8.397
20251SOL    HW162194   5.969   2.680   8.359
20251SOL    HW262195   5.891   2.571   8.431
20252SOL     OW62196   5.922   2.388   8.472
20252SOL    HW162197   5.877   2.306   8.454
20252SOL    HW262198   5.996   2.389   8.412
20253SOL     OW62199   6.751   2.310   9.112
20253SOL    HW162200   6.696   2.323   9.189
20253SOL    HW262201   6.712   2.368   9.046
20254SOL     OW62202   6.744   2.079   8.951
20254SOL    HW162203   6.742   2.157   9.007
20254SOL    HW262204   6.783   2.109   8.869
20255SOL     OW62205   5.618   3.165   7.633
20255SOL    HW162206   5.530   3.183   7.599
20255SOL    HW262207   5.609   3.081   7.679
20256SOL     OW62208   5.689   3.631   8.410
20256SOL    HW162209   5.648   3.561   8.358
20256SOL    HW262210   5.769   3.652   8.362
20257SOL     OW62211   6.080   3.440   8.357
20257SOL    HW162212   6.149   3.503   8.378
20257SOL    HW262213   6.120   3.380   8.294
20258SOL     OW62214   6.578   2.627   8.688
20258SOL    HW162215   6.562   2.717   8.716
20258SOL    HW262216   6.492   2.587   8.684
20259SOL     OW62217   5.613   2.387   8.574
20259SOL    HW162218   5.681   2.414   8.513
20259SOL    HW262219   5.649   2.408   8.661
20260SOL     OW62220   5.779   2.384   9.173
20260SOL    HW162221   5.783   2.321   9.101
20260SOL    HW262222   5.744   2.464   9.133
20261SOL     OW62223   6.972   2.792   9.100
20261SOL    HW162224   6.993   2.885   9.101
20261SOL    HW262225   6.959   2.771   9.007
20262SOL     OW62226   6.400   2.437   7.816
20262SOL    HW162227   6.396   2.363   7.755
20262SOL    HW262228   6.327   2.493   7.790
20263SOL     OW62229   7.220   2.440   8.632
20263SOL    HW162230   7.226   2.371   8.698
20263SOL    HW262231   7.306   2.440   8.589
20264SOL     OW62232   5.843   3.411   9.175
20264SOL    HW162233   5.807   3.481   9.229
20264SOL    HW262234   5.825   3.331   9.224
20265SOL     OW62235   6.317   2.303   8.699
20265SOL    HW162236   6.253   2.235   8.678
20265SOL    HW262237   6.304   2.369   8.631
20266SOL     OW62238   6.527   3.532   8.910
20266SOL    HW162239   6.490   3.492   8.831
20266SOL    HW262240   6.510   3.626   8.901
20267SOL     OW62241   6.050   2.353   7.636
20267SOL    HW162242   6.102   2.430   7.659
20267SOL    HW262243   5.961   2.387   7.624
20268SOL     OW62244   5.731   3.005   8.942
20268SOL    HW162245   5.727   2.961   9.026
20268SOL    HW262246   5.741   2.934   8.878
20269SOL     OW62247   6.894   2.903   8.665
20269SOL    HW162248   6.914   2.840   8.595
20269SOL    HW262249   6.835   2.966   8.625
20270SOL     OW62250   6.911   2.712   7.747
20270SOL    HW162251   6.831   2.696   7.799
20270SOL    HW262252   6.882   2.707   7.656
20271SOL     OW62253   7.376   3.592   8.614
20271SOL    HW162254   7.434   3.620   8.544
20271SOL    HW262255   7.341   3.508   8.585
20272SOL     OW62256   6.830   3.597   8.559
20272SOL    HW162257   6.911   3.619   8.512
20272SOL    HW262258   6.837   3.503   8.576
20273SOL     OW62259   5.694   3.119   8.462
20273SOL    HW162260   5.678   3.134   8.555
20273SOL    HW262261   5.610   3.137   8.419
20274SOL     OW62262   6.256   3.544   9.185
20274SOL    HW162263   6.182   3.604   9.192
20274SOL    HW262264   6.295   3.564   9.100
20275SOL     OW62265   7.318   2.024   7.956
20275SOL    HW162266   7.383   2.009   7.887
20275SOL    HW262267   7.301   1.937   7.991
20276SOL     OW62268   6.984   3.431   7.946
20276SOL    HW162269   7.035   3.465   7.873
20276SOL    HW262270   6.925   3.503   7.969
20277SOL     OW62271   5.732   3.647   9.282
20277SOL    HW162272   5.680   3.583   9.330
20277SOL    HW262273   5.768   3.705   9.350
20278SOL     OW62274   6.872   2.782   8.112
20278SOL    HW162275   6.949   2.725   8.114
20278SOL    HW262276   6.901   2.859   8.063
20279SOL     OW62277   6.382   3.134   8.881
20279SOL    HW162278   6.355   3.179   8.960
20279SOL    HW262279   6.315   3.156   8.816
20280SOL     OW62280   6.273   3.470   7.598
20280SOL    HW162281   6.272   3.495   7.506
20280SOL    HW262282   6.209   3.399   7.604
20281SOL     OW62283   7.207   3.586   8.845
20281SOL    HW162284   7.260   3.590   8.766
20281SOL    HW262285   7.191   3.678   8.868
20282SOL     OW62286   7.428   2.028   8.423
20282SOL    HW162287   7.457   1.942   8.394
20282SOL    HW262288   7.343   2.041   8.380
20283SOL     OW62289   5.832   2.172   8.156
20283SOL    HW162290   5.746   2.206   8.132
20283SOL    HW262291   5.832   2.171   8.252
20284SOL     OW62292   6.799   3.461   7.483
20284SOL    HW162293   6.784   3.370   7.509
20284SOL    HW262294   6.732   3.477   7.416
20285SOL     OW62295   6.426   2.872   8.796
20285SOL    HW162296   6.404   2.889   8.704
20285SOL    HW262297   6.417   2.957   8.839
20286SOL     OW62298   6.515   2.779   7.756
20286SOL    HW162299   6.567   2.810   7.682
20286SOL    HW262300   6.562   2.702   7.789
20287SOL     OW62301   7.076   3.491   7.498
20287SOL    HW162302   6.982   3.481   7.483
20287SOL    HW262303   7.114   3.498   7.411
20288SOL     OW62304   5.958   3.172   8.937
20288SOL    HW162305   5.942   3.249   8.881
20288SOL    HW262306   5.880   3.118   8.925
20289SOL     OW62307   7.186   3.144   8.718
20289SOL    HW162308   7.269   3.147   8.765
20289SOL    HW262309   7.131   3.210   8.761
20290SOL     OW62310   6.657   2.976   8.171
20290SOL    HW162311   6.579   2.933   8.204
20290SOL    HW262312   6.703   2.908   8.121
20291SOL     OW62313   6.621   2.105   8.413
20291SOL    HW162314   6.618   2.060   8.328
20291SOL    HW262315   6.608   2.036   8.478
20292SOL     OW62316   6.188   3.356   7.934
20292SOL    HW162317   6.224   3.311   7.858
20292SOL    HW262318   6.098   3.376   7.910
20293SOL     OW62319   7.321   2.257   8.837
20293SOL    HW162320   7.395   2.318   8.832
20293SOL    HW262321   7.345   2.186   8.778
20294SOL     OW62322   5.866   3.194   7.760
20294SOL    HW162323   5.779   3.195   7.719
20294SOL    HW262324   5.854   3.240   7.843
20295SOL     OW62325   5.711   2.904   9.197
20295SOL    HW162326   5.628   2.875   9.236
20295SOL    HW262327   5.777   2.848   9.236
20296SOL     OW62328   6.265   2.050   8.951
20296SOL    HW162329   6.349   2.031   8.908
20296SOL    HW262330   6.289   2.097   9.031
20297SOL     OW62331   5.673   2.178   7.465
20297SOL    HW162332   5.583   2.167   7.436
20297SOL    HW262333   5.699   2.264   7.431
20298SOL     OW62334   6.993   2.719   8.839
20298SOL    HW162335   6.942   2.779   8.785
20298SOL    HW262336   7.082   2.725   8.803
20299SOL     OW62337   5.640   2.014   7.748
20299SOL    HW162338   5.619   2.095   7.702
20299SOL    HW262339   5.725   1.988   7.713
20300SOL     OW62340   6.758   3.194   7.564
20300SOL    HW162341   6.663   3.188   7.554
20300SOL    HW262342   6.773   3.190   7.658
20301SOL     OW62343   6.209   2.695   8.888
20301SOL    HW162344   6.261   2.772   8.865
20301SOL    HW262345   6.272   2.623   8.888
20302SOL     OW62346   7.065   3.652   8.427
20302SOL    HW162347   7.080   3.720   8.362
20302SOL    HW262348   7.153   3.622   8.451
20303SOL     OW62349   6.329   2.405   9.142
20303SOL    HW162350   6.345   2.466   9.214
20303SOL    HW262351   6.332   2.318   9.183
20304SOL     OW62352   7.065   3.047   9.079
20304SOL    HW162353   7.051   3.078   9.168
20304SOL    HW262354   7.155   3.074   9.058
20305SOL     OW62355   5.954   3.610   9.015
20305SOL    HW162356   5.874   3.655   8.988
20305SOL    HW262357   5.924   3.528   9.054
20306SOL     OW62358   7.238   2.739   8.710
20306SOL    HW162359   7.241   2.659   8.657
20306SOL    HW262360   7.228   2.810   8.645
20307SOL     OW62361   6.801   2.177   7.910
20307SOL    HW162362   6.863   2.104   7.906
20307SOL    HW262363   6.831   2.231   7.983
20308SOL     OW62364   6.179   2.591   8.128
20308SOL    HW162365   6.215   2.679   8.111
20308SOL    HW262366   6.114   2.579   8.059
20309SOL     OW62367   7.333   2.221   9.112
20309SOL    HW162368   7.334   2.239   9.018
20309SOL    HW262369   7.252   2.172   9.126
20310SOL     OW62370   7.327   2.788   8.970
20310SOL    HW162371   7.323   2.883   8.983
20310SOL    HW262372   7.309   2.776   8.877
20311SOL     OW62373   6.480   3.232   7.511
20311SOL    HW162374   6.425   3.245   7.588
20311SOL    HW262375   6.468   3.312   7.459
20312SOL     OW62376   6.259   3.644   8.393
20312SOL    HW162377   6.230   3.733   8.370
20312SOL    HW262378   6.352   3.643   8.370
20313SOL     OW62379   6.457   2.842   8.310
20313SOL    HW162380   6.502   2.766   8.346
20313SOL    HW262381   6.417   2.884   8.386
20314SOL     OW62382   6.668   2.849   7.546
20314SOL    HW162383   6.638   2.904   7.473
20314SOL    HW262384   6.738   2.796   7.509
20315SOL     OW62385   7.424   3.423   8.287
20315SOL    HW162386   7.347   3.413   8.230
20315SOL    HW262387   7.407   3.363   8.360
20316SOL     OW62388   5.799   3.154   9.293
20316SOL    HW162389   5.761   3.081   9.245
20316SOL    HW262390   5.737   3.170   9.364
20317SOL     OW62391   5.679   3.093   8.132
20317SOL    HW162392   5.644   3.029   8.194
20317SOL    HW262393   5.732   3.041   8.071
20318SOL     OW62394   6.279   3.270   9.101
20318SOL    HW162395   6.191   3.234   9.112
20318SOL    HW262396   6.271   3.362   9.123
20319SOL     OW62397   7.380   2.037   8.692
20319SOL    HW162398   7.396   1.943   8.701
20319SOL    HW262399   7.396   2.056   8.600
20320SOL     OW62400   6.031   2.282   7.990
20320SOL    HW162401   6.037   2.219   7.918
20320SOL    HW262402   5.961   2.246   8.046
20321SOL     OW62403   7.282   3.348   8.534
20321SOL    HW162404   7.203   3.333   8.482
20321SOL    HW262405   7.281   3.279   8.600
20322SOL     OW62406   5.931   2.426   8.745
20322SOL    HW162407   5.980   2.359   8.792
20322SOL    HW262408   5.936   2.399   8.653
20323SOL     OW62409   6.420   3.445   8.116
20323SOL    HW162410   6.398   3.518   8.059
20323SOL    HW262411   6.343   3.389   8.113
20324SOL     OW62412   7.009   2.085   8.568
20324SOL    HW162413   7.002   1.993   8.592
20324SOL    HW262414   6.960   2.131   8.636
20325SOL     OW62415   6.596   1.879   8.584
20325SOL    HW162416   6.536   1.817   8.543
20325SOL    HW262417   6.681   1.835   8.582
20326SOL     OW62418   6.360   3.196   7.765
20326SOL    HW162419   6.328   3.106   7.776
20326SOL    HW262420   6.436   3.200   7.823
20327SOL     OW62421   6.213   3.411   8.747
20327SOL    HW162422   6.211   3.491   8.800
20327SOL    HW262423   6.296   3.415   8.699
20328SOL     OW62424   6.935   1.915   7.630
20328SOL    HW162425   6.940   1.890   7.538
20328SOL    HW262426   6.853   1.876   7.661
20329SOL     OW62427   6.891   2.324   8.126
20329SOL    HW162428   6.840   2.405   8.122
20329SOL    HW262429   6.880   2.294   8.216
20330SOL     OW62430   7.172   2.060   8.337
20330SOL    HW162431   7.116   2.086   8.409
20330SOL    HW262432   7.171   2.135   8.277
20331SOL     OW62433   5.635   2.927   7.768
20331SOL    HW162434   5.727   2.914   7.747
20331SOL    HW262435   5.603   2.839   7.791
20332SOL     OW62436   6.479   3.528   7.780
20332SOL    HW162437   6.407   3.507   7.720
20332SOL    HW262438   6.444   3.597   7.836
20333SOL     OW62439   5.808   2.463   9.443
20333SOL    HW162440   5.718   2.472   9.473
20333SOL    HW262441   5.800   2.457   9.347
20334SOL     OW62442   5.810   2.151  10.303
20334SOL    HW162443   5.839   2.113  10.386
20334SOL    HW262444   5.722   2.116  10.290
20335SOL     OW62445   5.578   2.242   9.955
20335SOL    HW162446   5.496   2.273   9.993
20335SOL    HW262447   5.553   2.166   9.903
20336SOL     OW62448   6.156   3.161  10.500
20336SOL    HW162449   6.074   3.166  10.451
20336SOL    HW262450   6.171   3.251  10.530
20337SOL     OW62451   7.162   3.379  10.017
20337SOL    HW162452   7.114   3.354  10.096
20337SOL    HW262453   7.094   3.386   9.950
20338SOL     OW62454   6.728   2.557  10.006
20338SOL    HW162455   6.773   2.639   9.989
20338SOL    HW262456   6.676   2.573  10.085
20339SOL     OW62457   7.383   2.477   9.521
20339SOL    HW162458   7.343   2.475   9.434
20339SOL    HW262459   7.352   2.396   9.564
20340SOL     OW62460   6.341   3.004  10.371
20340SOL    HW162461   6.270   3.040  10.425
20340SOL    HW262462   6.374   3.079  10.322
20341SOL     OW62463   6.468   2.618  11.133
20341SOL    HW162464   6.444   2.687  11.194
20341SOL    HW262465   6.486   2.663  11.051
20342SOL     OW62466   6.274   2.852   9.956
20342SOL    HW162467   6.338   2.854  10.026
20342SOL    HW262468   6.204   2.911   9.985
20343SOL     OW62469   6.298   3.023  11.139
20343SOL    HW162470   6.341   3.107  11.157
20343SOL    HW262471   6.217   3.047  11.094
20344SOL     OW62472   5.921   3.270  10.376
20344SOL    HW162473   5.846   3.229  10.334
20344SOL    HW262474   5.960   3.325  10.308
20345SOL     OW62475   7.044   3.363  10.677
20345SOL    HW162476   7.097   3.443  10.685
20345SOL    HW262477   6.971   3.377  10.738
20346SOL     OW62478   6.039   2.252  10.791
20346SOL    HW162479   6.112   2.190  10.794
20346SOL    HW262480   5.961   2.197  10.804
20347SOL     OW62481   7.184   2.297  10.054
20347SOL    HW162482   7.105   2.310  10.001
20347SOL    HW262483   7.189   2.374  10.110
20348SOL     OW62484   5.807   3.578   9.775
20348SOL    HW162485   5.829   3.655   9.827
20348SOL    HW262486   5.875   3.574   9.708
20349SOL     OW62487   6.727   3.198  10.999
20349SOL    HW162488   6.776   3.185  11.080
20349SOL    HW262489   6.673   3.119  10.991
20350SOL     OW62490   5.825   3.317   9.859
20350SOL    HW162491   5.805   3.409   9.843
20350SOL    HW262492   5.756   3.287   9.919
20351SOL     OW62493   5.873   2.954  10.214
20351SOL    HW162494   5.853   2.864  10.240
20351SOL    HW262495   5.807   3.007  10.258
20352SOL     OW62496   6.196   3.644  10.757
20352SOL    HW162497   6.107   3.633  10.791
20352SOL    HW262498   6.215   3.737  10.770
20353SOL     OW62499   6.181   2.842   9.448
20353SOL    HW162500   6.221   2.898   9.381
20353SOL    HW262501   6.212   2.879   9.530
20354SOL     OW62502   7.198   1.978  10.783
20354SOL    HW162503   7.204   2.059  10.731
20354SOL    HW262504   7.160   2.006  10.866
20355SOL     OW62505   5.717   2.506   9.877
20355SOL    HW162506   5.672   2.422   9.889
20355SOL    HW262507   5.699   2.556   9.956
20356SOL     OW62508   7.425   3.617   9.637
20356SOL    HW162509   7.494   3.593   9.699
20356SOL    HW262510   7.444   3.708   9.614
20357SOL     OW62511   5.636   3.449   9.436
20357SOL    HW162512   5.590   3.366   9.440
20357SOL    HW262513   5.601   3.500   9.509
20358SOL     OW62514   7.278   2.783   9.946
20358SOL    HW162515   7.347   2.738   9.898
20358SOL    HW262516   7.243   2.846   9.882
20359SOL     OW62517   7.232   2.969   9.739
20359SOL    HW162518   7.318   2.971   9.697
20359SOL    HW262519   7.239   3.034   9.809
20360SOL     OW62520   5.705   2.611  10.898
20360SOL    HW162521   5.792   2.649  10.890
20360SOL    HW262522   5.645   2.683  10.880
20361SOL     OW62523   6.199   3.253  10.050
20361SOL    HW162524   6.154   3.168  10.052
20361SOL    HW262525   6.185   3.285   9.961
20362SOL     OW62526   6.866   3.091  10.733
20362SOL    HW162527   6.894   3.025  10.669
20362SOL    HW262528   6.931   3.085  10.803
20363SOL     OW62529   6.413   1.872   9.834
20363SOL    HW162530   6.450   1.955   9.803
20363SOL    HW262531   6.319   1.887   9.834
20364SOL     OW62532   5.768   2.815  10.607
20364SOL    HW162533   5.854   2.779  10.585
20364SOL    HW262534   5.717   2.804  10.526
20365SOL     OW62535   7.121   2.855   9.510
20365SOL    HW162536   7.050   2.800   9.544
20365SOL    HW262537   7.158   2.896   9.588
20366SOL     OW62538   6.768   3.679  10.942
20366SOL    HW162539   6.769   3.745  10.874
20366SOL    HW262540   6.784   3.596  10.895
20367SOL     OW62541   5.928   2.106  11.161
20367SOL    HW162542   5.968   2.193  11.169
20367SOL    HW262543   5.834   2.121  11.166
20368SOL     OW62544   7.057   3.280  10.254
20368SOL    HW162545   6.988   3.299  10.318
20368SOL    HW262546   7.041   3.190  10.227
20369SOL     OW62547   7.241   3.623   9.885
20369SOL    HW162548   7.219   3.595   9.796
20369SOL    HW262549   7.220   3.548   9.940
20370SOL     OW62550   6.182   2.588   9.588
20370SOL    HW162551   6.176   2.669   9.537
20370SOL    HW262552   6.113   2.597   9.654
20371SOL     OW62553   6.868   2.233  10.249
20371SOL    HW162554   6.778   2.202  10.254
20371SOL    HW262555   6.916   2.176  10.309
20372SOL     OW62556   7.162   3.537   9.623
20372SOL    HW162557   7.253   3.562   9.610
20372SOL    HW262558   7.128   3.522   9.535
20373SOL     OW62559   6.385   2.475  10.756
20373SOL    HW162560   6.355   2.449  10.843
20373SOL    HW262561   6.350   2.408  10.697
20374SOL     OW62562   6.978   2.339  10.988
20374SOL    HW162563   6.981   2.383  11.073
20374SOL    HW262564   7.032   2.261  10.999
20375SOL     OW62565   6.533   2.751  10.895
20375SOL    HW162566   6.588   2.683  10.857
20375SOL    HW262567   6.486   2.789  10.821
20376SOL     OW62568   6.584   2.263  10.539
20376SOL    HW162569   6.495   2.280  10.568
20376SOL    HW262570   6.575   2.235  10.448
20377SOL     OW62571   6.646   2.552   9.732
20377SOL    HW162572   6.659   2.549   9.826
20377SOL    HW262573   6.559   2.514   9.718
20378SOL     OW62574   5.669   2.660  10.098
20378SOL    HW162575   5.748   2.669  10.152
20378SOL    HW262576   5.618   2.739  10.116
20379SOL     OW62577   5.707   3.740  10.891
20379SOL    HW162578   5.708   3.713  10.983
20379SOL    HW262579   5.620   3.715  10.860
20380SOL     OW62580   6.480   2.212   9.507
20380SOL    HW162581   6.524   2.267   9.443
20380SOL    HW262582   6.421   2.157   9.454
20381SOL     OW62583   7.291   2.427  11.138
20381SOL    HW162584   7.256   2.504  11.092
20381SOL    HW262585   7.313   2.365  11.068
20382SOL     OW62586   6.967   3.004   9.849
20382SOL    HW162587   7.043   2.999   9.793
20382SOL    HW262588   6.909   3.068   9.807
20383SOL     OW62589   6.143   2.032  10.207
20383SOL    HW162590   6.142   2.074  10.293
20383SOL    HW262591   6.130   2.103  10.145
20384SOL     OW62592   6.586   3.315   9.779
20384SOL    HW162593   6.556   3.384   9.720
20384SOL    HW262594   6.548   3.338   9.864
20385SOL     OW62595   5.940   3.680  10.184
20385SOL    HW162596   5.986   3.597  10.190
20385SOL    HW262597   6.008   3.746  10.199
20386SOL     OW62598   7.388   2.898  10.184
20386SOL    HW162599   7.337   2.888  10.104
20386SOL    HW262600   7.323   2.912  10.253
20387SOL     OW62601   6.810   3.403  10.821
20387SOL    HW162602   6.799   3.325  10.875
20387SOL    HW262603   6.738   3.398  10.757
20388SOL     OW62604   5.900   2.815   9.571
20388SOL    HW162605   5.970   2.848   9.515
20388SOL    HW262606   5.863   2.741   9.522
20389SOL     OW62607   7.084   2.598  10.015
20389SOL    HW162608   7.072   2.573  10.107
20389SOL    HW262609   7.155   2.663  10.017
20390SOL     OW62610   6.050   3.131  11.054
20390SOL    HW162611   6.026   3.138  10.961
20390SOL    HW262612   5.966   3.129  11.099
20391SOL     OW62613   6.722   3.625   9.554
20391SOL    HW162614   6.636   3.597   9.584
20391SOL    HW262615   6.741   3.569   9.479
20392SOL     OW62616   5.791   2.129  10.810
20392SOL    HW162617   5.711   2.178  10.791
20392SOL    HW262618   5.760   2.044  10.841
20393SOL     OW62619   7.222   3.244   9.413
20393SOL    HW162620   7.184   3.330   9.395
20393SOL    HW262621   7.153   3.182   9.389
20394SOL     OW62622   6.051   3.596   9.627
20394SOL    HW162623   6.098   3.655   9.686
20394SOL    HW262624   6.119   3.563   9.568
20395SOL     OW62625   5.842   3.650  10.529
20395SOL    HW162626   5.890   3.570  10.550
20395SOL    HW262627   5.810   3.635  10.440
20396SOL     OW62628   6.530   3.560  10.199
20396SOL    HW162629   6.612   3.512  10.210
20396SOL    HW262630   6.484   3.513  10.129
20397SOL     OW62631   5.992   2.546   9.793
20397SOL    HW162632   6.008   2.452   9.806
20397SOL    HW262633   5.897   2.556   9.802
20398SOL     OW62634   7.103   2.083  11.030
20398SOL    HW162635   7.117   2.100  11.123
20398SOL    HW262636   7.026   2.026  11.029
20399SOL     OW62637   6.241   1.970   9.409
20399SOL    HW162638   6.287   1.888   9.425
20399SOL    HW262639   6.175   1.947   9.343
20400SOL     OW62640   6.350   2.140  11.070
20400SOL    HW162641   6.432   2.090  11.065
20400SOL    HW262642   6.302   2.101  11.143
20401SOL     OW62643   6.459   3.384  10.505
20401SOL    HW162644   6.442   3.351  10.417
20401SOL    HW262645   6.530   3.330  10.538
20402SOL     OW62646   6.922   2.449  10.740
20402SOL    HW162647   6.952   2.423  10.827
20402SOL    HW262648   6.954   2.539  10.730
20403SOL     OW62649   6.405   3.249  10.256
20403SOL    HW162650   6.489   3.241  10.211
20403SOL    HW262651   6.341   3.260  10.185
20404SOL     OW62652   6.521   2.371  10.205
20404SOL    HW162653   6.494   2.365  10.114
20404SOL    HW262654   6.544   2.281  10.229
20405SOL     OW62655   6.148   1.925   9.803
20405SOL    HW162656   6.067   1.924   9.853
20405SOL    HW262657   6.139   2.000   9.745
20406SOL     OW62658   7.014   3.071   9.353
20406SOL    HW162659   7.032   2.993   9.405
20406SOL    HW262660   6.926   3.098   9.380
20407SOL     OW62661   5.866   1.917   9.494
20407SOL    HW162662   5.913   1.981   9.440
20407SOL    HW262663   5.935   1.859   9.526
20408SOL     OW62664   6.540   2.109   9.759
20408SOL    HW162665   6.510   2.144   9.675
20408SOL    HW262666   6.633   2.129   9.762
20409SOL     OW62667   6.662   2.549  10.769
20409SOL    HW162668   6.590   2.486  10.768
20409SOL    HW262669   6.741   2.496  10.758
20410SOL     OW62670   6.801   3.445  10.111
20410SOL    HW162671   6.809   3.504  10.036
20410SOL    HW262672   6.872   3.470  10.170
20411SOL     OW62673   6.065   3.013  10.031
20411SOL    HW162674   5.998   2.995  10.097
20411SOL    HW262675   6.018   3.005   9.948
20412SOL     OW62676   6.845   3.656   9.930
20412SOL    HW162677   6.891   3.715   9.871
20412SOL    HW262678   6.770   3.706   9.961
20413SOL     OW62679   6.613   2.398   9.338
20413SOL    HW162680   6.561   2.476   9.317
20413SOL    HW262681   6.668   2.426   9.411
20414SOL     OW62682   5.682   2.407  10.716
20414SOL    HW162683   5.771   2.414  10.682
20414SOL    HW262684   5.673   2.482  10.774
20415SOL     OW62685   6.146   2.093  10.482
20415SOL    HW162686   6.182   2.011  10.516
20415SOL    HW262687   6.054   2.091  10.506
20416SOL     OW62688   6.456   2.319   9.945
20416SOL    HW162689   6.403   2.378   9.891
20416SOL    HW262690   6.471   2.243   9.889
20417SOL     OW62691   6.619   1.907  10.046
20417SOL    HW162692   6.551   1.913   9.978
20417SOL    HW262693   6.589   1.837  10.104
20418SOL     OW62694   7.028   3.020  10.165
20418SOL    HW162695   6.946   2.971  10.160
20418SOL    HW262696   7.054   3.031  10.073
20419SOL     OW62697   7.049   2.474  10.268
20419SOL    HW162698   6.987   2.401  10.275
20419SOL    HW262699   7.103   2.466  10.347
20420SOL     OW62700   7.425   2.669   9.712
20420SOL    HW162701   7.490   2.619   9.761
20420SOL    HW262702   7.409   2.617   9.633
20421SOL     OW62703   6.076   3.282   9.459
20421SOL    HW162704   6.007   3.251   9.517
20421SOL    HW262705   6.048   3.252   9.372
20422SOL     OW62706   7.260   3.123   9.958
20422SOL    HW162707   7.355   3.122   9.972
20422SOL    HW262708   7.234   3.214   9.973
20423SOL     OW62709   6.973   2.429   9.354
20423SOL    HW162710   6.914   2.413   9.428
20423SOL    HW262711   7.060   2.435   9.394
20424SOL     OW62712   6.123   2.121   9.617
20424SOL    HW162713   6.161   2.075   9.543
20424SOL    HW262714   6.093   2.204   9.581
20425SOL     OW62715   7.329   3.106  10.863
20425SOL    HW162716   7.416   3.070  10.848
20425SOL    HW262717   7.345   3.195  10.896
20426SOL     OW62718   6.636   3.216  10.644
20426SOL    HW162719   6.559   3.184  10.692
20426SOL    HW262720   6.710   3.171  10.685
20427SOL     OW62721   7.197   3.490  10.972
20427SOL    HW162722   7.186   3.524  10.883
20427SOL    HW262723   7.279   3.439  10.968
20428SOL     OW62724   6.730   3.083  10.411
20428SOL    HW162725   6.661   3.111  10.471
20428SOL    HW262726   6.703   3.115  10.325
20429SOL     OW62727   7.205   2.957  10.383
20429SOL    HW162728   7.195   3.022  10.453
20429SOL    HW262729   7.133   2.975  10.323
20430SOL     OW62730   6.505   1.951  10.700
20430SOL    HW162731   6.524   1.936  10.608
20430SOL    HW262732   6.584   1.993  10.735
20431SOL     OW62733   6.564   2.976  11.041
20431SOL    HW162734   6.472   2.991  11.062
20431SOL    HW262735   6.564   2.901  10.982
20432SOL     OW62736   6.300   2.927   9.684
20432SOL    HW162737   6.279   2.902   9.774
20432SOL    HW262738   6.378   2.875   9.662
20433SOL     OW62739   6.007   2.686  10.567
20433SOL    HW162740   6.078   2.693  10.631
20433SOL    HW262741   5.974   2.597  10.577
20434SOL     OW62742   6.850   2.233  10.592
20434SOL    HW162743   6.879   2.313  10.636
20434SOL    HW262744   6.759   2.251  10.568
20435SOL     OW62745   5.659   3.434  10.666
20435SOL    HW162746   5.620   3.499  10.608
20435SOL    HW262747   5.754   3.444  10.653
20436SOL     OW62748   5.928   2.982   9.796
20436SOL    HW162749   5.919   3.058   9.738
20436SOL    HW262750   5.923   2.907   9.737
20437SOL     OW62751   6.136   2.390  10.176
20437SOL    HW162752   6.146   2.445  10.099
20437SOL    HW262753   6.204   2.421  10.236
20438SOL     OW62754   6.831   3.210   9.713
20438SOL    HW162755   6.886   3.284   9.737
20438SOL    HW262756   6.743   3.236   9.739
20439SOL     OW62757   6.880   3.325  10.456
20439SOL    HW162758   6.930   3.326  10.538
20439SOL    HW262759   6.824   3.247  10.463
20440SOL     OW62760   7.168   2.467   9.777
20440SOL    HW162761   7.122   2.506   9.852
20440SOL    HW262762   7.206   2.542   9.731
20441SOL     OW62763   5.934   3.392  10.614
20441SOL    HW162764   5.923   3.344  10.531
20441SOL    HW262765   6.028   3.405  10.621
20442SOL     OW62766   6.005   2.609  10.915
20442SOL    HW162767   6.069   2.651  10.858
20442SOL    HW262768   6.033   2.518  10.920
20443SOL     OW62769   7.199   2.644  11.001
20443SOL    HW162770   7.112   2.683  10.994
20443SOL    HW262771   7.249   2.684  10.931
20444SOL     OW62772   6.584   1.999  11.069
20444SOL    HW162773   6.641   2.072  11.047
20444SOL    HW262774   6.635   1.921  11.045
20445SOL     OW62775   6.077   1.893  11.070
20445SOL    HW162776   6.031   1.844  11.003
20445SOL    HW262777   6.022   1.969  11.087
20446SOL     OW62778   6.185   2.732  10.354
20446SOL    HW162779   6.197   2.825  10.336
20446SOL    HW262780   6.113   2.729  10.417
20447SOL     OW62781   6.922   2.716  10.330
20447SOL    HW162782   6.835   2.705  10.291
20447SOL    HW262783   6.968   2.635  10.310
20448SOL     OW62784   6.795   2.394   9.563
20448SOL    HW162785   6.781   2.313   9.613
20448SOL    HW262786   6.756   2.462   9.618
20449SOL     OW62787   5.887   2.057  10.554
20449SOL    HW162788   5.848   2.084  10.637
20449SOL    HW262789   5.869   1.963  10.549
20450SOL     OW62790   5.615   3.172  10.594
20450SOL    HW162791   5.661   3.122  10.660
20450SOL    HW262792   5.630   3.264  10.618
20451SOL     OW62793   6.313   2.492  10.367
20451SOL    HW162794   6.385   2.487  10.304
20451SOL    HW262795   6.277   2.580  10.355
20452SOL     OW62796   7.328   2.820  11.175
20452SOL    HW162797   7.283   2.753  11.123
20452SOL    HW262798   7.265   2.843  11.244
20453SOL     OW62799   5.907   1.925   9.933
20453SOL    HW162800   5.874   2.013   9.949
20453SOL    HW262801   5.906   1.883  10.019
20454SOL     OW62802   7.121   2.208   9.701
20454SOL    HW162803   7.194   2.163   9.744
20454SOL    HW262804   7.130   2.300   9.725
20455SOL     OW62805   6.623   2.618  10.266
20455SOL    HW162806   6.608   2.634  10.359
20455SOL    HW262807   6.592   2.528  10.252
20456SOL     OW62808   6.569   3.417  11.030
20456SOL    HW162809   6.546   3.467  10.951
20456SOL    HW262810   6.619   3.343  10.997
20457SOL     OW62811   7.436   3.360  10.914
20457SOL    HW162812   7.457   3.389  10.825
20457SOL    HW262813   7.516   3.374  10.964
20458SOL     OW62814   5.935   2.765  11.130
20458SOL    HW162815   6.019   2.789  11.170
20458SOL    HW262816   5.959   2.708  11.058
20459SOL     OW62817   7.097   2.124   9.432
20459SOL    HW162818   7.034   2.058   9.460
20459SOL    HW262819   7.119   2.172   9.512
20460SOL     OW62820   6.874   2.690   9.333
20460SOL    HW162821   6.910   2.602   9.329
20460SOL    HW262822   6.904   2.732   9.252
20461SOL     OW62823   6.663   3.207  10.173
20461SOL    HW162824   6.667   3.136  10.109
20461SOL    HW262825   6.714   3.278  10.133
20462SOL     OW62826   5.892   2.671  10.259
20462SOL    HW162827   5.980   2.684  10.224
20462SOL    HW262828   5.892   2.580  10.291
20463SOL     OW62829   5.917   2.394  10.330
20463SOL    HW162830   5.876   2.310  10.314
20463SOL    HW262831   5.993   2.395  10.272
20464SOL     OW62832   6.723   2.231  10.998
20464SOL    HW162833   6.672   2.285  11.059
20464SOL    HW262834   6.807   2.275  10.990
20465SOL     OW62835   6.748   2.057  10.783
20465SOL    HW162836   6.734   2.119  10.854
20465SOL    HW262837   6.787   2.109  10.712
20466SOL     OW62838   5.617   3.162   9.501
20466SOL    HW162839   5.530   3.186   9.471
20466SOL    HW262840   5.606   3.076   9.542
20467SOL     OW62841   5.686   3.632  10.271
20467SOL    HW162842   5.650   3.562  10.217
20467SOL    HW262843   5.769   3.654  10.229
20468SOL     OW62844   6.078   3.438  10.220
20468SOL    HW162845   6.148   3.500  10.240
20468SOL    HW262846   6.117   3.378  10.157
20469SOL     OW62847   6.558   2.641  10.528
20469SOL    HW162848   6.611   2.628  10.606
20469SOL    HW262849   6.472   2.607  10.550
20470SOL     OW62850   5.615   2.401  10.434
20470SOL    HW162851   5.683   2.402  10.366
20470SOL    HW262852   5.664   2.408  10.516
20471SOL     OW62853   5.779   2.386  11.041
20471SOL    HW162854   5.820   2.334  10.972
20471SOL    HW262855   5.748   2.465  10.997
20472SOL     OW62856   6.969   2.790  10.966
20472SOL    HW162857   6.991   2.883  10.960
20472SOL    HW262858   6.961   2.761  10.875
20473SOL     OW62859   6.403   2.440   9.677
20473SOL    HW162860   6.398   2.365   9.618
20473SOL    HW262861   6.329   2.495   9.652
20474SOL     OW62862   7.221   2.460  10.483
20474SOL    HW162863   7.209   2.404  10.560
20474SOL    HW262864   7.310   2.441  10.453
20475SOL     OW62865   5.828   3.410  11.032
20475SOL    HW162866   5.801   3.480  11.092
20475SOL    HW262867   5.825   3.330  11.085
20476SOL     OW62868   6.308   2.304  10.561
20476SOL    HW162869   6.248   2.233  10.537
20476SOL    HW262870   6.299   2.368  10.491
20477SOL     OW62871   6.509   3.535  10.782
20477SOL    HW162872   6.482   3.495  10.699
20477SOL    HW262873   6.503   3.629  10.766
20478SOL     OW62874   6.052   2.356   9.506
20478SOL    HW162875   6.102   2.436   9.526
20478SOL    HW262876   5.964   2.388   9.487
20479SOL     OW62877   5.726   3.008  10.792
20479SOL    HW162878   5.730   2.965  10.877
20479SOL    HW262879   5.741   2.938  10.728
20480SOL     OW62880   6.902   2.903  10.527
20480SOL    HW162881   6.919   2.839  10.458
20480SOL    HW262882   6.841   2.965  10.488
20481SOL     OW62883   6.907   2.711   9.609
20481SOL    HW162884   6.829   2.703   9.663
20481SOL    HW262885   6.875   2.711   9.519
20482SOL     OW62886   7.372   3.592  10.471
20482SOL    HW162887   7.431   3.619  10.401
20482SOL    HW262888   7.340   3.506  10.445
20483SOL     OW62889   6.830   3.597  10.423
20483SOL    HW162890   6.910   3.618  10.376
20483SOL    HW262891   6.835   3.503  10.438
20484SOL     OW62892   5.682   3.111  10.331
20484SOL    HW162893   5.648   3.134  10.418
20484SOL    HW262894   5.608   3.072  10.285
20485SOL     OW62895   6.261   3.542  11.048
20485SOL    HW162896   6.192   3.608  11.048
20485SOL    HW262897   6.314   3.561  10.971
20486SOL     OW62898   7.297   2.010   9.786
20486SOL    HW162899   7.373   2.011   9.728
20486SOL    HW262900   7.311   1.934   9.843
20487SOL     OW62901   6.983   3.431   9.808
20487SOL    HW162902   7.036   3.464   9.735
20487SOL    HW262903   6.925   3.504   9.829
20488SOL     OW62904   5.731   3.650  11.149
20488SOL    HW162905   5.680   3.585  11.197
20488SOL    HW262906   5.772   3.704  11.217
20489SOL     OW62907   6.873   2.782   9.970
20489SOL    HW162908   6.949   2.724   9.971
20489SOL    HW262909   6.903   2.859   9.923
20490SOL     OW62910   6.384   3.143  10.738
20490SOL    HW162911   6.356   3.185  10.819
20490SOL    HW262912   6.316   3.168  10.674
20491SOL     OW62913   6.258   3.484   9.461
20491SOL    HW162914   6.266   3.502   9.368
20491SOL    HW262915   6.199   3.408   9.465
20492SOL     OW62916   7.205   3.589  10.704
20492SOL    HW162917   7.259   3.591  10.625
20492SOL    HW262918   7.192   3.682  10.726
20493SOL     OW62919   7.428   2.030  10.275
20493SOL    HW162920   7.457   1.943  10.247
20493SOL    HW262921   7.341   2.039  10.238
20494SOL     OW62922   5.836   2.173  10.020
20494SOL    HW162923   5.749   2.204   9.994
20494SOL    HW262924   5.833   2.174  10.116
20495SOL     OW62925   6.799   3.463   9.344
20495SOL    HW162926   6.784   3.371   9.367
20495SOL    HW262927   6.735   3.482   9.276
20496SOL     OW62928   6.407   2.874  10.684
20496SOL    HW162929   6.428   2.872  10.590
20496SOL    HW262930   6.399   2.967  10.704
20497SOL     OW62931   6.516   2.781   9.620
20497SOL    HW162932   6.569   2.812   9.546
20497SOL    HW262933   6.562   2.703   9.651
20498SOL     OW62934   7.079   3.486   9.360
20498SOL    HW162935   6.984   3.480   9.344
20498SOL    HW262936   7.117   3.494   9.272
20499SOL     OW62937   5.955   3.172  10.805
20499SOL    HW162938   5.946   3.246  10.746
20499SOL    HW262939   5.878   3.118  10.788
20500SOL     OW62940   7.191   3.149  10.587
20500SOL    HW162941   7.249   3.131  10.661
20500SOL    HW262942   7.130   3.215  10.620
20501SOL     OW62943   6.658   2.975  10.033
20501SOL    HW162944   6.580   2.930  10.066
20501SOL    HW262945   6.707   2.908   9.986
20502SOL     OW62946   6.618   2.104  10.272
20502SOL    HW162947   6.612   2.058  10.188
20502SOL    HW262948   6.606   2.035  10.338
20503SOL     OW62949   6.197   3.358   9.798
20503SOL    HW162950   6.241   3.307   9.731
20503SOL    HW262951   6.119   3.392   9.755
20504SOL     OW62952   7.317   2.251  10.689
20504SOL    HW162953   7.387   2.316  10.684
20504SOL    HW262954   7.347   2.180  10.631
20505SOL     OW62955   5.869   3.193   9.624
20505SOL    HW162956   5.785   3.193   9.578
20505SOL    HW262957   5.853   3.244   9.703
20506SOL     OW62958   5.710   2.907  11.051
20506SOL    HW162959   5.630   2.875  11.093
20506SOL    HW262960   5.780   2.853  11.087
20507SOL     OW62961   6.262   2.053  10.813
20507SOL    HW162962   6.345   2.033  10.770
20507SOL    HW262963   6.287   2.090  10.898
20508SOL     OW62964   5.661   2.182   9.335
20508SOL    HW162965   5.582   2.163   9.283
20508SOL    HW262966   5.690   2.268   9.304
20509SOL     OW62967   7.006   2.716  10.704
20509SOL    HW162968   6.953   2.775  10.651
20509SOL    HW262969   7.094   2.721  10.666
20510SOL     OW62970   5.643   2.025   9.606
20510SOL    HW162971   5.620   2.096   9.546
20510SOL    HW262972   5.727   1.994   9.574
20511SOL     OW62973   6.759   3.194   9.424
20511SOL    HW162974   6.664   3.192   9.415
20511SOL    HW262975   6.774   3.190   9.519
20512SOL     OW62976   6.211   2.690  10.749
20512SOL    HW162977   6.266   2.766  10.730
20512SOL    HW262978   6.273   2.616  10.753
20513SOL     OW62979   7.064   3.648  10.290
20513SOL    HW162980   7.075   3.705  10.214
20513SOL    HW262981   7.153   3.625  10.316
20514SOL     OW62982   6.308   2.414  11.007
20514SOL    HW162983   6.353   2.471  11.069
20514SOL    HW262984   6.322   2.326  11.041
20515SOL     OW62985   7.061   3.048  10.936
20515SOL    HW162986   7.051   3.070  11.029
20515SOL    HW262987   7.152   3.073  10.915
20516SOL     OW62988   5.952   3.607  10.876
20516SOL    HW162989   5.873   3.655  10.854
20516SOL    HW262990   5.921   3.524  10.913
20517SOL     OW62991   7.245   2.741  10.562
20517SOL    HW162992   7.239   2.658  10.515
20517SOL    HW262993   7.233   2.808  10.495
20518SOL     OW62994   6.823   2.185   9.765
20518SOL    HW162995   6.912   2.194   9.730
20518SOL    HW262996   6.825   2.231   9.849
20519SOL     OW62997   6.176   2.593   9.991
20519SOL    HW162998   6.215   2.679   9.973
20519SOL    HW262999   6.113   2.579   9.921
20520SOL     OW63000   7.335   2.219  10.960
20520SOL    HW163001   7.322   2.236  10.867
20520SOL    HW263002   7.259   2.165  10.985
20521SOL     OW63003   7.337   2.790  10.817
20521SOL    HW163004   7.325   2.883  10.833
20521SOL    HW263005   7.315   2.777  10.725
20522SOL     OW63006   6.486   3.239   9.375
20522SOL    HW163007   6.421   3.259   9.442
20522SOL    HW263008   6.480   3.311   9.313
20523SOL     OW63009   6.255   3.643  10.255
20523SOL    HW163010   6.229   3.732  10.231
20523SOL    HW263011   6.348   3.639  10.235
20524SOL     OW63012   6.458   2.841  10.170
20524SOL    HW163013   6.505   2.765  10.206
20524SOL    HW263014   6.418   2.883  10.246
20525SOL     OW63015   6.670   2.853   9.411
20525SOL    HW163016   6.637   2.906   9.338
20525SOL    HW263017   6.737   2.798   9.372
20526SOL     OW63018   7.421   3.421  10.156
20526SOL    HW163019   7.349   3.411  10.093
20526SOL    HW263020   7.394   3.369  10.232
20527SOL     OW63021   5.796   3.154  11.157
20527SOL    HW163022   5.760   3.079  11.110
20527SOL    HW263023   5.734   3.171  11.228
20528SOL     OW63024   5.671   3.094   9.974
20528SOL    HW163025   5.683   3.033  10.047
20528SOL    HW263026   5.731   3.064   9.906
20529SOL     OW63027   6.279   3.268  10.962
20529SOL    HW163028   6.191   3.235  10.980
20529SOL    HW263029   6.275   3.361  10.984
20530SOL     OW63030   7.404   2.038  10.546
20530SOL    HW163031   7.397   1.942  10.551
20530SOL    HW263032   7.414   2.056  10.453
20531SOL     OW63033   6.033   2.283   9.850
20531SOL    HW163034   6.044   2.221   9.778
20531SOL    HW263035   5.964   2.244   9.905
20532SOL     OW63036   7.284   3.344  10.395
20532SOL    HW163037   7.203   3.328  10.345
20532SOL    HW263038   7.282   3.278  10.465
20533SOL     OW63039   5.926   2.425  10.604
20533SOL    HW163040   5.981   2.363  10.652
20533SOL    HW263041   5.937   2.401  10.512
20534SOL     OW63042   6.419   3.452   9.974
20534SOL    HW163043   6.408   3.530   9.918
20534SOL    HW263044   6.341   3.399   9.956
20535SOL     OW63045   7.011   2.084  10.431
20535SOL    HW163046   6.999   1.995  10.465
20535SOL    HW263047   6.964   2.140  10.493
20536SOL     OW63048   6.596   1.878  10.441
20536SOL    HW163049   6.538   1.814  10.399
20536SOL    HW263050   6.681   1.834  10.444
20537SOL     OW63051   6.356   3.198   9.637
20537SOL    HW163052   6.325   3.107   9.642
20537SOL    HW263053   6.441   3.196   9.679
20538SOL     OW63054   6.209   3.415  10.608
20538SOL    HW163055   6.209   3.496  10.658
20538SOL    HW263056   6.293   3.413  10.563
20539SOL     OW63057   6.952   1.906   9.523
20539SOL    HW163058   6.976   1.854   9.446
20539SOL    HW263059   6.861   1.881   9.541
20540SOL     OW63060   6.887   2.327   9.992
20540SOL    HW163061   6.836   2.407   9.990
20540SOL    HW263062   6.877   2.294  10.082
20541SOL     OW63063   7.166   2.055  10.198
20541SOL    HW163064   7.115   2.080  10.275
20541SOL    HW263065   7.166   2.132  10.142
20542SOL     OW63066   5.628   2.922   9.638
20542SOL    HW163067   5.718   2.911   9.608
20542SOL    HW263068   5.597   2.834   9.656
20543SOL     OW63069   6.473   3.527   9.642
20543SOL    HW163070   6.400   3.508   9.582
20543SOL    HW263071   6.442   3.598   9.697
20544SOL     OW63072   5.806   2.479  11.305
20544SOL    HW163073   5.714   2.486  11.332
20544SOL    HW263074   5.801   2.466  11.210
20545SOL     OW63075   5.572   2.247  11.806
20545SOL    HW163076   5.492   2.278  11.850
20545SOL    HW263077   5.544   2.170  11.756
20546SOL     OW63078   6.127   3.111  12.340
20546SOL    HW163079   6.055   3.155  12.296
20546SOL    HW263080   6.136   3.158  12.424
20547SOL     OW63081   7.159   3.379  11.880
20547SOL    HW163082   7.127   3.381  11.970
20547SOL    HW263083   7.080   3.384  11.826
20548SOL     OW63084   6.721   2.563  11.864
20548SOL    HW163085   6.767   2.647  11.856
20548SOL    HW263086   6.670   2.571  11.945
20549SOL     OW63087   7.381   2.451  11.391
20549SOL    HW163088   7.347   2.449  11.302
20549SOL    HW263089   7.333   2.381  11.436
20550SOL     OW63090   6.343   3.002  12.227
20550SOL    HW163091   6.263   3.032  12.270
20550SOL    HW263092   6.377   3.079  12.182
20551SOL     OW63093   6.271   2.854  11.820
20551SOL    HW163094   6.339   2.853  11.888
20551SOL    HW263095   6.203   2.911  11.854
20552SOL     OW63096   5.926   3.271  12.228
20552SOL    HW163097   5.844   3.237  12.191
20552SOL    HW263098   5.962   3.328  12.161
20553SOL     OW63099   7.188   2.302  11.921
20553SOL    HW163100   7.115   2.315  11.860
20553SOL    HW263101   7.175   2.369  11.989
20554SOL     OW63102   5.807   3.577  11.637
20554SOL    HW163103   5.828   3.653  11.692
20554SOL    HW263104   5.879   3.573  11.574
20555SOL     OW63105   5.813   3.314  11.719
20555SOL    HW163106   5.800   3.408  11.707
20555SOL    HW263107   5.752   3.289  11.789
20556SOL     OW63108   5.855   2.955  12.064
20556SOL    HW163109   5.846   2.871  12.110
20556SOL    HW263110   5.802   3.016  12.115
20557SOL     OW63111   6.165   2.849  11.318
20557SOL    HW163112   6.211   2.898  11.250
20557SOL    HW263113   6.203   2.880  11.400
20558SOL     OW63114   5.706   2.519  11.737
20558SOL    HW163115   5.670   2.433  11.759
20558SOL    HW263116   5.696   2.570  11.817
20559SOL     OW63117   7.428   3.610  11.500
20559SOL    HW163118   7.495   3.588  11.564
20559SOL    HW263119   7.443   3.703  11.481
20560SOL     OW63120   5.635   3.447  11.296
20560SOL    HW163121   5.610   3.357  11.317
20560SOL    HW263122   5.603   3.499  11.370
20561SOL     OW63123   7.273   2.774  11.818
20561SOL    HW163124   7.362   2.739  11.817
20561SOL    HW263125   7.265   2.825  11.738
20562SOL     OW63126   7.242   2.965  11.608
20562SOL    HW163127   7.327   2.965  11.564
20562SOL    HW263128   7.251   3.029  11.678
20563SOL     OW63129   5.770   2.607   0.228
20563SOL    HW163130   5.753   2.581   0.318
20563SOL    HW263131   5.690   2.650   0.199
20564SOL     OW63132   6.203   3.258  11.893
20564SOL    HW163133   6.157   3.175  11.904
20564SOL    HW263134   6.180   3.286  11.804
20565SOL     OW63135   6.412   1.871  11.689
20565SOL    HW163136   6.452   1.954  11.663
20565SOL    HW263137   6.318   1.889  11.690
20566SOL     OW63138   5.775   2.811  12.384
20566SOL    HW163139   5.858   2.776  12.416
20566SOL    HW263140   5.715   2.803  12.458
20567SOL     OW63141   7.116   2.870  11.375
20567SOL    HW163142   7.048   2.811  11.408
20567SOL    HW263143   7.163   2.898  11.454
20568SOL     OW63144   7.071   3.269  12.130
20568SOL    HW163145   7.000   3.289  12.192
20568SOL    HW263146   7.050   3.182  12.097
20569SOL     OW63147   7.236   3.623  11.747
20569SOL    HW163148   7.217   3.584  11.662
20569SOL    HW263149   7.223   3.551  11.809
20570SOL     OW63150   6.181   2.580  11.445
20570SOL    HW163151   6.179   2.663  11.399
20570SOL    HW263152   6.115   2.589  11.514
20571SOL     OW63153   6.874   2.235  12.107
20571SOL    HW163154   6.785   2.199  12.108
20571SOL    HW263155   6.922   2.179  12.168
20572SOL     OW63156   7.163   3.528  11.485
20572SOL    HW163157   7.255   3.555  11.478
20572SOL    HW263158   7.134   3.516  11.395
20573SOL     OW63159   6.565   2.215  12.385
20573SOL    HW163160   6.568   2.283  12.452
20573SOL    HW263161   6.476   2.220  12.349
20574SOL     OW63162   6.643   2.561  11.594
20574SOL    HW163163   6.662   2.555  11.688
20574SOL    HW263164   6.558   2.517  11.584
20575SOL     OW63165   5.671   2.679  11.957
20575SOL    HW163166   5.755   2.679  12.001
20575SOL    HW263167   5.624   2.754  11.993
20576SOL     OW63168   6.485   2.215  11.370
20576SOL    HW163169   6.527   2.276  11.309
20576SOL    HW263170   6.477   2.133  11.320
20577SOL     OW63171   6.968   2.994  11.681
20577SOL    HW163172   7.063   2.993  11.670
20577SOL    HW263173   6.933   2.986  11.592
20578SOL     OW63174   6.123   2.045  12.063
20578SOL    HW163175   6.133   2.072  12.154
20578SOL    HW263176   6.138   2.124  12.012
20579SOL     OW63177   5.939   3.680  12.041
20579SOL    HW163178   5.985   3.596  12.050
20579SOL    HW263179   6.005   3.746  12.062
20580SOL     OW63180   7.380   2.908  12.048
20580SOL    HW163181   7.321   2.894  11.975
20580SOL    HW263182   7.323   2.918  12.124
20581SOL     OW63183   5.897   2.824  11.428
20581SOL    HW163184   5.980   2.848  11.387
20581SOL    HW263185   5.867   2.748  11.378
20582SOL     OW63186   7.062   2.614  11.885
20582SOL    HW163187   7.064   2.571  11.971
20582SOL    HW263188   7.142   2.666  11.883
20583SOL     OW63189   6.715   3.634  11.402
20583SOL    HW163190   6.633   3.600  11.436
20583SOL    HW263191   6.739   3.575  11.331
20584SOL     OW63192   7.218   3.242  11.268
20584SOL    HW163193   7.180   3.328  11.254
20584SOL    HW263194   7.149   3.181  11.243
20585SOL     OW63195   6.058   3.591  11.496
20585SOL    HW163196   6.096   3.657  11.554
20585SOL    HW263197   6.126   3.574  11.431
20586SOL     OW63198   6.985   1.970  11.617
20586SOL    HW163199   6.979   1.943  11.526
20586SOL    HW263200   7.079   1.971  11.635
20587SOL     OW63201   5.836   3.642  12.394
20587SOL    HW163202   5.816   3.574  12.458
20587SOL    HW263203   5.788   3.615  12.315
20588SOL     OW63204   6.540   3.566  12.087
20588SOL    HW163205   6.626   3.536  12.116
20588SOL    HW263206   6.501   3.488  12.046
20589SOL     OW63207   5.987   2.555  11.645
20589SOL    HW163208   6.001   2.461  11.657
20589SOL    HW263209   5.893   2.567  11.659
20590SOL     OW63210   6.240   1.974  11.273
20590SOL    HW163211   6.295   1.898  11.291
20590SOL    HW263212   6.181   1.944  11.204
20591SOL     OW63213   6.398   3.234  12.097
20591SOL    HW163214   6.487   3.233  12.060
20591SOL    HW263215   6.341   3.244  12.020
20592SOL     OW63216   6.519   2.373  12.067
20592SOL    HW163217   6.490   2.361  11.976
20592SOL    HW263218   6.554   2.288  12.092
20593SOL     OW63219   6.144   1.925  11.663
20593SOL    HW163220   6.063   1.924  11.714
20593SOL    HW263221   6.135   2.001  11.606
20594SOL     OW63222   7.011   3.067  11.209
20594SOL    HW163223   7.042   2.993  11.260
20594SOL    HW263224   6.924   3.087  11.245
20595SOL     OW63225   5.870   1.909  11.358
20595SOL    HW163226   5.920   1.973  11.307
20595SOL    HW263227   5.936   1.851  11.396
20596SOL     OW63228   6.532   2.114  11.625
20596SOL    HW163229   6.508   2.151  11.540
20596SOL    HW263230   6.626   2.129  11.632
20597SOL     OW63231   6.818   3.430  11.958
20597SOL    HW163232   6.826   3.500  11.893
20597SOL    HW263233   6.876   3.457  12.030
20598SOL     OW63234   6.060   3.018  11.893
20598SOL    HW163235   5.995   2.997  11.960
20598SOL    HW263236   6.013   3.007  11.810
20599SOL     OW63237   6.843   3.652  11.782
20599SOL    HW163238   6.894   3.716  11.733
20599SOL    HW263239   6.778   3.704  11.829
20600SOL     OW63240   6.613   2.392  11.198
20600SOL    HW163241   6.569   2.474  11.177
20600SOL    HW263242   6.676   2.415  11.266
20601SOL     OW63243   6.137   2.096  12.335
20601SOL    HW163244   6.189   2.048  12.399
20601SOL    HW263245   6.047   2.090  12.368
20602SOL     OW63246   6.450   2.320  11.806
20602SOL    HW163247   6.409   2.375  11.740
20602SOL    HW263248   6.475   2.240  11.759
20603SOL     OW63249   6.605   1.904  11.911
20603SOL    HW163250   6.544   1.899  11.837
20603SOL    HW263251   6.582   1.829  11.966
20604SOL     OW63252   7.027   3.014  12.031
20604SOL    HW163253   6.965   2.942  12.019
20604SOL    HW263254   7.063   3.030  11.944
20605SOL     OW63255   7.053   2.469  12.127
20605SOL    HW163256   6.993   2.394  12.137
20605SOL    HW263257   7.112   2.462  12.202
20606SOL     OW63258   7.424   2.664  11.557
20606SOL    HW163259   7.484   2.619  11.617
20606SOL    HW263260   7.406   2.600  11.489
20607SOL     OW63261   6.084   3.270  11.329
20607SOL    HW163262   6.008   3.248  11.382
20607SOL    HW263263   6.067   3.230  11.244
20608SOL     OW63264   7.254   3.123  11.824
20608SOL    HW163265   7.348   3.120  11.841
20608SOL    HW263266   7.229   3.213  11.844
20609SOL     OW63267   6.979   2.435  11.244
20609SOL    HW163268   6.915   2.413  11.312
20609SOL    HW263269   7.063   2.407  11.279
20610SOL     OW63270   6.115   2.123  11.478
20610SOL    HW163271   6.165   2.078  11.410
20610SOL    HW263272   6.087   2.204  11.437
20611SOL     OW63273   6.689   3.098  12.293
20611SOL    HW163274   6.613   3.130  12.343
20611SOL    HW263275   6.675   3.132  12.205
20612SOL     OW63276   7.197   2.957  12.249
20612SOL    HW163277   7.172   3.003  12.329
20612SOL    HW263278   7.128   2.980  12.186
20613SOL     OW63279   6.298   2.925  11.550
20613SOL    HW163280   6.279   2.899  11.641
20613SOL    HW263281   6.373   2.871  11.525
20614SOL     OW63282   6.019   2.675  12.465
20614SOL    HW163283   6.059   2.738  12.524
20614SOL    HW263284   6.064   2.592  12.482
20615SOL     OW63285   6.837   2.221  12.428
20615SOL    HW163286   6.864   2.306  12.464
20615SOL    HW263287   6.745   2.234  12.403
20616SOL     OW63288   5.919   2.987  11.658
20616SOL    HW163289   5.913   3.062  11.599
20616SOL    HW263290   5.917   2.911  11.601
20617SOL     OW63291   6.134   2.379  12.031
20617SOL    HW163292   6.143   2.438  11.956
20617SOL    HW263293   6.199   2.410  12.094
20618SOL     OW63294   6.760   3.251  11.605
20618SOL    HW163295   6.831   3.315  11.612
20618SOL    HW263296   6.790   3.175  11.655
20619SOL     OW63297   6.883   3.306  12.321
20619SOL    HW163298   6.940   3.320  12.397
20619SOL    HW263299   6.831   3.229  12.343
20620SOL     OW63300   7.163   2.485  11.653
20620SOL    HW163301   7.110   2.522  11.723
20620SOL    HW263302   7.214   2.559  11.620
20621SOL     OW63303   5.971   3.389  12.468
20621SOL    HW163304   5.942   3.342  12.390
20621SOL    HW263305   6.001   3.474  12.434
20622SOL     OW63306   6.167   2.742  12.216
20622SOL    HW163307   6.201   2.831  12.210
20622SOL    HW263308   6.112   2.742  12.294
20623SOL     OW63309   6.914   2.716  12.164
20623SOL    HW163310   6.827   2.686  12.140
20623SOL    HW263311   6.969   2.637  12.160
20624SOL     OW63312   6.785   2.388  11.433
20624SOL    HW163313   6.793   2.310  11.487
20624SOL    HW263314   6.741   2.452  11.489
20625SOL     OW63315   5.876   2.055  12.432
20625SOL    HW163316   5.891   2.064  12.526
20625SOL    HW263317   5.863   1.962  12.418
20626SOL     OW63318   5.661   3.193  12.439
20626SOL    HW163319   5.680   3.121  12.499
20626SOL    HW263320   5.653   3.270  12.494
20627SOL     OW63321   6.299   2.495  12.214
20627SOL    HW163322   6.380   2.486  12.163
20627SOL    HW263323   6.273   2.586  12.202
20628SOL     OW63324   5.899   1.919  11.790
20628SOL    HW163325   5.871   2.009  11.806
20628SOL    HW263326   5.910   1.881  11.877
20629SOL     OW63327   7.216   2.249  11.524
20629SOL    HW163328   7.241   2.182  11.588
20629SOL    HW263329   7.188   2.324  11.577
20630SOL     OW63330   6.616   2.617  12.139
20630SOL    HW163331   6.606   2.627  12.234
20630SOL    HW263332   6.589   2.527  12.122
20631SOL     OW63333   7.117   2.129  11.295
20631SOL    HW163334   7.054   2.065  11.326
20631SOL    HW263335   7.151   2.170  11.375
20632SOL     OW63336   6.872   2.687  11.200
20632SOL    HW163337   6.912   2.600  11.204
20632SOL    HW263338   6.903   2.724  11.118
20633SOL     OW63339   6.658   3.209  12.026
20633SOL    HW163340   6.671   3.135  11.965
20633SOL    HW263341   6.721   3.274  11.997
20634SOL     OW63342   5.907   2.663  12.099
20634SOL    HW163343   5.996   2.698  12.093
20634SOL    HW263344   5.915   2.587  12.157
20635SOL     OW63345   5.888   2.363  12.156
20635SOL    HW163346   5.873   2.387  12.064
20635SOL    HW263347   5.982   2.353  12.163
20636SOL     OW63348   6.759   2.079   0.151
20636SOL    HW163349   6.760   2.143   0.223
20636SOL    HW263350   6.790   2.128   0.075
20637SOL     OW63351   5.606   3.173  11.359
20637SOL    HW163352   5.517   3.192  11.329
20637SOL    HW263353   5.599   3.086  11.400
20638SOL     OW63354   5.681   3.639  12.121
20638SOL    HW163355   5.650   3.564  12.070
20638SOL    HW263356   5.768   3.657  12.087
20639SOL     OW63357   6.081   3.441  12.070
20639SOL    HW163358   6.151   3.503  12.093
20639SOL    HW263359   6.123   3.377  12.014
20640SOL     OW63360   6.561   2.650  12.414
20640SOL    HW163361   6.613   2.717  12.458
20640SOL    HW263362   6.470   2.675  12.430
20641SOL     OW63363   5.643   2.385  12.288
20641SOL    HW163364   5.721   2.420  12.244
20641SOL    HW263365   5.649   2.418  12.377
20642SOL     OW63366   6.404   2.435  11.542
20642SOL    HW163367   6.409   2.360  11.482
20642SOL    HW263368   6.329   2.485  11.511
20643SOL     OW63369   7.238   2.464  12.330
20643SOL    HW163370   7.230   2.413  12.410
20643SOL    HW263371   7.332   2.468  12.313
20644SOL     OW63372   6.301   2.310  12.411
20644SOL    HW163373   6.231   2.250  12.385
20644SOL    HW263374   6.296   2.382  12.349
20645SOL     OW63375   6.475   3.518   0.033
20645SOL    HW163376   6.480   3.583  -0.036
20645SOL    HW263377   6.523   3.556   0.107
20646SOL     OW63378   6.044   2.353  11.355
20646SOL    HW163379   6.103   2.425  11.377
20646SOL    HW263380   5.958   2.395  11.345
20647SOL     OW63381   6.870   2.892  12.369
20647SOL    HW163382   6.895   2.840  12.292
20647SOL    HW263383   6.818   2.964  12.334
20648SOL     OW63384   6.897   2.731  11.475
20648SOL    HW163385   6.831   2.684  11.525
20648SOL    HW263386   6.875   2.713  11.383
20649SOL     OW63387   7.383   3.610  12.329
20649SOL    HW163388   7.427   3.637  12.248
20649SOL    HW263389   7.349   3.523  12.310
20650SOL     OW63390   6.800   3.570  12.254
20650SOL    HW163391   6.862   3.643  12.261
20650SOL    HW263392   6.851   3.492  12.273
20651SOL     OW63393   5.682   3.133  12.177
20651SOL    HW163394   5.670   3.157  12.269
20651SOL    HW263395   5.608   3.075  12.157
20652SOL     OW63396   7.312   2.025  11.673
20652SOL    HW163397   7.381   2.006  11.609
20652SOL    HW263398   7.293   1.941  11.713
20653SOL     OW63399   6.960   3.432  11.651
20653SOL    HW163400   7.028   3.462  11.591
20653SOL    HW263401   6.922   3.513  11.687
20654SOL     OW63402   6.865   2.798  11.842
20654SOL    HW163403   6.936   2.735  11.854
20654SOL    HW263404   6.901   2.863  11.781
20655SOL     OW63405   6.272   3.466  11.315
20655SOL    HW163406   6.271   3.495  11.224
20655SOL    HW263407   6.202   3.401  11.320
20656SOL     OW63408   7.228   3.642   0.052
20656SOL    HW163409   7.287   3.632  -0.023
20656SOL    HW263410   7.189   3.729   0.041
20657SOL     OW63411   7.429   2.028  12.135
20657SOL    HW163412   7.458   1.939  12.113
20657SOL    HW263413   7.341   2.034  12.097
20658SOL     OW63414   5.828   2.171  11.868
20658SOL    HW163415   5.743   2.203  11.840
20658SOL    HW263416   5.823   2.168  11.963
20659SOL     OW63417   6.797   3.464  11.202
20659SOL    HW163418   6.783   3.371  11.221
20659SOL    HW263419   6.736   3.483  11.131
20660SOL     OW63420   6.379   2.873  12.482
20660SOL    HW163421   6.382   2.926  12.402
20660SOL    HW263422   6.453   2.904  12.534
20661SOL     OW63423   6.509   2.780  11.471
20661SOL    HW163424   6.567   2.811  11.402
20661SOL    HW263425   6.558   2.708  11.513
20662SOL     OW63426   7.077   3.487  11.220
20662SOL    HW163427   6.983   3.481  11.203
20662SOL    HW263428   7.116   3.495  11.133
20663SOL     OW63429   6.655   2.982  11.873
20663SOL    HW163430   6.582   2.934  11.912
20663SOL    HW263431   6.721   2.915  11.857
20664SOL     OW63432   6.625   2.110  12.105
20664SOL    HW163433   6.618   2.043  12.038
20664SOL    HW263434   6.609   2.063  12.187
20665SOL     OW63435   6.178   3.357  11.639
20665SOL    HW163436   6.196   3.302  11.562
20665SOL    HW263437   6.110   3.417  11.609
20666SOL     OW63438   7.366   2.288   0.037
20666SOL    HW163439   7.416   2.265   0.115
20666SOL    HW263440   7.350   2.205  -0.007
20667SOL     OW63441   5.864   3.200  11.482
20667SOL    HW163442   5.778   3.199  11.440
20667SOL    HW263443   5.849   3.245  11.565
20668SOL     OW63444   5.657   2.191  11.198
20668SOL    HW163445   5.588   2.174  11.134
20668SOL    HW263446   5.699   2.271  11.167
20669SOL     OW63447   5.640   2.019  11.455
20669SOL    HW163448   5.631   2.089  11.391
20669SOL    HW263449   5.727   1.982  11.438
20670SOL     OW63450   6.753   3.198  11.292
20670SOL    HW163451   6.659   3.184  11.277
20670SOL    HW263452   6.761   3.208  11.387
20671SOL     OW63453   7.104   3.601  12.086
20671SOL    HW163454   7.129   3.672  12.027
20671SOL    HW263455   7.084   3.644  12.169
20672SOL     OW63456   7.262   2.735  12.408
20672SOL    HW163457   7.240   2.651  12.367
20672SOL    HW263458   7.239   2.800  12.342
20673SOL     OW63459   6.804   2.183  11.628
20673SOL    HW163460   6.864   2.108  11.624
20673SOL    HW263461   6.833   2.233  11.705
20674SOL     OW63462   6.167   2.593  11.852
20674SOL    HW163463   6.210   2.678  11.838
20674SOL    HW263464   6.106   2.585  11.779
20675SOL     OW63465   7.398   2.770   0.134
20675SOL    HW163466   7.362   2.849   0.174
20675SOL    HW263467   7.343   2.754   0.057
20676SOL     OW63468   6.461   3.262  11.240
20676SOL    HW163469   6.398   3.325  11.274
20676SOL    HW263470   6.495   3.303  11.160
20677SOL     OW63471   6.254   3.650  12.103
20677SOL    HW163472   6.230   3.741  12.083
20677SOL    HW263473   6.349   3.653  12.111
20678SOL     OW63474   6.465   2.841  12.026
20678SOL    HW163475   6.512   2.767  12.064
20678SOL    HW263476   6.428   2.887  12.101
20679SOL     OW63477   6.667   2.856  11.266
20679SOL    HW163478   6.640   2.904  11.188
20679SOL    HW263479   6.737   2.798  11.236
20680SOL     OW63480   7.433   3.417  12.022
20680SOL    HW163481   7.352   3.416  11.971
20680SOL    HW263482   7.409   3.378  12.106
20681SOL     OW63483   5.670   3.078  11.838
20681SOL    HW163484   5.700   3.042  11.921
20681SOL    HW263485   5.739   3.055  11.776
20682SOL     OW63486   7.379   2.049  12.404
20682SOL    HW163487   7.425   1.971  12.435
20682SOL    HW263488   7.391   2.047  12.309
20683SOL     OW63489   6.017   2.292  11.693
20683SOL    HW163490   6.051   2.227  11.632
20683SOL    HW263491   5.961   2.242  11.752
20684SOL     OW63492   7.303   3.351  12.264
20684SOL    HW163493   7.219   3.329  12.225
20684SOL    HW263494   7.304   3.305  12.348
20685SOL     OW63495   6.423   3.438  11.811
20685SOL    HW163496   6.400   3.529  11.793
20685SOL    HW263497   6.339   3.396  11.833
20686SOL     OW63498   7.036   2.099  12.293
20686SOL    HW163499   7.100   2.064  12.354
20686SOL    HW263500   6.967   2.136  12.349
20687SOL     OW63501   6.582   1.830  12.313
20687SOL    HW163502   6.550   1.789  12.233
20687SOL    HW263503   6.676   1.812  12.313
20688SOL     OW63504   6.414   3.175  11.514
20688SOL    HW163505   6.368   3.094  11.535
20688SOL    HW263506   6.424   3.174  11.419
20689SOL     OW63507   6.948   1.912  11.348
20689SOL    HW163508   6.982   1.840  11.295
20689SOL    HW263509   6.858   1.887  11.368
20690SOL     OW63510   6.886   2.328  11.848
20690SOL    HW163511   6.834   2.408  11.851
20690SOL    HW263512   6.880   2.292  11.937
20691SOL     OW63513   7.169   2.050  12.056
20691SOL    HW163514   7.116   2.074  12.132
20691SOL    HW263515   7.167   2.127  12.000
20692SOL     OW63516   5.626   2.926  11.487
20692SOL    HW163517   5.719   2.917  11.465
20692SOL    HW263518   5.598   2.836  11.507
20693SOL     OW63519   6.472   3.518  11.508
20693SOL    HW163520   6.403   3.509  11.443
20693SOL    HW263521   6.446   3.593  11.561
20694SOL     OW63522   5.818   4.288   0.034
20694SOL    HW163523   5.795   4.348   0.104
20694SOL    HW263524   5.836   4.344  -0.041
20695SOL     OW63525   5.810   4.007   0.993
20695SOL    HW163526   5.837   3.974   1.079
20695SOL    HW263527   5.721   3.974   0.981
20696SOL     OW63528   5.581   4.109   0.638
20696SOL    HW163529   5.505   4.139   0.688
20696SOL    HW263530   5.551   4.029   0.595
20697SOL     OW63531   6.158   5.026   1.191
20697SOL    HW163532   6.072   5.029   1.150
20697SOL    HW263533   6.173   5.116   1.222
20698SOL     OW63534   7.159   5.246   0.715
20698SOL    HW163535   7.117   5.219   0.796
20698SOL    HW263536   7.089   5.247   0.650
20699SOL     OW63537   6.720   4.423   0.692
20699SOL    HW163538   6.766   4.506   0.682
20699SOL    HW263539   6.672   4.433   0.775
20700SOL     OW63540   7.320   4.333   0.267
20700SOL    HW163541   7.329   4.318   0.173
20700SOL    HW263542   7.290   4.249   0.302
20701SOL     OW63543   6.326   4.859   1.051
20701SOL    HW163544   6.262   4.897   1.111
20701SOL    HW263545   6.368   4.934   1.008
20702SOL     OW63546   6.466   4.477   1.830
20702SOL    HW163547   6.446   4.542   1.897
20702SOL    HW263548   6.485   4.528   1.751
20703SOL     OW63549   6.271   4.717   0.644
20703SOL    HW163550   6.338   4.711   0.712
20703SOL    HW263551   6.203   4.773   0.681
20704SOL     OW63552   6.301   4.871   1.820
20704SOL    HW163553   6.347   4.948   1.854
20704SOL    HW263554   6.220   4.906   1.783
20705SOL     OW63555   5.919   5.136   1.067
20705SOL    HW163556   5.844   5.095   1.025
20705SOL    HW263557   5.960   5.187   0.998
20706SOL     OW63558   7.043   5.228   1.365
20706SOL    HW163559   7.097   5.306   1.376
20706SOL    HW263560   6.973   5.238   1.430
20707SOL     OW63561   6.040   4.106   1.462
20707SOL    HW163562   6.114   4.049   1.481
20707SOL    HW263563   5.964   4.059   1.495
20708SOL     OW63564   7.192   4.166   0.753
20708SOL    HW163565   7.144   4.197   0.677
20708SOL    HW263566   7.173   4.229   0.822
20709SOL     OW63567   5.801   5.443   0.471
20709SOL    HW163568   5.822   5.517   0.527
20709SOL    HW263569   5.879   5.430   0.417
20710SOL     OW63570   6.722   5.068   1.697
20710SOL    HW163571   6.762   5.061   1.784
20710SOL    HW263572   6.669   4.988   1.689
20711SOL     OW63573   5.812   5.175   0.545
20711SOL    HW163574   5.791   5.268   0.545
20711SOL    HW263575   5.756   5.137   0.612
20712SOL     OW63576   5.861   4.816   0.894
20712SOL    HW163577   5.855   4.726   0.928
20712SOL    HW263578   5.801   4.866   0.949
20713SOL     OW63579   6.180   5.520   1.427
20713SOL    HW163580   6.101   5.499   1.477
20713SOL    HW263581   6.206   5.607   1.457
20714SOL     OW63582   6.164   4.688   0.149
20714SOL    HW163583   6.232   4.705   0.084
20714SOL    HW263584   6.194   4.733   0.228
20715SOL     OW63585   7.181   3.854   1.463
20715SOL    HW163586   7.207   3.935   1.419
20715SOL    HW263587   7.155   3.880   1.551
20716SOL     OW63588   5.704   4.373   0.563
20716SOL    HW163589   5.674   4.285   0.586
20716SOL    HW263590   5.697   4.423   0.644
20717SOL     OW63591   7.438   5.465   0.317
20717SOL    HW163592   7.498   5.438   0.387
20717SOL    HW263593   7.459   5.557   0.302
20718SOL     OW63594   5.619   5.251   0.127
20718SOL    HW163595   5.532   5.212   0.119
20718SOL    HW263596   5.608   5.325   0.186
20719SOL     OW63597   7.270   4.659   0.651
20719SOL    HW163598   7.333   4.608   0.601
20719SOL    HW263599   7.234   4.722   0.588
20720SOL     OW63600   7.229   4.842   0.435
20720SOL    HW163601   7.318   4.838   0.400
20720SOL    HW263602   7.234   4.906   0.507
20721SOL     OW63603   5.710   4.471   1.578
20721SOL    HW163604   5.799   4.505   1.588
20721SOL    HW263605   5.655   4.548   1.585
20722SOL     OW63606   6.206   5.118   0.734
20722SOL    HW163607   6.163   5.033   0.745
20722SOL    HW263608   6.190   5.142   0.643
20723SOL     OW63609   6.868   4.959   1.418
20723SOL    HW163610   6.898   4.889   1.359
20723SOL    HW263611   6.926   4.952   1.493
20724SOL     OW63612   6.411   3.738   0.528
20724SOL    HW163613   6.448   3.822   0.500
20724SOL    HW263614   6.316   3.753   0.530
20725SOL     OW63615   5.774   4.685   1.280
20725SOL    HW163616   5.860   4.645   1.265
20725SOL    HW263617   5.714   4.628   1.232
20726SOL     OW63618   7.087   4.737   0.226
20726SOL    HW163619   7.020   4.678   0.263
20726SOL    HW263620   7.136   4.768   0.302
20727SOL     OW63621   6.774   5.543   1.628
20727SOL    HW163622   6.775   5.601   1.553
20727SOL    HW263623   6.789   5.456   1.591
20728SOL     OW63624   5.940   3.983   1.823
20728SOL    HW163625   5.976   4.061   1.865
20728SOL    HW263626   5.847   3.984   1.845
20729SOL     OW63627   7.055   5.142   0.945
20729SOL    HW163628   6.989   5.159   1.012
20729SOL    HW263629   7.040   5.051   0.919
20730SOL     OW63630   7.236   5.488   0.586
20730SOL    HW163631   7.213   5.452   0.500
20730SOL    HW263632   7.221   5.415   0.647
20731SOL     OW63633   6.162   4.432   0.273
20731SOL    HW163634   6.172   4.520   0.238
20731SOL    HW263635   6.100   4.442   0.346
20732SOL     OW63636   6.868   4.099   0.935
20732SOL    HW163637   6.778   4.066   0.942
20732SOL    HW263638   6.919   4.043   0.993
20733SOL     OW63639   7.174   5.402   0.330
20733SOL    HW163640   7.269   5.412   0.323
20733SOL    HW263641   7.143   5.416   0.241
20734SOL     OW63642   6.381   4.341   1.441
20734SOL    HW163643   6.357   4.314   1.530
20734SOL    HW263644   6.349   4.270   1.386
20735SOL     OW63645   6.980   4.199   1.679
20735SOL    HW163646   6.983   4.243   1.764
20735SOL    HW263647   7.033   4.120   1.691
20736SOL     OW63648   6.534   4.608   1.591
20736SOL    HW163649   6.589   4.541   1.550
20736SOL    HW263650   6.484   4.646   1.518
20737SOL     OW63651   6.586   4.129   1.225
20737SOL    HW163652   6.496   4.145   1.254
20737SOL    HW263653   6.576   4.087   1.140
20738SOL     OW63654   6.640   4.426   0.425
20738SOL    HW163655   6.657   4.418   0.519
20738SOL    HW263656   6.555   4.383   0.412
20739SOL     OW63657   5.679   4.541   0.776
20739SOL    HW163658   5.758   4.537   0.830
20739SOL    HW263659   5.631   4.617   0.810
20740SOL     OW63660   5.709   5.600   1.585
20740SOL    HW163661   5.712   5.580   1.679
20740SOL    HW263662   5.630   5.557   1.554
20741SOL     OW63663   6.472   4.082   0.222
20741SOL    HW163664   6.505   4.152   0.166
20741SOL    HW263665   6.473   4.004   0.167
20742SOL     OW63666   7.293   4.292   1.831
20742SOL    HW163667   7.257   4.367   1.783
20742SOL    HW263668   7.316   4.229   1.762
20743SOL     OW63669   6.966   4.867   0.539
20743SOL    HW163670   7.046   4.862   0.486
20743SOL    HW263671   6.910   4.928   0.491
20744SOL     OW63672   6.137   3.896   0.906
20744SOL    HW163673   6.139   3.924   0.997
20744SOL    HW263674   6.136   3.978   0.856
20745SOL     OW63675   6.580   5.163   0.474
20745SOL    HW163676   6.544   5.239   0.427
20745SOL    HW263677   6.557   5.178   0.565
20746SOL     OW63678   5.939   5.540   0.876
20746SOL    HW163679   5.983   5.455   0.881
20746SOL    HW263680   6.008   5.604   0.895
20747SOL     OW63681   7.388   4.771   0.877
20747SOL    HW163682   7.337   4.749   0.800
20747SOL    HW263683   7.324   4.780   0.947
20748SOL     OW63684   6.810   5.266   1.515
20748SOL    HW163685   6.799   5.195   1.579
20748SOL    HW263686   6.740   5.252   1.451
20749SOL     OW63687   5.899   4.706   0.264
20749SOL    HW163688   5.977   4.716   0.210
20749SOL    HW263689   5.862   4.621   0.238
20750SOL     OW63690   7.066   4.484   0.724
20750SOL    HW163691   7.065   4.439   0.808
20750SOL    HW263692   7.144   4.539   0.726
20751SOL     OW63693   6.061   4.995   1.738
20751SOL    HW163694   6.034   5.000   1.646
20751SOL    HW263695   5.979   4.987   1.787
20752SOL     OW63696   6.673   5.512   0.239
20752SOL    HW163697   6.623   5.462   0.304
20752SOL    HW263698   6.734   5.448   0.202
20753SOL     OW63699   5.784   3.994   1.508
20753SOL    HW163700   5.705   4.045   1.527
20753SOL    HW263701   5.767   3.908   1.546
20754SOL     OW63702   7.233   5.146   0.086
20754SOL    HW163703   7.167   5.207   0.051
20754SOL    HW263704   7.187   5.062   0.090
20755SOL     OW63705   6.040   5.452   0.331
20755SOL    HW163706   6.087   5.511   0.391
20755SOL    HW263707   6.109   5.417   0.274
20756SOL     OW63708   6.983   3.818   0.425
20756SOL    HW163709   6.983   3.793   0.333
20756SOL    HW263710   7.076   3.824   0.448
20757SOL     OW63711   5.845   5.516   1.223
20757SOL    HW163712   5.890   5.441   1.262
20757SOL    HW263713   5.832   5.490   1.131
20758SOL     OW63714   6.525   5.426   0.894
20758SOL    HW163715   6.602   5.376   0.922
20758SOL    HW263716   6.486   5.374   0.824
20759SOL     OW63717   5.976   4.415   0.479
20759SOL    HW163718   5.994   4.322   0.489
20759SOL    HW263719   5.885   4.426   0.508
20760SOL     OW63720   7.107   3.947   1.723
20760SOL    HW163721   7.120   3.967   1.816
20760SOL    HW263722   7.038   3.881   1.722
20761SOL     OW63723   6.216   3.847   0.116
20761SOL    HW163724   6.309   3.826   0.119
20761SOL    HW263725   6.206   3.903   0.039
20762SOL     OW63726   6.347   4.001   1.752
20762SOL    HW163727   6.430   3.952   1.750
20762SOL    HW263728   6.301   3.965   1.828
20763SOL     OW63729   6.461   5.251   1.196
20763SOL    HW163730   6.442   5.210   1.112
20763SOL    HW263731   6.528   5.194   1.235
20764SOL     OW63732   6.923   4.313   1.435
20764SOL    HW163733   6.954   4.282   1.520
20764SOL    HW263734   6.959   4.401   1.426
20765SOL     OW63735   6.406   5.110   0.952
20765SOL    HW163736   6.491   5.100   0.909
20765SOL    HW263737   6.344   5.119   0.880
20766SOL     OW63738   6.518   4.236   0.896
20766SOL    HW163739   6.491   4.226   0.804
20766SOL    HW263740   6.545   4.148   0.922
20767SOL     OW63741   6.140   3.779   0.504
20767SOL    HW163742   6.060   3.780   0.557
20767SOL    HW263743   6.133   3.857   0.449
20768SOL     OW63744   7.049   4.947   0.056
20768SOL    HW163745   7.062   4.866   0.106
20768SOL    HW263746   6.956   4.968   0.069
20769SOL     OW63747   5.896   3.800   0.205
20769SOL    HW163748   5.974   3.854   0.204
20769SOL    HW263749   5.927   3.714   0.234
20770SOL     OW63750   6.531   3.976   0.465
20770SOL    HW163751   6.503   4.012   0.381
20770SOL    HW263752   6.626   3.990   0.467
20771SOL     OW63753   6.666   4.413   1.453
20771SOL    HW163754   6.599   4.345   1.461
20771SOL    HW263755   6.748   4.365   1.451
20772SOL     OW63756   6.804   5.296   0.794
20772SOL    HW163757   6.816   5.363   0.727
20772SOL    HW263758   6.871   5.317   0.860
20773SOL     OW63759   6.065   4.881   0.727
20773SOL    HW163760   6.000   4.859   0.794
20773SOL    HW263761   6.018   4.872   0.644
20774SOL     OW63762   6.843   5.513   0.615
20774SOL    HW163763   6.894   5.578   0.565
20774SOL    HW263764   6.773   5.564   0.655
20775SOL     OW63765   6.589   4.294   0.097
20775SOL    HW163766   6.598   4.354   0.024
20775SOL    HW263767   6.679   4.282   0.129
20776SOL     OW63768   5.670   4.281   1.387
20776SOL    HW163769   5.763   4.278   1.364
20776SOL    HW263770   5.664   4.348   1.455
20777SOL     OW63771   6.141   3.951   1.178
20777SOL    HW163772   6.183   3.888   1.236
20777SOL    HW263773   6.049   3.951   1.204
20778SOL     OW63774   6.452   4.184   0.637
20778SOL    HW163775   6.411   4.240   0.571
20778SOL    HW263776   6.474   4.104   0.589
20779SOL     OW63777   6.610   3.775   0.740
20779SOL    HW163778   6.546   3.774   0.669
20779SOL    HW263779   6.583   3.705   0.799
20780SOL     OW63780   7.025   4.882   0.858
20780SOL    HW163781   6.953   4.819   0.859
20780SOL    HW263782   7.048   4.890   0.766
20781SOL     OW63783   7.053   4.332   0.958
20781SOL    HW163784   6.990   4.260   0.966
20781SOL    HW263785   7.106   4.325   1.037
20782SOL     OW63786   7.411   4.540   0.431
20782SOL    HW163787   7.462   4.476   0.481
20782SOL    HW263788   7.368   4.489   0.363
20783SOL     OW63789   6.078   5.125   0.179
20783SOL    HW163790   6.009   5.082   0.229
20783SOL    HW263791   6.033   5.166   0.104
20784SOL     OW63792   7.255   4.995   0.651
20784SOL    HW163793   7.350   4.991   0.668
20784SOL    HW263794   7.231   5.085   0.671
20785SOL     OW63795   7.007   4.288   0.090
20785SOL    HW163796   6.938   4.280   0.156
20785SOL    HW263797   7.048   4.201   0.090
20786SOL     OW63798   6.112   3.981   0.327
20786SOL    HW163799   6.164   3.934   0.261
20786SOL    HW263800   6.088   4.063   0.284
20787SOL     OW63801   7.328   4.968   1.549
20787SOL    HW163802   7.415   4.930   1.540
20787SOL    HW263803   7.344   5.056   1.584
20788SOL     OW63804   6.636   5.078   1.332
20788SOL    HW163805   6.559   5.045   1.379
20788SOL    HW263806   6.710   5.036   1.373
20789SOL     OW63807   7.196   5.356   1.663
20789SOL    HW163808   7.186   5.389   1.574
20789SOL    HW263809   7.275   5.303   1.661
20790SOL     OW63810   6.727   4.943   1.101
20790SOL    HW163811   6.665   4.977   1.165
20790SOL    HW263812   6.696   4.977   1.017
20791SOL     OW63813   7.207   4.820   1.076
20791SOL    HW163814   7.198   4.883   1.148
20791SOL    HW263815   7.132   4.838   1.019
20792SOL     OW63816   6.508   3.811   1.390
20792SOL    HW163817   6.530   3.797   1.298
20792SOL    HW263818   6.585   3.852   1.428
20793SOL     OW63819   6.569   4.840   1.724
20793SOL    HW163820   6.479   4.856   1.752
20793SOL    HW263821   6.565   4.760   1.672
20794SOL     OW63822   6.297   4.786   0.373
20794SOL    HW163823   6.282   4.763   0.465
20794SOL    HW263824   6.376   4.736   0.349
20795SOL     OW63825   6.010   4.544   1.253
20795SOL    HW163826   6.076   4.554   1.321
20795SOL    HW263827   5.975   4.456   1.266
20796SOL     OW63828   6.850   4.098   1.282
20796SOL    HW163829   6.881   4.176   1.329
20796SOL    HW263830   6.759   4.118   1.260
20797SOL     OW63831   5.663   5.300   1.363
20797SOL    HW163832   5.633   5.368   1.302
20797SOL    HW263833   5.757   5.296   1.351
20798SOL     OW63834   5.921   4.853   0.497
20798SOL    HW163835   5.910   4.929   0.439
20798SOL    HW263836   5.924   4.778   0.437
20799SOL     OW63837   6.129   4.248   0.857
20799SOL    HW163838   6.143   4.307   0.783
20799SOL    HW263839   6.194   4.273   0.921
20800SOL     OW63840   6.830   5.074   0.398
20800SOL    HW163841   6.885   5.144   0.432
20800SOL    HW263842   6.742   5.094   0.431
20801SOL     OW63843   6.880   5.187   1.148
20801SOL    HW163844   6.933   5.193   1.228
20801SOL    HW263845   6.826   5.110   1.160
20802SOL     OW63846   7.145   4.326   0.510
20802SOL    HW163847   7.100   4.385   0.570
20802SOL    HW263848   7.166   4.379   0.434
20803SOL     OW63849   5.930   5.259   1.305
20803SOL    HW163850   5.920   5.209   1.224
20803SOL    HW263851   6.025   5.269   1.315
20804SOL     OW63852   6.006   4.471   1.607
20804SOL    HW163853   6.072   4.510   1.548
20804SOL    HW263854   6.042   4.386   1.630
20805SOL     OW63855   7.202   4.506   1.691
20805SOL    HW163856   7.115   4.546   1.685
20805SOL    HW263857   7.252   4.547   1.621
20806SOL     OW63858   6.582   3.861   1.749
20806SOL    HW163859   6.641   3.935   1.733
20806SOL    HW263860   6.635   3.784   1.730
20807SOL     OW63861   6.082   3.758   1.750
20807SOL    HW163862   6.029   3.706   1.690
20807SOL    HW263863   6.030   3.836   1.769
20808SOL     OW63864   6.172   4.598   1.034
20808SOL    HW163865   6.206   4.687   1.038
20808SOL    HW263866   6.115   4.590   1.111
20809SOL     OW63867   6.922   4.580   1.015
20809SOL    HW163868   6.833   4.560   0.984
20809SOL    HW263869   6.970   4.498   1.003
20810SOL     OW63870   6.807   4.260   0.279
20810SOL    HW163871   6.815   4.184   0.335
20810SOL    HW263872   6.750   4.320   0.327
20811SOL     OW63873   5.876   3.922   1.248
20811SOL    HW163874   5.840   3.954   1.331
20811SOL    HW263875   5.859   3.828   1.250
20812SOL     OW63876   5.642   5.038   1.270
20812SOL    HW163877   5.667   4.978   1.340
20812SOL    HW263878   5.639   5.124   1.311
20813SOL     OW63879   6.300   4.349   1.046
20813SOL    HW163880   6.379   4.342   0.992
20813SOL    HW263881   6.271   4.439   1.032
20814SOL     OW63882   7.327   4.686   1.863
20814SOL    HW163883   7.287   4.615   1.813
20814SOL    HW263884   7.265   4.704   1.933
20815SOL     OW63885   5.894   3.784   0.629
20815SOL    HW163886   5.870   3.874   0.648
20815SOL    HW263887   5.903   3.742   0.715
20816SOL     OW63888   7.208   4.092   0.384
20816SOL    HW163889   7.240   4.026   0.445
20816SOL    HW263890   7.176   4.163   0.439
20817SOL     OW63891   6.619   4.482   0.958
20817SOL    HW163892   6.604   4.498   1.051
20817SOL    HW263893   6.590   4.392   0.945
20818SOL     OW63894   6.570   5.296   1.725
20818SOL    HW163895   6.553   5.336   1.639
20818SOL    HW263896   6.607   5.210   1.704
20819SOL     OW63897   7.432   5.223   1.605
20819SOL    HW163898   7.455   5.251   1.517
20819SOL    HW263899   7.513   5.235   1.656
20820SOL     OW63900   5.937   4.653   1.802
20820SOL    HW163901   6.012   4.662   1.862
20820SOL    HW263902   5.965   4.585   1.740
20821SOL     OW63903   7.118   4.035   0.133
20821SOL    HW163904   7.063   3.957   0.128
20821SOL    HW263905   7.140   4.043   0.226
20822SOL     OW63906   6.883   4.532   0.054
20822SOL    HW163907   6.937   4.452   0.052
20822SOL    HW263908   6.928   4.593  -0.004
20823SOL     OW63909   6.656   5.067   0.859
20823SOL    HW163910   6.663   4.995   0.796
20823SOL    HW263911   6.713   5.135   0.822
20824SOL     OW63912   5.897   4.533   0.944
20824SOL    HW163913   5.991   4.552   0.942
20824SOL    HW263914   5.892   4.443   0.977
20825SOL     OW63915   5.907   4.256   1.011
20825SOL    HW163916   5.872   4.168   1.001
20825SOL    HW263917   5.984   4.257   0.954
20826SOL     OW63918   6.723   4.095   1.685
20826SOL    HW163919   6.674   4.147   1.749
20826SOL    HW263920   6.809   4.137   1.681
20827SOL     OW63921   6.748   3.920   1.471
20827SOL    HW163922   6.735   3.981   1.543
20827SOL    HW263923   6.790   3.972   1.403
20828SOL     OW63924   5.675   5.502   0.944
20828SOL    HW163925   5.645   5.425   0.896
20828SOL    HW263926   5.764   5.517   0.911
20829SOL     OW63927   6.074   5.298   0.901
20829SOL    HW163928   6.144   5.359   0.926
20829SOL    HW263929   6.117   5.235   0.843
20830SOL     OW63930   6.551   4.508   1.221
20830SOL    HW163931   6.612   4.491   1.293
20830SOL    HW263932   6.468   4.469   1.250
20831SOL     OW63933   5.625   4.282   1.114
20831SOL    HW163934   5.709   4.277   1.069
20831SOL    HW263935   5.648   4.279   1.207
20832SOL     OW63936   5.769   4.252   1.736
20832SOL    HW163937   5.823   4.204   1.673
20832SOL    HW263938   5.736   4.327   1.687
20833SOL     OW63939   6.971   4.651   1.656
20833SOL    HW163940   6.990   4.745   1.651
20833SOL    HW263941   6.965   4.624   1.564
20834SOL     OW63942   6.396   4.303   0.381
20834SOL    HW163943   6.410   4.228   0.322
20834SOL    HW263944   6.320   4.348   0.345
20835SOL     OW63945   7.223   4.325   1.173
20835SOL    HW163946   7.214   4.268   1.249
20835SOL    HW263947   7.312   4.310   1.141
20836SOL     OW63948   5.821   5.268   1.726
20836SOL    HW163949   5.794   5.322   1.801
20836SOL    HW263950   5.831   5.180   1.762
20837SOL     OW63951   6.309   4.165   1.246
20837SOL    HW163952   6.245   4.096   1.228
20837SOL    HW263953   6.295   4.229   1.176
20838SOL     OW63954   6.506   5.403   1.473
20838SOL    HW163955   6.481   5.360   1.391
20838SOL    HW263956   6.499   5.496   1.454
20839SOL     OW63957   6.043   4.197   0.185
20839SOL    HW163958   6.090   4.276   0.209
20839SOL    HW263959   5.968   4.228   0.135
20840SOL     OW63960   5.729   4.869   1.473
20840SOL    HW163961   5.729   4.824   1.558
20840SOL    HW263962   5.746   4.800   1.410
20841SOL     OW63963   6.904   4.766   1.214
20841SOL    HW163964   6.920   4.701   1.145
20841SOL    HW263965   6.841   4.826   1.176
20842SOL     OW63966   6.887   4.573   0.328
20842SOL    HW163967   6.813   4.534   0.374
20842SOL    HW263968   6.878   4.542   0.237
20843SOL     OW63969   7.372   5.457   1.162
20843SOL    HW163970   7.432   5.482   1.091
20843SOL    HW263971   7.341   5.370   1.137
20844SOL     OW63972   6.824   5.456   1.099
20844SOL    HW163973   6.908   5.482   1.060
20844SOL    HW263974   6.836   5.364   1.123
20845SOL     OW63975   5.676   4.992   1.006
20845SOL    HW163976   5.660   5.006   1.099
20845SOL    HW263977   5.607   4.932   0.978
20846SOL     OW63978   6.269   5.398   1.744
20846SOL    HW163979   6.209   5.472   1.730
20846SOL    HW263980   6.342   5.415   1.684
20847SOL     OW63981   6.487   3.827   0.097
20847SOL    HW163982   6.528   3.834   0.011
20847SOL    HW263983   6.555   3.789   0.153
20848SOL     OW63984   7.317   3.880   0.523
20848SOL    HW163985   7.383   3.857   0.458
20848SOL    HW263986   7.292   3.796   0.561
20849SOL     OW63987   6.979   5.291   0.498
20849SOL    HW163988   7.040   5.326   0.433
20849SOL    HW263989   6.928   5.367   0.527
20850SOL     OW63990   5.720   5.529   1.844
20850SOL    HW163991   5.674   5.455   1.884
20850SOL    HW263992   5.766   5.571   1.917
20851SOL     OW63993   6.860   4.656   0.672
20851SOL    HW163994   6.934   4.597   0.685
20851SOL    HW263995   6.895   4.725   0.615
20852SOL     OW63996   6.382   5.003   1.417
20852SOL    HW163997   6.356   5.046   1.498
20852SOL    HW263998   6.307   5.015   1.359
20853SOL     OW63999   6.249   5.333   0.191
20853SOL    HW164000   6.290   5.338   0.105
20853SOL    HW264001   6.199   5.251   0.189
20854SOL     OW64002   7.203   5.453   1.394
20854SOL    HW164003   7.259   5.455   1.317
20854SOL    HW264004   7.189   5.545   1.417
20855SOL     OW64005   7.430   3.891   0.962
20855SOL    HW164006   7.459   3.802   0.939
20855SOL    HW264007   7.342   3.897   0.925
20856SOL     OW64008   5.838   4.034   0.715
20856SOL    HW164009   5.752   4.070   0.694
20856SOL    HW264010   5.840   4.031   0.811
20857SOL     OW64011   6.779   5.324   0.060
20857SOL    HW164012   6.783   5.231   0.082
20857SOL    HW264013   6.689   5.338   0.030
20858SOL     OW64014   6.410   4.732   1.379
20858SOL    HW164015   6.450   4.725   1.292
20858SOL    HW264016   6.403   4.826   1.395
20859SOL     OW64017   6.518   4.650   0.295
20859SOL    HW164018   6.576   4.670   0.222
20859SOL    HW264019   6.559   4.576   0.339
20860SOL     OW64020   7.042   5.312  -0.014
20860SOL    HW164021   6.956   5.332   0.024
20860SOL    HW264022   7.096   5.389   0.007
20861SOL     OW64023   5.954   5.032   1.492
20861SOL    HW164024   5.937   5.108   1.436
20861SOL    HW264025   5.878   4.975   1.480
20862SOL     OW64026   7.192   5.011   1.281
20862SOL    HW164027   7.246   4.990   1.357
20862SOL    HW264028   7.131   5.077   1.313
20863SOL     OW64029   6.652   4.838   0.715
20863SOL    HW164030   6.578   4.789   0.751
20863SOL    HW264031   6.716   4.772   0.691
20864SOL     OW64032   6.615   3.969   0.962
20864SOL    HW164033   6.613   3.922   0.878
20864SOL    HW264034   6.608   3.900   1.028
20865SOL     OW64035   6.191   5.204   0.476
20865SOL    HW164036   6.229   5.154   0.404
20865SOL    HW264037   6.111   5.243   0.440
20866SOL     OW64038   7.314   4.116   1.376
20866SOL    HW164039   7.387   4.177   1.378
20866SOL    HW264040   7.343   4.045   1.319
20867SOL     OW64041   5.852   5.051   0.313
20867SOL    HW164042   5.771   5.064   0.264
20867SOL    HW264043   5.839   5.100   0.394
20868SOL     OW64044   5.699   4.771   1.729
20868SOL    HW164045   5.623   4.741   1.778
20868SOL    HW264046   5.773   4.723   1.768
20869SOL     OW64047   6.265   3.914   1.496
20869SOL    HW164048   6.351   3.891   1.460
20869SOL    HW264049   6.284   3.947   1.584
20870SOL     OW64050   7.008   4.580   1.394
20870SOL    HW164051   6.957   4.640   1.340
20870SOL    HW264052   7.096   4.583   1.357
20871SOL     OW64053   5.650   3.867   0.308
20871SOL    HW164054   5.649   3.963   0.302
20871SOL    HW264055   5.737   3.842   0.276
20872SOL     OW64056   6.781   5.057   0.121
20872SOL    HW164057   6.687   5.048   0.110
20872SOL    HW264058   6.795   5.049   0.216
20873SOL     OW64059   6.209   4.553   1.436
20873SOL    HW164060   6.266   4.628   1.425
20873SOL    HW264061   6.268   4.478   1.442
20874SOL     OW64062   7.069   5.517   0.985
20874SOL    HW164063   7.093   5.587   0.925
20874SOL    HW264064   7.152   5.480   1.014
20875SOL     OW64065   6.310   4.278   1.693
20875SOL    HW164066   6.351   4.333   1.759
20875SOL    HW264067   6.320   4.189   1.727
20876SOL     OW64068   7.057   4.914   1.626
20876SOL    HW164069   7.046   4.931   1.720
20876SOL    HW264070   7.149   4.936   1.609
20877SOL     OW64071   5.953   5.466   1.574
20877SOL    HW164072   5.871   5.512   1.557
20877SOL    HW264073   5.926   5.383   1.614
20878SOL     OW64074   7.247   4.602   1.254
20878SOL    HW164075   7.243   4.517   1.210
20878SOL    HW264076   7.237   4.666   1.184
20879SOL     OW64077   6.806   4.038   0.447
20879SOL    HW164078   6.866   3.964   0.444
20879SOL    HW264079   6.830   4.085   0.527
20880SOL     OW64080   6.170   4.454   0.675
20880SOL    HW164081   6.210   4.540   0.662
20880SOL    HW264082   6.105   4.447   0.605
20881SOL     OW64083   7.336   4.087   1.649
20881SOL    HW164084   7.320   4.105   1.556
20881SOL    HW264085   7.263   4.031   1.675
20882SOL     OW64086   7.339   4.654   1.508
20882SOL    HW164087   7.322   4.747   1.522
20882SOL    HW264088   7.316   4.639   1.416
20883SOL     OW64089   6.510   5.092   0.061
20883SOL    HW164090   6.452   5.071   0.134
20883SOL    HW264091   6.490   5.183   0.039
20884SOL     OW64092   6.250   5.503   0.934
20884SOL    HW164093   6.233   5.596   0.917
20884SOL    HW264094   6.346   5.495   0.928
20885SOL     OW64095   6.457   4.698   0.854
20885SOL    HW164096   6.506   4.625   0.891
20885SOL    HW264097   6.414   4.739   0.929
20886SOL     OW64098   6.674   4.707   0.067
20886SOL    HW164099   6.716   4.782   0.025
20886SOL    HW264100   6.744   4.642   0.077
20887SOL     OW64101   7.430   5.280   0.843
20887SOL    HW164102   7.351   5.268   0.790
20887SOL    HW264103   7.421   5.217   0.914
20888SOL     OW64104   5.810   5.015   1.846
20888SOL    HW164105   5.761   4.941   1.808
20888SOL    HW264106   5.769   5.029   1.931
20889SOL     OW64107   5.675   4.955   0.671
20889SOL    HW164108   5.689   4.909   0.754
20889SOL    HW264109   5.738   4.916   0.611
20890SOL     OW64110   6.273   5.137   1.629
20890SOL    HW164111   6.198   5.091   1.666
20890SOL    HW264112   6.271   5.223   1.671
20891SOL     OW64113   7.396   3.905   1.233
20891SOL    HW164114   7.400   3.810   1.247
20891SOL    HW264115   7.409   3.915   1.138
20892SOL     OW64116   6.007   4.155   0.526
20892SOL    HW164117   6.046   4.085   0.474
20892SOL    HW264118   5.960   4.110   0.596
20893SOL     OW64119   7.281   5.209   1.091
20893SOL    HW164120   7.203   5.189   1.039
20893SOL    HW264121   7.282   5.142   1.159
20894SOL     OW64122   5.925   4.286   1.292
20894SOL    HW164123   5.975   4.225   1.346
20894SOL    HW264124   5.939   4.255   1.203
20895SOL     OW64125   6.418   5.299   0.678
20895SOL    HW164126   6.391   5.361   0.611
20895SOL    HW264127   6.345   5.238   0.686
20896SOL     OW64128   7.013   3.955   1.117
20896SOL    HW164129   7.029   3.871   1.161
20896SOL    HW264130   6.963   4.006   1.181
20897SOL     OW64131   6.597   3.743   1.130
20897SOL    HW164132   6.538   3.679   1.089
20897SOL    HW264133   6.683   3.701   1.129
20898SOL     OW64134   6.380   5.043   0.303
20898SOL    HW164135   6.342   4.958   0.323
20898SOL    HW264136   6.449   5.055   0.369
20899SOL     OW64137   6.205   5.284   1.287
20899SOL    HW164138   6.204   5.366   1.336
20899SOL    HW264139   6.294   5.278   1.253
20900SOL     OW64140   6.972   3.787   0.124
20900SOL    HW164141   6.973   3.785   0.029
20900SOL    HW264142   6.885   3.820   0.147
20901SOL     OW64143   6.868   4.182   0.670
20901SOL    HW164144   6.821   4.265   0.675
20901SOL    HW264145   6.873   4.152   0.761
20902SOL     OW64146   7.168   3.914   0.887
20902SOL    HW164147   7.114   3.940   0.962
20902SOL    HW264148   7.167   3.991   0.830
20903SOL     OW64149   5.626   4.801   0.340
20903SOL    HW164150   5.718   4.801   0.313
20903SOL    HW264151   5.612   4.714   0.377
20904SOL     OW64152   6.463   5.382   0.360
20904SOL    HW164153   6.382   5.360   0.313
20904SOL    HW264154   6.440   5.459   0.413
20905SOL     OW64155   5.801   4.349   1.998
20905SOL    HW164156   5.715   4.341   2.040
20905SOL    HW264157   5.785   4.325   1.907
20906SOL     OW64158   5.810   4.005   2.851
20906SOL    HW164159   5.836   3.974   2.938
20906SOL    HW264160   5.721   3.973   2.840
20907SOL     OW64161   5.571   4.117   2.500
20907SOL    HW164162   5.495   4.148   2.549
20907SOL    HW264163   5.541   4.036   2.459
20908SOL     OW64164   6.162   5.024   3.056
20908SOL    HW164165   6.072   5.016   3.024
20908SOL    HW264166   6.170   5.115   3.085
20909SOL     OW64167   7.159   5.245   2.575
20909SOL    HW164168   7.116   5.216   2.655
20909SOL    HW264169   7.089   5.247   2.509
20910SOL     OW64170   6.724   4.413   2.548
20910SOL    HW164171   6.761   4.502   2.552
20910SOL    HW264172   6.667   4.407   2.624
20911SOL     OW64173   7.377   4.323   2.086
20911SOL    HW164174   7.345   4.317   1.996
20911SOL    HW264175   7.334   4.250   2.131
20912SOL     OW64176   6.334   4.865   2.911
20912SOL    HW164177   6.268   4.898   2.972
20912SOL    HW264178   6.373   4.943   2.873
20913SOL     OW64179   6.464   4.480   3.693
20913SOL    HW164180   6.429   4.548   3.750
20913SOL    HW264181   6.486   4.525   3.612
20914SOL     OW64182   6.273   4.720   2.505
20914SOL    HW164183   6.338   4.711   2.575
20914SOL    HW264184   6.203   4.774   2.543
20915SOL     OW64185   6.304   4.874   3.681
20915SOL    HW164186   6.349   4.951   3.715
20915SOL    HW264187   6.222   4.908   3.645
20916SOL     OW64188   5.918   5.137   2.930
20916SOL    HW164189   5.841   5.092   2.894
20916SOL    HW264190   5.954   5.185   2.855
20917SOL     OW64191   7.043   5.227   3.224
20917SOL    HW164192   7.095   5.306   3.239
20917SOL    HW264193   6.972   5.233   3.287
20918SOL     OW64194   6.018   4.130   3.370
20918SOL    HW164195   6.094   4.073   3.357
20918SOL    HW264196   5.943   4.070   3.369
20919SOL     OW64197   7.181   4.167   2.614
20919SOL    HW164198   7.106   4.173   2.555
20919SOL    HW264199   7.157   4.221   2.689
20920SOL     OW64200   5.802   5.450   2.328
20920SOL    HW164201   5.828   5.522   2.386
20920SOL    HW264202   5.877   5.437   2.271
20921SOL     OW64203   6.721   5.064   3.557
20921SOL    HW164204   6.756   5.060   3.646
20921SOL    HW264205   6.668   4.985   3.549
20922SOL     OW64206   5.824   5.168   2.404
20922SOL    HW164207   5.790   5.256   2.419
20922SOL    HW264208   5.774   5.112   2.463
20923SOL     OW64209   5.872   4.816   2.763
20923SOL    HW164210   5.860   4.727   2.795
20923SOL    HW264211   5.806   4.867   2.811
20924SOL     OW64212   6.185   5.516   3.296
20924SOL    HW164213   6.104   5.494   3.341
20924SOL    HW264214   6.205   5.605   3.324
20925SOL     OW64215   6.158   4.708   2.006
20925SOL    HW164216   6.210   4.750   1.937
20925SOL    HW264217   6.197   4.740   2.088
20926SOL     OW64218   7.188   3.850   3.327
20926SOL    HW164219   7.177   3.931   3.276
20926SOL    HW264220   7.161   3.874   3.416
20927SOL     OW64221   5.706   4.381   2.423
20927SOL    HW164222   5.669   4.295   2.446
20927SOL    HW264223   5.699   4.432   2.503
20928SOL     OW64224   7.430   5.474   2.187
20928SOL    HW164225   7.498   5.449   2.250
20928SOL    HW264226   7.446   5.566   2.169
20929SOL     OW64227   5.633   5.309   1.973
20929SOL    HW164228   5.613   5.218   1.991
20929SOL    HW264229   5.604   5.356   2.051
20930SOL     OW64230   7.298   4.644   2.494
20930SOL    HW164231   7.342   4.590   2.428
20930SOL    HW264232   7.250   4.709   2.443
20931SOL     OW64233   7.233   4.833   2.286
20931SOL    HW164234   7.319   4.827   2.246
20931SOL    HW264235   7.241   4.902   2.352
20932SOL     OW64236   5.698   4.467   3.442
20932SOL    HW164237   5.780   4.513   3.458
20932SOL    HW264238   5.633   4.537   3.433
20933SOL     OW64239   6.214   5.115   2.597
20933SOL    HW164240   6.168   5.032   2.607
20933SOL    HW264241   6.193   5.143   2.507
20934SOL     OW64242   6.870   4.961   3.275
20934SOL    HW164243   6.900   4.889   3.219
20934SOL    HW264244   6.923   4.953   3.354
20935SOL     OW64245   6.408   3.725   2.374
20935SOL    HW164246   6.449   3.809   2.353
20935SOL    HW264247   6.315   3.745   2.380
20936SOL     OW64248   5.773   4.685   3.135
20936SOL    HW164249   5.856   4.639   3.118
20936SOL    HW264250   5.706   4.622   3.109
20937SOL     OW64251   7.118   4.726   2.060
20937SOL    HW164252   7.048   4.668   2.091
20937SOL    HW264253   7.157   4.762   2.139
20938SOL     OW64254   6.787   5.548   3.491
20938SOL    HW164255   6.777   5.602   3.412
20938SOL    HW264256   6.793   5.458   3.457
20939SOL     OW64257   5.932   3.970   3.713
20939SOL    HW164258   5.968   4.059   3.714
20939SOL    HW264259   5.837   3.983   3.718
20940SOL     OW64260   7.059   5.136   2.807
20940SOL    HW164261   6.992   5.155   2.872
20940SOL    HW264262   7.040   5.047   2.778
20941SOL     OW64263   7.233   5.491   2.435
20941SOL    HW164264   7.213   5.452   2.350
20941SOL    HW264265   7.218   5.420   2.498
20942SOL     OW64266   6.175   4.433   2.134
20942SOL    HW164267   6.175   4.520   2.095
20942SOL    HW264268   6.111   4.439   2.205
20943SOL     OW64269   6.880   4.091   2.787
20943SOL    HW164270   6.787   4.068   2.792
20943SOL    HW264271   6.921   4.037   2.855
20944SOL     OW64272   7.161   5.405   2.174
20944SOL    HW164273   7.255   5.423   2.165
20944SOL    HW264274   7.132   5.386   2.085
20945SOL     OW64275   6.376   4.346   3.295
20945SOL    HW164276   6.358   4.318   3.385
20945SOL    HW264277   6.335   4.280   3.240
20946SOL     OW64278   6.978   4.206   3.543
20946SOL    HW164279   6.980   4.245   3.630
20946SOL    HW264280   7.031   4.127   3.550
20947SOL     OW64281   6.542   4.598   3.453
20947SOL    HW164282   6.590   4.525   3.413
20947SOL    HW264283   6.490   4.634   3.382
20948SOL     OW64284   6.643   4.426   2.282
20948SOL    HW164285   6.663   4.417   2.375
20948SOL    HW264286   6.559   4.381   2.271
20949SOL     OW64287   5.682   4.560   2.629
20949SOL    HW164288   5.758   4.545   2.686
20949SOL    HW264289   5.630   4.626   2.675
20950SOL     OW64290   5.712   5.600   3.444
20950SOL    HW164291   5.715   5.581   3.538
20950SOL    HW264292   5.631   5.558   3.415
20951SOL     OW64293   6.481   4.072   2.058
20951SOL    HW164294   6.525   4.131   1.997
20951SOL    HW264295   6.475   3.989   2.010
20952SOL     OW64296   7.294   4.290   3.689
20952SOL    HW164297   7.258   4.366   3.643
20952SOL    HW264298   7.314   4.227   3.620
20953SOL     OW64299   6.972   4.870   2.410
20953SOL    HW164300   7.048   4.860   2.352
20953SOL    HW264301   6.914   4.929   2.362
20954SOL     OW64302   6.141   3.897   2.765
20954SOL    HW164303   6.145   3.919   2.858
20954SOL    HW264304   6.133   3.982   2.720
20955SOL     OW64305   6.584   5.171   2.328
20955SOL    HW164306   6.556   5.247   2.278
20955SOL    HW264307   6.556   5.189   2.418
20956SOL     OW64308   5.938   5.534   2.724
20956SOL    HW164309   5.974   5.446   2.731
20956SOL    HW264310   6.004   5.591   2.763
20957SOL     OW64311   7.393   4.786   2.716
20957SOL    HW164312   7.345   4.743   2.646
20957SOL    HW264313   7.330   4.792   2.788
20958SOL     OW64314   6.813   5.264   3.375
20958SOL    HW164315   6.800   5.194   3.440
20958SOL    HW264316   6.736   5.259   3.319
20959SOL     OW64317   5.894   4.684   2.119
20959SOL    HW164318   5.977   4.697   2.074
20959SOL    HW264319   5.868   4.595   2.097
20960SOL     OW64320   7.069   4.478   2.580
20960SOL    HW164321   7.056   4.428   2.660
20960SOL    HW264322   7.152   4.523   2.593
20961SOL     OW64323   6.060   4.995   3.598
20961SOL    HW164324   6.033   5.001   3.507
20961SOL    HW264325   5.979   4.983   3.647
20962SOL     OW64326   6.714   5.505   2.087
20962SOL    HW164327   6.637   5.469   2.130
20962SOL    HW264328   6.737   5.440   2.021
20963SOL     OW64329   5.777   3.994   3.361
20963SOL    HW164330   5.697   4.047   3.357
20963SOL    HW264331   5.749   3.911   3.397
20964SOL     OW64332   7.219   5.109   1.956
20964SOL    HW164333   7.176   5.193   1.942
20964SOL    HW264334   7.152   5.044   1.935
20965SOL     OW64335   6.047   5.475   2.171
20965SOL    HW164336   6.095   5.514   2.244
20965SOL    HW264337   6.111   5.422   2.125
20966SOL     OW64338   6.984   3.832   2.307
20966SOL    HW164339   6.979   3.806   2.215
20966SOL    HW264340   7.077   3.831   2.327
20967SOL     OW64341   5.855   5.522   3.078
20967SOL    HW164342   5.890   5.447   3.124
20967SOL    HW264343   5.817   5.486   2.998
20968SOL     OW64344   6.519   5.426   2.754
20968SOL    HW164345   6.575   5.366   2.804
20968SOL    HW264346   6.485   5.374   2.681
20969SOL     OW64347   5.981   4.415   2.333
20969SOL    HW164348   5.997   4.322   2.349
20969SOL    HW264349   5.888   4.428   2.355
20970SOL     OW64350   7.106   3.951   3.581
20970SOL    HW164351   7.118   3.965   3.675
20970SOL    HW264352   7.026   3.899   3.574
20971SOL     OW64353   6.241   3.840   1.958
20971SOL    HW164354   6.282   3.761   1.993
20971SOL    HW264355   6.182   3.808   1.890
20972SOL     OW64356   6.345   4.002   3.616
20972SOL    HW164357   6.426   3.951   3.616
20972SOL    HW264358   6.297   3.970   3.692
20973SOL     OW64359   6.467   5.258   3.054
20973SOL    HW164360   6.441   5.211   2.974
20973SOL    HW264361   6.527   5.198   3.097
20974SOL     OW64362   6.957   4.319   3.293
20974SOL    HW164363   6.963   4.289   3.384
20974SOL    HW264364   6.966   4.414   3.299
20975SOL     OW64365   6.410   5.119   2.814
20975SOL    HW164366   6.492   5.102   2.769
20975SOL    HW264367   6.343   5.116   2.745
20976SOL     OW64368   6.530   4.256   2.757
20976SOL    HW164369   6.502   4.228   2.670
20976SOL    HW264370   6.555   4.175   2.801
20977SOL     OW64371   6.141   3.787   2.352
20977SOL    HW164372   6.066   3.788   2.411
20977SOL    HW264373   6.129   3.864   2.296
20978SOL     OW64374   7.016   4.929   1.900
20978SOL    HW164375   7.044   4.853   1.950
20978SOL    HW264376   6.930   4.951   1.935
20979SOL     OW64377   5.879   3.777   2.049
20979SOL    HW164378   5.939   3.851   2.043
20979SOL    HW264379   5.930   3.709   2.093
20980SOL     OW64380   6.529   3.971   2.315
20980SOL    HW164381   6.507   4.010   2.230
20980SOL    HW264382   6.623   3.989   2.325
20981SOL     OW64383   6.661   4.390   3.313
20981SOL    HW164384   6.582   4.337   3.303
20981SOL    HW264385   6.733   4.330   3.290
20982SOL     OW64386   6.817   5.286   2.647
20982SOL    HW164387   6.826   5.358   2.584
20982SOL    HW264388   6.866   5.315   2.724
20983SOL     OW64389   6.065   4.884   2.586
20983SOL    HW164390   6.003   4.862   2.656
20983SOL    HW264391   6.016   4.871   2.505
20984SOL     OW64392   6.847   5.514   2.475
20984SOL    HW164393   6.892   5.580   2.423
20984SOL    HW264394   6.773   5.561   2.515
20985SOL     OW64395   6.614   4.250   1.888
20985SOL    HW164396   6.568   4.332   1.872
20985SOL    HW264397   6.673   4.269   1.961
20986SOL     OW64398   5.678   4.280   3.248
20986SOL    HW164399   5.771   4.282   3.225
20986SOL    HW264400   5.669   4.344   3.317
20987SOL     OW64401   6.148   3.940   3.035
20987SOL    HW164402   6.192   3.888   3.102
20987SOL    HW264403   6.055   3.940   3.060
20988SOL     OW64404   6.461   4.184   2.502
20988SOL    HW164405   6.402   4.236   2.447
20988SOL    HW264406   6.475   4.104   2.451
20989SOL     OW64407   6.620   3.753   2.594
20989SOL    HW164408   6.547   3.762   2.532
20989SOL    HW264409   6.589   3.691   2.659
20990SOL     OW64410   7.016   4.879   2.713
20990SOL    HW164411   6.950   4.813   2.733
20990SOL    HW264412   7.015   4.886   2.618
20991SOL     OW64413   7.049   4.324   2.818
20991SOL    HW164414   6.983   4.255   2.829
20991SOL    HW264415   7.098   4.324   2.900
20992SOL     OW64416   7.428   4.528   2.265
20992SOL    HW164417   7.485   4.474   2.319
20992SOL    HW264418   7.401   4.470   2.193
20993SOL     OW64419   6.074   5.149   2.015
20993SOL    HW164420   5.998   5.122   2.065
20993SOL    HW264421   6.074   5.093   1.937
20994SOL     OW64422   7.269   5.006   2.483
20994SOL    HW164423   7.361   5.006   2.510
20994SOL    HW264424   7.234   5.088   2.518
20995SOL     OW64425   6.977   4.295   1.935
20995SOL    HW164426   6.912   4.275   2.002
20995SOL    HW264427   7.059   4.259   1.969
20996SOL     OW64428   6.103   3.980   2.160
20996SOL    HW164429   6.163   3.945   2.094
20996SOL    HW264430   6.077   4.065   2.125
20997SOL     OW64431   7.329   4.965   3.417
20997SOL    HW164432   7.410   4.919   3.439
20997SOL    HW264433   7.345   5.055   3.443
20998SOL     OW64434   6.633   5.079   3.191
20998SOL    HW164435   6.557   5.046   3.239
20998SOL    HW264436   6.708   5.038   3.235
20999SOL     OW64437   7.198   5.358   3.526
20999SOL    HW164438   7.188   5.388   3.436
20999SOL    HW264439   7.276   5.302   3.524
21000SOL     OW64440   6.730   4.947   2.961
21000SOL    HW164441   6.666   4.973   3.027
21000SOL    HW264442   6.693   4.975   2.878
21001SOL     OW64443   7.218   4.827   2.930
21001SOL    HW164444   7.212   4.885   3.005
21001SOL    HW264445   7.136   4.840   2.883
21002SOL     OW64446   6.508   3.800   3.253
21002SOL    HW164447   6.523   3.786   3.159
21002SOL    HW264448   6.565   3.874   3.275
21003SOL     OW64449   6.569   4.835   3.584
21003SOL    HW164450   6.478   4.850   3.610
21003SOL    HW264451   6.566   4.754   3.533
21004SOL     OW64452   6.299   4.790   2.233
21004SOL    HW164453   6.282   4.767   2.324
21004SOL    HW264454   6.372   4.734   2.207
21005SOL     OW64455   6.010   4.543   3.108
21005SOL    HW164456   6.073   4.556   3.179
21005SOL    HW264457   5.976   4.455   3.121
21006SOL     OW64458   6.927   4.146   3.091
21006SOL    HW164459   6.942   4.207   3.163
21006SOL    HW264460   6.833   4.129   3.092
21007SOL     OW64461   5.658   5.309   3.232
21007SOL    HW164462   5.624   5.369   3.166
21007SOL    HW264463   5.751   5.301   3.212
21008SOL     OW64464   5.924   4.848   2.351
21008SOL    HW164465   5.911   4.919   2.288
21008SOL    HW264466   5.918   4.768   2.299
21009SOL     OW64467   6.135   4.245   2.716
21009SOL    HW164468   6.152   4.306   2.644
21009SOL    HW264469   6.197   4.270   2.784
21010SOL     OW64470   6.833   5.075   2.256
21010SOL    HW164471   6.888   5.145   2.290
21010SOL    HW264472   6.745   5.095   2.288
21011SOL     OW64473   6.880   5.188   3.006
21011SOL    HW164474   6.930   5.191   3.087
21011SOL    HW264475   6.824   5.111   3.015
21012SOL     OW64476   7.158   4.348   2.343
21012SOL    HW164477   7.112   4.378   2.422
21012SOL    HW264478   7.157   4.424   2.285
21013SOL     OW64479   5.926   5.267   3.165
21013SOL    HW164480   5.913   5.212   3.087
21013SOL    HW264481   6.020   5.271   3.176
21014SOL     OW64482   6.004   4.471   3.470
21014SOL    HW164483   6.071   4.508   3.412
21014SOL    HW264484   6.023   4.378   3.472
21015SOL     OW64485   7.205   4.507   3.551
21015SOL    HW164486   7.117   4.544   3.548
21015SOL    HW264487   7.251   4.548   3.478
21016SOL     OW64488   6.583   3.862   3.635
21016SOL    HW164489   6.638   3.937   3.612
21016SOL    HW264490   6.631   3.786   3.601
21017SOL     OW64491   6.081   3.758   3.616
21017SOL    HW164492   6.032   3.712   3.548
21017SOL    HW264493   6.027   3.834   3.638
21018SOL     OW64494   6.171   4.597   2.892
21018SOL    HW164495   6.198   4.688   2.901
21018SOL    HW264496   6.115   4.581   2.968
21019SOL     OW64497   6.914   4.576   2.872
21019SOL    HW164498   6.822   4.556   2.854
21019SOL    HW264499   6.959   4.493   2.865
21020SOL     OW64500   6.781   4.251   2.120
21020SOL    HW164501   6.789   4.173   2.176
21020SOL    HW264502   6.738   4.316   2.176
21021SOL     OW64503   5.887   3.924   3.108
21021SOL    HW164504   5.837   3.955   3.183
21021SOL    HW264505   5.871   3.830   3.105
21022SOL     OW64506   5.669   5.042   3.134
21022SOL    HW164507   5.685   4.976   3.202
21022SOL    HW264508   5.637   5.118   3.182
21023SOL     OW64509   6.304   4.347   2.906
21023SOL    HW164510   6.387   4.336   2.860
21023SOL    HW264511   6.280   4.438   2.890
21024SOL     OW64512   7.327   4.690   3.721
21024SOL    HW164513   7.285   4.618   3.674
21024SOL    HW264514   7.267   4.709   3.793
21025SOL     OW64515   5.900   3.791   2.483
21025SOL    HW164516   5.869   3.879   2.504
21025SOL    HW264517   5.906   3.746   2.567
21026SOL     OW64518   7.220   4.112   2.217
21026SOL    HW164519   7.243   4.044   2.280
21026SOL    HW264520   7.190   4.186   2.271
21027SOL     OW64521   6.633   4.495   2.833
21027SOL    HW164522   6.611   4.508   2.925
21027SOL    HW264523   6.603   4.406   2.814
21028SOL     OW64524   6.578   5.302   3.583
21028SOL    HW164525   6.556   5.338   3.498
21028SOL    HW264526   6.605   5.212   3.565
21029SOL     OW64527   7.433   5.219   3.468
21029SOL    HW164528   7.456   5.250   3.380
21029SOL    HW264529   7.512   5.232   3.519
21030SOL     OW64530   5.942   4.649   3.669
21030SOL    HW164531   6.022   4.656   3.722
21030SOL    HW264532   5.962   4.582   3.604
21031SOL     OW64533   7.114   3.998   1.987
21031SOL    HW164534   7.053   3.932   2.017
21031SOL    HW264535   7.151   4.036   2.067
21032SOL     OW64536   6.871   4.547   1.889
21032SOL    HW164537   6.911   4.460   1.895
21032SOL    HW264538   6.904   4.583   1.807
21033SOL     OW64539   6.654   5.067   2.713
21033SOL    HW164540   6.661   4.993   2.654
21033SOL    HW264541   6.715   5.132   2.677
21034SOL     OW64542   5.896   4.530   2.800
21034SOL    HW164543   5.990   4.548   2.808
21034SOL    HW264544   5.887   4.441   2.834
21035SOL     OW64545   5.910   4.255   2.868
21035SOL    HW164546   5.872   4.167   2.860
21035SOL    HW264547   5.987   4.253   2.812
21036SOL     OW64548   6.726   4.089   3.568
21036SOL    HW164549   6.673   4.148   3.622
21036SOL    HW264550   6.805   4.139   3.549
21037SOL     OW64551   6.764   3.925   3.347
21037SOL    HW164552   6.746   3.985   3.420
21037SOL    HW264553   6.735   3.973   3.270
21038SOL     OW64554   5.599   5.035   2.046
21038SOL    HW164555   5.511   5.052   2.015
21038SOL    HW264556   5.594   4.948   2.086
21039SOL     OW64557   5.675   5.499   2.803
21039SOL    HW164558   5.640   5.422   2.758
21039SOL    HW264559   5.763   5.510   2.768
21040SOL     OW64560   6.073   5.298   2.755
21040SOL    HW164561   6.141   5.359   2.783
21040SOL    HW264562   6.119   5.231   2.705
21041SOL     OW64563   6.548   4.511   3.090
21041SOL    HW164564   6.609   4.487   3.160
21041SOL    HW264565   6.471   4.457   3.106
21042SOL     OW64566   5.619   4.271   2.982
21042SOL    HW164567   5.703   4.266   2.938
21042SOL    HW264568   5.641   4.272   3.075
21043SOL     OW64569   5.778   4.243   3.595
21043SOL    HW164570   5.825   4.205   3.520
21043SOL    HW264571   5.728   4.315   3.557
21044SOL     OW64572   6.973   4.652   3.523
21044SOL    HW164573   6.988   4.747   3.520
21044SOL    HW264574   6.965   4.627   3.431
21045SOL     OW64575   6.409   4.300   2.220
21045SOL    HW164576   6.409   4.221   2.166
21045SOL    HW264577   6.329   4.346   2.194
21046SOL     OW64578   7.217   4.340   3.037
21046SOL    HW164579   7.196   4.279   3.108
21046SOL    HW264580   7.305   4.315   3.009
21047SOL     OW64581   5.827   5.267   3.591
21047SOL    HW164582   5.795   5.320   3.665
21047SOL    HW264583   5.832   5.178   3.626
21048SOL     OW64584   6.228   4.196   3.121
21048SOL    HW164585   6.216   4.107   3.089
21048SOL    HW264586   6.257   4.245   3.045
21049SOL     OW64587   6.518   5.402   3.328
21049SOL    HW164588   6.484   5.359   3.249
21049SOL    HW264589   6.501   5.495   3.314
21050SOL     OW64590   6.038   4.212   2.028
21050SOL    HW164591   6.098   4.280   2.059
21050SOL    HW264592   5.952   4.255   2.027
21051SOL     OW64593   5.747   4.867   3.335
21051SOL    HW164594   5.734   4.822   3.419
21051SOL    HW264595   5.752   4.796   3.271
21052SOL     OW64596   6.912   4.769   3.067
21052SOL    HW164597   6.918   4.700   3.001
21052SOL    HW264598   6.847   4.830   3.032
21053SOL     OW64599   6.910   4.577   2.165
21053SOL    HW164600   6.838   4.549   2.222
21053SOL    HW264601   6.876   4.565   2.077
21054SOL     OW64602   7.367   5.456   3.021
21054SOL    HW164603   7.427   5.480   2.950
21054SOL    HW264604   7.338   5.368   2.998
21055SOL     OW64605   6.824   5.457   2.958
21055SOL    HW164606   6.909   5.481   2.922
21055SOL    HW264607   6.833   5.366   2.984
21056SOL     OW64608   5.681   4.993   2.869
21056SOL    HW164609   5.671   5.008   2.964
21056SOL    HW264610   5.606   4.939   2.845
21057SOL     OW64611   6.263   5.401   3.607
21057SOL    HW164612   6.198   5.471   3.601
21057SOL    HW264613   6.328   5.422   3.541
21058SOL     OW64614   7.316   3.889   2.366
21058SOL    HW164615   7.383   3.870   2.300
21058SOL    HW264616   7.296   3.804   2.405
21059SOL     OW64617   6.981   5.292   2.356
21059SOL    HW164618   7.036   5.329   2.286
21059SOL    HW264619   6.927   5.366   2.386
21060SOL     OW64620   5.728   5.532   3.703
21060SOL    HW164621   5.680   5.460   3.743
21060SOL    HW264622   5.774   5.574   3.775
21061SOL     OW64623   6.861   4.653   2.531
21061SOL    HW164624   6.933   4.592   2.544
21061SOL    HW264625   6.898   4.724   2.480
21062SOL     OW64626   6.379   5.006   3.276
21062SOL    HW164627   6.353   5.048   3.358
21062SOL    HW264628   6.300   5.010   3.221
21063SOL     OW64629   6.254   5.354   2.019
21063SOL    HW164630   6.267   5.366   1.925
21063SOL    HW264631   6.199   5.276   2.025
21064SOL     OW64632   7.204   5.453   3.257
21064SOL    HW164633   7.258   5.456   3.178
21064SOL    HW264634   7.190   5.544   3.280
21065SOL     OW64635   7.426   3.886   2.822
21065SOL    HW164636   7.454   3.797   2.801
21065SOL    HW264637   7.338   3.893   2.786
21066SOL     OW64638   5.833   4.041   2.572
21066SOL    HW164639   5.745   4.074   2.553
21066SOL    HW264640   5.835   4.033   2.668
21067SOL     OW64641   6.794   5.321   1.898
21067SOL    HW164642   6.783   5.230   1.927
21067SOL    HW264643   6.726   5.333   1.832
21068SOL     OW64644   6.412   4.731   3.250
21068SOL    HW164645   6.450   4.714   3.164
21068SOL    HW264646   6.406   4.826   3.256
21069SOL     OW64647   6.503   4.636   2.146
21069SOL    HW164648   6.567   4.672   2.085
21069SOL    HW264649   6.550   4.569   2.195
21070SOL     OW64650   7.072   5.361   1.911
21070SOL    HW164651   6.979   5.344   1.895
21070SOL    HW264652   7.111   5.364   1.823
21071SOL     OW64653   5.962   5.035   3.349
21071SOL    HW164654   5.932   5.112   3.300
21071SOL    HW264655   5.890   4.972   3.340
21072SOL     OW64656   7.204   5.014   3.147
21072SOL    HW164657   7.248   4.988   3.227
21072SOL    HW264658   7.137   5.077   3.175
21073SOL     OW64659   6.653   4.835   2.576
21073SOL    HW164660   6.579   4.788   2.614
21073SOL    HW264661   6.716   4.766   2.554
21074SOL     OW64662   6.628   3.988   2.805
21074SOL    HW164663   6.615   3.904   2.759
21074SOL    HW264664   6.607   3.969   2.896
21075SOL     OW64665   6.193   5.215   2.337
21075SOL    HW164666   6.242   5.164   2.273
21075SOL    HW264667   6.102   5.210   2.306
21076SOL     OW64668   7.315   4.123   3.235
21076SOL    HW164669   7.389   4.184   3.234
21076SOL    HW264670   7.344   4.049   3.182
21077SOL     OW64671   5.852   5.070   2.159
21077SOL    HW164672   5.761   5.060   2.131
21077SOL    HW264673   5.846   5.109   2.246
21078SOL     OW64674   5.705   4.779   3.596
21078SOL    HW164675   5.626   4.749   3.640
21078SOL    HW264676   5.775   4.726   3.634
21079SOL     OW64677   6.260   3.911   3.353
21079SOL    HW164678   6.346   3.899   3.314
21079SOL    HW264679   6.278   3.952   3.438
21080SOL     OW64680   5.677   4.042   1.891
21080SOL    HW164681   5.581   4.033   1.891
21080SOL    HW264682   5.693   4.123   1.842
21081SOL     OW64683   7.011   4.595   3.260
21081SOL    HW164684   6.960   4.651   3.201
21081SOL    HW264685   7.097   4.590   3.218
21082SOL     OW64686   5.645   3.870   2.165
21082SOL    HW164687   5.636   3.959   2.131
21082SOL    HW264688   5.729   3.840   2.130
21083SOL     OW64689   6.765   5.054   1.983
21083SOL    HW164690   6.678   5.015   1.984
21083SOL    HW264691   6.791   5.057   2.075
21084SOL     OW64692   6.204   4.557   3.297
21084SOL    HW164693   6.264   4.630   3.290
21084SOL    HW264694   6.260   4.479   3.297
21085SOL     OW64695   7.071   5.518   2.851
21085SOL    HW164696   7.099   5.585   2.788
21085SOL    HW264697   7.153   5.481   2.884
21086SOL     OW64698   6.319   4.277   3.549
21086SOL    HW164699   6.353   4.332   3.620
21086SOL    HW264700   6.324   4.188   3.583
21087SOL     OW64701   7.055   4.917   3.490
21087SOL    HW164702   7.041   4.933   3.583
21087SOL    HW264703   7.147   4.938   3.475
21088SOL     OW64704   5.953   5.463   3.435
21088SOL    HW164705   5.871   5.509   3.418
21088SOL    HW264706   5.926   5.382   3.478
21089SOL     OW64707   7.252   4.605   3.113
21089SOL    HW164708   7.238   4.519   3.075
21089SOL    HW264709   7.239   4.666   3.040
21090SOL     OW64710   6.804   4.048   2.316
21090SOL    HW164711   6.862   3.971   2.314
21090SOL    HW264712   6.833   4.097   2.392
21091SOL     OW64713   6.183   4.449   2.527
21091SOL    HW164714   6.216   4.538   2.518
21091SOL    HW264715   6.110   4.444   2.465
21092SOL     OW64716   7.337   4.088   3.505
21092SOL    HW164717   7.318   4.106   3.413
21092SOL    HW264718   7.265   4.032   3.533
21093SOL     OW64719   7.343   4.656   3.364
21093SOL    HW164720   7.316   4.746   3.382
21093SOL    HW264721   7.315   4.640   3.274
21094SOL     OW64722   6.446   5.086   1.912
21094SOL    HW164723   6.413   5.101   2.001
21094SOL    HW264724   6.459   5.174   1.877
21095SOL     OW64725   6.247   5.509   2.788
21095SOL    HW164726   6.233   5.603   2.777
21095SOL    HW264727   6.342   5.498   2.787
21096SOL     OW64728   6.459   4.700   2.718
21096SOL    HW164729   6.508   4.627   2.757
21096SOL    HW264730   6.414   4.741   2.791
21097SOL     OW64731   6.673   4.725   1.954
21097SOL    HW164732   6.645   4.768   1.874
21097SOL    HW264733   6.741   4.663   1.926
21098SOL     OW64734   7.422   5.281   2.705
21098SOL    HW164735   7.343   5.270   2.652
21098SOL    HW264736   7.408   5.225   2.781
21099SOL     OW64737   5.804   5.014   3.703
21099SOL    HW164738   5.767   4.936   3.660
21099SOL    HW264739   5.747   5.029   3.779
21100SOL     OW64740   5.686   4.957   2.535
21100SOL    HW164741   5.661   4.914   2.617
21100SOL    HW264742   5.750   4.897   2.496
21101SOL     OW64743   6.275   5.139   3.494
21101SOL    HW164744   6.199   5.090   3.526
21101SOL    HW264745   6.268   5.225   3.536
21102SOL     OW64746   7.407   3.913   3.094
21102SOL    HW164747   7.392   3.821   3.118
21102SOL    HW264748   7.410   3.912   2.999
21103SOL     OW64749   6.011   4.154   2.385
21103SOL    HW164750   6.036   4.077   2.334
21103SOL    HW264751   5.958   4.119   2.457
21104SOL     OW64752   7.284   5.205   2.950
21104SOL    HW164753   7.205   5.185   2.900
21104SOL    HW264754   7.284   5.141   3.022
21105SOL     OW64755   5.933   4.288   3.155
21105SOL    HW164756   5.987   4.236   3.215
21105SOL    HW264757   5.951   4.251   3.068
21106SOL     OW64758   6.418   5.295   2.535
21106SOL    HW164759   6.374   5.346   2.467
21106SOL    HW264760   6.353   5.229   2.560
21107SOL     OW64761   7.027   3.932   2.972
21107SOL    HW164762   6.992   3.857   3.020
21107SOL    HW264763   7.000   4.008   3.024
21108SOL     OW64764   6.588   3.723   2.993
21108SOL    HW164765   6.542   3.665   2.934
21108SOL    HW264766   6.679   3.693   2.991
21109SOL     OW64767   6.365   5.058   2.182
21109SOL    HW164768   6.337   4.967   2.193
21109SOL    HW264769   6.444   5.065   2.236
21110SOL     OW64770   6.205   5.285   3.147
21110SOL    HW164771   6.203   5.364   3.200
21110SOL    HW264772   6.294   5.280   3.114
21111SOL     OW64773   6.951   3.776   2.036
21111SOL    HW164774   6.986   3.701   1.988
21111SOL    HW264775   6.860   3.751   2.056
21112SOL     OW64776   6.897   4.191   2.534
21112SOL    HW164777   6.838   4.267   2.536
21112SOL    HW264778   6.886   4.151   2.620
21113SOL     OW64779   7.170   3.907   2.742
21113SOL    HW164780   7.117   3.924   2.821
21113SOL    HW264781   7.160   3.985   2.689
21114SOL     OW64782   5.632   4.784   2.164
21114SOL    HW164783   5.725   4.772   2.146
21114SOL    HW264784   5.601   4.697   2.188
21115SOL     OW64785   6.479   5.391   2.196
21115SOL    HW164786   6.401   5.372   2.144
21115SOL    HW264787   6.452   5.458   2.258
21116SOL     OW64788   5.806   4.334   3.860
21116SOL    HW164789   5.719   4.334   3.899
21116SOL    HW264790   5.790   4.316   3.767
21117SOL     OW64791   5.810   3.999   4.711
21117SOL    HW164792   5.836   3.970   4.799
21117SOL    HW264793   5.719   3.973   4.704
21118SOL     OW64794   5.575   4.113   4.361
21118SOL    HW164795   5.503   4.152   4.410
21118SOL    HW264796   5.537   4.035   4.321
21119SOL     OW64797   6.165   5.020   4.919
21119SOL    HW164798   6.076   5.004   4.888
21119SOL    HW264799   6.166   5.112   4.945
21120SOL     OW64800   7.161   5.240   4.441
21120SOL    HW164801   7.115   5.213   4.521
21120SOL    HW264802   7.092   5.244   4.374
21121SOL     OW64803   6.724   4.418   4.414
21121SOL    HW164804   6.765   4.504   4.410
21121SOL    HW264805   6.670   4.421   4.493
21122SOL     OW64806   7.379   4.322   3.943
21122SOL    HW164807   7.347   4.316   3.853
21122SOL    HW264808   7.337   4.250   3.989
21123SOL     OW64809   6.360   4.876   4.787
21123SOL    HW164810   6.286   4.899   4.842
21123SOL    HW264811   6.382   4.957   4.741
21124SOL     OW64812   6.476   4.489   5.566
21124SOL    HW164813   6.419   4.547   5.616
21124SOL    HW264814   6.485   4.533   5.481
21125SOL     OW64815   6.274   4.719   4.367
21125SOL    HW164816   6.337   4.714   4.440
21125SOL    HW264817   6.202   4.772   4.402
21126SOL     OW64818   6.307   4.882   5.539
21126SOL    HW164819   6.345   4.963   5.573
21126SOL    HW264820   6.221   4.907   5.506
21127SOL     OW64821   5.921   5.132   4.790
21127SOL    HW164822   5.842   5.087   4.761
21127SOL    HW264823   5.949   5.183   4.713
21128SOL     OW64824   6.038   4.103   5.185
21128SOL    HW164825   6.104   4.037   5.207
21128SOL    HW264826   5.956   4.066   5.220
21129SOL     OW64827   7.184   4.162   4.482
21129SOL    HW164828   7.113   4.185   4.423
21129SOL    HW264829   7.174   4.222   4.556
21130SOL     OW64830   5.801   5.446   4.191
21130SOL    HW164831   5.826   5.520   4.246
21130SOL    HW264832   5.875   5.433   4.132
21131SOL     OW64833   6.735   5.055   5.408
21131SOL    HW164834   6.767   5.060   5.498
21131SOL    HW264835   6.675   4.981   5.408
21132SOL     OW64836   5.829   5.167   4.275
21132SOL    HW164837   5.789   5.253   4.283
21132SOL    HW264838   5.777   5.111   4.333
21133SOL     OW64839   5.881   4.816   4.639
21133SOL    HW164840   5.858   4.727   4.665
21133SOL    HW264841   5.812   4.871   4.678
21134SOL     OW64842   6.201   5.506   5.182
21134SOL    HW164843   6.115   5.482   5.214
21134SOL    HW264844   6.206   5.601   5.193
21135SOL     OW64845   6.166   4.703   3.862
21135SOL    HW164846   6.215   4.751   3.795
21135SOL    HW264847   6.198   4.738   3.945
21136SOL     OW64848   7.189   3.846   5.194
21136SOL    HW164849   7.179   3.927   5.144
21136SOL    HW264850   7.156   3.868   5.282
21137SOL     OW64851   5.715   4.375   4.285
21137SOL    HW164852   5.668   4.294   4.306
21137SOL    HW264853   5.704   4.430   4.362
21138SOL     OW64854   7.433   5.473   4.048
21138SOL    HW164855   7.500   5.450   4.112
21138SOL    HW264856   7.447   5.566   4.031
21139SOL     OW64857   5.640   5.311   3.832
21139SOL    HW164858   5.614   5.220   3.847
21139SOL    HW264859   5.607   5.359   3.908
21140SOL     OW64860   7.277   4.649   4.375
21140SOL    HW164861   7.356   4.599   4.352
21140SOL    HW264862   7.254   4.696   4.295
21141SOL     OW64863   7.238   4.825   4.153
21141SOL    HW164864   7.324   4.824   4.111
21141SOL    HW264865   7.245   4.892   4.221
21142SOL     OW64866   5.693   4.476   5.296
21142SOL    HW164867   5.770   4.524   5.325
21142SOL    HW264868   5.626   4.544   5.282
21143SOL     OW64869   6.212   5.115   4.460
21143SOL    HW164870   6.166   5.032   4.472
21143SOL    HW264871   6.189   5.143   4.371
21144SOL     OW64872   6.933   4.982   5.123
21144SOL    HW164873   6.914   4.902   5.073
21144SOL    HW264874   6.951   4.951   5.212
21145SOL     OW64875   6.403   3.730   4.233
21145SOL    HW164876   6.440   3.815   4.209
21145SOL    HW264877   6.309   3.745   4.239
21146SOL     OW64878   5.759   4.695   4.979
21146SOL    HW164879   5.827   4.629   4.964
21146SOL    HW264880   5.677   4.650   4.959
21147SOL     OW64881   7.121   4.726   3.923
21147SOL    HW164882   7.051   4.668   3.953
21147SOL    HW264883   7.161   4.759   4.003
21148SOL     OW64884   6.807   5.562   5.355
21148SOL    HW164885   6.781   5.616   5.280
21148SOL    HW264886   6.766   5.477   5.339
21149SOL     OW64887   5.931   3.979   5.560
21149SOL    HW164888   5.961   4.070   5.568
21149SOL    HW264889   5.836   3.985   5.574
21150SOL     OW64890   7.054   5.136   4.681
21150SOL    HW164891   6.987   5.150   4.748
21150SOL    HW264892   7.036   5.048   4.646
21151SOL     OW64893   7.235   5.489   4.297
21151SOL    HW164894   7.212   5.451   4.213
21151SOL    HW264895   7.223   5.418   4.360
21152SOL     OW64896   6.178   4.442   4.002
21152SOL    HW164897   6.172   4.526   3.957
21152SOL    HW264898   6.112   4.447   4.071
21153SOL     OW64899   6.864   4.052   4.627
21153SOL    HW164900   6.772   4.037   4.647
21153SOL    HW264901   6.911   4.022   4.704
21154SOL     OW64902   7.163   5.403   4.037
21154SOL    HW164903   7.256   5.422   4.027
21154SOL    HW264904   7.132   5.385   3.948
21155SOL     OW64905   6.391   4.343   5.166
21155SOL    HW164906   6.369   4.315   5.255
21155SOL    HW264907   6.356   4.275   5.110
21156SOL     OW64908   6.981   4.206   5.402
21156SOL    HW164909   6.983   4.245   5.490
21156SOL    HW264910   7.029   4.124   5.412
21157SOL     OW64911   6.541   4.611   5.313
21157SOL    HW164912   6.591   4.539   5.275
21157SOL    HW264913   6.489   4.645   5.239
21158SOL     OW64914   6.587   4.121   4.965
21158SOL    HW164915   6.498   4.156   4.966
21158SOL    HW264916   6.579   4.032   4.999
21159SOL     OW64917   6.642   4.423   4.145
21159SOL    HW164918   6.657   4.417   4.239
21159SOL    HW264919   6.557   4.381   4.131
21160SOL     OW64920   5.687   4.549   4.490
21160SOL    HW164921   5.758   4.541   4.553
21160SOL    HW264922   5.624   4.608   4.531
21161SOL     OW64923   5.722   5.605   5.298
21161SOL    HW164924   5.714   5.585   5.392
21161SOL    HW264925   5.661   5.544   5.256
21162SOL     OW64926   6.499   4.059   3.911
21162SOL    HW164927   6.529   4.132   3.857
21162SOL    HW264928   6.500   3.984   3.852
21163SOL     OW64929   7.301   4.290   5.552
21163SOL    HW164930   7.262   4.365   5.507
21163SOL    HW264931   7.316   4.225   5.483
21164SOL     OW64932   6.972   4.870   4.271
21164SOL    HW164933   7.048   4.857   4.214
21164SOL    HW264934   6.915   4.928   4.222
21165SOL     OW64935   6.150   3.900   4.632
21165SOL    HW164936   6.150   3.921   4.726
21165SOL    HW264937   6.130   3.983   4.589
21166SOL     OW64938   6.585   5.175   4.192
21166SOL    HW164939   6.556   5.249   4.138
21166SOL    HW264940   6.550   5.193   4.279
21167SOL     OW64941   5.939   5.536   4.584
21167SOL    HW164942   5.975   5.448   4.593
21167SOL    HW264943   6.008   5.594   4.618
21168SOL     OW64944   7.387   4.790   4.591
21168SOL    HW164945   7.337   4.759   4.515
21168SOL    HW264946   7.324   4.791   4.663
21169SOL     OW64947   6.826   5.251   5.221
21169SOL    HW164948   6.800   5.190   5.290
21169SOL    HW264949   6.743   5.282   5.184
21170SOL     OW64950   5.894   4.684   3.984
21170SOL    HW164951   5.968   4.694   3.924
21170SOL    HW264952   5.857   4.599   3.962
21171SOL     OW64953   7.071   4.471   4.444
21171SOL    HW164954   7.065   4.431   4.530
21171SOL    HW264955   7.148   4.528   4.448
21172SOL     OW64956   6.061   4.995   5.458
21172SOL    HW164957   6.032   5.003   5.367
21172SOL    HW264958   5.981   4.976   5.507
21173SOL     OW64959   6.717   5.503   3.951
21173SOL    HW164960   6.638   5.470   3.993
21173SOL    HW264961   6.738   5.437   3.885
21174SOL     OW64962   5.774   4.017   5.246
21174SOL    HW164963   5.690   4.056   5.221
21174SOL    HW264964   5.750   3.939   5.296
21175SOL     OW64965   7.217   5.108   3.813
21175SOL    HW164966   7.173   5.192   3.803
21175SOL    HW264967   7.149   5.043   3.795
21176SOL     OW64968   6.046   5.472   4.036
21176SOL    HW164969   6.094   5.516   4.106
21176SOL    HW264970   6.112   5.419   3.991
21177SOL     OW64971   6.984   3.810   4.194
21177SOL    HW164972   6.977   3.791   4.100
21177SOL    HW264973   7.076   3.793   4.214
21178SOL     OW64974   5.869   5.524   4.927
21178SOL    HW164975   5.888   5.445   4.977
21178SOL    HW264976   5.804   5.496   4.862
21179SOL     OW64977   6.523   5.425   4.609
21179SOL    HW164978   6.582   5.363   4.652
21179SOL    HW264979   6.485   5.376   4.536
21180SOL     OW64980   5.987   4.413   4.200
21180SOL    HW164981   6.001   4.320   4.217
21180SOL    HW264982   5.893   4.426   4.218
21181SOL     OW64983   7.099   3.949   5.444
21181SOL    HW164984   7.111   3.963   5.538
21181SOL    HW264985   7.018   3.898   5.438
21182SOL     OW64986   6.243   3.832   3.827
21182SOL    HW164987   6.312   3.765   3.824
21182SOL    HW264988   6.179   3.804   3.762
21183SOL     OW64989   6.346   3.999   5.477
21183SOL    HW164990   6.428   3.950   5.474
21183SOL    HW264991   6.297   3.959   5.549
21184SOL     OW64992   6.471   5.257   4.917
21184SOL    HW164993   6.442   5.216   4.835
21184SOL    HW264994   6.527   5.191   4.958
21185SOL     OW64995   6.930   4.309   5.154
21185SOL    HW164996   6.954   4.273   5.240
21185SOL    HW264997   6.959   4.400   5.157
21186SOL     OW64998   6.410   5.124   4.672
21186SOL    HW164999   6.491   5.108   4.625
21186SOL    HW265000   6.341   5.120   4.606
21187SOL     OW65001   6.532   4.251   4.621
21187SOL    HW165002   6.503   4.226   4.533
21187SOL    HW265003   6.547   4.169   4.666
21188SOL     OW65004   6.133   3.776   4.202
21188SOL    HW165005   6.063   3.781   4.267
21188SOL    HW265006   6.129   3.860   4.156
21189SOL     OW65007   7.013   4.928   3.763
21189SOL    HW165008   7.041   4.853   3.814
21189SOL    HW265009   6.926   4.949   3.796
21190SOL     OW65010   5.944   3.744   3.886
21190SOL    HW165011   5.954   3.835   3.858
21190SOL    HW265012   5.876   3.708   3.830
21191SOL     OW65013   6.525   3.971   4.169
21191SOL    HW165014   6.500   4.002   4.082
21191SOL    HW265015   6.616   3.999   4.180
21192SOL     OW65016   6.666   4.408   5.177
21192SOL    HW165017   6.589   4.351   5.183
21192SOL    HW265018   6.740   4.347   5.174
21193SOL     OW65019   6.820   5.294   4.515
21193SOL    HW165020   6.821   5.360   4.446
21193SOL    HW265021   6.882   5.326   4.580
21194SOL     OW65022   6.066   4.881   4.452
21194SOL    HW165023   6.003   4.860   4.520
21194SOL    HW265024   6.018   4.870   4.370
21195SOL     OW65025   6.845   5.515   4.338
21195SOL    HW165026   6.891   5.580   4.284
21195SOL    HW265027   6.771   5.563   4.375
21196SOL     OW65028   6.609   4.257   3.754
21196SOL    HW165029   6.560   4.337   3.732
21196SOL    HW265030   6.671   4.285   3.822
21197SOL     OW65031   5.683   4.287   5.104
21197SOL    HW165032   5.777   4.289   5.085
21197SOL    HW265033   5.671   4.353   5.172
21198SOL     OW65034   6.151   3.949   4.905
21198SOL    HW165035   6.195   3.901   4.975
21198SOL    HW265036   6.058   3.948   4.929
21199SOL     OW65037   6.459   4.180   4.365
21199SOL    HW165038   6.392   4.240   4.331
21199SOL    HW265039   6.459   4.107   4.303
21200SOL     OW65040   6.616   3.758   4.425
21200SOL    HW165041   6.534   3.750   4.377
21200SOL    HW265042   6.613   3.689   4.491
21201SOL     OW65043   7.014   4.881   4.578
21201SOL    HW165044   6.945   4.816   4.589
21201SOL    HW265045   7.025   4.888   4.483
21202SOL     OW65046   7.052   4.331   4.694
21202SOL    HW165047   6.985   4.267   4.719
21202SOL    HW265048   7.112   4.332   4.768
21203SOL     OW65049   7.427   4.531   4.113
21203SOL    HW165050   7.483   4.482   4.173
21203SOL    HW265051   7.405   4.470   4.044
21204SOL     OW65052   6.075   5.147   3.876
21204SOL    HW165053   6.001   5.121   3.930
21204SOL    HW265054   6.064   5.097   3.795
21205SOL     OW65055   7.273   4.999   4.351
21205SOL    HW165056   7.365   4.997   4.375
21205SOL    HW265057   7.242   5.083   4.383
21206SOL     OW65058   6.980   4.295   3.799
21206SOL    HW165059   6.915   4.277   3.867
21206SOL    HW265060   7.062   4.265   3.837
21207SOL     OW65061   6.117   3.984   4.031
21207SOL    HW165062   6.166   3.943   3.960
21207SOL    HW265063   6.088   4.068   3.994
21208SOL     OW65064   7.338   4.972   5.285
21208SOL    HW165065   7.422   4.927   5.278
21208SOL    HW265066   7.359   5.057   5.322
21209SOL     OW65067   6.625   5.074   5.067
21209SOL    HW165068   6.539   5.047   5.100
21209SOL    HW265069   6.687   5.035   5.129
21210SOL     OW65070   7.174   5.322   5.363
21210SOL    HW165071   7.195   5.404   5.318
21210SOL    HW265072   7.259   5.280   5.377
21211SOL     OW65073   6.718   4.943   4.812
21211SOL    HW165074   6.641   4.943   4.869
21211SOL    HW265075   6.684   4.965   4.725
21212SOL     OW65076   7.203   4.820   4.786
21212SOL    HW165077   7.184   4.876   4.862
21212SOL    HW265078   7.128   4.834   4.727
21213SOL     OW65079   6.568   4.843   5.444
21213SOL    HW165080   6.478   4.857   5.474
21213SOL    HW265081   6.564   4.761   5.395
21214SOL     OW65082   6.299   4.792   4.093
21214SOL    HW165083   6.278   4.768   4.183
21214SOL    HW265084   6.373   4.737   4.070
21215SOL     OW65085   6.010   4.542   4.970
21215SOL    HW165086   6.068   4.557   5.045
21215SOL    HW265087   5.975   4.454   4.984
21216SOL     OW65088   6.864   4.157   4.935
21216SOL    HW165089   6.888   4.205   5.014
21216SOL    HW265090   6.769   4.144   4.942
21217SOL     OW65091   5.667   5.356   5.112
21217SOL    HW165092   5.611   5.371   5.036
21217SOL    HW265093   5.736   5.298   5.080
21218SOL     OW65094   5.941   4.849   4.208
21218SOL    HW165095   5.918   4.922   4.151
21218SOL    HW265096   5.928   4.771   4.154
21219SOL     OW65097   6.138   4.238   4.575
21219SOL    HW165098   6.150   4.299   4.503
21219SOL    HW265099   6.196   4.270   4.644
21220SOL     OW65100   6.832   5.075   4.119
21220SOL    HW165101   6.888   5.145   4.153
21220SOL    HW265102   6.745   5.097   4.150
21221SOL     OW65103   6.862   5.167   4.885
21221SOL    HW165104   6.850   5.149   4.978
21221SOL    HW265105   6.809   5.100   4.841
21222SOL     OW65106   7.161   4.344   4.208
21222SOL    HW165107   7.114   4.380   4.283
21222SOL    HW265108   7.195   4.420   4.161
21223SOL     OW65109   5.926   5.267   5.023
21223SOL    HW165110   5.909   5.211   4.947
21223SOL    HW265111   6.022   5.269   5.030
21224SOL     OW65112   6.000   4.489   5.341
21224SOL    HW165113   6.070   4.505   5.278
21224SOL    HW265114   5.992   4.393   5.344
21225SOL     OW65115   7.202   4.504   5.419
21225SOL    HW165116   7.114   4.541   5.414
21225SOL    HW265117   7.250   4.545   5.346
21226SOL     OW65118   6.584   3.865   5.481
21226SOL    HW165119   6.638   3.938   5.452
21226SOL    HW265120   6.634   3.787   5.455
21227SOL     OW65121   6.076   3.761   5.483
21227SOL    HW165122   6.027   3.714   5.415
21227SOL    HW265123   6.022   3.837   5.502
21228SOL     OW65124   6.170   4.597   4.760
21228SOL    HW165125   6.164   4.692   4.748
21228SOL    HW265126   6.114   4.578   4.835
21229SOL     OW65127   6.915   4.581   4.743
21229SOL    HW165128   6.825   4.557   4.719
21229SOL    HW265129   6.964   4.499   4.734
21230SOL     OW65130   6.785   4.254   3.986
21230SOL    HW165131   6.767   4.173   4.033
21230SOL    HW265132   6.744   4.322   4.039
21231SOL     OW65133   5.887   3.922   4.967
21231SOL    HW165134   5.827   3.952   5.035
21231SOL    HW265135   5.875   3.827   4.964
21232SOL     OW65136   5.669   5.053   5.014
21232SOL    HW165137   5.703   4.984   5.071
21232SOL    HW265138   5.576   5.060   5.038
21233SOL     OW65139   6.299   4.353   4.763
21233SOL    HW165140   6.381   4.353   4.713
21233SOL    HW265141   6.267   4.443   4.756
21234SOL     OW65142   7.320   4.692   5.584
21234SOL    HW165143   7.284   4.618   5.537
21234SOL    HW265144   7.260   4.707   5.657
21235SOL     OW65145   5.898   3.790   4.344
21235SOL    HW165146   5.867   3.877   4.367
21235SOL    HW265147   5.903   3.744   4.428
21236SOL     OW65148   7.200   4.104   4.082
21236SOL    HW165149   7.233   4.040   4.144
21236SOL    HW265150   7.182   4.182   4.135
21237SOL     OW65151   6.635   4.491   4.691
21237SOL    HW165152   6.612   4.506   4.783
21237SOL    HW265153   6.603   4.402   4.673
21238SOL     OW65154   6.608   5.315   5.424
21238SOL    HW165155   6.564   5.343   5.344
21238SOL    HW265156   6.593   5.221   5.427
21239SOL     OW65157   7.430   5.232   5.330
21239SOL    HW165158   7.459   5.252   5.241
21239SOL    HW265159   7.509   5.241   5.384
21240SOL     OW65160   5.953   4.657   5.553
21240SOL    HW165161   6.039   4.658   5.596
21240SOL    HW265162   5.963   4.596   5.480
21241SOL     OW65163   7.114   3.988   3.849
21241SOL    HW165164   7.052   3.922   3.881
21241SOL    HW265165   7.148   4.030   3.928
21242SOL     OW65166   6.870   4.545   3.752
21242SOL    HW165167   6.910   4.459   3.758
21242SOL    HW265168   6.903   4.582   3.670
21243SOL     OW65169   6.655   5.072   4.570
21243SOL    HW165170   6.662   4.998   4.511
21243SOL    HW265171   6.716   5.137   4.534
21244SOL     OW65172   5.895   4.525   4.667
21244SOL    HW165173   5.989   4.541   4.675
21244SOL    HW265174   5.882   4.437   4.702
21245SOL     OW65175   5.914   4.246   4.734
21245SOL    HW165176   5.874   4.160   4.724
21245SOL    HW265177   5.989   4.244   4.674
21246SOL     OW65178   6.724   4.099   5.412
21246SOL    HW165179   6.671   4.149   5.474
21246SOL    HW265180   6.807   4.146   5.407
21247SOL     OW65181   6.801   3.921   5.209
21247SOL    HW165182   6.770   3.988   5.270
21247SOL    HW265183   6.723   3.897   5.159
21248SOL     OW65184   5.606   5.035   3.901
21248SOL    HW165185   5.516   5.053   3.873
21248SOL    HW265186   5.600   4.951   3.946
21249SOL     OW65187   5.678   5.498   4.668
21249SOL    HW165188   5.640   5.423   4.623
21249SOL    HW265189   5.765   5.508   4.631
21250SOL     OW65190   6.076   5.304   4.619
21250SOL    HW165191   6.147   5.356   4.658
21250SOL    HW265192   6.121   5.236   4.569
21251SOL     OW65193   6.553   4.509   4.947
21251SOL    HW165194   6.610   4.487   5.021
21251SOL    HW265195   6.468   4.470   4.970
21252SOL     OW65196   5.619   4.264   4.839
21252SOL    HW165197   5.705   4.264   4.796
21252SOL    HW265198   5.638   4.275   4.932
21253SOL     OW65199   5.782   4.253   5.447
21253SOL    HW165200   5.773   4.179   5.387
21253SOL    HW265201   5.723   4.320   5.412
21254SOL     OW65202   6.973   4.653   5.385
21254SOL    HW165203   6.991   4.746   5.382
21254SOL    HW265204   6.967   4.626   5.293
21255SOL     OW65205   6.409   4.301   4.075
21255SOL    HW165206   6.395   4.222   4.024
21255SOL    HW265207   6.331   4.355   4.058
21256SOL     OW65208   7.229   4.335   4.901
21256SOL    HW165209   7.217   4.274   4.974
21256SOL    HW265210   7.317   4.316   4.869
21257SOL     OW65211   5.836   5.268   5.463
21257SOL    HW165212   5.793   5.313   5.537
21257SOL    HW265213   5.837   5.176   5.489
21258SOL     OW65214   6.310   4.176   4.969
21258SOL    HW165215   6.249   4.103   4.958
21258SOL    HW265216   6.290   4.236   4.897
21259SOL     OW65217   6.540   5.402   5.169
21259SOL    HW165218   6.504   5.355   5.093
21259SOL    HW265219   6.502   5.489   5.163
21260SOL     OW65220   6.047   4.215   3.906
21260SOL    HW165221   6.101   4.290   3.934
21260SOL    HW265222   5.959   4.252   3.896
21261SOL     OW65223   5.765   4.862   5.195
21261SOL    HW165224   5.730   4.821   5.274
21261SOL    HW265225   5.756   4.795   5.127
21262SOL     OW65226   6.908   4.780   4.930
21262SOL    HW165227   6.919   4.707   4.868
21262SOL    HW265228   6.839   4.834   4.891
21263SOL     OW65229   6.909   4.582   4.026
21263SOL    HW165230   6.836   4.556   4.082
21263SOL    HW265231   6.877   4.569   3.937
21264SOL     OW65232   7.374   5.464   4.886
21264SOL    HW165233   7.434   5.487   4.815
21264SOL    HW265234   7.342   5.377   4.862
21265SOL     OW65235   6.828   5.448   4.838
21265SOL    HW165236   6.911   5.471   4.795
21265SOL    HW265237   6.836   5.354   4.856
21266SOL     OW65238   5.686   4.994   4.743
21266SOL    HW165239   5.671   5.008   4.836
21266SOL    HW265240   5.611   4.941   4.714
21267SOL     OW65241   6.258   5.407   5.461
21267SOL    HW165242   6.188   5.472   5.473
21267SOL    HW265243   6.288   5.420   5.371
21268SOL     OW65244   7.312   3.888   4.227
21268SOL    HW165245   7.380   3.871   4.162
21268SOL    HW265246   7.294   3.802   4.266
21269SOL     OW65247   6.984   5.292   4.222
21269SOL    HW165248   7.037   5.328   4.151
21269SOL    HW265249   6.928   5.365   4.249
21270SOL     OW65250   5.724   5.541   5.561
21270SOL    HW165251   5.677   5.465   5.597
21270SOL    HW265252   5.770   5.578   5.636
21271SOL     OW65253   6.866   4.651   4.393
21271SOL    HW165254   6.939   4.590   4.404
21271SOL    HW265255   6.902   4.723   4.342
21272SOL     OW65256   6.370   5.009   5.134
21272SOL    HW165257   6.342   5.050   5.216
21272SOL    HW265258   6.291   5.012   5.079
21273SOL     OW65259   6.254   5.351   3.882
21273SOL    HW165260   6.264   5.366   3.788
21273SOL    HW265261   6.199   5.273   3.888
21274SOL     OW65262   7.178   5.440   5.100
21274SOL    HW165263   7.242   5.442   5.030
21274SOL    HW265264   7.170   5.531   5.128
21275SOL     OW65265   7.426   3.888   4.686
21275SOL    HW165266   7.458   3.801   4.664
21275SOL    HW265267   7.338   3.891   4.650
21276SOL     OW65268   5.831   4.038   4.433
21276SOL    HW165269   5.745   4.073   4.411
21276SOL    HW265270   5.831   4.031   4.529
21277SOL     OW65271   6.796   5.319   3.759
21277SOL    HW165272   6.784   5.229   3.789
21277SOL    HW265273   6.727   5.332   3.694
21278SOL     OW65274   6.410   4.736   5.105
21278SOL    HW165275   6.426   4.728   5.011
21278SOL    HW265276   6.394   4.829   5.118
21279SOL     OW65277   6.509   4.642   4.016
21279SOL    HW165278   6.570   4.675   3.950
21279SOL    HW265279   6.556   4.570   4.058
21280SOL     OW65280   7.072   5.360   3.774
21280SOL    HW165281   6.979   5.344   3.759
21280SOL    HW265282   7.110   5.364   3.686
21281SOL     OW65283   5.968   5.040   5.208
21281SOL    HW165284   5.930   5.114   5.160
21281SOL    HW265285   5.902   4.971   5.202
21282SOL     OW65286   7.181   5.075   5.064
21282SOL    HW165287   7.253   5.030   5.108
21282SOL    HW265288   7.106   5.016   5.074
21283SOL     OW65289   6.657   4.835   4.443
21283SOL    HW165290   6.580   4.789   4.478
21283SOL    HW265291   6.716   4.765   4.416
21284SOL     OW65292   6.608   3.967   4.659
21284SOL    HW165293   6.555   3.926   4.591
21284SOL    HW265294   6.601   3.909   4.734
21285SOL     OW65295   6.189   5.214   4.201
21285SOL    HW165296   6.234   5.164   4.133
21285SOL    HW265297   6.097   5.212   4.176
21286SOL     OW65298   7.312   4.128   5.097
21286SOL    HW165299   7.389   4.185   5.100
21286SOL    HW265300   7.340   4.053   5.045
21287SOL     OW65301   5.859   5.068   4.029
21287SOL    HW165302   5.771   5.059   3.993
21287SOL    HW265303   5.846   5.107   4.115
21288SOL     OW65304   5.705   4.780   5.464
21288SOL    HW165305   5.622   4.751   5.502
21288SOL    HW265306   5.771   4.725   5.506
21289SOL     OW65307   6.262   3.912   5.215
21289SOL    HW165308   6.348   3.898   5.176
21289SOL    HW265309   6.281   3.945   5.303
21290SOL     OW65310   5.664   4.031   3.742
21290SOL    HW165311   5.571   4.024   3.720
21290SOL    HW265312   5.692   4.114   3.703
21291SOL     OW65313   7.006   4.590   5.122
21291SOL    HW165314   6.953   4.642   5.062
21291SOL    HW265315   7.093   4.587   5.082
21292SOL     OW65316   5.641   3.871   4.034
21292SOL    HW165317   5.597   3.943   3.990
21292SOL    HW265318   5.732   3.900   4.041
21293SOL     OW65319   6.761   5.056   3.843
21293SOL    HW165320   6.670   5.027   3.841
21293SOL    HW265321   6.785   5.054   3.936
21294SOL     OW65322   6.209   4.548   5.160
21294SOL    HW165323   6.267   4.624   5.153
21294SOL    HW265324   6.267   4.473   5.166
21295SOL     OW65325   7.068   5.510   4.712
21295SOL    HW165326   7.089   5.578   4.648
21295SOL    HW265327   7.152   5.473   4.737
21296SOL     OW65328   6.332   4.270   5.415
21296SOL    HW165329   6.344   4.317   5.497
21296SOL    HW265330   6.329   4.177   5.441
21297SOL     OW65331   7.065   4.922   5.358
21297SOL    HW165332   7.046   4.930   5.451
21297SOL    HW265333   7.161   4.929   5.352
21298SOL     OW65334   5.959   5.459   5.300
21298SOL    HW165335   5.877   5.503   5.275
21298SOL    HW265336   5.930   5.379   5.345
21299SOL     OW65337   7.243   4.604   4.975
21299SOL    HW165338   7.243   4.514   4.943
21299SOL    HW265339   7.238   4.658   4.896
21300SOL     OW65340   6.799   4.035   4.200
21300SOL    HW165341   6.880   4.015   4.152
21300SOL    HW265342   6.824   4.105   4.261
21301SOL     OW65343   6.192   4.446   4.387
21301SOL    HW165344   6.220   4.537   4.380
21301SOL    HW265345   6.117   4.439   4.328
21302SOL     OW65346   7.330   4.086   5.369
21302SOL    HW165347   7.316   4.105   5.276
21302SOL    HW265348   7.258   4.030   5.394
21303SOL     OW65349   7.332   4.652   5.230
21303SOL    HW165350   7.333   4.747   5.240
21303SOL    HW265351   7.311   4.637   5.138
21304SOL     OW65352   6.459   5.087   3.780
21304SOL    HW165353   6.417   5.094   3.867
21304SOL    HW265354   6.454   5.176   3.745
21305SOL     OW65355   6.260   5.509   4.678
21305SOL    HW165356   6.237   5.596   4.643
21305SOL    HW265357   6.351   5.496   4.652
21306SOL     OW65358   6.459   4.703   4.584
21306SOL    HW165359   6.505   4.628   4.621
21306SOL    HW265360   6.417   4.746   4.659
21307SOL     OW65361   6.675   4.726   3.817
21307SOL    HW165362   6.644   4.769   3.737
21307SOL    HW265363   6.740   4.663   3.787
21308SOL     OW65364   7.434   5.276   4.564
21308SOL    HW165365   7.348   5.262   4.523
21308SOL    HW265366   7.446   5.200   4.621
21309SOL     OW65367   5.802   5.014   5.564
21309SOL    HW165368   5.768   4.936   5.520
21309SOL    HW265369   5.742   5.028   5.638
21310SOL     OW65370   5.684   4.959   4.406
21310SOL    HW165371   5.646   4.915   4.482
21310SOL    HW265372   5.731   4.890   4.359
21311SOL     OW65373   6.276   5.142   5.358
21311SOL    HW165374   6.201   5.088   5.383
21311SOL    HW265375   6.262   5.226   5.402
21312SOL     OW65376   7.398   3.916   4.957
21312SOL    HW165377   7.398   3.823   4.980
21312SOL    HW265378   7.409   3.918   4.862
21313SOL     OW65379   6.022   4.153   4.259
21313SOL    HW165380   6.036   4.080   4.199
21313SOL    HW265381   5.962   4.118   4.325
21314SOL     OW65382   7.268   5.223   4.831
21314SOL    HW165383   7.199   5.192   4.773
21314SOL    HW265384   7.269   5.161   4.904
21315SOL     OW65385   5.941   4.286   5.014
21315SOL    HW165386   5.981   4.221   5.070
21315SOL    HW265387   5.942   4.248   4.926
21316SOL     OW65388   6.415   5.296   4.394
21316SOL    HW165389   6.375   5.350   4.327
21316SOL    HW265390   6.349   5.230   4.415
21317SOL     OW65391   7.014   3.954   4.840
21317SOL    HW165392   7.003   3.877   4.896
21317SOL    HW265393   6.969   4.025   4.886
21318SOL     OW65394   6.592   3.721   4.800
21318SOL    HW165395   6.566   3.751   4.887
21318SOL    HW265396   6.678   3.681   4.813
21319SOL     OW65397   6.365   5.057   4.041
21319SOL    HW165398   6.333   4.968   4.052
21319SOL    HW265399   6.441   5.063   4.099
21320SOL     OW65400   6.206   5.284   5.010
21320SOL    HW165401   6.207   5.359   5.069
21320SOL    HW265402   6.295   5.280   4.974
21321SOL     OW65403   6.947   3.775   3.916
21321SOL    HW165404   6.983   3.712   3.854
21321SOL    HW265405   6.859   3.743   3.935
21322SOL     OW65406   6.885   4.192   4.398
21322SOL    HW165407   6.834   4.273   4.404
21322SOL    HW265408   6.879   4.153   4.485
21323SOL     OW65409   7.162   3.909   4.611
21323SOL    HW165410   7.113   3.933   4.690
21323SOL    HW265411   7.166   3.989   4.560
21324SOL     OW65412   5.635   4.792   4.031
21324SOL    HW165413   5.728   4.779   4.012
21324SOL    HW265414   5.603   4.705   4.055
21325SOL     OW65415   6.479   5.394   4.058
21325SOL    HW165416   6.401   5.373   4.006
21325SOL    HW265417   6.450   5.462   4.118
21326SOL     OW65418   5.807   4.337   5.718
21326SOL    HW165419   5.720   4.334   5.759
21326SOL    HW265420   5.790   4.320   5.626
21327SOL     OW65421   5.804   4.009   6.578
21327SOL    HW165422   5.829   3.973   6.663
21327SOL    HW265423   5.715   3.977   6.564
21328SOL     OW65424   5.589   4.108   6.226
21328SOL    HW165425   5.509   4.141   6.266
21328SOL    HW265426   5.562   4.026   6.184
21329SOL     OW65427   6.163   5.020   6.780
21329SOL    HW165428   6.076   5.008   6.740
21329SOL    HW265429   6.165   5.112   6.805
21330SOL     OW65430   7.164   5.245   6.299
21330SOL    HW165431   7.119   5.213   6.378
21330SOL    HW265432   7.096   5.246   6.232
21331SOL     OW65433   6.730   4.417   6.277
21331SOL    HW165434   6.769   4.504   6.268
21331SOL    HW265435   6.675   4.422   6.355
21332SOL     OW65436   7.375   4.321   5.809
21332SOL    HW165437   7.346   4.314   5.718
21332SOL    HW265438   7.332   4.248   5.853
21333SOL     OW65439   6.362   4.875   6.653
21333SOL    HW165440   6.285   4.897   6.705
21333SOL    HW265441   6.384   4.956   6.607
21334SOL     OW65442   6.474   4.486   7.421
21334SOL    HW165443   6.422   4.549   7.472
21334SOL    HW265444   6.487   4.528   7.336
21335SOL     OW65445   6.276   4.722   6.226
21335SOL    HW165446   6.337   4.716   6.299
21335SOL    HW265447   6.204   4.776   6.260
21336SOL     OW65448   6.305   4.878   7.407
21336SOL    HW165449   6.349   4.957   7.438
21336SOL    HW265450   6.223   4.909   7.369
21337SOL     OW65451   5.921   5.135   6.652
21337SOL    HW165452   5.843   5.091   6.620
21337SOL    HW265453   5.953   5.185   6.577
21338SOL     OW65454   7.042   5.225   6.951
21338SOL    HW165455   7.093   5.305   6.964
21338SOL    HW265456   6.969   5.233   7.012
21339SOL     OW65457   6.037   4.105   7.054
21339SOL    HW165458   6.102   4.035   7.065
21339SOL    HW265459   5.954   4.064   7.079
21340SOL     OW65460   7.183   4.162   6.334
21340SOL    HW165461   7.107   4.169   6.276
21340SOL    HW265462   7.170   4.232   6.398
21341SOL     OW65463   5.801   5.446   6.056
21341SOL    HW165464   5.827   5.521   6.109
21341SOL    HW265465   5.872   5.434   5.993
21342SOL     OW65466   6.723   5.065   7.283
21342SOL    HW165467   6.756   5.060   7.373
21342SOL    HW265468   6.669   4.986   7.272
21343SOL     OW65469   5.840   5.168   6.142
21343SOL    HW165470   5.792   5.250   6.148
21343SOL    HW265471   5.789   5.106   6.195
21344SOL     OW65472   5.893   4.817   6.511
21344SOL    HW165473   5.865   4.727   6.530
21344SOL    HW265474   5.817   4.871   6.535
21345SOL     OW65475   6.192   5.513   7.030
21345SOL    HW165476   6.108   5.491   7.070
21345SOL    HW265477   6.204   5.606   7.051
21346SOL     OW65478   6.189   4.693   5.711
21346SOL    HW165479   6.234   4.753   5.651
21346SOL    HW265480   6.204   4.731   5.798
21347SOL     OW65481   7.188   3.851   7.052
21347SOL    HW165482   7.194   3.934   7.004
21347SOL    HW265483   7.155   3.877   7.138
21348SOL     OW65484   5.722   4.366   6.138
21348SOL    HW165485   5.669   4.287   6.154
21348SOL    HW265486   5.708   4.420   6.216
21349SOL     OW65487   7.429   5.476   5.909
21349SOL    HW165488   7.498   5.450   5.970
21349SOL    HW265489   7.448   5.568   5.890
21350SOL     OW65490   5.646   5.313   5.689
21350SOL    HW165491   5.615   5.223   5.701
21350SOL    HW265492   5.611   5.361   5.765
21351SOL     OW65493   7.287   4.653   6.234
21351SOL    HW165494   7.352   4.595   6.193
21351SOL    HW265495   7.251   4.704   6.161
21352SOL     OW65496   7.235   4.827   6.013
21352SOL    HW165497   7.322   4.822   5.973
21352SOL    HW265498   7.244   4.895   6.080
21353SOL     OW65499   5.698   4.469   7.167
21353SOL    HW165500   5.780   4.518   7.173
21353SOL    HW265501   5.631   4.536   7.151
21354SOL     OW65502   6.212   5.116   6.320
21354SOL    HW165503   6.166   5.033   6.332
21354SOL    HW265504   6.188   5.144   6.232
21355SOL     OW65505   6.868   4.960   7.002
21355SOL    HW165506   6.895   4.889   6.943
21355SOL    HW265507   6.925   4.950   7.079
21356SOL     OW65508   6.411   3.731   6.103
21356SOL    HW165509   6.448   3.815   6.076
21356SOL    HW265510   6.316   3.747   6.106
21357SOL     OW65511   5.772   4.685   6.866
21357SOL    HW165512   5.854   4.642   6.843
21357SOL    HW265513   5.705   4.636   6.819
21358SOL     OW65514   7.118   4.726   5.785
21358SOL    HW165515   7.048   4.668   5.815
21358SOL    HW265516   7.158   4.758   5.866
21359SOL     OW65517   6.791   5.546   7.214
21359SOL    HW165518   6.775   5.600   7.137
21359SOL    HW265519   6.791   5.456   7.181
21360SOL     OW65520   5.929   3.976   7.428
21360SOL    HW165521   5.960   4.067   7.423
21360SOL    HW265522   5.835   3.984   7.441
21361SOL     OW65523   7.058   5.139   6.530
21361SOL    HW165524   6.989   5.156   6.594
21361SOL    HW265525   7.041   5.049   6.500
21362SOL     OW65526   7.233   5.492   6.159
21362SOL    HW165527   7.213   5.455   6.073
21362SOL    HW265528   7.219   5.420   6.221
21363SOL     OW65529   6.178   4.441   5.864
21363SOL    HW165530   6.167   4.523   5.815
21363SOL    HW265531   6.110   4.445   5.932
21364SOL     OW65532   6.869   4.100   6.523
21364SOL    HW165533   6.778   4.069   6.527
21364SOL    HW265534   6.917   4.042   6.581
21365SOL     OW65535   7.161   5.409   5.896
21365SOL    HW165536   7.255   5.426   5.887
21365SOL    HW265537   7.132   5.387   5.807
21366SOL     OW65538   6.392   4.337   7.028
21366SOL    HW165539   6.367   4.310   7.116
21366SOL    HW265540   6.355   4.270   6.971
21367SOL     OW65541   6.981   4.205   7.262
21367SOL    HW165542   6.982   4.246   7.349
21367SOL    HW265543   7.028   4.123   7.273
21368SOL     OW65544   6.536   4.611   7.175
21368SOL    HW165545   6.588   4.541   7.135
21368SOL    HW265546   6.487   4.648   7.102
21369SOL     OW65547   6.588   4.125   6.811
21369SOL    HW165548   6.498   4.142   6.840
21369SOL    HW265549   6.578   4.084   6.725
21370SOL     OW65550   6.644   4.425   6.007
21370SOL    HW165551   6.659   4.414   6.100
21370SOL    HW265552   6.559   4.384   5.991
21371SOL     OW65553   5.694   4.530   6.347
21371SOL    HW165554   5.745   4.540   6.427
21371SOL    HW265555   5.617   4.585   6.361
21372SOL     OW65556   5.711   5.600   7.161
21372SOL    HW165557   5.701   5.581   7.255
21372SOL    HW265558   5.659   5.532   7.118
21373SOL     OW65559   6.480   4.072   5.783
21373SOL    HW165560   6.525   4.127   5.719
21373SOL    HW265561   6.443   4.000   5.732
21374SOL     OW65562   7.302   4.296   7.415
21374SOL    HW165563   7.263   4.370   7.369
21374SOL    HW265564   7.314   4.230   7.348
21375SOL     OW65565   6.974   4.872   6.134
21375SOL    HW165566   7.047   4.856   6.074
21375SOL    HW265567   6.914   4.928   6.084
21376SOL     OW65568   6.147   3.895   6.490
21376SOL    HW165569   6.143   3.931   6.578
21376SOL    HW265570   6.127   3.969   6.433
21377SOL     OW65571   6.588   5.177   6.054
21377SOL    HW165572   6.557   5.250   6.001
21377SOL    HW265573   6.552   5.193   6.141
21378SOL     OW65574   5.940   5.537   6.449
21378SOL    HW165575   5.975   5.448   6.457
21378SOL    HW265576   6.010   5.593   6.482
21379SOL     OW65577   7.393   4.787   6.453
21379SOL    HW165578   7.344   4.756   6.377
21379SOL    HW265579   7.328   4.789   6.524
21380SOL     OW65580   6.811   5.262   7.100
21380SOL    HW165581   6.799   5.193   7.165
21380SOL    HW265582   6.742   5.247   7.035
21381SOL     OW65583   5.890   4.676   5.843
21381SOL    HW165584   5.917   4.673   5.751
21381SOL    HW265585   5.837   4.597   5.854
21382SOL     OW65586   7.072   4.480   6.302
21382SOL    HW165587   7.063   4.435   6.386
21382SOL    HW265588   7.152   4.532   6.311
21383SOL     OW65589   6.058   4.997   7.324
21383SOL    HW165590   6.029   5.005   7.234
21383SOL    HW265591   5.978   4.978   7.373
21384SOL     OW65592   6.716   5.503   5.810
21384SOL    HW165593   6.637   5.472   5.854
21384SOL    HW265594   6.737   5.434   5.747
21385SOL     OW65595   5.771   4.014   7.100
21385SOL    HW165596   5.687   4.049   7.070
21385SOL    HW265597   5.751   3.925   7.131
21386SOL     OW65598   7.213   5.107   5.671
21386SOL    HW165599   7.165   5.190   5.667
21386SOL    HW265600   7.146   5.040   5.657
21387SOL     OW65601   6.048   5.478   5.893
21387SOL    HW165602   6.095   5.516   5.968
21387SOL    HW265603   6.109   5.414   5.857
21388SOL     OW65604   6.984   3.830   6.031
21388SOL    HW165605   6.974   3.805   5.939
21388SOL    HW265606   7.079   3.829   6.046
21389SOL     OW65607   5.863   5.522   6.794
21389SOL    HW165608   5.885   5.440   6.839
21389SOL    HW265609   5.806   5.495   6.722
21390SOL     OW65610   6.522   5.426   6.471
21390SOL    HW165611   6.577   5.363   6.517
21390SOL    HW265612   6.484   5.376   6.399
21391SOL     OW65613   5.990   4.408   6.066
21391SOL    HW165614   6.007   4.315   6.081
21391SOL    HW265615   5.896   4.417   6.078
21392SOL     OW65616   7.100   3.948   7.307
21392SOL    HW165617   7.111   3.964   7.401
21392SOL    HW265618   7.026   3.887   7.302
21393SOL     OW65619   6.245   3.841   5.682
21393SOL    HW165620   6.282   3.759   5.716
21393SOL    HW265621   6.180   3.813   5.618
21394SOL     OW65622   6.355   3.999   7.344
21394SOL    HW165623   6.436   3.947   7.339
21394SOL    HW265624   6.302   3.955   7.410
21395SOL     OW65625   6.467   5.260   6.779
21395SOL    HW165626   6.442   5.215   6.699
21395SOL    HW265627   6.528   5.200   6.822
21396SOL     OW65628   6.927   4.310   7.014
21396SOL    HW165629   6.954   4.283   7.102
21396SOL    HW265630   6.954   4.401   7.008
21397SOL     OW65631   6.409   5.123   6.537
21397SOL    HW165632   6.491   5.105   6.491
21397SOL    HW265633   6.342   5.119   6.469
21398SOL     OW65634   6.525   4.240   6.477
21398SOL    HW165635   6.497   4.229   6.387
21398SOL    HW265636   6.542   4.151   6.509
21399SOL     OW65637   6.145   3.788   6.079
21399SOL    HW165638   6.065   3.786   6.132
21399SOL    HW265639   6.134   3.863   6.021
21400SOL     OW65640   7.011   4.924   5.625
21400SOL    HW165641   7.041   4.849   5.676
21400SOL    HW265642   6.922   4.941   5.658
21401SOL     OW65643   5.869   3.782   5.762
21401SOL    HW165644   5.918   3.854   5.724
21401SOL    HW265645   5.936   3.725   5.800
21402SOL     OW65646   6.533   3.976   6.039
21402SOL    HW165647   6.506   4.008   5.953
21402SOL    HW265648   6.627   3.994   6.043
21403SOL     OW65649   6.661   4.411   7.040
21403SOL    HW165650   6.582   4.356   7.042
21403SOL    HW265651   6.733   4.348   7.033
21404SOL     OW65652   6.814   5.288   6.373
21404SOL    HW165653   6.821   5.359   6.309
21404SOL    HW265654   6.869   5.316   6.446
21405SOL     OW65655   6.068   4.883   6.313
21405SOL    HW165656   6.005   4.861   6.382
21405SOL    HW265657   6.020   4.870   6.231
21406SOL     OW65658   6.846   5.515   6.202
21406SOL    HW165659   6.889   5.581   6.147
21406SOL    HW265660   6.770   5.560   6.238
21407SOL     OW65661   6.614   4.255   5.615
21407SOL    HW165662   6.569   4.338   5.599
21407SOL    HW265663   6.671   4.273   5.690
21408SOL     OW65664   5.686   4.297   6.957
21408SOL    HW165665   5.780   4.297   6.940
21408SOL    HW265666   5.674   4.356   7.032
21409SOL     OW65667   6.144   3.955   6.763
21409SOL    HW165668   6.177   3.877   6.806
21409SOL    HW265669   6.051   3.959   6.786
21410SOL     OW65670   6.459   4.186   6.221
21410SOL    HW165671   6.396   4.237   6.170
21410SOL    HW265672   6.475   4.108   6.167
21411SOL     OW65673   6.613   3.775   6.324
21411SOL    HW165674   6.548   3.776   6.254
21411SOL    HW265675   6.585   3.704   6.381
21412SOL     OW65676   7.018   4.882   6.436
21412SOL    HW165677   6.949   4.818   6.451
21412SOL    HW265678   7.024   4.888   6.340
21413SOL     OW65679   7.050   4.334   6.542
21413SOL    HW165680   6.986   4.263   6.547
21413SOL    HW265681   7.102   4.326   6.622
21414SOL     OW65682   7.430   4.531   5.979
21414SOL    HW165683   7.490   4.480   6.034
21414SOL    HW265684   7.403   4.470   5.911
21415SOL     OW65685   6.075   5.148   5.733
21415SOL    HW165686   6.003   5.122   5.791
21415SOL    HW265687   6.059   5.100   5.652
21416SOL     OW65688   7.276   5.002   6.209
21416SOL    HW165689   7.368   5.000   6.232
21416SOL    HW265690   7.244   5.086   6.243
21417SOL     OW65691   6.979   4.293   5.661
21417SOL    HW165692   6.912   4.275   5.726
21417SOL    HW265693   7.057   4.249   5.695
21418SOL     OW65694   6.117   3.984   5.890
21418SOL    HW165695   6.163   3.941   5.818
21418SOL    HW265696   6.086   4.066   5.853
21419SOL     OW65697   7.328   4.968   7.134
21419SOL    HW165698   7.415   4.930   7.124
21419SOL    HW265699   7.345   5.055   7.171
21420SOL     OW65700   6.634   5.094   6.931
21420SOL    HW165701   6.556   5.053   6.970
21420SOL    HW265702   6.707   5.041   6.964
21421SOL     OW65703   7.201   5.359   7.254
21421SOL    HW165704   7.186   5.389   7.164
21421SOL    HW265705   7.279   5.304   7.249
21422SOL     OW65706   6.728   4.950   6.686
21422SOL    HW165707   6.649   4.952   6.739
21422SOL    HW265708   6.699   4.976   6.598
21423SOL     OW65709   7.212   4.823   6.659
21423SOL    HW165710   7.202   4.884   6.733
21423SOL    HW265711   7.133   4.835   6.607
21424SOL     OW65712   6.509   3.812   6.978
21424SOL    HW165713   6.527   3.798   6.885
21424SOL    HW265714   6.588   3.853   7.013
21425SOL     OW65715   6.570   4.837   7.315
21425SOL    HW165716   6.479   4.853   7.340
21425SOL    HW265717   6.566   4.759   7.260
21426SOL     OW65718   6.301   4.795   5.953
21426SOL    HW165719   6.277   4.768   6.041
21426SOL    HW265720   6.375   4.739   5.930
21427SOL     OW65721   6.016   4.549   6.839
21427SOL    HW165722   6.078   4.558   6.910
21427SOL    HW265723   5.982   4.460   6.847
21428SOL     OW65724   6.851   4.094   6.868
21428SOL    HW165725   6.881   4.173   6.912
21428SOL    HW265726   6.760   4.112   6.844
21429SOL     OW65727   5.668   5.351   6.976
21429SOL    HW165728   5.616   5.374   6.898
21429SOL    HW265729   5.739   5.296   6.943
21430SOL     OW65730   5.954   4.847   6.064
21430SOL    HW165731   5.925   4.918   6.007
21430SOL    HW265732   5.941   4.767   6.012
21431SOL     OW65733   6.141   4.252   6.449
21431SOL    HW165734   6.152   4.309   6.373
21431SOL    HW265735   6.205   4.283   6.512
21432SOL     OW65736   6.834   5.077   5.978
21432SOL    HW165737   6.889   5.145   6.016
21432SOL    HW265738   6.746   5.097   6.010
21433SOL     OW65739   6.877   5.187   6.728
21433SOL    HW165740   6.924   5.186   6.812
21433SOL    HW265741   6.819   5.112   6.732
21434SOL     OW65742   7.162   4.344   6.069
21434SOL    HW165743   7.112   4.380   6.143
21434SOL    HW265744   7.177   4.420   6.012
21435SOL     OW65745   5.927   5.263   6.888
21435SOL    HW165746   5.911   5.210   6.810
21435SOL    HW265747   6.023   5.270   6.893
21436SOL     OW65748   5.997   4.485   7.196
21436SOL    HW165749   6.069   4.508   7.138
21436SOL    HW265750   5.995   4.389   7.194
21437SOL     OW65751   7.204   4.509   7.278
21437SOL    HW165752   7.116   4.546   7.271
21437SOL    HW265753   7.252   4.546   7.204
21438SOL     OW65754   6.588   3.858   7.338
21438SOL    HW165755   6.646   3.932   7.318
21438SOL    HW265756   6.641   3.781   7.316
21439SOL     OW65757   6.075   3.761   7.343
21439SOL    HW165758   6.027   3.712   7.277
21439SOL    HW265759   6.019   3.836   7.363
21440SOL     OW65760   6.180   4.596   6.625
21440SOL    HW165761   6.161   4.685   6.595
21440SOL    HW265762   6.117   4.580   6.695
21441SOL     OW65763   6.916   4.580   6.601
21441SOL    HW165764   6.827   4.560   6.573
21441SOL    HW265765   6.964   4.498   6.585
21442SOL     OW65766   6.784   4.252   5.847
21442SOL    HW165767   6.790   4.173   5.901
21442SOL    HW265768   6.739   4.316   5.902
21443SOL     OW65769   5.884   3.924   6.832
21443SOL    HW165770   5.821   3.953   6.899
21443SOL    HW265771   5.871   3.830   6.827
21444SOL     OW65772   5.665   5.053   6.870
21444SOL    HW165773   5.694   4.984   6.929
21444SOL    HW265774   5.573   5.065   6.891
21445SOL     OW65775   6.316   4.358   6.642
21445SOL    HW165776   6.385   4.352   6.576
21445SOL    HW265777   6.278   4.445   6.628
21446SOL     OW65778   7.329   4.688   7.449
21446SOL    HW165779   7.290   4.618   7.397
21446SOL    HW265780   7.265   4.705   7.518
21447SOL     OW65781   5.904   3.795   6.208
21447SOL    HW165782   5.870   3.882   6.227
21447SOL    HW265783   5.904   3.751   6.293
21448SOL     OW65784   7.219   4.109   5.941
21448SOL    HW165785   7.243   4.041   6.005
21448SOL    HW265786   7.190   4.183   5.995
21449SOL     OW65787   6.629   4.483   6.545
21449SOL    HW165788   6.609   4.499   6.637
21449SOL    HW265789   6.597   4.394   6.529
21450SOL     OW65790   6.580   5.302   7.307
21450SOL    HW165791   6.554   5.339   7.222
21450SOL    HW265792   6.609   5.213   7.286
21451SOL     OW65793   7.436   5.221   7.194
21451SOL    HW165794   7.457   5.252   7.106
21451SOL    HW265795   7.517   5.234   7.243
21452SOL     OW65796   5.951   4.652   7.408
21452SOL    HW165797   6.036   4.653   7.451
21452SOL    HW265798   5.961   4.590   7.336
21453SOL     OW65799   7.112   3.997   5.710
21453SOL    HW165800   7.049   3.932   5.740
21453SOL    HW265801   7.149   4.033   5.791
21454SOL     OW65802   6.873   4.546   5.618
21454SOL    HW165803   6.909   4.458   5.623
21454SOL    HW265804   6.904   4.580   5.534
21455SOL     OW65805   6.656   5.067   6.440
21455SOL    HW165806   6.660   4.993   6.380
21455SOL    HW265807   6.714   5.133   6.401
21456SOL     OW65808   5.886   4.530   6.548
21456SOL    HW165809   5.977   4.533   6.515
21456SOL    HW265810   5.874   4.439   6.576
21457SOL     OW65811   5.921   4.248   6.605
21457SOL    HW165812   5.877   4.165   6.589
21457SOL    HW265813   5.995   4.249   6.544
21458SOL     OW65814   6.724   4.094   7.271
21458SOL    HW165815   6.670   4.145   7.332
21458SOL    HW265816   6.806   4.143   7.266
21459SOL     OW65817   6.751   3.918   7.059
21459SOL    HW165818   6.735   3.981   7.129
21459SOL    HW265819   6.789   3.970   6.988
21460SOL     OW65820   5.607   5.037   5.762
21460SOL    HW165821   5.517   5.055   5.735
21460SOL    HW265822   5.602   4.954   5.809
21461SOL     OW65823   5.680   5.497   6.537
21461SOL    HW165824   5.640   5.424   6.490
21461SOL    HW265825   5.765   5.508   6.495
21462SOL     OW65826   6.075   5.302   6.482
21462SOL    HW165827   6.146   5.358   6.514
21462SOL    HW265828   6.119   5.236   6.429
21463SOL     OW65829   6.555   4.508   6.803
21463SOL    HW165830   6.605   4.489   6.882
21463SOL    HW265831   6.470   4.465   6.817
21464SOL     OW65832   5.606   4.254   6.701
21464SOL    HW165833   5.686   4.238   6.652
21464SOL    HW265834   5.636   4.274   6.790
21465SOL     OW65835   5.781   4.242   7.308
21465SOL    HW165836   5.777   4.173   7.242
21465SOL    HW265837   5.738   4.317   7.268
21466SOL     OW65838   6.972   4.650   7.243
21466SOL    HW165839   6.987   4.745   7.237
21466SOL    HW265840   6.961   4.622   7.152
21467SOL     OW65841   6.409   4.305   5.942
21467SOL    HW165842   6.405   4.225   5.890
21467SOL    HW265843   6.328   4.352   5.919
21468SOL     OW65844   7.221   4.330   6.761
21468SOL    HW165845   7.208   4.268   6.833
21468SOL    HW265846   7.309   4.310   6.729
21469SOL     OW65847   5.824   5.270   7.330
21469SOL    HW165848   5.781   5.303   7.409
21469SOL    HW265849   5.836   5.176   7.347
21470SOL     OW65850   6.314   4.164   6.834
21470SOL    HW165851   6.249   4.096   6.818
21470SOL    HW265852   6.299   4.229   6.765
21471SOL     OW65853   6.509   5.405   7.057
21471SOL    HW165854   6.486   5.357   6.978
21471SOL    HW265855   6.488   5.496   7.036
21472SOL     OW65856   6.046   4.216   5.767
21472SOL    HW165857   6.098   4.290   5.796
21472SOL    HW265858   5.958   4.251   5.755
21473SOL     OW65859   5.742   4.866   7.064
21473SOL    HW165860   5.732   4.820   7.148
21473SOL    HW265861   5.748   4.796   6.999
21474SOL     OW65862   6.908   4.770   6.796
21474SOL    HW165863   6.917   4.702   6.730
21474SOL    HW265864   6.845   4.831   6.760
21475SOL     OW65865   6.907   4.581   5.892
21475SOL    HW165866   6.836   4.549   5.946
21475SOL    HW265867   6.878   4.566   5.802
21476SOL     OW65868   7.380   5.451   6.756
21476SOL    HW165869   7.433   5.478   6.680
21476SOL    HW265870   7.341   5.368   6.730
21477SOL     OW65871   6.824   5.461   6.694
21477SOL    HW165872   6.908   5.483   6.654
21477SOL    HW265873   6.831   5.367   6.714
21478SOL     OW65874   5.686   5.000   6.594
21478SOL    HW165875   5.665   5.012   6.687
21478SOL    HW265876   5.616   4.945   6.560
21479SOL     OW65877   6.266   5.401   7.329
21479SOL    HW165878   6.198   5.468   7.320
21479SOL    HW265879   6.326   5.416   7.255
21480SOL     OW65880   7.317   3.886   6.091
21480SOL    HW165881   7.383   3.869   6.024
21480SOL    HW265882   7.297   3.800   6.128
21481SOL     OW65883   6.986   5.294   6.083
21481SOL    HW165884   7.036   5.331   6.011
21481SOL    HW265885   6.928   5.364   6.112
21482SOL     OW65886   5.705   5.557   7.432
21482SOL    HW165887   5.666   5.474   7.459
21482SOL    HW265888   5.764   5.581   7.503
21483SOL     OW65889   6.865   4.654   6.256
21483SOL    HW165890   6.938   4.593   6.266
21483SOL    HW265891   6.900   4.726   6.204
21484SOL     OW65892   6.377   5.007   7.000
21484SOL    HW165893   6.350   5.048   7.082
21484SOL    HW265894   6.301   5.014   6.942
21485SOL     OW65895   6.260   5.347   5.737
21485SOL    HW165896   6.262   5.366   5.643
21485SOL    HW265897   6.202   5.271   5.745
21486SOL     OW65898   7.205   5.451   6.984
21486SOL    HW165899   7.260   5.452   6.906
21486SOL    HW265900   7.191   5.543   7.006
21487SOL     OW65901   7.432   3.889   6.553
21487SOL    HW165902   7.457   3.800   6.528
21487SOL    HW265903   7.344   3.900   6.516
21488SOL     OW65904   5.841   4.044   6.301
21488SOL    HW165905   5.755   4.075   6.271
21488SOL    HW265906   5.832   4.037   6.396
21489SOL     OW65907   6.798   5.317   5.622
21489SOL    HW165908   6.784   5.228   5.655
21489SOL    HW265909   6.733   5.328   5.553
21490SOL     OW65910   6.410   4.734   6.964
21490SOL    HW165911   6.427   4.726   6.871
21490SOL    HW265912   6.399   4.828   6.978
21491SOL     OW65913   6.518   4.652   5.879
21491SOL    HW165914   6.580   4.682   5.813
21491SOL    HW265915   6.558   4.574   5.918
21492SOL     OW65916   7.069   5.357   5.631
21492SOL    HW165917   6.974   5.342   5.627
21492SOL    HW265918   7.098   5.350   5.540
21493SOL     OW65919   5.954   5.041   7.079
21493SOL    HW165920   5.932   5.111   7.018
21493SOL    HW265921   5.884   4.977   7.068
21494SOL     OW65922   7.200   5.014   6.872
21494SOL    HW165923   7.242   4.987   6.953
21494SOL    HW265924   7.132   5.076   6.899
21495SOL     OW65925   6.655   4.836   6.304
21495SOL    HW165926   6.578   4.790   6.338
21495SOL    HW265927   6.714   4.766   6.276
21496SOL     OW65928   6.618   3.968   6.549
21496SOL    HW165929   6.612   3.924   6.465
21496SOL    HW265930   6.608   3.898   6.614
21497SOL     OW65931   6.185   5.214   6.060
21497SOL    HW165932   6.226   5.161   5.992
21497SOL    HW265933   6.091   5.203   6.045
21498SOL     OW65934   7.318   4.116   6.966
21498SOL    HW165935   7.390   4.179   6.962
21498SOL    HW265936   7.346   4.044   6.909
21499SOL     OW65937   5.863   5.071   5.892
21499SOL    HW165938   5.775   5.061   5.855
21499SOL    HW265939   5.849   5.108   5.979
21500SOL     OW65940   5.711   4.777   7.325
21500SOL    HW165941   5.628   4.746   7.363
21500SOL    HW265942   5.777   4.720   7.364
21501SOL     OW65943   6.264   3.910   7.085
21501SOL    HW165944   6.350   3.890   7.047
21501SOL    HW265945   6.285   3.949   7.170
21502SOL     OW65946   5.666   4.033   5.609
21502SOL    HW165947   5.576   4.003   5.594
21502SOL    HW265948   5.665   4.126   5.584
21503SOL     OW65949   7.007   4.582   6.980
21503SOL    HW165950   6.954   4.640   6.925
21503SOL    HW265951   7.094   4.583   6.940
21504SOL     OW65952   5.644   3.874   5.889
21504SOL    HW165953   5.620   3.959   5.850
21504SOL    HW265954   5.725   3.850   5.844
21505SOL     OW65955   6.762   5.058   5.703
21505SOL    HW165956   6.673   5.021   5.700
21505SOL    HW265957   6.786   5.053   5.796
21506SOL     OW65958   6.212   4.548   7.029
21506SOL    HW165959   6.270   4.623   7.014
21506SOL    HW265960   6.271   4.473   7.031
21507SOL     OW65961   7.068   5.520   6.579
21507SOL    HW165962   7.096   5.580   6.510
21507SOL    HW265963   7.143   5.463   6.594
21508SOL     OW65964   6.330   4.269   7.278
21508SOL    HW165965   6.349   4.321   7.356
21508SOL    HW265966   6.330   4.178   7.308
21509SOL     OW65967   7.057   4.914   7.213
21509SOL    HW165968   7.044   4.932   7.306
21509SOL    HW265969   7.148   4.936   7.196
21510SOL     OW65970   5.956   5.461   7.165
21510SOL    HW165971   5.875   5.501   7.134
21510SOL    HW265972   5.927   5.380   7.208
21511SOL     OW65973   7.248   4.601   6.841
21511SOL    HW165974   7.241   4.515   6.800
21511SOL    HW265975   7.237   4.663   6.769
21512SOL     OW65976   6.807   4.048   6.042
21512SOL    HW165977   6.864   3.971   6.039
21512SOL    HW265978   6.837   4.097   6.119
21513SOL     OW65979   6.181   4.456   6.261
21513SOL    HW165980   6.214   4.543   6.240
21513SOL    HW265981   6.112   4.441   6.197
21514SOL     OW65982   7.330   4.087   7.238
21514SOL    HW165983   7.318   4.104   7.145
21514SOL    HW265984   7.256   4.030   7.261
21515SOL     OW65985   7.347   4.653   7.091
21515SOL    HW165986   7.320   4.743   7.107
21515SOL    HW265987   7.321   4.635   7.001
21516SOL     OW65988   6.455   5.101   5.644
21516SOL    HW165989   6.422   5.084   5.733
21516SOL    HW265990   6.429   5.191   5.626
21517SOL     OW65991   6.256   5.507   6.532
21517SOL    HW165992   6.236   5.597   6.506
21517SOL    HW265993   6.349   5.496   6.511
21518SOL     OW65994   6.457   4.704   6.445
21518SOL    HW165995   6.501   4.626   6.479
21518SOL    HW265996   6.417   4.745   6.522
21519SOL     OW65997   6.687   4.741   5.678
21519SOL    HW165998   6.646   4.771   5.597
21519SOL    HW265999   6.744   4.669   5.652
21520SOL     OW66000   7.428   5.281   6.429
21520SOL    HW166001   7.347   5.269   6.379
21520SOL    HW266002   7.432   5.207   6.488
21521SOL     OW66003   5.800   5.011   7.428
21521SOL    HW166004   5.768   4.933   7.384
21521SOL    HW266005   5.739   5.025   7.501
21522SOL     OW66006   5.692   4.959   6.263
21522SOL    HW166007   5.652   4.912   6.336
21522SOL    HW266008   5.703   4.893   6.195
21523SOL     OW66009   6.278   5.135   7.225
21523SOL    HW166010   6.198   5.089   7.251
21523SOL    HW266011   6.267   5.223   7.261
21524SOL     OW66012   7.408   3.906   6.824
21524SOL    HW166013   7.393   3.812   6.839
21524SOL    HW266014   7.416   3.914   6.729
21525SOL     OW66015   6.032   4.148   6.124
21525SOL    HW166016   6.039   4.079   6.058
21525SOL    HW266017   5.967   4.116   6.186
21526SOL     OW66018   7.273   5.213   6.685
21526SOL    HW166019   7.200   5.191   6.627
21526SOL    HW266020   7.272   5.145   6.752
21527SOL     OW66021   5.946   4.292   6.879
21527SOL    HW166022   5.985   4.222   6.931
21527SOL    HW266023   5.944   4.257   6.789
21528SOL     OW66024   6.414   5.295   6.257
21528SOL    HW166025   6.371   5.347   6.189
21528SOL    HW266026   6.350   5.228   6.280
21529SOL     OW66027   7.011   3.948   6.702
21529SOL    HW166028   7.001   3.857   6.729
21529SOL    HW266029   6.962   3.998   6.768
21530SOL     OW66030   6.596   3.743   6.717
21530SOL    HW166031   6.536   3.680   6.679
21530SOL    HW266032   6.681   3.698   6.719
21531SOL     OW66033   6.370   5.054   5.900
21531SOL    HW166034   6.335   4.966   5.912
21531SOL    HW266035   6.443   5.059   5.961
21532SOL     OW66036   6.205   5.284   6.874
21532SOL    HW166037   6.205   5.363   6.928
21532SOL    HW266038   6.293   5.280   6.836
21533SOL     OW66039   6.945   3.779   5.761
21533SOL    HW166040   6.974   3.714   5.697
21533SOL    HW266041   6.857   3.751   5.785
21534SOL     OW66042   6.897   4.191   6.264
21534SOL    HW166043   6.841   4.268   6.261
21534SOL    HW266044   6.882   4.154   6.351
21535SOL     OW66045   7.173   3.916   6.476
21535SOL    HW166046   7.116   3.940   6.549
21535SOL    HW266047   7.169   3.991   6.417
21536SOL     OW66048   5.645   4.801   5.904
21536SOL    HW166049   5.736   4.787   5.879
21536SOL    HW266050   5.610   4.714   5.920
21537SOL     OW66051   6.480   5.395   5.919
21537SOL    HW166052   6.402   5.372   5.868
21537SOL    HW266053   6.449   5.461   5.981
21538SOL     OW66054   5.808   4.341   7.576
21538SOL    HW166055   5.720   4.336   7.614
21538SOL    HW266056   5.795   4.320   7.483
21539SOL     OW66057   5.799   4.016   8.444
21539SOL    HW166058   5.828   3.973   8.525
21539SOL    HW266059   5.713   3.979   8.427
21540SOL     OW66060   5.587   4.126   8.095
21540SOL    HW166061   5.506   4.158   8.134
21540SOL    HW266062   5.563   4.040   8.058
21541SOL     OW66063   6.161   5.021   8.642
21541SOL    HW166064   6.076   5.011   8.600
21541SOL    HW266065   6.166   5.113   8.666
21542SOL     OW66066   7.162   5.246   8.159
21542SOL    HW166067   7.117   5.216   8.238
21542SOL    HW266068   7.094   5.249   8.092
21543SOL     OW66069   6.732   4.416   8.141
21543SOL    HW166070   6.771   4.503   8.129
21543SOL    HW266071   6.677   4.425   8.219
21544SOL     OW66072   7.377   4.322   7.672
21544SOL    HW166073   7.347   4.318   7.581
21544SOL    HW266074   7.334   4.248   7.714
21545SOL     OW66075   6.362   4.874   8.517
21545SOL    HW166076   6.284   4.898   8.568
21545SOL    HW266077   6.384   4.953   8.469
21546SOL     OW66078   6.469   4.483   9.277
21546SOL    HW166079   6.430   4.551   9.331
21546SOL    HW266080   6.486   4.526   9.193
21547SOL     OW66081   6.275   4.722   8.089
21547SOL    HW166082   6.337   4.717   8.162
21547SOL    HW266083   6.204   4.776   8.122
21548SOL     OW66084   6.303   4.878   9.273
21548SOL    HW166085   6.350   4.957   9.302
21548SOL    HW266086   6.224   4.911   9.231
21549SOL     OW66087   5.921   5.136   8.515
21549SOL    HW166088   5.843   5.093   8.480
21549SOL    HW266089   5.956   5.186   8.441
21550SOL     OW66090   7.043   5.225   8.814
21550SOL    HW166091   7.093   5.306   8.825
21550SOL    HW266092   6.969   5.235   8.874
21551SOL     OW66093   6.033   4.104   8.925
21551SOL    HW166094   6.097   4.033   8.925
21551SOL    HW266095   5.949   4.061   8.941
21552SOL     OW66096   7.184   4.161   8.194
21552SOL    HW166097   7.107   4.166   8.136
21552SOL    HW266098   7.175   4.238   8.250
21553SOL     OW66099   5.799   5.448   7.914
21553SOL    HW166100   5.828   5.521   7.969
21553SOL    HW266101   5.874   5.430   7.857
21554SOL     OW66102   6.725   5.064   9.144
21554SOL    HW166103   6.759   5.059   9.233
21554SOL    HW266104   6.672   4.985   9.133
21555SOL     OW66105   5.830   5.168   8.001
21555SOL    HW166106   5.785   5.253   8.008
21555SOL    HW266107   5.778   5.109   8.056
21556SOL     OW66108   5.890   4.818   8.371
21556SOL    HW166109   5.864   4.728   8.392
21556SOL    HW266110   5.813   4.871   8.395
21557SOL     OW66111   6.192   5.513   8.891
21557SOL    HW166112   6.107   5.494   8.930
21557SOL    HW266113   6.208   5.605   8.910
21558SOL     OW66114   6.179   4.698   7.581
21558SOL    HW166115   6.224   4.752   7.516
21558SOL    HW266116   6.203   4.735   7.665
21559SOL     OW66117   7.186   3.849   8.915
21559SOL    HW166118   7.198   3.929   8.864
21559SOL    HW266119   7.156   3.879   9.000
21560SOL     OW66120   5.717   4.368   7.999
21560SOL    HW166121   5.669   4.287   8.017
21560SOL    HW266122   5.707   4.420   8.079
21561SOL     OW66123   7.430   5.474   7.770
21561SOL    HW166124   7.496   5.450   7.836
21561SOL    HW266125   7.446   5.567   7.753
21562SOL     OW66126   5.648   5.315   7.552
21562SOL    HW166127   5.621   5.224   7.564
21562SOL    HW266128   5.613   5.361   7.629
21563SOL     OW66129   7.288   4.651   8.091
21563SOL    HW166130   7.345   4.592   8.041
21563SOL    HW266131   7.248   4.707   8.024
21564SOL     OW66132   7.233   4.828   7.877
21564SOL    HW166133   7.319   4.827   7.835
21564SOL    HW266134   7.239   4.896   7.944
21565SOL     OW66135   5.701   4.467   9.031
21565SOL    HW166136   5.783   4.516   9.026
21565SOL    HW266137   5.633   4.532   9.013
21566SOL     OW66138   6.209   5.118   8.182
21566SOL    HW166139   6.164   5.034   8.192
21566SOL    HW266140   6.189   5.146   8.093
21567SOL     OW66141   6.867   4.958   8.866
21567SOL    HW166142   6.894   4.888   8.806
21567SOL    HW266143   6.926   4.949   8.941
21568SOL     OW66144   6.412   3.730   7.972
21568SOL    HW166145   6.449   3.813   7.940
21568SOL    HW266146   6.318   3.746   7.973
21569SOL     OW66147   5.770   4.682   8.740
21569SOL    HW166148   5.853   4.643   8.713
21569SOL    HW266149   5.705   4.643   8.681
21570SOL     OW66150   7.120   4.724   7.646
21570SOL    HW166151   7.050   4.666   7.674
21570SOL    HW266152   7.157   4.758   7.728
21571SOL     OW66153   6.781   5.545   9.077
21571SOL    HW166154   6.772   5.605   9.003
21571SOL    HW266155   6.786   5.458   9.038
21572SOL     OW66156   5.919   3.971   9.300
21572SOL    HW166157   5.951   4.057   9.273
21572SOL    HW266158   5.825   3.981   9.308
21573SOL     OW66159   7.059   5.139   8.392
21573SOL    HW166160   6.989   5.157   8.455
21573SOL    HW266161   7.041   5.049   8.362
21574SOL     OW66162   7.237   5.490   8.020
21574SOL    HW166163   7.214   5.456   7.933
21574SOL    HW266164   7.218   5.418   8.080
21575SOL     OW66165   6.179   4.445   7.728
21575SOL    HW166166   6.169   4.526   7.679
21575SOL    HW266167   6.110   4.449   7.795
21576SOL     OW66168   6.869   4.102   8.387
21576SOL    HW166169   6.779   4.070   8.390
21576SOL    HW266170   6.917   4.042   8.444
21577SOL     OW66171   7.161   5.407   7.760
21577SOL    HW166172   7.254   5.423   7.748
21577SOL    HW266173   7.128   5.388   7.672
21578SOL     OW66174   6.392   4.335   8.891
21578SOL    HW166175   6.362   4.310   8.978
21578SOL    HW266176   6.354   4.269   8.833
21579SOL     OW66177   6.977   4.205   9.123
21579SOL    HW166178   6.980   4.246   9.209
21579SOL    HW266179   7.029   4.125   9.133
21580SOL     OW66180   6.535   4.611   9.036
21580SOL    HW166181   6.587   4.542   8.996
21580SOL    HW266182   6.486   4.650   8.963
21581SOL     OW66183   6.586   4.123   8.674
21581SOL    HW166184   6.496   4.140   8.701
21581SOL    HW266185   6.579   4.089   8.585
21582SOL     OW66186   6.644   4.421   7.869
21582SOL    HW166187   6.659   4.411   7.963
21582SOL    HW266188   6.558   4.381   7.854
21583SOL     OW66189   5.696   4.529   8.211
21583SOL    HW166190   5.746   4.537   8.292
21583SOL    HW266191   5.619   4.585   8.226
21584SOL     OW66192   5.711   5.600   9.027
21584SOL    HW166193   5.708   5.579   9.120
21584SOL    HW266194   5.641   5.547   8.988
21585SOL     OW66195   6.475   4.074   7.647
21585SOL    HW166196   6.521   4.124   7.581
21585SOL    HW266197   6.424   4.010   7.598
21586SOL     OW66198   7.299   4.299   9.279
21586SOL    HW166199   7.261   4.373   9.231
21586SOL    HW266200   7.312   4.232   9.212
21587SOL     OW66201   6.972   4.871   7.995
21587SOL    HW166202   7.043   4.855   7.934
21587SOL    HW266203   6.912   4.930   7.948
21588SOL     OW66204   6.146   3.892   8.347
21588SOL    HW166205   6.139   3.939   8.429
21588SOL    HW266206   6.125   3.957   8.280
21589SOL     OW66207   6.589   5.178   7.917
21589SOL    HW166208   6.557   5.249   7.862
21589SOL    HW266209   6.551   5.196   8.003
21590SOL     OW66210   5.940   5.538   8.315
21590SOL    HW166211   5.978   5.451   8.322
21590SOL    HW266212   6.010   5.598   8.341
21591SOL     OW66213   7.394   4.781   8.312
21591SOL    HW166214   7.344   4.750   8.236
21591SOL    HW266215   7.329   4.786   8.382
21592SOL     OW66216   6.810   5.263   8.960
21592SOL    HW166217   6.799   5.192   9.023
21592SOL    HW266218   6.740   5.250   8.896
21593SOL     OW66219   5.891   4.678   7.706
21593SOL    HW166220   5.943   4.691   7.627
21593SOL    HW266221   5.850   4.592   7.694
21594SOL     OW66222   7.074   4.478   8.164
21594SOL    HW166223   7.064   4.436   8.249
21594SOL    HW266224   7.153   4.532   8.173
21595SOL     OW66225   6.054   4.998   9.188
21595SOL    HW166226   6.028   5.004   9.096
21595SOL    HW266227   5.972   4.985   9.236
21596SOL     OW66228   6.718   5.500   7.679
21596SOL    HW166229   6.637   5.468   7.719
21596SOL    HW266230   6.739   5.436   7.611
21597SOL     OW66231   5.771   4.006   8.970
21597SOL    HW166232   5.693   4.046   8.932
21597SOL    HW266233   5.746   3.915   8.987
21598SOL     OW66234   7.222   5.111   7.545
21598SOL    HW166235   7.178   5.195   7.529
21598SOL    HW266236   7.156   5.045   7.525
21599SOL     OW66237   6.043   5.470   7.760
21599SOL    HW166238   6.094   5.512   7.829
21599SOL    HW266239   6.106   5.418   7.712
21600SOL     OW66240   6.983   3.827   7.893
21600SOL    HW166241   6.970   3.803   7.801
21600SOL    HW266242   7.078   3.827   7.905
21601SOL     OW66243   5.857   5.521   8.662
21601SOL    HW166244   5.888   5.438   8.700
21601SOL    HW266245   5.811   5.494   8.582
21602SOL     OW66246   6.524   5.425   8.336
21602SOL    HW166247   6.591   5.367   8.371
21602SOL    HW266248   6.484   5.376   8.264
21603SOL     OW66249   5.988   4.408   7.929
21603SOL    HW166250   6.006   4.315   7.943
21603SOL    HW266251   5.893   4.416   7.940
21604SOL     OW66252   7.100   3.950   9.168
21604SOL    HW166253   7.112   3.964   9.262
21604SOL    HW266254   7.024   3.893   9.162
21605SOL     OW66255   6.246   3.842   7.541
21605SOL    HW166256   6.270   3.761   7.585
21605SOL    HW266257   6.179   3.816   7.477
21606SOL     OW66258   6.357   4.004   9.216
21606SOL    HW166259   6.434   3.948   9.209
21606SOL    HW266260   6.299   3.957   9.276
21607SOL     OW66261   6.463   5.256   8.642
21607SOL    HW166262   6.441   5.214   8.559
21607SOL    HW266263   6.527   5.198   8.682
21608SOL     OW66264   6.925   4.310   8.873
21608SOL    HW166265   6.951   4.285   8.962
21608SOL    HW266266   6.952   4.401   8.865
21609SOL     OW66267   6.408   5.120   8.398
21609SOL    HW166268   6.491   5.104   8.352
21609SOL    HW266269   6.342   5.120   8.328
21610SOL     OW66270   6.522   4.238   8.340
21610SOL    HW166271   6.494   4.229   8.249
21610SOL    HW266272   6.540   4.149   8.368
21611SOL     OW66273   6.148   3.789   7.949
21611SOL    HW166274   6.065   3.787   7.995
21611SOL    HW266275   6.139   3.860   7.886
21612SOL     OW66276   7.018   4.931   7.488
21612SOL    HW166277   7.043   4.853   7.536
21612SOL    HW266278   6.929   4.950   7.517
21613SOL     OW66279   5.869   3.783   7.623
21613SOL    HW166280   5.913   3.852   7.574
21613SOL    HW266281   5.940   3.729   7.658
21614SOL     OW66282   6.534   3.974   7.901
21614SOL    HW166283   6.505   4.006   7.816
21614SOL    HW266284   6.628   3.994   7.903
21615SOL     OW66285   6.659   4.410   8.905
21615SOL    HW166286   6.581   4.355   8.903
21615SOL    HW266287   6.732   4.348   8.890
21616SOL     OW66288   6.811   5.295   8.241
21616SOL    HW166289   6.817   5.361   8.171
21616SOL    HW266290   6.871   5.326   8.308
21617SOL     OW66291   6.067   4.882   8.175
21617SOL    HW166292   6.004   4.861   8.243
21617SOL    HW266293   6.019   4.870   8.093
21618SOL     OW66294   6.845   5.516   8.065
21618SOL    HW166295   6.888   5.580   8.008
21618SOL    HW266296   6.769   5.563   8.100
21619SOL     OW66297   6.614   4.253   7.474
21619SOL    HW166298   6.567   4.335   7.455
21619SOL    HW266299   6.671   4.275   7.548
21620SOL     OW66300   5.696   4.278   8.831
21620SOL    HW166301   5.788   4.290   8.807
21620SOL    HW266302   5.680   4.345   8.897
21621SOL     OW66303   6.144   3.957   8.624
21621SOL    HW166304   6.172   3.867   8.642
21621SOL    HW266305   6.051   3.958   8.649
21622SOL     OW66306   6.459   4.185   8.081
21622SOL    HW166307   6.401   4.238   8.026
21622SOL    HW266308   6.476   4.106   8.030
21623SOL     OW66309   6.610   3.779   8.188
21623SOL    HW166310   6.547   3.781   8.116
21623SOL    HW266311   6.582   3.705   8.242
21624SOL     OW66312   7.021   4.880   8.298
21624SOL    HW166313   6.947   4.821   8.309
21624SOL    HW266314   7.031   4.889   8.203
21625SOL     OW66315   7.049   4.336   8.405
21625SOL    HW166316   6.986   4.263   8.407
21625SOL    HW266317   7.100   4.326   8.485
21626SOL     OW66318   7.430   4.532   7.844
21626SOL    HW166319   7.487   4.478   7.899
21626SOL    HW266320   7.401   4.473   7.774
21627SOL     OW66321   6.076   5.147   7.596
21627SOL    HW166322   6.003   5.118   7.651
21627SOL    HW266323   6.064   5.100   7.514
21628SOL     OW66324   7.268   5.000   8.077
21628SOL    HW166325   7.362   5.002   8.099
21628SOL    HW266326   7.236   5.086   8.104
21629SOL     OW66327   6.980   4.292   7.521
21629SOL    HW166328   6.912   4.275   7.586
21629SOL    HW266329   7.057   4.246   7.554
21630SOL     OW66330   6.125   3.985   7.756
21630SOL    HW166331   6.162   3.937   7.682
21630SOL    HW266332   6.092   4.066   7.718
21631SOL     OW66333   7.331   4.966   8.997
21631SOL    HW166334   7.419   4.929   8.985
21631SOL    HW266335   7.346   5.054   9.032
21632SOL     OW66336   6.634   5.091   8.792
21632SOL    HW166337   6.556   5.052   8.831
21632SOL    HW266338   6.707   5.039   8.825
21633SOL     OW66339   7.203   5.353   9.106
21633SOL    HW166340   7.191   5.385   9.017
21633SOL    HW266341   7.282   5.299   9.102
21634SOL     OW66342   6.729   4.949   8.548
21634SOL    HW166343   6.650   4.955   8.601
21634SOL    HW266344   6.702   4.977   8.461
21635SOL     OW66345   7.212   4.822   8.519
21635SOL    HW166346   7.201   4.884   8.591
21635SOL    HW266347   7.135   4.835   8.463
21636SOL     OW66348   6.510   3.808   8.841
21636SOL    HW166349   6.525   3.796   8.747
21636SOL    HW266350   6.590   3.851   8.872
21637SOL     OW66351   6.570   4.837   9.178
21637SOL    HW166352   6.479   4.854   9.201
21637SOL    HW266353   6.566   4.759   9.121
21638SOL     OW66354   6.300   4.795   7.816
21638SOL    HW166355   6.278   4.768   7.905
21638SOL    HW266356   6.376   4.741   7.793
21639SOL     OW66357   6.015   4.553   8.702
21639SOL    HW166358   6.079   4.560   8.772
21639SOL    HW266359   5.982   4.463   8.709
21640SOL     OW66360   6.849   4.090   8.733
21640SOL    HW166361   6.879   4.171   8.774
21640SOL    HW266362   6.758   4.108   8.708
21641SOL     OW66363   5.659   5.317   8.824
21641SOL    HW166364   5.618   5.362   8.751
21641SOL    HW266365   5.748   5.298   8.794
21642SOL     OW66366   5.944   4.846   7.930
21642SOL    HW166367   5.925   4.918   7.870
21642SOL    HW266368   5.932   4.766   7.878
21643SOL     OW66369   6.145   4.254   8.312
21643SOL    HW166370   6.152   4.309   8.235
21643SOL    HW266371   6.209   4.289   8.374
21644SOL     OW66372   6.833   5.073   7.847
21644SOL    HW166373   6.889   5.145   7.878
21644SOL    HW266374   6.745   5.097   7.875
21645SOL     OW66375   6.878   5.186   8.591
21645SOL    HW166376   6.924   5.184   8.675
21645SOL    HW266377   6.819   5.111   8.594
21646SOL     OW66378   7.162   4.345   7.931
21646SOL    HW166379   7.115   4.381   8.006
21646SOL    HW266380   7.161   4.415   7.865
21647SOL     OW66381   5.926   5.263   8.750
21647SOL    HW166382   5.913   5.210   8.671
21647SOL    HW266383   6.022   5.271   8.757
21648SOL     OW66384   6.001   4.479   9.056
21648SOL    HW166385   6.071   4.510   8.999
21648SOL    HW266386   6.002   4.383   9.046
21649SOL     OW66387   7.203   4.510   9.138
21649SOL    HW166388   7.115   4.547   9.131
21649SOL    HW266389   7.251   4.547   9.065
21650SOL     OW66390   6.587   3.856   9.209
21650SOL    HW166391   6.641   3.932   9.186
21650SOL    HW266392   6.637   3.780   9.179
21651SOL     OW66393   6.068   3.757   9.214
21651SOL    HW166394   6.025   3.711   9.142
21651SOL    HW266395   6.012   3.833   9.230
21652SOL     OW66396   6.185   4.595   8.491
21652SOL    HW166397   6.166   4.681   8.454
21652SOL    HW266398   6.117   4.581   8.556
21653SOL     OW66399   6.918   4.580   8.465
21653SOL    HW166400   6.829   4.564   8.433
21653SOL    HW266401   6.965   4.498   8.448
21654SOL     OW66402   6.787   4.251   7.709
21654SOL    HW166403   6.790   4.172   7.763
21654SOL    HW266404   6.741   4.315   7.763
21655SOL     OW66405   5.884   3.919   8.695
21655SOL    HW166406   5.812   3.945   8.752
21655SOL    HW266407   5.874   3.824   8.685
21656SOL     OW66408   5.672   5.043   8.720
21656SOL    HW166409   5.682   4.975   8.787
21656SOL    HW266410   5.622   5.112   8.764
21657SOL     OW66411   6.322   4.360   8.511
21657SOL    HW166412   6.386   4.351   8.441
21657SOL    HW266413   6.282   4.446   8.495
21658SOL     OW66414   7.330   4.684   9.313
21658SOL    HW166415   7.287   4.617   9.259
21658SOL    HW266416   7.265   4.705   9.380
21659SOL     OW66417   5.905   3.796   8.069
21659SOL    HW166418   5.864   3.881   8.083
21659SOL    HW266419   5.900   3.752   8.154
21660SOL     OW66420   7.219   4.108   7.805
21660SOL    HW166421   7.245   4.041   7.869
21660SOL    HW266422   7.191   4.182   7.858
21661SOL     OW66423   6.627   4.482   8.404
21661SOL    HW166424   6.609   4.498   8.497
21661SOL    HW266425   6.594   4.393   8.389
21662SOL     OW66426   6.574   5.294   9.170
21662SOL    HW166427   6.551   5.336   9.088
21662SOL    HW266428   6.611   5.209   9.145
21663SOL     OW66429   7.441   5.218   9.054
21663SOL    HW166430   7.459   5.250   8.966
21663SOL    HW266431   7.522   5.233   9.103
21664SOL     OW66432   5.941   4.638   9.269
21664SOL    HW166433   6.027   4.651   9.308
21664SOL    HW266434   5.956   4.578   9.196
21665SOL     OW66435   7.111   3.997   7.573
21665SOL    HW166436   7.048   3.932   7.603
21665SOL    HW266437   7.148   4.033   7.654
21666SOL     OW66438   6.879   4.548   7.480
21666SOL    HW166439   6.915   4.459   7.482
21666SOL    HW266440   6.907   4.583   7.395
21667SOL     OW66441   6.659   5.069   8.306
21667SOL    HW166442   6.662   4.995   8.244
21667SOL    HW266443   6.715   5.136   8.266
21668SOL     OW66444   5.888   4.531   8.410
21668SOL    HW166445   5.971   4.527   8.362
21668SOL    HW266446   5.875   4.442   8.443
21669SOL     OW66447   5.930   4.249   8.473
21669SOL    HW166448   5.880   4.170   8.454
21669SOL    HW266449   6.001   4.249   8.409
21670SOL     OW66450   6.722   4.092   9.139
21670SOL    HW166451   6.669   4.145   9.198
21670SOL    HW266452   6.803   4.141   9.128
21671SOL     OW66453   6.753   3.916   8.926
21671SOL    HW166454   6.735   3.981   8.994
21671SOL    HW266455   6.789   3.966   8.854
21672SOL     OW66456   5.607   5.037   7.628
21672SOL    HW166457   5.517   5.056   7.601
21672SOL    HW266458   5.601   4.953   7.672
21673SOL     OW66459   5.680   5.497   8.400
21673SOL    HW166460   5.643   5.423   8.353
21673SOL    HW266461   5.766   5.511   8.359
21674SOL     OW66462   6.075   5.302   8.347
21674SOL    HW166463   6.146   5.360   8.374
21674SOL    HW266464   6.117   5.237   8.290
21675SOL     OW66465   6.558   4.506   8.663
21675SOL    HW166466   6.603   4.489   8.746
21675SOL    HW266467   6.472   4.464   8.674
21676SOL     OW66468   5.615   4.285   8.564
21676SOL    HW166469   5.666   4.225   8.509
21676SOL    HW266470   5.653   4.275   8.652
21677SOL     OW66471   5.779   4.236   9.171
21677SOL    HW166472   5.779   4.170   9.102
21677SOL    HW266473   5.741   4.314   9.130
21678SOL     OW66474   6.971   4.650   9.104
21678SOL    HW166475   6.988   4.745   9.098
21678SOL    HW266476   6.960   4.623   9.013
21679SOL     OW66477   6.406   4.304   7.809
21679SOL    HW166478   6.405   4.225   7.755
21679SOL    HW266479   6.328   4.352   7.784
21680SOL     OW66480   7.219   4.329   8.625
21680SOL    HW166481   7.204   4.267   8.696
21680SOL    HW266482   7.307   4.309   8.592
21681SOL     OW66483   5.828   5.268   9.180
21681SOL    HW166484   5.796   5.319   9.254
21681SOL    HW266485   5.832   5.178   9.212
21682SOL     OW66486   6.313   4.162   8.698
21682SOL    HW166487   6.249   4.094   8.678
21682SOL    HW266488   6.300   4.228   8.630
21683SOL     OW66489   6.509   5.403   8.921
21683SOL    HW166490   6.484   5.357   8.840
21683SOL    HW266491   6.495   5.495   8.901
21684SOL     OW66492   6.048   4.217   7.635
21684SOL    HW166493   6.099   4.293   7.661
21684SOL    HW266494   5.960   4.252   7.619
21685SOL     OW66495   5.728   4.867   8.932
21685SOL    HW166496   5.725   4.822   9.016
21685SOL    HW266497   5.739   4.797   8.868
21686SOL     OW66498   6.907   4.769   8.661
21686SOL    HW166499   6.917   4.702   8.593
21686SOL    HW266500   6.844   4.831   8.623
21687SOL     OW66501   6.910   4.576   7.754
21687SOL    HW166502   6.834   4.549   7.805
21687SOL    HW266503   6.882   4.567   7.663
21688SOL     OW66504   7.377   5.449   8.615
21688SOL    HW166505   7.433   5.477   8.543
21688SOL    HW266506   7.341   5.365   8.587
21689SOL     OW66507   6.826   5.459   8.557
21689SOL    HW166508   6.909   5.481   8.514
21689SOL    HW266509   6.833   5.365   8.575
21690SOL     OW66510   5.682   5.008   8.449
21690SOL    HW166511   5.664   5.013   8.543
21690SOL    HW266512   5.616   4.947   8.416
21691SOL     OW66513   6.266   5.402   9.192
21691SOL    HW166514   6.198   5.469   9.184
21691SOL    HW266515   6.325   5.419   9.119
21692SOL     OW66516   7.323   3.888   7.956
21692SOL    HW166517   7.386   3.871   7.886
21692SOL    HW266518   7.300   3.802   7.990
21693SOL     OW66519   6.985   5.294   7.947
21693SOL    HW166520   7.035   5.329   7.873
21693SOL    HW266521   6.926   5.365   7.972
21694SOL     OW66522   5.718   5.534   9.290
21694SOL    HW166523   5.674   5.459   9.329
21694SOL    HW266524   5.768   5.573   9.362
21695SOL     OW66525   6.866   4.653   8.118
21695SOL    HW166526   6.940   4.592   8.125
21695SOL    HW266527   6.899   4.726   8.065
21696SOL     OW66528   6.378   5.006   8.865
21696SOL    HW166529   6.350   5.048   8.946
21696SOL    HW266530   6.305   5.017   8.805
21697SOL     OW66531   6.254   5.352   7.604
21697SOL    HW166532   6.265   5.367   7.510
21697SOL    HW266533   6.199   5.274   7.609
21698SOL     OW66534   7.206   5.450   8.842
21698SOL    HW166535   7.259   5.453   8.763
21698SOL    HW266536   7.191   5.543   8.864
21699SOL     OW66537   7.431   3.890   8.416
21699SOL    HW166538   7.458   3.802   8.389
21699SOL    HW266539   7.344   3.902   8.378
21700SOL     OW66540   5.838   4.048   8.164
21700SOL    HW166541   5.754   4.080   8.134
21700SOL    HW266542   5.828   4.040   8.259
21701SOL     OW66543   6.796   5.321   7.484
21701SOL    HW166544   6.784   5.230   7.513
21701SOL    HW266545   6.729   5.334   7.417
21702SOL     OW66546   6.410   4.735   8.824
21702SOL    HW166547   6.425   4.728   8.730
21702SOL    HW266548   6.399   4.829   8.840
21703SOL     OW66549   6.518   4.652   7.749
21703SOL    HW166550   6.576   4.680   7.678
21703SOL    HW266551   6.558   4.572   7.783
21704SOL     OW66552   7.072   5.363   7.499
21704SOL    HW166553   6.979   5.345   7.483
21704SOL    HW266554   7.111   5.366   7.411
21705SOL     OW66555   5.951   5.036   8.942
21705SOL    HW166556   5.934   5.107   8.880
21705SOL    HW266557   5.878   4.975   8.928
21706SOL     OW66558   7.200   5.015   8.731
21706SOL    HW166559   7.243   4.988   8.813
21706SOL    HW266560   7.133   5.078   8.759
21707SOL     OW66561   6.655   4.837   8.169
21707SOL    HW166562   6.577   4.792   8.202
21707SOL    HW266563   6.711   4.767   8.136
21708SOL     OW66564   6.619   3.969   8.412
21708SOL    HW166565   6.611   3.925   8.327
21708SOL    HW266566   6.606   3.899   8.476
21709SOL     OW66567   6.190   5.215   7.925
21709SOL    HW166568   6.239   5.165   7.861
21709SOL    HW266569   6.099   5.210   7.895
21710SOL     OW66570   7.323   4.110   8.833
21710SOL    HW166571   7.391   4.177   8.824
21710SOL    HW266572   7.349   4.040   8.773
21711SOL     OW66573   5.864   5.067   7.755
21711SOL    HW166574   5.777   5.058   7.717
21711SOL    HW266575   5.849   5.106   7.841
21712SOL     OW66576   5.709   4.776   9.195
21712SOL    HW166577   5.627   4.743   9.233
21712SOL    HW266578   5.776   4.717   9.228
21713SOL     OW66579   6.265   3.909   8.952
21713SOL    HW166580   6.349   3.892   8.908
21713SOL    HW266581   6.289   3.958   9.030
21714SOL     OW66582   5.666   4.040   7.477
21714SOL    HW166583   5.579   4.014   7.447
21714SOL    HW266584   5.680   4.126   7.436
21715SOL     OW66585   7.007   4.580   8.841
21715SOL    HW166586   6.953   4.639   8.787
21715SOL    HW266587   7.093   4.583   8.801
21716SOL     OW66588   5.642   3.880   7.746
21716SOL    HW166589   5.619   3.960   7.698
21716SOL    HW266590   5.723   3.851   7.706
21717SOL     OW66591   6.760   5.057   7.566
21717SOL    HW166592   6.668   5.034   7.560
21717SOL    HW266593   6.781   5.049   7.659
21718SOL     OW66594   6.214   4.550   8.891
21718SOL    HW166595   6.270   4.625   8.873
21718SOL    HW266596   6.273   4.475   8.891
21719SOL     OW66597   7.065   5.517   8.433
21719SOL    HW166598   7.086   5.582   8.367
21719SOL    HW266599   7.149   5.474   8.452
21720SOL     OW66600   6.324   4.272   9.141
21720SOL    HW166601   6.354   4.329   9.212
21720SOL    HW266602   6.329   4.184   9.178
21721SOL     OW66603   7.059   4.912   9.075
21721SOL    HW166604   7.045   4.933   9.167
21721SOL    HW266605   7.149   4.937   9.058
21722SOL     OW66606   5.955   5.465   9.021
21722SOL    HW166607   5.874   5.509   8.997
21722SOL    HW266608   5.926   5.382   9.060
21723SOL     OW66609   7.249   4.602   8.702
21723SOL    HW166610   7.240   4.516   8.661
21723SOL    HW266611   7.236   4.665   8.631
21724SOL     OW66612   6.807   4.046   7.905
21724SOL    HW166613   6.864   3.969   7.901
21724SOL    HW266614   6.838   4.095   7.981
21725SOL     OW66615   6.175   4.460   8.127
21725SOL    HW166616   6.212   4.545   8.103
21725SOL    HW266617   6.109   4.442   8.060
21726SOL     OW66618   7.330   4.088   9.105
21726SOL    HW166619   7.323   4.104   9.011
21726SOL    HW266620   7.255   4.032   9.126
21727SOL     OW66621   7.348   4.654   8.953
21727SOL    HW166622   7.321   4.744   8.969
21727SOL    HW266623   7.322   4.636   8.863
21728SOL     OW66624   6.468   5.091   7.508
21728SOL    HW166625   6.419   5.103   7.589
21728SOL    HW266626   6.459   5.175   7.462
21729SOL     OW66627   6.254   5.506   8.390
21729SOL    HW166628   6.234   5.597   8.367
21729SOL    HW266629   6.348   5.497   8.373
21730SOL     OW66630   6.456   4.704   8.308
21730SOL    HW166631   6.500   4.626   8.341
21730SOL    HW266632   6.417   4.744   8.385
21731SOL     OW66633   6.682   4.730   7.545
21731SOL    HW166634   6.646   4.769   7.466
21731SOL    HW266635   6.744   4.664   7.513
21732SOL     OW66636   7.425   5.285   8.293
21732SOL    HW166637   7.349   5.275   8.235
21732SOL    HW266638   7.410   5.221   8.363
21733SOL     OW66639   5.798   5.015   9.292
21733SOL    HW166640   5.766   4.936   9.247
21733SOL    HW266641   5.735   5.029   9.363
21734SOL     OW66642   5.683   4.959   8.122
21734SOL    HW166643   5.646   4.910   8.195
21734SOL    HW266644   5.714   4.892   8.061
21735SOL     OW66645   6.277   5.133   9.090
21735SOL    HW166646   6.194   5.092   9.114
21735SOL    HW266647   6.270   5.223   9.122
21736SOL     OW66648   7.410   3.902   8.687
21736SOL    HW166649   7.398   3.807   8.698
21736SOL    HW266650   7.417   3.914   8.592
21737SOL     OW66651   6.033   4.149   7.988
21737SOL    HW166652   6.044   4.081   7.922
21737SOL    HW266653   5.966   4.114   8.047
21738SOL     OW66654   7.280   5.206   8.539
21738SOL    HW166655   7.203   5.189   8.484
21738SOL    HW266656   7.275   5.140   8.608
21739SOL     OW66657   5.950   4.294   8.742
21739SOL    HW166658   5.989   4.221   8.791
21739SOL    HW266659   5.949   4.263   8.651
21740SOL     OW66660   6.417   5.298   8.120
21740SOL    HW166661   6.381   5.356   8.053
21740SOL    HW266662   6.348   5.234   8.135
21741SOL     OW66663   7.010   3.948   8.566
21741SOL    HW166664   7.000   3.856   8.592
21741SOL    HW266665   6.960   3.997   8.631
21742SOL     OW66666   6.595   3.740   8.578
21742SOL    HW166667   6.537   3.678   8.533
21742SOL    HW266668   6.680   3.697   8.580
21743SOL     OW66669   6.362   5.060   7.769
21743SOL    HW166670   6.328   4.971   7.774
21743SOL    HW266671   6.443   5.059   7.819
21744SOL     OW66672   6.204   5.283   8.739
21744SOL    HW166673   6.205   5.363   8.791
21744SOL    HW266674   6.291   5.279   8.699
21745SOL     OW66675   6.945   3.776   7.624
21745SOL    HW166676   6.975   3.711   7.560
21745SOL    HW266677   6.857   3.747   7.647
21746SOL     OW66678   6.899   4.190   8.127
21746SOL    HW166679   6.843   4.267   8.122
21746SOL    HW266680   6.883   4.155   8.214
21747SOL     OW66681   7.173   3.918   8.338
21747SOL    HW166682   7.115   3.943   8.411
21747SOL    HW266683   7.169   3.993   8.278
21748SOL     OW66684   5.636   4.793   7.759
21748SOL    HW166685   5.728   4.779   7.736
21748SOL    HW266686   5.603   4.706   7.782
21749SOL     OW66687   6.477   5.393   7.782
21749SOL    HW166688   6.401   5.372   7.728
21749SOL    HW266689   6.447   5.461   7.842
21750SOL     OW66690   5.809   4.336   9.434
21750SOL    HW166691   5.718   4.338   9.463
21750SOL    HW266692   5.804   4.316   9.340
21751SOL     OW66693   5.811   4.008  10.302
21751SOL    HW166694   5.836   3.972  10.387
21751SOL    HW266695   5.721   3.977  10.289
21752SOL     OW66696   5.582   4.109   9.955
21752SOL    HW166697   5.499   4.139   9.993
21752SOL    HW266698   5.558   4.030   9.906
21753SOL     OW66699   6.158   5.022  10.503
21753SOL    HW166700   6.073   5.020  10.460
21753SOL    HW266701   6.169   5.114  10.530
21754SOL     OW66702   7.140   5.184  10.001
21754SOL    HW166703   7.104   5.215  10.084
21754SOL    HW266704   7.094   5.234   9.934
21755SOL     OW66705   6.730   4.416  10.005
21755SOL    HW166706   6.773   4.501   9.989
21755SOL    HW266707   6.678   4.431  10.083
21756SOL     OW66708   7.384   4.319   9.533
21756SOL    HW166709   7.352   4.319   9.442
21756SOL    HW266710   7.338   4.246   9.574
21757SOL     OW66711   6.342   4.865  10.372
21757SOL    HW166712   6.272   4.901  10.426
21757SOL    HW266713   6.375   4.941  10.323
21758SOL     OW66714   6.465   4.481  11.134
21758SOL    HW166715   6.437   4.550  11.194
21758SOL    HW266716   6.484   4.526  11.052
21759SOL     OW66717   6.273   4.717   9.954
21759SOL    HW166718   6.337   4.715  10.024
21759SOL    HW266719   6.203   4.774   9.986
21760SOL     OW66720   6.303   4.879  11.137
21760SOL    HW166721   6.350   4.958  11.164
21760SOL    HW266722   6.224   4.912  11.095
21761SOL     OW66723   5.920   5.134  10.376
21761SOL    HW166724   5.844   5.093  10.335
21761SOL    HW266725   5.960   5.186  10.306
21762SOL     OW66726   7.043   5.223  10.677
21762SOL    HW166727   7.097   5.302  10.685
21762SOL    HW266728   6.973   5.236  10.741
21763SOL     OW66729   6.043   4.111  10.787
21763SOL    HW166730   6.113   4.046  10.791
21763SOL    HW266731   5.963   4.061  10.801
21764SOL     OW66732   7.180   4.166  10.053
21764SOL    HW166733   7.102   4.164   9.997
21764SOL    HW266734   7.175   4.251  10.096
21765SOL     OW66735   5.803   5.444   9.775
21765SOL    HW166736   5.829   5.519   9.830
21765SOL    HW266737   5.875   5.434   9.713
21766SOL     OW66738   6.724   5.064  11.003
21766SOL    HW166739   6.763   5.055  11.090
21766SOL    HW266740   6.672   4.985  10.992
21767SOL     OW66741   5.826   5.175   9.855
21767SOL    HW166742   5.797   5.266   9.852
21767SOL    HW266743   5.765   5.132   9.915
21768SOL     OW66744   5.873   4.818  10.218
21768SOL    HW166745   5.856   4.730  10.249
21768SOL    HW266746   5.805   4.872  10.259
21769SOL     OW66747   6.189   5.515  10.748
21769SOL    HW166748   6.105   5.498  10.789
21769SOL    HW266749   6.209   5.607  10.769
21770SOL     OW66750   6.170   4.706   9.451
21770SOL    HW166751   6.215   4.755   9.383
21770SOL    HW266752   6.205   4.741   9.533
21771SOL     OW66753   7.193   3.854  10.771
21771SOL    HW166754   7.192   3.939  10.727
21771SOL    HW266755   7.167   3.874  10.861
21772SOL     OW66756   5.714   4.374   9.874
21772SOL    HW166757   5.672   4.289   9.889
21772SOL    HW266758   5.699   4.423   9.954
21773SOL     OW66759   7.441   5.465   9.671
21773SOL    HW166760   7.409   5.463   9.761
21773SOL    HW266761   7.450   5.558   9.650
21774SOL     OW66762   5.642   5.313   9.426
21774SOL    HW166763   5.614   5.222   9.438
21774SOL    HW266764   5.607   5.360   9.502
21775SOL     OW66765   7.274   4.633   9.938
21775SOL    HW166766   7.348   4.593   9.892
21775SOL    HW266767   7.241   4.699   9.877
21776SOL     OW66768   7.233   4.828   9.737
21776SOL    HW166769   7.320   4.833   9.696
21776SOL    HW266770   7.240   4.883   9.815
21777SOL     OW66771   5.716   4.456  10.898
21777SOL    HW166772   5.801   4.501  10.894
21777SOL    HW266773   5.652   4.527  10.906
21778SOL     OW66774   6.202   5.117  10.046
21778SOL    HW166775   6.158   5.032  10.053
21778SOL    HW266776   6.186   5.145   9.957
21779SOL     OW66777   6.865   4.954  10.734
21779SOL    HW166778   6.894   4.888  10.671
21779SOL    HW266779   6.930   4.949  10.804
21780SOL     OW66780   6.411   3.730   9.835
21780SOL    HW166781   6.451   3.811   9.802
21780SOL    HW266782   6.317   3.747   9.833
21781SOL     OW66783   5.780   4.699  10.565
21781SOL    HW166784   5.858   4.647  10.551
21781SOL    HW266785   5.708   4.643  10.537
21782SOL     OW66786   7.121   4.723   9.508
21782SOL    HW166787   7.051   4.665   9.538
21782SOL    HW266788   7.158   4.760   9.588
21783SOL     OW66789   6.772   5.540  10.941
21783SOL    HW166790   6.772   5.602  10.868
21783SOL    HW266791   6.785   5.454  10.900
21784SOL     OW66792   5.930   3.968  11.162
21784SOL    HW166793   5.966   4.056  11.162
21784SOL    HW266794   5.835   3.982  11.166
21785SOL     OW66795   7.051   5.153  10.270
21785SOL    HW166796   6.982   5.165  10.335
21785SOL    HW266797   7.040   5.063  10.238
21786SOL     OW66798   6.182   4.448   9.589
21786SOL    HW166799   6.175   4.529   9.538
21786SOL    HW266800   6.113   4.455   9.655
21787SOL     OW66801   6.872   4.098  10.250
21787SOL    HW166802   6.782   4.067  10.253
21787SOL    HW266803   6.920   4.039  10.309
21788SOL     OW66804   7.143   5.408   9.611
21788SOL    HW166805   7.238   5.414   9.617
21788SOL    HW266806   7.126   5.386   9.519
21789SOL     OW66807   6.389   4.337  10.751
21789SOL    HW166808   6.358   4.313  10.839
21789SOL    HW266809   6.352   4.270  10.694
21790SOL     OW66810   6.975   4.200  10.988
21790SOL    HW166811   6.978   4.246  11.072
21790SOL    HW266812   7.035   4.126  10.998
21791SOL     OW66813   6.532   4.611  10.897
21791SOL    HW166814   6.588   4.544  10.857
21791SOL    HW266815   6.486   4.650  10.822
21792SOL     OW66816   6.585   4.122  10.538
21792SOL    HW166817   6.495   4.140  10.566
21792SOL    HW266818   6.578   4.098  10.446
21793SOL     OW66819   6.643   4.418   9.733
21793SOL    HW166820   6.658   4.411   9.827
21793SOL    HW266821   6.557   4.377   9.720
21794SOL     OW66822   5.674   4.531  10.094
21794SOL    HW166823   5.753   4.533  10.149
21794SOL    HW266824   5.626   4.610  10.118
21795SOL     OW66825   5.709   5.600  10.891
21795SOL    HW166826   5.709   5.579  10.984
21795SOL    HW266827   5.639   5.547  10.854
21796SOL     OW66828   6.481   4.077   9.509
21796SOL    HW166829   6.528   4.135   9.449
21796SOL    HW266830   6.438   4.014   9.452
21797SOL     OW66831   7.285   4.292  11.138
21797SOL    HW166832   7.254   4.369  11.091
21797SOL    HW266833   7.314   4.232  11.069
21798SOL     OW66834   6.963   4.864   9.842
21798SOL    HW166835   7.041   4.859   9.788
21798SOL    HW266836   6.908   4.930   9.800
21799SOL     OW66837   6.139   3.891  10.207
21799SOL    HW166838   6.138   3.935  10.292
21799SOL    HW266839   6.130   3.962  10.143
21800SOL     OW66840   6.585   5.173   9.778
21800SOL    HW166841   6.555   5.246   9.723
21800SOL    HW266842   6.552   5.194   9.866
21801SOL     OW66843   5.940   5.540  10.182
21801SOL    HW166844   5.983   5.455  10.188
21801SOL    HW266845   6.010   5.603  10.200
21802SOL     OW66846   7.387   4.752  10.185
21802SOL    HW166847   7.336   4.766  10.105
21802SOL    HW266848   7.326   4.772  10.256
21803SOL     OW66849   6.809   5.265  10.824
21803SOL    HW166850   6.798   5.190  10.883
21803SOL    HW266851   6.745   5.250  10.755
21804SOL     OW66852   5.895   4.681   9.568
21804SOL    HW166853   5.971   4.705   9.514
21804SOL    HW266854   5.859   4.603   9.525
21805SOL     OW66855   7.075   4.467  10.024
21805SOL    HW166856   7.068   4.443  10.116
21805SOL    HW266857   7.149   4.527  10.020
21806SOL     OW66858   6.056   4.995  11.053
21806SOL    HW166859   6.029   4.999  10.961
21806SOL    HW266860   5.973   4.990  11.101
21807SOL     OW66861   6.713   5.500   9.541
21807SOL    HW166862   6.633   5.463   9.579
21807SOL    HW266863   6.737   5.438   9.473
21808SOL     OW66864   5.790   4.002  10.811
21808SOL    HW166865   5.716   4.060  10.795
21808SOL    HW266866   5.751   3.921  10.845
21809SOL     OW66867   7.226   5.108   9.400
21809SOL    HW166868   7.183   5.192   9.386
21809SOL    HW266869   7.158   5.043   9.382
21810SOL     OW66870   6.047   5.465   9.624
21810SOL    HW166871   6.097   5.515   9.689
21810SOL    HW266872   6.113   5.422   9.570
21811SOL     OW66873   6.983   3.825   9.755
21811SOL    HW166874   6.967   3.803   9.663
21811SOL    HW266875   7.078   3.833   9.762
21812SOL     OW66876   5.852   5.519  10.527
21812SOL    HW166877   5.889   5.438  10.562
21812SOL    HW266878   5.820   5.495  10.440
21813SOL     OW66879   6.534   5.424  10.198
21813SOL    HW166880   6.619   5.381  10.205
21813SOL    HW266881   6.487   5.374  10.131
21814SOL     OW66882   5.989   4.411   9.791
21814SOL    HW166883   6.006   4.317   9.803
21814SOL    HW266884   5.895   4.420   9.801
21815SOL     OW66885   7.110   3.947  11.029
21815SOL    HW166886   7.123   3.963  11.122
21815SOL    HW266887   7.030   3.893  11.024
21816SOL     OW66888   6.241   3.832   9.408
21816SOL    HW166889   6.298   3.756   9.413
21816SOL    HW266890   6.175   3.808   9.343
21817SOL     OW66891   6.348   4.003  11.067
21817SOL    HW166892   6.429   3.952  11.069
21817SOL    HW266893   6.302   3.978  11.146
21818SOL     OW66894   6.460   5.251  10.509
21818SOL    HW166895   6.443   5.216  10.422
21818SOL    HW266896   6.529   5.195  10.544
21819SOL     OW66897   6.925   4.310  10.738
21819SOL    HW166898   6.952   4.286  10.826
21819SOL    HW266899   6.954   4.401  10.727
21820SOL     OW66900   6.404   5.114  10.260
21820SOL    HW166901   6.490   5.103  10.218
21820SOL    HW266902   6.342   5.121  10.188
21821SOL     OW66903   6.520   4.232  10.204
21821SOL    HW166904   6.492   4.226  10.113
21821SOL    HW266905   6.545   4.142  10.227
21822SOL     OW66906   6.146   3.786   9.803
21822SOL    HW166907   6.064   3.785   9.852
21822SOL    HW266908   6.139   3.862   9.745
21823SOL     OW66909   7.018   4.932   9.349
21823SOL    HW166910   7.040   4.854   9.400
21823SOL    HW266911   6.930   4.956   9.380
21824SOL     OW66912   5.867   3.778   9.497
21824SOL    HW166913   5.909   3.844   9.441
21824SOL    HW266914   5.938   3.721   9.524
21825SOL     OW66915   6.532   3.971   9.762
21825SOL    HW166916   6.505   4.006   9.677
21825SOL    HW266917   6.626   3.991   9.766
21826SOL     OW66918   6.663   4.411  10.769
21826SOL    HW166919   6.589   4.351  10.765
21826SOL    HW266920   6.740   4.356  10.756
21827SOL     OW66921   6.789   5.309  10.113
21827SOL    HW166922   6.807   5.367  10.039
21827SOL    HW266923   6.870   5.312  10.165
21828SOL     OW66924   6.063   4.878  10.033
21828SOL    HW166925   5.998   4.859  10.100
21828SOL    HW266926   6.015   4.868   9.950
21829SOL     OW66927   6.843   5.520   9.926
21829SOL    HW166928   6.893   5.580   9.870
21829SOL    HW266929   6.770   5.573   9.959
21830SOL     OW66930   6.612   4.256   9.339
21830SOL    HW166931   6.565   4.336   9.315
21830SOL    HW266932   6.675   4.284   9.405
21831SOL     OW66933   5.680   4.264  10.709
21831SOL    HW166934   5.770   4.273  10.678
21831SOL    HW266935   5.670   4.335  10.772
21832SOL     OW66936   6.143   3.956  10.482
21832SOL    HW166937   6.178   3.874  10.514
21832SOL    HW266938   6.050   3.954  10.507
21833SOL     OW66939   6.455   4.181   9.944
21833SOL    HW166940   6.406   4.238   9.885
21833SOL    HW266941   6.475   4.103   9.891
21834SOL     OW66942   6.609   3.779  10.053
21834SOL    HW166943   6.548   3.783   9.979
21834SOL    HW266944   6.579   3.705  10.104
21835SOL     OW66945   7.032   4.892  10.171
21835SOL    HW166946   6.953   4.842  10.153
21835SOL    HW266947   7.072   4.906  10.085
21836SOL     OW66948   7.046   4.337  10.272
21836SOL    HW166949   6.986   4.262  10.272
21836SOL    HW266950   7.101   4.324  10.349
21837SOL     OW66951   7.446   4.532   9.696
21837SOL    HW166952   7.497   4.478   9.756
21837SOL    HW266953   7.413   4.472   9.630
21838SOL     OW66954   6.076   5.145   9.457
21838SOL    HW166955   6.004   5.113   9.512
21838SOL    HW266956   6.065   5.100   9.374
21839SOL     OW66957   7.262   4.950   9.974
21839SOL    HW166958   7.356   4.966   9.982
21839SOL    HW266959   7.222   5.037   9.981
21840SOL     OW66960   6.980   4.294   9.380
21840SOL    HW166961   6.915   4.275   9.449
21840SOL    HW266962   7.062   4.259   9.415
21841SOL     OW66963   6.121   3.982   9.618
21841SOL    HW166964   6.164   3.937   9.544
21841SOL    HW266965   6.090   4.065   9.580
21842SOL     OW66966   7.328   4.980  10.869
21842SOL    HW166967   7.410   4.932  10.857
21842SOL    HW266968   7.354   5.066  10.900
21843SOL     OW66969   6.635   5.083  10.651
21843SOL    HW166970   6.558   5.047  10.695
21843SOL    HW266971   6.708   5.034  10.689
21844SOL     OW66972   7.198   5.356  10.976
21844SOL    HW166973   7.185   5.388  10.887
21844SOL    HW266974   7.280   5.306  10.972
21845SOL     OW66975   6.727   4.945  10.414
21845SOL    HW166976   6.654   4.970  10.471
21845SOL    HW266977   6.702   4.976  10.327
21846SOL     OW66978   7.207   4.819  10.384
21846SOL    HW166979   7.198   4.883  10.455
21846SOL    HW266980   7.136   4.839  10.324
21847SOL     OW66981   6.509   3.808  10.701
21847SOL    HW166982   6.526   3.795  10.608
21847SOL    HW266983   6.588   3.852  10.734
21848SOL     OW66984   6.568   4.837  11.039
21848SOL    HW166985   6.477   4.854  11.062
21848SOL    HW266986   6.565   4.760  10.982
21849SOL     OW66987   6.300   4.791   9.682
21849SOL    HW166988   6.281   4.765   9.772
21849SOL    HW266989   6.377   4.738   9.658
21850SOL     OW66990   6.008   4.543  10.561
21850SOL    HW166991   6.075   4.554  10.629
21850SOL    HW266992   5.973   4.455  10.577
21851SOL     OW66993   6.849   4.090  10.596
21851SOL    HW166994   6.880   4.171  10.637
21851SOL    HW266995   6.759   4.108  10.571
21852SOL     OW66996   5.661   5.310  10.680
21852SOL    HW166997   5.625   5.364  10.610
21852SOL    HW266998   5.754   5.300  10.657
21853SOL     OW66999   5.924   4.846   9.797
21853SOL    HW167000   5.918   4.920   9.735
21853SOL    HW267001   5.919   4.768   9.741
21854SOL     OW67002   6.134   4.253  10.177
21854SOL    HW167003   6.144   4.308  10.100
21854SOL    HW267004   6.203   4.282  10.236
21855SOL     OW67005   6.832   5.075   9.705
21855SOL    HW167006   6.887   5.148   9.732
21855SOL    HW267007   6.744   5.098   9.735
21856SOL     OW67008   6.868   5.192  10.466
21856SOL    HW167009   6.924   5.191  10.544
21856SOL    HW267010   6.814   5.114  10.474
21857SOL     OW67011   7.165   4.344   9.789
21857SOL    HW167012   7.120   4.379   9.866
21857SOL    HW267013   7.164   4.416   9.726
21858SOL     OW67014   5.928   5.262  10.611
21858SOL    HW167015   5.916   5.210  10.531
21858SOL    HW267016   6.023   5.270  10.620
21859SOL     OW67017   6.014   4.470  10.915
21859SOL    HW167018   6.076   4.512  10.856
21859SOL    HW267019   6.040   4.378  10.916
21860SOL     OW67020   7.200   4.508  10.996
21860SOL    HW167021   7.115   4.551  10.988
21860SOL    HW267022   7.254   4.549  10.928
21861SOL     OW67023   6.584   3.860  11.081
21861SOL    HW167024   6.638   3.935  11.055
21861SOL    HW267025   6.632   3.784  11.048
21862SOL     OW67026   6.074   3.753  11.071
21862SOL    HW167027   6.028   3.708  11.001
21862SOL    HW267028   6.021   3.831  11.088
21863SOL     OW67029   6.183   4.593  10.352
21863SOL    HW167030   6.195   4.687  10.339
21863SOL    HW267031   6.113   4.587  10.417
21864SOL     OW67032   6.923   4.579  10.331
21864SOL    HW167033   6.838   4.571  10.288
21864SOL    HW267034   6.966   4.495  10.313
21865SOL     OW67035   6.792   4.250   9.573
21865SOL    HW167036   6.791   4.170   9.627
21865SOL    HW267037   6.746   4.315   9.627
21866SOL     OW67038   5.884   3.917  10.557
21866SOL    HW167039   5.842   3.948  10.637
21866SOL    HW267040   5.864   3.824  10.554
21867SOL     OW67041   5.649   5.046  10.577
21867SOL    HW167042   5.672   4.982  10.644
21867SOL    HW267043   5.632   5.127  10.626
21868SOL     OW67044   6.313   4.354  10.367
21868SOL    HW167045   6.384   4.348  10.303
21868SOL    HW267046   6.276   4.441  10.354
21869SOL     OW67047   7.323   4.666  11.190
21869SOL    HW167048   7.280   4.609  11.126
21869SOL    HW267049   7.254   4.690  11.252
21870SOL     OW67050   5.903   3.783   9.932
21870SOL    HW167051   5.872   3.873   9.948
21870SOL    HW267052   5.904   3.743  10.018
21871SOL     OW67053   7.214   4.104   9.668
21871SOL    HW167054   7.244   4.042   9.735
21871SOL    HW267055   7.189   4.182   9.717
21872SOL     OW67056   6.619   4.480  10.263
21872SOL    HW167057   6.606   4.496  10.357
21872SOL    HW267058   6.589   4.390  10.250
21873SOL     OW67059   6.569   5.289  11.032
21873SOL    HW167060   6.548   5.333  10.950
21873SOL    HW267061   6.614   5.209  11.005
21874SOL     OW67062   7.439   5.231  10.919
21874SOL    HW167063   7.460   5.260  10.830
21874SOL    HW267064   7.522   5.239  10.967
21875SOL     OW67065   5.951   4.609  11.141
21875SOL    HW167066   6.037   4.636  11.173
21875SOL    HW267067   5.970   4.559  11.061
21876SOL     OW67068   7.113   3.990   9.435
21876SOL    HW167069   7.047   3.929   9.466
21876SOL    HW267070   7.148   4.030   9.515
21877SOL     OW67071   6.876   4.547   9.338
21877SOL    HW167072   6.914   4.460   9.340
21877SOL    HW267073   6.905   4.585   9.255
21878SOL     OW67074   6.658   5.065  10.174
21878SOL    HW167075   6.663   4.994  10.110
21878SOL    HW267076   6.707   5.137  10.134
21879SOL     OW67077   5.896   4.530  10.256
21879SOL    HW167078   5.986   4.543  10.226
21879SOL    HW267079   5.895   4.441  10.289
21880SOL     OW67080   5.914   4.254  10.329
21880SOL    HW167081   5.873   4.168  10.313
21880SOL    HW267082   5.990   4.256  10.272
21881SOL     OW67083   6.720   4.091  11.004
21881SOL    HW167084   6.670   4.148  11.062
21881SOL    HW267085   6.805   4.135  10.994
21882SOL     OW67086   6.750   3.916  10.790
21882SOL    HW167087   6.734   3.980  10.859
21882SOL    HW267088   6.788   3.967  10.718
21883SOL     OW67089   5.606   5.036   9.495
21883SOL    HW167090   5.517   5.056   9.466
21883SOL    HW267091   5.599   4.948   9.534
21884SOL     OW67092   5.681   5.500  10.262
21884SOL    HW167093   5.645   5.425  10.214
21884SOL    HW267094   5.767   5.515  10.223
21885SOL     OW67095   6.076   5.301  10.213
21885SOL    HW167096   6.148   5.360  10.239
21885SOL    HW267097   6.117   5.238  10.154
21886SOL     OW67098   6.559   4.503  10.526
21886SOL    HW167099   6.612   4.492  10.605
21886SOL    HW267100   6.473   4.469  10.551
21887SOL     OW67101   5.619   4.259  10.433
21887SOL    HW167102   5.696   4.269  10.377
21887SOL    HW267103   5.654   4.268  10.522
21888SOL     OW67104   5.793   4.239  11.042
21888SOL    HW167105   5.827   4.187  10.970
21888SOL    HW267106   5.757   4.318  11.000
21889SOL     OW67107   6.970   4.654  10.965
21889SOL    HW167108   6.992   4.747  10.959
21889SOL    HW267109   6.961   4.627  10.874
21890SOL     OW67110   6.402   4.299   9.680
21890SOL    HW167111   6.405   4.225   9.620
21890SOL    HW267112   6.327   4.351   9.651
21891SOL     OW67113   7.224   4.313  10.481
21891SOL    HW167114   7.208   4.268  10.564
21891SOL    HW267115   7.309   4.280  10.452
21892SOL     OW67116   5.834   5.278  11.038
21892SOL    HW167117   5.803   5.335  11.108
21892SOL    HW267118   5.836   5.191  11.077
21893SOL     OW67119   6.309   4.164  10.559
21893SOL    HW167120   6.247   4.095  10.535
21893SOL    HW267121   6.300   4.230  10.490
21894SOL     OW67122   6.501   5.402  10.785
21894SOL    HW167123   6.481   5.357  10.704
21894SOL    HW267124   6.492   5.495  10.764
21895SOL     OW67125   6.047   4.218   9.510
21895SOL    HW167126   6.100   4.295   9.527
21895SOL    HW267127   5.961   4.252   9.486
21896SOL     OW67128   5.741   4.869  10.768
21896SOL    HW167129   5.679   4.821  10.824
21896SOL    HW267130   5.760   4.809  10.696
21897SOL     OW67131   6.901   4.765  10.528
21897SOL    HW167132   6.919   4.702  10.459
21897SOL    HW267133   6.840   4.828  10.489
21898SOL     OW67134   6.913   4.572   9.612
21898SOL    HW167135   6.835   4.554   9.664
21898SOL    HW267136   6.884   4.564   9.521
21899SOL     OW67137   7.377   5.456  10.482
21899SOL    HW167138   7.437   5.484  10.412
21899SOL    HW267139   7.342   5.373  10.452
21900SOL     OW67140   6.833   5.467  10.423
21900SOL    HW167141   6.913   5.485  10.374
21900SOL    HW267142   6.836   5.373  10.440
21901SOL     OW67143   5.675   4.997  10.312
21901SOL    HW167144   5.660   5.011  10.406
21901SOL    HW267145   5.606   4.936  10.286
21902SOL     OW67146   6.267   5.401  11.053
21902SOL    HW167147   6.201   5.469  11.041
21902SOL    HW267148   6.330   5.417  10.983
21903SOL     OW67149   7.328   3.887   9.822
21903SOL    HW167150   7.388   3.872   9.750
21903SOL    HW267151   7.305   3.799   9.853
21904SOL     OW67152   6.974   5.299   9.798
21904SOL    HW167153   7.033   5.335   9.732
21904SOL    HW267154   6.923   5.373   9.829
21905SOL     OW67155   5.720   5.530  11.152
21905SOL    HW167156   5.674   5.457  11.193
21905SOL    HW267157   5.768   5.572  11.223
21906SOL     OW67158   6.868   4.649   9.976
21906SOL    HW167159   6.943   4.590   9.981
21906SOL    HW267160   6.899   4.723   9.923
21907SOL     OW67161   6.380   5.003  10.733
21907SOL    HW167162   6.353   5.046  10.814
21907SOL    HW267163   6.309   5.021  10.672
21908SOL     OW67164   6.253   5.351   9.466
21908SOL    HW167165   6.266   5.367   9.373
21908SOL    HW267166   6.198   5.273   9.470
21909SOL     OW67167   7.201   5.450  10.707
21909SOL    HW167168   7.258   5.452  10.630
21909SOL    HW267169   7.186   5.542  10.728
21910SOL     OW67170   7.472   3.910  10.246
21910SOL    HW167171   7.486   3.817  10.231
21910SOL    HW267172   7.382   3.925  10.217
21911SOL     OW67173   5.838   4.033  10.020
21911SOL    HW167174   5.752   4.067   9.994
21911SOL    HW267175   5.836   4.033  10.116
21912SOL     OW67176   6.796   5.323   9.345
21912SOL    HW167177   6.785   5.232   9.372
21912SOL    HW267178   6.729   5.337   9.278
21913SOL     OW67179   6.411   4.735  10.683
21913SOL    HW167180   6.433   4.733  10.590
21913SOL    HW267181   6.401   4.828  10.703
21914SOL     OW67182   6.514   4.644   9.612
21914SOL    HW167183   6.570   4.675   9.541
21914SOL    HW267184   6.560   4.568   9.647
21915SOL     OW67185   7.077   5.348   9.349
21915SOL    HW167186   6.982   5.340   9.336
21915SOL    HW267187   7.113   5.356   9.261
21916SOL     OW67188   5.957   5.035  10.806
21916SOL    HW167189   5.939   5.106  10.745
21916SOL    HW267190   5.884   4.973  10.793
21917SOL     OW67191   7.192   5.007  10.589
21917SOL    HW167192   7.252   4.992  10.662
21917SOL    HW267193   7.131   5.074  10.621
21918SOL     OW67194   6.655   4.837  10.030
21918SOL    HW167195   6.578   4.790  10.062
21918SOL    HW267196   6.711   4.770   9.992
21919SOL     OW67197   6.620   3.968  10.272
21919SOL    HW167198   6.614   3.922  10.188
21919SOL    HW267199   6.607   3.899  10.337
21920SOL     OW67200   6.193   5.215   9.792
21920SOL    HW167201   6.244   5.165   9.728
21920SOL    HW267202   6.109   5.229   9.750
21921SOL     OW67203   7.322   4.116  10.689
21921SOL    HW167204   7.392   4.182  10.692
21921SOL    HW267205   7.355   4.050  10.629
21922SOL     OW67206   5.865   5.059   9.617
21922SOL    HW167207   5.778   5.056   9.577
21922SOL    HW267208   5.851   5.105   9.700
21923SOL     OW67209   5.750   4.793  11.120
21923SOL    HW167210   5.676   4.763  11.067
21923SOL    HW267211   5.809   4.718  11.124
21924SOL     OW67212   6.263   3.911  10.811
21924SOL    HW167213   6.347   3.895  10.768
21924SOL    HW267214   6.286   3.952  10.894
21925SOL     OW67215   5.652   4.045   9.342
21925SOL    HW167216   5.566   4.027   9.305
21925SOL    HW267217   5.681   4.125   9.297
21926SOL     OW67218   7.007   4.577  10.703
21926SOL    HW167219   6.954   4.638  10.650
21926SOL    HW267220   7.095   4.585  10.668
21927SOL     OW67221   5.636   3.881   9.602
21927SOL    HW167222   5.612   3.948   9.537
21927SOL    HW267223   5.723   3.851   9.575
21928SOL     OW67224   6.762   5.056   9.426
21928SOL    HW167225   6.668   5.038   9.422
21928SOL    HW267226   6.783   5.053   9.519
21929SOL     OW67227   6.213   4.551  10.743
21929SOL    HW167228   6.268   4.628  10.727
21929SOL    HW267229   6.275   4.478  10.747
21930SOL     OW67230   7.070   5.511  10.287
21930SOL    HW167231   7.094   5.559  10.207
21930SOL    HW267232   7.149   5.463  10.310
21931SOL     OW67233   6.311   4.279  11.001
21931SOL    HW167234   6.351   4.338  11.066
21931SOL    HW267235   6.323   4.192  11.038
21932SOL     OW67236   7.062   4.913  10.936
21932SOL    HW167237   7.055   4.935  11.029
21932SOL    HW267238   7.152   4.936  10.913
21933SOL     OW67239   5.955   5.470  10.881
21933SOL    HW167240   5.873   5.514  10.858
21933SOL    HW267241   5.927   5.387  10.921
21934SOL     OW67242   7.247   4.602  10.561
21934SOL    HW167243   7.235   4.522  10.510
21934SOL    HW267244   7.235   4.673  10.498
21935SOL     OW67245   6.803   4.042   9.770
21935SOL    HW167246   6.863   3.967   9.764
21935SOL    HW267247   6.834   4.093   9.844
21936SOL     OW67248   6.172   4.458   9.993
21936SOL    HW167249   6.212   4.542   9.973
21936SOL    HW267250   6.109   4.443   9.922
21937SOL     OW67251   7.340   4.083  10.960
21937SOL    HW167252   7.326   4.102  10.867
21937SOL    HW267253   7.265   4.029  10.984
21938SOL     OW67254   7.358   4.640  10.814
21938SOL    HW167255   7.399   4.726  10.819
21938SOL    HW267256   7.325   4.634  10.724
21939SOL     OW67257   6.471   5.092   9.368
21939SOL    HW167258   6.417   5.114   9.444
21939SOL    HW267259   6.469   5.171   9.313
21940SOL     OW67260   6.257   5.503  10.253
21940SOL    HW167261   6.236   5.593  10.229
21940SOL    HW267262   6.351   5.496  10.238
21941SOL     OW67263   6.456   4.701  10.167
21941SOL    HW167264   6.504   4.625  10.202
21941SOL    HW267265   6.417   4.742  10.244
21942SOL     OW67266   6.673   4.719   9.407
21942SOL    HW167267   6.642   4.767   9.329
21942SOL    HW267268   6.740   4.660   9.373
21943SOL     OW67269   7.466   5.282  10.148
21943SOL    HW167270   7.427   5.339  10.081
21943SOL    HW267271   7.393   5.233  10.184
21944SOL     OW67272   5.808   5.042  11.172
21944SOL    HW167273   5.787   4.954  11.142
21944SOL    HW267274   5.743   5.062  11.239
21945SOL     OW67275   5.678   4.961   9.977
21945SOL    HW167276   5.669   4.903  10.053
21945SOL    HW267277   5.737   4.915   9.918
21946SOL     OW67278   6.278   5.132  10.955
21946SOL    HW167279   6.194   5.093  10.978
21946SOL    HW267280   6.271   5.223  10.984
21947SOL     OW67281   7.418   3.917  10.526
21947SOL    HW167282   7.414   3.834  10.573
21947SOL    HW267283   7.370   3.900  10.444
21948SOL     OW67284   6.030   4.149   9.848
21948SOL    HW167285   6.046   4.087   9.777
21948SOL    HW267286   5.964   4.106   9.903
21949SOL     OW67287   7.282   5.216  10.403
21949SOL    HW167288   7.202   5.196  10.354
21949SOL    HW267289   7.289   5.145  10.467
21950SOL     OW67290   5.928   4.285  10.604
21950SOL    HW167291   5.983   4.224  10.653
21950SOL    HW267292   5.938   4.259  10.513
21951SOL     OW67293   6.418   5.306   9.982
21951SOL    HW167294   6.396   5.373   9.916
21951SOL    HW267295   6.343   5.246   9.980
21952SOL     OW67296   7.012   3.944  10.432
21952SOL    HW167297   6.995   3.853  10.457
21952SOL    HW267298   6.963   3.996  10.496
21953SOL     OW67299   6.594   3.738  10.439
21953SOL    HW167300   6.540   3.676  10.389
21953SOL    HW267301   6.680   3.696  10.443
21954SOL     OW67302   6.359   5.060   9.635
21954SOL    HW167303   6.330   4.969   9.641
21954SOL    HW267304   6.443   5.061   9.680
21955SOL     OW67305   6.204   5.281  10.603
21955SOL    HW167306   6.205   5.363  10.653
21955SOL    HW267307   6.292   5.276  10.564
21956SOL     OW67308   6.940   3.776   9.488
21956SOL    HW167309   6.967   3.719   9.416
21956SOL    HW267310   6.853   3.744   9.512
21957SOL     OW67311   6.894   4.185   9.989
21957SOL    HW167312   6.843   4.266   9.984
21957SOL    HW267313   6.882   4.154  10.078
21958SOL     OW67314   7.201   3.940  10.219
21958SOL    HW167315   7.130   3.950  10.283
21958SOL    HW267316   7.184   4.008  10.154
21959SOL     OW67317   5.630   4.789   9.628
21959SOL    HW167318   5.721   4.777   9.601
21959SOL    HW267319   5.599   4.701   9.648
21960SOL     OW67320   6.474   5.389   9.646
21960SOL    HW167321   6.398   5.371   9.590
21960SOL    HW267322   6.445   5.461   9.702
21961SOL     OW67323   5.806   4.327  11.308
21961SOL    HW167324   5.717   4.348  11.334
21961SOL    HW267325   5.803   4.321  11.213
21962SOL     OW67326   5.812   4.009  12.162
21962SOL    HW167327   5.841   3.973  12.246
21962SOL    HW267328   5.721   3.978  12.153
21963SOL     OW67329   5.582   4.106  11.813
21963SOL    HW167330   5.502   4.136  11.857
21963SOL    HW267331   5.554   4.031  11.761
21964SOL     OW67332   6.133   4.977  12.331
21964SOL    HW167333   6.056   5.013  12.286
21964SOL    HW267334   6.131   5.017  12.418
21965SOL     OW67335   7.163   5.245  11.874
21965SOL    HW167336   7.111   5.206  11.943
21965SOL    HW267337   7.106   5.246  11.798
21966SOL     OW67338   6.724   4.419  11.867
21966SOL    HW167339   6.769   4.502  11.855
21966SOL    HW267340   6.671   4.433  11.946
21967SOL     OW67341   7.375   4.319  11.392
21967SOL    HW167342   7.343   4.317  11.302
21967SOL    HW267343   7.332   4.244  11.434
21968SOL     OW67344   6.363   4.877  12.236
21968SOL    HW167345   6.278   4.901  12.272
21968SOL    HW267346   6.390   4.954  12.186
21969SOL     OW67347   6.272   4.716  11.818
21969SOL    HW167348   6.333   4.711  11.891
21969SOL    HW267349   6.202   4.773  11.849
21970SOL     OW67350   5.920   5.129  12.227
21970SOL    HW167351   5.840   5.094  12.189
21970SOL    HW267352   5.956   5.185  12.158
21971SOL     OW67353   7.191   4.170  11.922
21971SOL    HW167354   7.127   4.186  11.853
21971SOL    HW267355   7.167   4.232  11.991
21972SOL     OW67356   5.803   5.443  11.636
21972SOL    HW167357   5.829   5.518  11.690
21972SOL    HW267358   5.875   5.433  11.574
21973SOL     OW67359   5.825   5.177  11.722
21973SOL    HW167360   5.797   5.269  11.715
21973SOL    HW267361   5.761   5.137  11.780
21974SOL     OW67362   5.864   4.817  12.069
21974SOL    HW167363   5.856   4.728  12.103
21974SOL    HW267364   5.803   4.868  12.122
21975SOL     OW67365   6.173   4.704  11.312
21975SOL    HW167366   6.217   4.756  11.245
21975SOL    HW267367   6.208   4.738  11.395
21976SOL     OW67368   5.711   4.377  11.736
21976SOL    HW167369   5.674   4.291  11.756
21976SOL    HW267370   5.699   4.428  11.816
21977SOL     OW67371   7.428   5.473  11.504
21977SOL    HW167372   7.501   5.452  11.562
21977SOL    HW267373   7.444   5.565  11.480
21978SOL     OW67374   5.637   5.316  11.292
21978SOL    HW167375   5.614   5.224  11.308
21978SOL    HW267376   5.604   5.363  11.369
21979SOL     OW67377   7.279   4.646  11.822
21979SOL    HW167378   7.357   4.598  11.794
21979SOL    HW267379   7.253   4.697  11.745
21980SOL     OW67380   7.234   4.825  11.604
21980SOL    HW167381   7.319   4.825  11.560
21980SOL    HW267382   7.244   4.890  11.674
21981SOL     OW67383   5.761   4.471   0.221
21981SOL    HW167384   5.743   4.447   0.312
21981SOL    HW267385   5.681   4.516   0.193
21982SOL     OW67386   6.200   5.116  11.906
21982SOL    HW167387   6.155   5.032  11.912
21982SOL    HW267388   6.183   5.146  11.817
21983SOL     OW67389   6.407   3.724  11.690
21983SOL    HW167390   6.450   3.805  11.664
21983SOL    HW267391   6.314   3.745  11.691
21984SOL     OW67392   5.783   4.720  12.417
21984SOL    HW167393   5.858   4.660  12.417
21984SOL    HW267394   5.708   4.665  12.436
21985SOL     OW67395   7.113   4.725  11.374
21985SOL    HW167396   7.044   4.668  11.408
21985SOL    HW267397   7.157   4.758  11.453
21986SOL     OW67398   6.973   5.167  12.058
21986SOL    HW167399   6.942   5.169  12.148
21986SOL    HW267400   6.989   5.074  12.041
21987SOL     OW67401   7.231   5.496  11.746
21987SOL    HW167402   7.218   5.461  11.658
21987SOL    HW267403   7.232   5.419  11.803
21988SOL     OW67404   6.181   4.443  11.449
21988SOL    HW167405   6.177   4.525  11.399
21988SOL    HW267406   6.113   4.452  11.515
21989SOL     OW67407   6.886   4.084  12.139
21989SOL    HW167408   6.793   4.060  12.132
21989SOL    HW267409   6.925   4.013  12.191
21990SOL     OW67410   7.165   5.391  11.486
21990SOL    HW167411   7.257   5.413  11.475
21990SOL    HW267412   7.133   5.379  11.396
21991SOL     OW67413   6.556   4.087  12.375
21991SOL    HW167414   6.481   4.126  12.419
21991SOL    HW267415   6.527   4.072  12.285
21992SOL     OW67416   6.643   4.419  11.595
21992SOL    HW167417   6.661   4.412  11.688
21992SOL    HW267418   6.558   4.377  11.583
21993SOL     OW67419   5.674   4.539  11.954
21993SOL    HW167420   5.755   4.539  12.006
21993SOL    HW267421   5.626   4.616  11.986
21994SOL     OW67422   6.493   4.068  11.367
21994SOL    HW167423   6.526   4.139  11.312
21994SOL    HW267424   6.510   3.989  11.316
21995SOL     OW67425   6.970   4.868  11.711
21995SOL    HW167426   7.047   4.852  11.656
21995SOL    HW267427   6.914   4.925  11.658
21996SOL     OW67428   6.140   3.902  12.067
21996SOL    HW167429   6.142   3.950  12.150
21996SOL    HW267430   6.131   3.971  12.000
21997SOL     OW67431   6.598   5.189  11.650
21997SOL    HW167432   6.563   5.253  11.589
21997SOL    HW267433   6.548   5.201  11.730
21998SOL     OW67434   5.939   5.541  12.039
21998SOL    HW167435   5.982   5.456  12.048
21998SOL    HW267436   6.007   5.604  12.062
21999SOL     OW67437   7.384   4.778  12.051
21999SOL    HW167438   7.335   4.752  11.973
21999SOL    HW267439   7.317   4.786  12.119
22000SOL     OW67440   5.901   4.683  11.427
22000SOL    HW167441   5.982   4.708  11.381
22000SOL    HW267442   5.862   4.616  11.371
22001SOL     OW67443   7.067   4.478  11.888
22001SOL    HW167444   7.066   4.433  11.972
22001SOL    HW267445   7.147   4.530  11.889
22002SOL     OW67446   6.722   5.487  11.415
22002SOL    HW167447   6.636   5.457  11.445
22002SOL    HW267448   6.742   5.430  11.341
22003SOL     OW67449   7.220   5.111  11.279
22003SOL    HW167450   7.181   5.194  11.254
22003SOL    HW267451   7.156   5.045  11.251
22004SOL     OW67452   6.047   5.464  11.486
22004SOL    HW167453   6.097   5.515  11.550
22004SOL    HW267454   6.114   5.422  11.431
22005SOL     OW67455   6.987   3.830  11.622
22005SOL    HW167456   6.982   3.807  11.529
22005SOL    HW267457   7.081   3.839  11.639
22006SOL     OW67458   5.838   5.501  12.391
22006SOL    HW167459   5.812   5.434  12.455
22006SOL    HW267460   5.789   5.478  12.312
22007SOL     OW67461   6.505   5.405  12.074
22007SOL    HW167462   6.506   5.328  12.131
22007SOL    HW267463   6.475   5.372  11.990
22008SOL     OW67464   5.989   4.413  11.651
22008SOL    HW167465   6.003   4.319  11.664
22008SOL    HW267466   5.895   4.425  11.660
22009SOL     OW67467   6.234   3.826  11.279
22009SOL    HW167468   6.311   3.771  11.265
22009SOL    HW267469   6.174   3.802  11.208
22010SOL     OW67470   6.411   5.112  12.096
22010SOL    HW167471   6.492   5.096  12.048
22010SOL    HW267472   6.343   5.113  12.029
22011SOL     OW67473   6.520   4.235  12.063
22011SOL    HW167474   6.489   4.226  11.973
22011SOL    HW267475   6.555   4.148  12.084
22012SOL     OW67476   6.141   3.786  11.666
22012SOL    HW167477   6.061   3.787  11.718
22012SOL    HW267478   6.135   3.863  11.610
22013SOL     OW67479   7.019   4.932  11.212
22013SOL    HW167480   7.044   4.854  11.262
22013SOL    HW267481   6.930   4.952  11.241
22014SOL     OW67482   5.870   3.775  11.357
22014SOL    HW167483   5.912   3.844  11.305
22014SOL    HW267484   5.943   3.724  11.393
22015SOL     OW67485   6.531   3.966  11.625
22015SOL    HW167486   6.506   4.004  11.541
22015SOL    HW267487   6.624   3.986  11.633
22016SOL     OW67488   6.061   4.878  11.892
22016SOL    HW167489   5.995   4.858  11.959
22016SOL    HW267490   6.015   4.868  11.809
22017SOL     OW67491   6.859   5.536  11.826
22017SOL    HW167492   6.902   5.588  11.758
22017SOL    HW267493   6.774   5.578  11.838
22018SOL     OW67494   6.609   4.256  11.201
22018SOL    HW167495   6.564   4.337  11.178
22018SOL    HW267496   6.675   4.282  11.264
22019SOL     OW67497   6.148   3.941  12.350
22019SOL    HW167498   6.166   3.849  12.337
22019SOL    HW267499   6.054   3.944  12.371
22020SOL     OW67500   6.451   4.180  11.804
22020SOL    HW167501   6.408   4.237  11.741
22020SOL    HW267502   6.473   4.101  11.755
22021SOL     OW67503   6.613   3.771  11.916
22021SOL    HW167504   6.549   3.774  11.845
22021SOL    HW267505   6.585   3.698  11.971
22022SOL     OW67506   7.014   4.895  12.015
22022SOL    HW167507   6.954   4.821  12.016
22022SOL    HW267508   7.052   4.894  11.927
22023SOL     OW67509   7.050   4.325  12.128
22023SOL    HW167510   6.995   4.248  12.141
22023SOL    HW267511   7.111   4.324  12.201
22024SOL     OW67512   7.420   4.528  11.566
22024SOL    HW167513   7.483   4.480  11.620
22024SOL    HW267514   7.402   4.469  11.493
22025SOL     OW67515   6.076   5.144  11.322
22025SOL    HW167516   6.004   5.113  11.377
22025SOL    HW267517   6.062   5.102  11.237
22026SOL     OW67518   7.266   4.988  11.816
22026SOL    HW167519   7.361   4.978  11.831
22026SOL    HW267520   7.250   5.082  11.830
22027SOL     OW67521   6.978   4.297  11.242
22027SOL    HW167522   6.917   4.275  11.313
22027SOL    HW267523   7.064   4.275  11.276
22028SOL     OW67524   6.114   3.981  11.481
22028SOL    HW167525   6.161   3.936  11.412
22028SOL    HW267526   6.087   4.064  11.443
22029SOL     OW67527   6.687   4.959  12.288
22029SOL    HW167528   6.605   4.973  12.335
22029SOL    HW267529   6.668   4.981  12.197
22030SOL     OW67530   7.189   4.825  12.245
22030SOL    HW167531   7.158   4.851  12.331
22030SOL    HW267532   7.117   4.849  12.186
22031SOL     OW67533   6.297   4.786  11.545
22031SOL    HW167534   6.279   4.761  11.636
22031SOL    HW267535   6.374   4.734  11.521
22032SOL     OW67536   6.018   4.544  12.453
22032SOL    HW167537   6.061   4.596  12.521
22032SOL    HW267538   6.052   4.456  12.465
22033SOL     OW67539   6.803   4.106  12.482
22033SOL    HW167540   6.858   4.166  12.432
22033SOL    HW267541   6.720   4.104  12.434
22034SOL     OW67542   5.923   4.846  11.657
22034SOL    HW167543   5.917   4.920  11.596
22034SOL    HW267544   5.919   4.769  11.601
22035SOL     OW67545   6.127   4.247  12.035
22035SOL    HW167546   6.140   4.305  11.960
22035SOL    HW267547   6.192   4.276  12.099
22036SOL     OW67548   6.831   5.071  11.568
22036SOL    HW167549   6.891   5.142  11.592
22036SOL    HW267550   6.745   5.100  11.599
22037SOL     OW67551   6.875   5.163  12.309
22037SOL    HW167552   6.925   5.169  12.390
22037SOL    HW267553   6.816   5.089  12.323
22038SOL     OW67554   7.161   4.343  11.656
22038SOL    HW167555   7.109   4.388  11.723
22038SOL    HW267556   7.205   4.414  11.609
22039SOL     OW67557   5.978   5.249  12.462
22039SOL    HW167558   5.944   5.199  12.388
22039SOL    HW267559   5.997   5.336  12.426
22040SOL     OW67560   6.168   4.598  12.218
22040SOL    HW167561   6.177   4.692  12.204
22040SOL    HW267562   6.108   4.591  12.292
22041SOL     OW67563   6.911   4.574  12.172
22041SOL    HW167564   6.824   4.548  12.141
22041SOL    HW267565   6.963   4.495  12.165
22042SOL     OW67566   6.788   4.246  11.435
22042SOL    HW167567   6.794   4.169  11.491
22042SOL    HW267568   6.745   4.312  11.489
22043SOL     OW67569   5.885   3.909  12.409
22043SOL    HW167570   5.854   3.938  12.495
22043SOL    HW267571   5.870   3.814  12.410
22044SOL     OW67572   5.647   5.050  12.431
22044SOL    HW167573   5.683   4.975  12.478
22044SOL    HW267574   5.647   5.121  12.496
22045SOL     OW67575   6.300   4.353  12.220
22045SOL    HW167576   6.378   4.346  12.164
22045SOL    HW267577   6.271   4.443  12.208
22046SOL     OW67578   5.898   3.783  11.793
22046SOL    HW167579   5.869   3.873  11.811
22046SOL    HW267580   5.903   3.742  11.880
22047SOL     OW67581   7.214   4.110  11.523
22047SOL    HW167582   7.239   4.043  11.587
22047SOL    HW267583   7.187   4.184  11.577
22048SOL     OW67584   6.619   4.478  12.137
22048SOL    HW167585   6.608   4.488  12.231
22048SOL    HW267586   6.589   4.388  12.119
22049SOL     OW67587   7.118   3.989  11.294
22049SOL    HW167588   7.053   3.927  11.327
22049SOL    HW267589   7.152   4.033  11.372
22050SOL     OW67590   6.873   4.550  11.199
22050SOL    HW167591   6.914   4.463  11.202
22050SOL    HW267592   6.904   4.588  11.117
22051SOL     OW67593   6.666   5.052  12.014
22051SOL    HW167594   6.652   4.971  11.965
22051SOL    HW267595   6.745   5.089  11.976
22052SOL     OW67596   5.897   4.537  12.117
22052SOL    HW167597   5.991   4.549  12.104
22052SOL    HW267598   5.888   4.445  12.143
22053SOL     OW67599   5.895   4.266  12.172
22053SOL    HW167600   5.864   4.175  12.170
22053SOL    HW267601   5.977   4.264  12.122
22054SOL     OW67602   6.755   3.934   0.177
22054SOL    HW167603   6.742   3.990   0.254
22054SOL    HW267604   6.771   3.995   0.105
22055SOL     OW67605   5.605   5.044  11.366
22055SOL    HW167606   5.517   5.061  11.335
22055SOL    HW267607   5.602   4.953  11.398
22056SOL     OW67608   5.681   5.503  12.121
22056SOL    HW167609   5.648   5.428  12.072
22056SOL    HW267610   5.768   5.519  12.085
22057SOL     OW67611   6.078   5.305  12.073
22057SOL    HW167612   6.148   5.363  12.100
22057SOL    HW267613   6.120   5.240  12.016
22058SOL     OW67614   6.562   4.508  12.404
22058SOL    HW167615   6.603   4.577  12.456
22058SOL    HW267616   6.469   4.512  12.427
22059SOL     OW67617   5.639   4.286  12.283
22059SOL    HW167618   5.716   4.293  12.226
22059SOL    HW267619   5.671   4.242  12.362
22060SOL     OW67620   6.402   4.296  11.541
22060SOL    HW167621   6.402   4.223  11.480
22060SOL    HW267622   6.328   4.351  11.514
22061SOL     OW67623   7.239   4.335  12.327
22061SOL    HW167624   7.228   4.284  12.407
22061SOL    HW267625   7.334   4.336  12.312
22062SOL     OW67626   6.300   4.168  12.422
22062SOL    HW167627   6.236   4.102  12.396
22062SOL    HW267628   6.290   4.237  12.357
22063SOL     OW67629   6.500   5.380   0.030
22063SOL    HW167630   6.495   5.453  -0.032
22063SOL    HW267631   6.506   5.422   0.116
22064SOL     OW67632   6.049   4.214  11.361
22064SOL    HW167633   6.103   4.290  11.383
22064SOL    HW267634   5.961   4.250  11.348
22065SOL     OW67635   6.879   4.766  12.364
22065SOL    HW167636   6.894   4.702  12.294
22065SOL    HW267637   6.819   4.830  12.326
22066SOL     OW67638   6.902   4.578  11.475
22066SOL    HW167639   6.826   4.547  11.524
22066SOL    HW267640   6.876   4.569  11.383
22067SOL     OW67641   7.330   5.470  12.293
22067SOL    HW167642   7.408   5.488  12.242
22067SOL    HW267643   7.323   5.374  12.293
22068SOL     OW67644   6.845   5.426  12.221
22068SOL    HW167645   6.919   5.471  12.262
22068SOL    HW267646   6.840   5.342  12.267
22069SOL     OW67647   5.672   5.002  12.167
22069SOL    HW167648   5.657   5.017  12.260
22069SOL    HW267649   5.609   4.934  12.143
22070SOL     OW67650   7.304   3.886  11.671
22070SOL    HW167651   7.375   3.869  11.609
22070SOL    HW267652   7.290   3.802  11.715
22071SOL     OW67653   6.984   5.295  11.668
22071SOL    HW167654   7.044   5.319  11.598
22071SOL    HW267655   6.917   5.363  11.666
22072SOL     OW67656   6.863   4.654  11.843
22072SOL    HW167657   6.937   4.594  11.852
22072SOL    HW267658   6.897   4.725  11.787
22073SOL     OW67659   6.255   5.348  11.327
22073SOL    HW167660   6.266   5.365  11.233
22073SOL    HW267661   6.198   5.272  11.331
22074SOL     OW67662   7.208   5.516   0.041
22074SOL    HW167663   7.261   5.503  -0.038
22074SOL    HW267664   7.236   5.601   0.074
22075SOL     OW67665   7.430   3.895  12.142
22075SOL    HW167666   7.461   3.807  12.119
22075SOL    HW267667   7.343   3.900  12.103
22076SOL     OW67668   5.838   4.032  11.881
22076SOL    HW167669   5.753   4.067  11.857
22076SOL    HW267670   5.839   4.035  11.977
22077SOL     OW67671   6.794   5.323  11.207
22077SOL    HW167672   6.783   5.231  11.229
22077SOL    HW267673   6.731   5.340  11.137
22078SOL     OW67674   6.378   4.742  12.486
22078SOL    HW167675   6.383   4.788  12.403
22078SOL    HW267676   6.457   4.767  12.533
22079SOL     OW67677   6.512   4.642  11.474
22079SOL    HW167678   6.567   4.673  11.402
22079SOL    HW267679   6.560   4.568  11.512
22080SOL     OW67680   7.073   5.359  11.222
22080SOL    HW167681   6.981   5.345  11.204
22080SOL    HW267682   7.114   5.364  11.135
22081SOL     OW67683   6.642   4.821  11.887
22081SOL    HW167684   6.569   4.769  11.919
22081SOL    HW267685   6.707   4.756  11.859
22082SOL     OW67686   6.621   3.973  12.116
22082SOL    HW167687   6.624   3.915  12.041
22082SOL    HW267688   6.624   3.915  12.192
22083SOL     OW67689   6.194   5.221  11.655
22083SOL    HW167690   6.245   5.167  11.594
22083SOL    HW267691   6.111   5.236  11.609
22084SOL     OW67692   7.338   4.152   0.032
22084SOL    HW167693   7.395   4.079   0.006
22084SOL    HW267694   7.257   4.110   0.060
22085SOL     OW67695   5.867   5.061  11.485
22085SOL    HW167696   5.780   5.056  11.445
22085SOL    HW267697   5.853   5.107  11.568
22086SOL     OW67698   5.664   4.042  11.195
22086SOL    HW167699   5.588   4.030  11.138
22086SOL    HW267700   5.701   4.127  11.170
22087SOL     OW67701   5.638   3.878  11.464
22087SOL    HW167702   5.620   3.951  11.406
22087SOL    HW267703   5.725   3.848  11.438
22088SOL     OW67704   6.759   5.056  11.286
22088SOL    HW167705   6.665   5.043  11.279
22088SOL    HW267706   6.778   5.048  11.380
22089SOL     OW67707   7.110   5.513  12.117
22089SOL    HW167708   7.129   5.602  12.086
22089SOL    HW267709   7.181   5.494  12.179
22090SOL     OW67710   7.263   4.601  12.403
22090SOL    HW167711   7.240   4.514  12.369
22090SOL    HW267712   7.238   4.661  12.332
22091SOL     OW67713   6.801   4.041  11.635
22091SOL    HW167714   6.864   3.968  11.630
22091SOL    HW267715   6.829   4.091  11.712
22092SOL     OW67716   6.171   4.455  11.854
22092SOL    HW167717   6.212   4.540  11.836
22092SOL    HW267718   6.108   4.443  11.783
22093SOL     OW67719   7.400   4.630   0.129
22093SOL    HW167720   7.352   4.698   0.177
22093SOL    HW267721   7.346   4.614   0.052
22094SOL     OW67722   6.473   5.098  11.230
22094SOL    HW167723   6.411   5.132  11.295
22094SOL    HW267724   6.480   5.168  11.166
22095SOL     OW67725   6.245   5.520  12.126
22095SOL    HW167726   6.226   5.608  12.094
22095SOL    HW267727   6.338   5.506  12.105
22096SOL     OW67728   6.450   4.691  12.035
22096SOL    HW167729   6.499   4.617  12.072
22096SOL    HW267730   6.419   4.740  12.111
22097SOL     OW67731   6.666   4.715  11.266
22097SOL    HW167732   6.640   4.766  11.190
22097SOL    HW267733   6.738   4.660  11.234
22098SOL     OW67734   7.441   5.278  12.020
22098SOL    HW167735   7.359   5.266  11.973
22098SOL    HW267736   7.446   5.203  12.079
22099SOL     OW67737   5.676   4.956  11.835
22099SOL    HW167738   5.693   4.911  11.917
22099SOL    HW267739   5.734   4.914  11.772
22100SOL     OW67740   7.439   3.910  12.419
22100SOL    HW167741   7.422   3.818  12.439
22100SOL    HW267742   7.427   3.917  12.324
22101SOL     OW67743   6.023   4.151  11.705
22101SOL    HW167744   6.042   4.085  11.638
22101SOL    HW267745   5.962   4.108  11.765
22102SOL     OW67746   7.297   5.200  12.289
22102SOL    HW167747   7.211   5.163  12.307
22102SOL    HW267748   7.356   5.155  12.350
22103SOL     OW67749   6.413   5.315  11.837
22103SOL    HW167750   6.396   5.383  11.772
22103SOL    HW267751   6.339   5.256  11.830
22104SOL     OW67752   6.571   3.720  12.324
22104SOL    HW167753   6.546   3.671  12.245
22104SOL    HW267754   6.665   3.706  12.332
22105SOL     OW67755   6.353   5.056  11.507
22105SOL    HW167756   6.319   4.967  11.507
22105SOL    HW267757   6.446   5.046  11.528
22106SOL     OW67758   6.946   3.776  11.353
22106SOL    HW167759   6.978   3.711  11.291
22106SOL    HW267760   6.857   3.747  11.374
22107SOL     OW67761   6.880   4.180  11.860
22107SOL    HW167762   6.829   4.261  11.862
22107SOL    HW267763   6.880   4.150  11.951
22108SOL     OW67764   7.180   3.903  12.043
22108SOL    HW167765   7.115   3.895  12.113
22108SOL    HW267766   7.161   3.988  12.003
22109SOL     OW67767   5.629   4.791  11.491
22109SOL    HW167768   5.717   4.780  11.456
22109SOL    HW267769   5.597   4.702  11.506
22110SOL     OW67770   6.473   5.390  11.506
22110SOL    HW167771   6.399   5.370  11.449
22110SOL    HW267772   6.443   5.462  11.561
22111SOL     OW67773   5.826   6.150   0.038
22111SOL    HW167774   5.800   6.212   0.106
22111SOL    HW267775   5.824   6.201  -0.043
22112SOL     OW67776   5.809   5.872   0.994
22112SOL    HW167777   5.838   5.836   1.078
22112SOL    HW267778   5.721   5.838   0.982
22113SOL     OW67779   5.582   5.969   0.638
22113SOL    HW167780   5.505   5.999   0.686
22113SOL    HW267781   5.552   5.889   0.594
22114SOL     OW67782   6.154   6.886   1.190
22114SOL    HW167783   6.070   6.894   1.144
22114SOL    HW267784   6.173   6.975   1.220
22115SOL     OW67785   7.123   7.145   0.728
22115SOL    HW167786   7.110   7.101   0.813
22115SOL    HW267787   7.129   7.073   0.665
22116SOL     OW67788   6.717   6.288   0.692
22116SOL    HW167789   6.767   6.369   0.682
22116SOL    HW267790   6.669   6.299   0.774
22117SOL     OW67791   7.312   6.202   0.271
22117SOL    HW167792   7.323   6.202   0.176
22117SOL    HW267793   7.288   6.112   0.293
22118SOL     OW67794   6.323   6.719   1.051
22118SOL    HW167795   6.259   6.759   1.110
22118SOL    HW267796   6.365   6.792   1.007
22119SOL     OW67797   6.464   6.341   1.826
22119SOL    HW167798   6.456   6.412   1.889
22119SOL    HW267799   6.483   6.384   1.743
22120SOL     OW67800   6.270   6.577   0.643
22120SOL    HW167801   6.338   6.573   0.711
22120SOL    HW267802   6.203   6.635   0.680
22121SOL     OW67803   6.302   6.737   1.824
22121SOL    HW167804   6.351   6.812   1.856
22121SOL    HW267805   6.224   6.774   1.783
22122SOL     OW67806   5.919   6.998   1.066
22122SOL    HW167807   5.845   6.958   1.021
22122SOL    HW267808   5.962   7.051   0.998
22123SOL     OW67809   7.043   7.086   1.370
22123SOL    HW167810   7.097   7.165   1.376
22123SOL    HW267811   6.972   7.101   1.432
22124SOL     OW67812   6.038   5.972   1.475
22124SOL    HW167813   6.113   5.913   1.482
22124SOL    HW267814   5.962   5.917   1.494
22125SOL     OW67815   7.194   6.031   0.750
22125SOL    HW167816   7.150   6.063   0.672
22125SOL    HW267817   7.174   6.095   0.817
22126SOL     OW67818   5.800   7.308   0.475
22126SOL    HW167819   5.822   7.384   0.529
22126SOL    HW267820   5.878   7.294   0.421
22127SOL     OW67821   6.724   6.927   1.696
22127SOL    HW167822   6.764   6.919   1.782
22127SOL    HW267823   6.673   6.847   1.686
22128SOL     OW67824   5.810   7.039   0.543
22128SOL    HW167825   5.791   7.133   0.544
22128SOL    HW267826   5.755   7.002   0.612
22129SOL     OW67827   5.858   6.678   0.891
22129SOL    HW167828   5.853   6.589   0.926
22129SOL    HW267829   5.799   6.729   0.947
22130SOL     OW67830   6.178   7.374   1.423
22130SOL    HW167831   6.099   7.360   1.475
22130SOL    HW267832   6.208   7.461   1.449
22131SOL     OW67833   6.165   6.549   0.149
22131SOL    HW167834   6.233   6.566   0.084
22131SOL    HW267835   6.195   6.595   0.227
22132SOL     OW67836   7.180   5.716   1.461
22132SOL    HW167837   7.207   5.797   1.417
22132SOL    HW267838   7.155   5.744   1.549
22133SOL     OW67839   5.704   6.233   0.563
22133SOL    HW167840   5.674   6.145   0.586
22133SOL    HW267841   5.697   6.283   0.644
22134SOL     OW67842   7.437   7.328   0.317
22134SOL    HW167843   7.498   7.303   0.387
22134SOL    HW267844   7.458   7.420   0.299
22135SOL     OW67845   5.618   7.106   0.133
22135SOL    HW167846   5.529   7.073   0.124
22135SOL    HW267847   5.608   7.185   0.186
22136SOL     OW67848   7.253   6.490   0.633
22136SOL    HW167849   7.322   6.467   0.570
22136SOL    HW267850   7.237   6.583   0.618
22137SOL     OW67851   7.235   6.720   0.427
22137SOL    HW167852   7.324   6.716   0.392
22137SOL    HW267853   7.244   6.770   0.509
22138SOL     OW67854   5.708   6.331   1.583
22138SOL    HW167855   5.797   6.368   1.584
22138SOL    HW267856   5.651   6.407   1.578
22139SOL     OW67857   6.202   6.980   0.734
22139SOL    HW167858   6.160   6.894   0.744
22139SOL    HW267859   6.188   7.004   0.643
22140SOL     OW67860   6.865   6.818   1.422
22140SOL    HW167861   6.892   6.750   1.361
22140SOL    HW267862   6.928   6.812   1.494
22141SOL     OW67863   6.410   5.596   0.524
22141SOL    HW167864   6.448   5.680   0.498
22141SOL    HW267865   6.316   5.612   0.527
22142SOL     OW67866   5.772   6.544   1.287
22142SOL    HW167867   5.859   6.507   1.271
22142SOL    HW267868   5.716   6.503   1.221
22143SOL     OW67869   7.090   6.598   0.230
22143SOL    HW167870   7.028   6.538   0.271
22143SOL    HW267871   7.137   6.637   0.303
22144SOL     OW67872   6.774   7.398   1.634
22144SOL    HW167873   6.774   7.463   1.564
22144SOL    HW267874   6.788   7.315   1.590
22145SOL     OW67875   5.932   5.834   1.842
22145SOL    HW167876   5.959   5.924   1.822
22145SOL    HW267877   5.838   5.842   1.861
22146SOL     OW67878   7.052   7.015   0.956
22146SOL    HW167879   6.985   7.026   1.024
22146SOL    HW267880   7.045   6.922   0.932
22147SOL     OW67881   7.220   7.359   0.584
22147SOL    HW167882   7.211   7.314   0.500
22147SOL    HW267883   7.192   7.294   0.649
22148SOL     OW67884   6.164   6.295   0.275
22148SOL    HW167885   6.174   6.383   0.239
22148SOL    HW267886   6.101   6.305   0.346
22149SOL     OW67887   6.868   5.961   0.937
22149SOL    HW167888   6.779   5.926   0.943
22149SOL    HW267889   6.919   5.904   0.994
22150SOL     OW67890   7.176   7.262   0.328
22150SOL    HW167891   7.271   7.276   0.323
22150SOL    HW267892   7.147   7.263   0.237
22151SOL     OW67893   6.375   6.201   1.444
22151SOL    HW167894   6.349   6.173   1.532
22151SOL    HW267895   6.344   6.131   1.386
22152SOL     OW67896   6.978   6.061   1.678
22152SOL    HW167897   6.983   6.104   1.764
22152SOL    HW267898   7.030   5.981   1.688
22153SOL     OW67899   6.532   6.468   1.589
22153SOL    HW167900   6.587   6.401   1.548
22153SOL    HW267901   6.484   6.508   1.516
22154SOL     OW67902   6.583   5.991   1.227
22154SOL    HW167903   6.492   6.006   1.253
22154SOL    HW267904   6.578   5.953   1.139
22155SOL     OW67905   6.640   6.289   0.424
22155SOL    HW167906   6.659   6.285   0.518
22155SOL    HW267907   6.555   6.248   0.415
22156SOL     OW67908   5.679   6.398   0.778
22156SOL    HW167909   5.758   6.397   0.832
22156SOL    HW267910   5.630   6.474   0.809
22157SOL     OW67911   5.707   7.462   1.584
22157SOL    HW167912   5.712   7.440   1.677
22157SOL    HW267913   5.626   7.422   1.554
22158SOL     OW67914   6.474   5.946   0.219
22158SOL    HW167915   6.506   6.012   0.158
22158SOL    HW267916   6.456   5.869   0.165
22159SOL     OW67917   7.291   6.158   1.832
22159SOL    HW167918   7.256   6.233   1.783
22159SOL    HW267919   7.310   6.093   1.764
22160SOL     OW67920   6.954   6.718   0.517
22160SOL    HW167921   7.044   6.733   0.489
22160SOL    HW267922   6.903   6.785   0.471
22161SOL     OW67923   6.138   5.759   0.902
22161SOL    HW167924   6.141   5.790   0.992
22161SOL    HW267925   6.137   5.839   0.849
22162SOL     OW67926   6.573   7.019   0.473
22162SOL    HW167927   6.542   7.097   0.428
22162SOL    HW267928   6.556   7.036   0.566
22163SOL     OW67929   5.939   7.404   0.876
22163SOL    HW167930   5.985   7.320   0.880
22163SOL    HW267931   6.007   7.470   0.894
22164SOL     OW67932   7.403   6.627   0.897
22164SOL    HW167933   7.365   6.678   0.825
22164SOL    HW267934   7.335   6.627   0.965
22165SOL     OW67935   6.809   7.127   1.515
22165SOL    HW167936   6.798   7.054   1.575
22165SOL    HW267937   6.743   7.114   1.447
22166SOL     OW67938   5.901   6.568   0.264
22166SOL    HW167939   5.979   6.578   0.210
22166SOL    HW267940   5.863   6.484   0.237
22167SOL     OW67941   7.054   6.334   0.723
22167SOL    HW167942   7.065   6.296   0.810
22167SOL    HW267943   7.133   6.387   0.710
22168SOL     OW67944   6.057   6.857   1.741
22168SOL    HW167945   6.032   6.861   1.648
22168SOL    HW267946   5.974   6.852   1.788
22169SOL     OW67947   6.682   7.367   0.240
22169SOL    HW167948   6.631   7.323   0.307
22169SOL    HW267949   6.724   7.296   0.190
22170SOL     OW67950   5.787   5.852   1.507
22170SOL    HW167951   5.703   5.898   1.509
22170SOL    HW267952   5.766   5.764   1.540
22171SOL     OW67953   7.242   6.996   0.066
22171SOL    HW167954   7.173   7.059   0.046
22171SOL    HW267955   7.196   6.913   0.078
22172SOL     OW67956   6.038   7.311   0.334
22172SOL    HW167957   6.086   7.372   0.391
22172SOL    HW267958   6.106   7.276   0.276
22173SOL     OW67959   6.990   5.685   0.451
22173SOL    HW167960   6.985   5.649   0.362
22173SOL    HW267961   7.083   5.693   0.468
22174SOL     OW67962   5.840   7.371   1.225
22174SOL    HW167963   5.891   7.300   1.263
22174SOL    HW267964   5.838   7.351   1.131
22175SOL     OW67965   6.535   7.282   0.895
22175SOL    HW167966   6.620   7.239   0.906
22175SOL    HW267967   6.490   7.231   0.828
22176SOL     OW67968   5.976   6.277   0.478
22176SOL    HW167969   5.994   6.183   0.489
22176SOL    HW267970   5.885   6.286   0.507
22177SOL     OW67971   7.105   5.809   1.723
22177SOL    HW167972   7.116   5.829   1.816
22177SOL    HW267973   7.041   5.738   1.720
22178SOL     OW67974   6.217   5.708   0.118
22178SOL    HW167975   6.310   5.685   0.116
22178SOL    HW267976   6.202   5.750   0.033
22179SOL     OW67977   6.354   5.864   1.764
22179SOL    HW167978   6.436   5.816   1.753
22179SOL    HW267979   6.304   5.814   1.828
22180SOL     OW67980   6.459   7.108   1.198
22180SOL    HW167981   6.444   7.070   1.111
22180SOL    HW267982   6.530   7.055   1.234
22181SOL     OW67983   6.921   6.176   1.433
22181SOL    HW167984   6.954   6.146   1.518
22181SOL    HW267985   6.959   6.263   1.422
22182SOL     OW67986   6.404   6.969   0.951
22182SOL    HW167987   6.490   6.960   0.911
22182SOL    HW267988   6.344   6.981   0.878
22183SOL     OW67989   6.515   6.092   0.898
22183SOL    HW167990   6.489   6.085   0.807
22183SOL    HW267991   6.545   6.004   0.922
22184SOL     OW67992   6.141   5.642   0.504
22184SOL    HW167993   6.060   5.642   0.556
22184SOL    HW267994   6.134   5.720   0.449
22185SOL     OW67995   7.047   6.804   0.054
22185SOL    HW167996   7.061   6.725   0.107
22185SOL    HW267997   6.956   6.827   0.070
22186SOL     OW67998   5.895   5.661   0.204
22186SOL    HW167999   5.975   5.712   0.194
22186SOL    HW268000   5.924   5.576   0.235
22187SOL     OW68001   6.531   5.836   0.464
22187SOL    HW168002   6.505   5.874   0.380
22187SOL    HW268003   6.626   5.849   0.467
22188SOL     OW68004   6.664   6.271   1.456
22188SOL    HW168005   6.601   6.200   1.455
22188SOL    HW268006   6.749   6.228   1.448
22189SOL     OW68007   6.799   7.161   0.796
22189SOL    HW168008   6.812   7.225   0.727
22189SOL    HW268009   6.887   7.144   0.830
22190SOL     OW68010   6.064   6.742   0.726
22190SOL    HW168011   5.998   6.720   0.792
22190SOL    HW268012   6.017   6.734   0.643
22191SOL     OW68013   6.842   7.377   0.615
22191SOL    HW168014   6.893   7.441   0.566
22191SOL    HW268015   6.771   7.427   0.655
22192SOL     OW68016   6.611   6.134   0.063
22192SOL    HW168017   6.596   6.217   0.019
22192SOL    HW268018   6.676   6.153   0.130
22193SOL     OW68019   5.675   6.138   1.392
22193SOL    HW168020   5.767   6.140   1.365
22193SOL    HW268021   5.667   6.208   1.457
22194SOL     OW68022   6.144   5.813   1.175
22194SOL    HW168023   6.184   5.740   1.221
22194SOL    HW268024   6.051   5.810   1.201
22195SOL     OW68025   6.450   6.044   0.638
22195SOL    HW168026   6.410   6.101   0.573
22195SOL    HW268027   6.473   5.965   0.590
22196SOL     OW68028   6.609   5.638   0.742
22196SOL    HW168029   6.546   5.635   0.670
22196SOL    HW268030   6.583   5.566   0.799
22197SOL     OW68031   7.030   6.749   0.880
22197SOL    HW168032   6.965   6.700   0.829
22197SOL    HW268033   7.099   6.770   0.816
22198SOL     OW68034   7.055   6.190   0.962
22198SOL    HW168035   6.992   6.118   0.969
22198SOL    HW268036   7.108   6.183   1.041
22199SOL     OW68037   7.427   6.407   0.427
22199SOL    HW168038   7.472   6.342   0.481
22199SOL    HW268039   7.379   6.355   0.362
22200SOL     OW68040   6.076   6.985   0.167
22200SOL    HW168041   6.012   6.941   0.223
22200SOL    HW268042   6.024   7.031   0.101
22201SOL     OW68043   6.978   6.139   0.080
22201SOL    HW168044   6.924   6.134   0.159
22201SOL    HW268045   7.052   6.081   0.097
22202SOL     OW68046   6.116   5.845   0.328
22202SOL    HW168047   6.164   5.796   0.261
22202SOL    HW268048   6.091   5.926   0.284
22203SOL     OW68049   7.330   6.829   1.555
22203SOL    HW168050   7.418   6.794   1.539
22203SOL    HW268051   7.346   6.918   1.588
22204SOL     OW68052   6.636   6.942   1.336
22204SOL    HW168053   6.560   6.908   1.384
22204SOL    HW268054   6.710   6.897   1.376
22205SOL     OW68055   7.199   7.216   1.665
22205SOL    HW168056   7.187   7.249   1.576
22205SOL    HW268057   7.279   7.164   1.660
22206SOL     OW68058   6.724   6.805   1.105
22206SOL    HW168059   6.660   6.843   1.166
22206SOL    HW268060   6.698   6.838   1.019
22207SOL     OW68061   7.204   6.672   1.086
22207SOL    HW168062   7.196   6.740   1.152
22207SOL    HW268063   7.134   6.690   1.023
22208SOL     OW68064   6.503   5.677   1.388
22208SOL    HW168065   6.525   5.659   1.297
22208SOL    HW268066   6.582   5.716   1.425
22209SOL     OW68067   6.571   6.697   1.729
22209SOL    HW168068   6.480   6.716   1.751
22209SOL    HW268069   6.567   6.619   1.674
22210SOL     OW68070   6.296   6.648   0.373
22210SOL    HW168071   6.281   6.625   0.465
22210SOL    HW268072   6.374   6.597   0.349
22211SOL     OW68073   6.009   6.409   1.255
22211SOL    HW168074   6.077   6.419   1.321
22211SOL    HW268075   5.976   6.320   1.267
22212SOL     OW68076   6.849   5.958   1.283
22212SOL    HW168077   6.880   6.038   1.328
22212SOL    HW268078   6.759   5.978   1.260
22213SOL     OW68079   5.664   7.158   1.359
22213SOL    HW168080   5.636   7.229   1.301
22213SOL    HW268081   5.759   7.155   1.350
22214SOL     OW68082   5.920   6.716   0.496
22214SOL    HW168083   5.910   6.792   0.439
22214SOL    HW268084   5.924   6.641   0.436
22215SOL     OW68085   6.129   6.112   0.859
22215SOL    HW168086   6.142   6.171   0.785
22215SOL    HW268087   6.197   6.138   0.922
22216SOL     OW68088   6.819   6.929   0.386
22216SOL    HW168089   6.872   7.005   0.409
22216SOL    HW268090   6.733   6.948   0.424
22217SOL     OW68091   6.874   7.048   1.156
22217SOL    HW168092   6.929   7.051   1.234
22217SOL    HW268093   6.825   6.967   1.164
22218SOL     OW68094   7.140   6.180   0.505
22218SOL    HW168095   7.093   6.240   0.563
22218SOL    HW268096   7.177   6.237   0.437
22219SOL     OW68097   5.932   7.114   1.307
22219SOL    HW168098   5.922   7.068   1.224
22219SOL    HW268099   6.027   7.127   1.316
22220SOL     OW68100   6.004   6.337   1.605
22220SOL    HW168101   6.070   6.377   1.548
22220SOL    HW268102   6.033   6.247   1.616
22221SOL     OW68103   7.200   6.371   1.690
22221SOL    HW168104   7.113   6.411   1.683
22221SOL    HW268105   7.251   6.410   1.619
22222SOL     OW68106   6.583   5.721   1.747
22222SOL    HW168107   6.644   5.794   1.729
22222SOL    HW268108   6.633   5.643   1.726
22223SOL     OW68109   6.084   5.623   1.754
22223SOL    HW168110   6.034   5.568   1.694
22223SOL    HW268111   6.026   5.698   1.771
22224SOL     OW68112   6.173   6.461   1.034
22224SOL    HW168113   6.210   6.549   1.036
22224SOL    HW268114   6.116   6.457   1.111
22225SOL     OW68115   6.930   6.434   1.032
22225SOL    HW168116   6.854   6.433   0.974
22225SOL    HW268117   6.977   6.353   1.011
22226SOL     OW68118   6.793   6.111   0.280
22226SOL    HW168119   6.806   6.038   0.341
22226SOL    HW268120   6.749   6.179   0.333
22227SOL     OW68121   5.881   5.783   1.247
22227SOL    HW168122   5.842   5.812   1.329
22227SOL    HW268123   5.865   5.688   1.245
22228SOL     OW68124   5.632   6.898   1.271
22228SOL    HW168125   5.663   6.842   1.342
22228SOL    HW268126   5.637   6.986   1.306
22229SOL     OW68127   6.302   6.213   1.049
22229SOL    HW168128   6.380   6.204   0.994
22229SOL    HW268129   6.273   6.303   1.034
22230SOL     OW68130   7.331   6.545   1.864
22230SOL    HW168131   7.288   6.478   1.811
22230SOL    HW268132   7.267   6.566   1.933
22231SOL     OW68133   5.896   5.646   0.629
22231SOL    HW168134   5.871   5.736   0.648
22231SOL    HW268135   5.904   5.604   0.714
22232SOL     OW68136   7.201   5.954   0.363
22232SOL    HW168137   7.231   5.888   0.424
22232SOL    HW268138   7.167   6.024   0.419
22233SOL     OW68139   6.609   6.343   0.953
22233SOL    HW168140   6.602   6.360   1.047
22233SOL    HW268141   6.585   6.251   0.943
22234SOL     OW68142   6.567   7.150   1.726
22234SOL    HW168143   6.548   7.194   1.643
22234SOL    HW268144   6.611   7.069   1.701
22235SOL     OW68145   7.437   7.084   1.606
22235SOL    HW168146   7.458   7.111   1.517
22235SOL    HW268147   7.519   7.098   1.655
22236SOL     OW68148   5.936   6.500   1.816
22236SOL    HW168149   6.020   6.524   1.857
22236SOL    HW268150   5.961   6.440   1.745
22237SOL     OW68151   7.110   5.838   0.127
22237SOL    HW168152   7.047   5.775   0.162
22237SOL    HW268153   7.146   5.881   0.205
22238SOL     OW68154   6.872   6.396   0.054
22238SOL    HW168155   6.923   6.316   0.043
22238SOL    HW268156   6.912   6.459  -0.006
22239SOL     OW68157   6.655   6.928   0.862
22239SOL    HW168158   6.662   6.856   0.799
22239SOL    HW268159   6.710   6.998   0.826
22240SOL     OW68160   5.897   6.397   0.947
22240SOL    HW168161   5.990   6.416   0.941
22240SOL    HW268162   5.893   6.307   0.979
22241SOL     OW68163   5.909   6.119   1.015
22241SOL    HW168164   5.873   6.031   1.003
22241SOL    HW268165   5.986   6.121   0.958
22242SOL     OW68166   6.721   5.958   1.687
22242SOL    HW168167   6.674   6.010   1.751
22242SOL    HW268168   6.807   6.000   1.680
22243SOL     OW68169   6.745   5.782   1.471
22243SOL    HW168170   6.734   5.844   1.543
22243SOL    HW268171   6.788   5.832   1.402
22244SOL     OW68172   5.674   7.365   0.941
22244SOL    HW168173   5.645   7.288   0.893
22244SOL    HW268174   5.763   7.380   0.910
22245SOL     OW68175   6.075   7.161   0.903
22245SOL    HW168176   6.145   7.223   0.924
22245SOL    HW268177   6.117   7.098   0.844
22246SOL     OW68178   6.552   6.369   1.220
22246SOL    HW168179   6.614   6.355   1.292
22246SOL    HW268180   6.471   6.327   1.251
22247SOL     OW68181   5.623   6.141   1.117
22247SOL    HW168182   5.705   6.137   1.067
22247SOL    HW268183   5.652   6.138   1.209
22248SOL     OW68184   5.778   6.105   1.725
22248SOL    HW168185   5.812   6.053   1.652
22248SOL    HW268186   5.745   6.185   1.685
22249SOL     OW68187   6.969   6.515   1.655
22249SOL    HW168188   6.989   6.608   1.651
22249SOL    HW268189   6.963   6.487   1.564
22250SOL     OW68190   6.398   6.165   0.379
22250SOL    HW168191   6.406   6.088   0.323
22250SOL    HW268192   6.320   6.211   0.346
22251SOL     OW68193   7.223   6.182   1.178
22251SOL    HW168194   7.216   6.123   1.253
22251SOL    HW268195   7.311   6.166   1.144
22252SOL     OW68196   5.819   7.132   1.722
22252SOL    HW168197   5.799   7.193   1.792
22252SOL    HW268198   5.829   7.047   1.766
22253SOL     OW68199   6.306   6.027   1.247
22253SOL    HW168200   6.246   5.956   1.225
22253SOL    HW268201   6.295   6.091   1.177
22254SOL     OW68202   6.501   7.260   1.477
22254SOL    HW168203   6.480   7.217   1.394
22254SOL    HW268204   6.502   7.353   1.457
22255SOL     OW68205   6.046   6.060   0.186
22255SOL    HW168206   6.091   6.141   0.210
22255SOL    HW268207   5.971   6.089   0.134
22256SOL     OW68208   5.722   6.731   1.477
22256SOL    HW168209   5.726   6.688   1.562
22256SOL    HW268210   5.740   6.662   1.413
22257SOL     OW68211   6.898   6.626   1.221
22257SOL    HW168212   6.920   6.563   1.154
22257SOL    HW268213   6.838   6.687   1.178
22258SOL     OW68214   6.896   6.422   0.327
22258SOL    HW168215   6.815   6.396   0.371
22258SOL    HW268216   6.880   6.405   0.234
22259SOL     OW68217   7.386   7.318   1.172
22259SOL    HW168218   7.437   7.342   1.095
22259SOL    HW268219   7.344   7.235   1.148
22260SOL     OW68220   6.826   7.320   1.116
22260SOL    HW168221   6.909   7.344   1.075
22260SOL    HW268222   6.833   7.225   1.131
22261SOL     OW68223   5.675   6.852   1.006
22261SOL    HW168224   5.654   6.866   1.099
22261SOL    HW268225   5.606   6.793   0.976
22262SOL     OW68226   6.267   7.261   1.741
22262SOL    HW168227   6.205   7.334   1.732
22262SOL    HW268228   6.336   7.280   1.678
22263SOL     OW68229   6.491   5.678   0.096
22263SOL    HW168230   6.537   5.710   0.019
22263SOL    HW268231   6.561   5.650   0.155
22264SOL     OW68232   7.305   5.742   0.510
22264SOL    HW168233   7.376   5.720   0.449
22264SOL    HW268234   7.286   5.659   0.554
22265SOL     OW68235   6.947   7.160   0.454
22265SOL    HW168236   7.028   7.192   0.415
22265SOL    HW268237   6.919   7.230   0.513
22266SOL     OW68238   5.723   7.384   1.842
22266SOL    HW168239   5.676   7.314   1.888
22266SOL    HW268240   5.772   7.430   1.911
22267SOL     OW68241   6.860   6.519   0.672
22267SOL    HW168242   6.934   6.459   0.684
22267SOL    HW268243   6.893   6.585   0.610
22268SOL     OW68244   6.383   6.863   1.423
22268SOL    HW168245   6.356   6.907   1.504
22268SOL    HW268246   6.314   6.884   1.360
22269SOL     OW68247   6.245   7.195   0.193
22269SOL    HW168248   6.306   7.199   0.119
22269SOL    HW268249   6.199   7.112   0.182
22270SOL     OW68250   7.205   7.311   1.398
22270SOL    HW168251   7.260   7.314   1.320
22270SOL    HW268252   7.189   7.403   1.419
22271SOL     OW68253   7.429   5.754   0.965
22271SOL    HW168254   7.457   5.665   0.941
22271SOL    HW268255   7.342   5.762   0.927
22272SOL     OW68256   5.839   5.896   0.715
22272SOL    HW168257   5.752   5.930   0.692
22272SOL    HW268258   5.839   5.894   0.811
22273SOL     OW68259   6.782   7.185   0.070
22273SOL    HW168260   6.781   7.091   0.088
22273SOL    HW268261   6.742   7.193  -0.017
22274SOL     OW68262   6.410   6.594   1.379
22274SOL    HW168263   6.451   6.587   1.292
22274SOL    HW268264   6.403   6.688   1.394
22275SOL     OW68265   6.512   6.508   0.294
22275SOL    HW168266   6.571   6.534   0.223
22275SOL    HW268267   6.559   6.439   0.340
22276SOL     OW68268   7.045   7.165   0.005
22276SOL    HW168269   6.959   7.190   0.038
22276SOL    HW268270   7.097   7.245   0.012
22277SOL     OW68271   5.951   6.893   1.495
22277SOL    HW168272   5.942   6.967   1.436
22277SOL    HW268273   5.874   6.839   1.479
22278SOL     OW68274   7.188   6.869   1.282
22278SOL    HW168275   7.248   6.853   1.355
22278SOL    HW268276   7.128   6.936   1.315
22279SOL     OW68277   6.650   6.702   0.715
22279SOL    HW168278   6.578   6.649   0.750
22279SOL    HW268279   6.717   6.637   0.690
22280SOL     OW68280   6.615   5.829   0.964
22280SOL    HW168281   6.613   5.783   0.880
22280SOL    HW268282   6.607   5.760   1.029
22281SOL     OW68283   6.191   7.064   0.477
22281SOL    HW168284   6.235   7.016   0.406
22281SOL    HW268285   6.116   7.105   0.435
22282SOL     OW68286   7.320   5.974   1.381
22282SOL    HW168287   7.391   6.038   1.377
22282SOL    HW268288   7.348   5.904   1.322
22283SOL     OW68289   5.854   6.915   0.312
22283SOL    HW168290   5.774   6.930   0.261
22283SOL    HW268291   5.840   6.964   0.393
22284SOL     OW68292   5.705   6.631   1.735
22284SOL    HW168293   5.626   6.601   1.780
22284SOL    HW268294   5.776   6.580   1.773
22285SOL     OW68295   6.264   5.781   1.501
22285SOL    HW168296   6.347   5.756   1.459
22285SOL    HW268297   6.290   5.815   1.587
22286SOL     OW68298   7.007   6.440   1.395
22286SOL    HW168299   6.955   6.500   1.342
22286SOL    HW268300   7.094   6.443   1.356
22287SOL     OW68301   5.650   5.730   0.308
22287SOL    HW168302   5.648   5.826   0.298
22287SOL    HW268303   5.737   5.705   0.276
22288SOL     OW68304   6.776   6.912   0.114
22288SOL    HW168305   6.681   6.909   0.104
22288SOL    HW268306   6.791   6.907   0.209
22289SOL     OW68307   6.209   6.417   1.438
22289SOL    HW168308   6.267   6.492   1.423
22289SOL    HW268309   6.267   6.342   1.442
22290SOL     OW68310   7.069   7.377   1.001
22290SOL    HW168311   7.082   7.414   0.914
22290SOL    HW268312   7.139   7.311   1.009
22291SOL     OW68313   6.307   6.138   1.699
22291SOL    HW168314   6.356   6.197   1.757
22291SOL    HW268315   6.327   6.050   1.732
22292SOL     OW68316   7.060   6.774   1.627
22292SOL    HW168317   7.050   6.795   1.720
22292SOL    HW268318   7.151   6.797   1.607
22293SOL     OW68319   5.951   7.328   1.569
22293SOL    HW168320   5.869   7.376   1.553
22293SOL    HW268321   5.923   7.245   1.608
22294SOL     OW68322   7.246   6.460   1.259
22294SOL    HW168323   7.242   6.377   1.211
22294SOL    HW268324   7.234   6.527   1.191
22295SOL     OW68325   6.806   5.897   0.452
22295SOL    HW168326   6.868   5.824   0.453
22295SOL    HW268327   6.827   5.946   0.531
22296SOL     OW68328   6.168   6.316   0.676
22296SOL    HW168329   6.209   6.402   0.662
22296SOL    HW268330   6.104   6.310   0.605
22297SOL     OW68331   7.333   5.952   1.654
22297SOL    HW168332   7.322   5.968   1.561
22297SOL    HW268333   7.261   5.893   1.677
22298SOL     OW68334   7.344   6.515   1.509
22298SOL    HW168335   7.325   6.608   1.522
22298SOL    HW268336   7.321   6.498   1.418
22299SOL     OW68337   6.505   6.950   0.063
22299SOL    HW168338   6.448   6.932   0.137
22299SOL    HW268339   6.487   7.041   0.039
22300SOL     OW68340   6.251   7.367   0.929
22300SOL    HW168341   6.234   7.460   0.915
22300SOL    HW268342   6.347   7.361   0.929
22301SOL     OW68343   6.456   6.559   0.852
22301SOL    HW168344   6.505   6.485   0.888
22301SOL    HW268345   6.415   6.600   0.929
22302SOL     OW68346   6.670   6.576   0.075
22302SOL    HW168347   6.710   6.655   0.038
22302SOL    HW268348   6.742   6.513   0.079
22303SOL     OW68349   7.441   7.130   0.842
22303SOL    HW168350   7.381   7.101   0.774
22303SOL    HW268351   7.455   7.052   0.896
22304SOL     OW68352   5.806   6.878   1.847
22304SOL    HW168353   5.760   6.805   1.807
22304SOL    HW268354   5.761   6.892   1.930
22305SOL     OW68355   5.677   6.817   0.671
22305SOL    HW168356   5.699   6.770   0.751
22305SOL    HW268357   5.735   6.781   0.605
22306SOL     OW68358   6.274   6.996   1.636
22306SOL    HW168359   6.194   6.956   1.670
22306SOL    HW268360   6.273   7.085   1.670
22307SOL     OW68361   7.401   5.763   1.236
22307SOL    HW168362   7.397   5.668   1.246
22307SOL    HW268363   7.412   5.776   1.142
22308SOL     OW68364   6.009   6.017   0.527
22308SOL    HW168365   6.048   5.947   0.474
22308SOL    HW268366   5.961   5.971   0.596
22309SOL     OW68367   7.271   7.083   1.110
22309SOL    HW168368   7.205   7.061   1.045
22309SOL    HW268369   7.274   7.006   1.168
22310SOL     OW68370   5.928   6.149   1.295
22310SOL    HW168371   5.979   6.088   1.347
22310SOL    HW268372   5.941   6.120   1.205
22311SOL     OW68373   6.418   7.165   0.679
22311SOL    HW168374   6.397   7.236   0.619
22311SOL    HW268375   6.342   7.108   0.677
22312SOL     OW68376   7.013   5.815   1.117
22312SOL    HW168377   7.022   5.727   1.155
22312SOL    HW268378   6.964   5.864   1.183
22313SOL     OW68379   6.594   5.603   1.131
22313SOL    HW168380   6.538   5.538   1.089
22313SOL    HW268381   6.681   5.562   1.132
22314SOL     OW68382   6.374   6.908   0.307
22314SOL    HW168383   6.340   6.820   0.327
22314SOL    HW268384   6.445   6.921   0.369
22315SOL     OW68385   6.205   7.141   1.288
22315SOL    HW168386   6.203   7.224   1.336
22315SOL    HW268387   6.294   7.136   1.253
22316SOL     OW68388   6.951   5.612   0.189
22316SOL    HW168389   6.965   5.588   0.098
22316SOL    HW268390   6.862   5.646   0.192
22317SOL     OW68391   6.862   6.044   0.672
22317SOL    HW168392   6.819   6.129   0.678
22317SOL    HW268393   6.871   6.016   0.763
22318SOL     OW68394   7.169   5.780   0.886
22318SOL    HW168395   7.115   5.805   0.961
22318SOL    HW268396   7.168   5.857   0.829
22319SOL     OW68397   5.628   6.664   0.344
22319SOL    HW168398   5.719   6.665   0.315
22319SOL    HW268399   5.615   6.576   0.379
22320SOL     OW68400   6.464   7.242   0.358
22320SOL    HW168401   6.382   7.221   0.313
22320SOL    HW268402   6.441   7.315   0.416
22321SOL     OW68403   5.800   6.187   1.995
22321SOL    HW168404   5.711   6.186   2.032
22321SOL    HW268405   5.786   6.174   1.901
22322SOL     OW68406   5.811   5.873   2.853
22322SOL    HW168407   5.838   5.840   2.939
22322SOL    HW268408   5.724   5.837   2.840
22323SOL     OW68409   5.577   5.977   2.500
22323SOL    HW168410   5.500   6.005   2.549
22323SOL    HW268411   5.548   5.897   2.455
22324SOL     OW68412   6.159   6.886   3.053
22324SOL    HW168413   6.071   6.887   3.014
22324SOL    HW268414   6.173   6.975   3.083
22325SOL     OW68415   7.160   7.105   2.573
22325SOL    HW168416   7.116   7.080   2.655
22325SOL    HW268417   7.090   7.109   2.508
22326SOL     OW68418   6.731   6.289   2.572
22326SOL    HW168419   6.778   6.370   2.556
22326SOL    HW268420   6.687   6.303   2.656
22327SOL     OW68421   7.378   6.179   2.085
22327SOL    HW168422   7.344   6.177   1.995
22327SOL    HW268423   7.336   6.105   2.128
22328SOL     OW68424   6.327   6.722   2.908
22328SOL    HW168425   6.263   6.759   2.970
22328SOL    HW268426   6.368   6.799   2.868
22329SOL     OW68427   6.469   6.340   3.694
22329SOL    HW168428   6.446   6.406   3.759
22329SOL    HW268429   6.486   6.390   3.614
22330SOL     OW68430   6.271   6.574   2.507
22330SOL    HW168431   6.338   6.573   2.576
22330SOL    HW268432   6.203   6.631   2.541
22331SOL     OW68433   6.302   6.735   3.682
22331SOL    HW168434   6.347   6.812   3.716
22331SOL    HW268435   6.221   6.770   3.645
22332SOL     OW68436   5.920   6.998   2.929
22332SOL    HW168437   5.844   6.957   2.888
22332SOL    HW268438   5.961   7.050   2.860
22333SOL     OW68439   7.044   7.091   3.226
22333SOL    HW168440   7.097   7.169   3.239
22333SOL    HW268441   6.972   7.099   3.290
22334SOL     OW68442   6.038   5.966   3.324
22334SOL    HW168443   6.111   5.907   3.343
22334SOL    HW268444   5.961   5.919   3.357
22335SOL     OW68445   7.190   6.026   2.614
22335SOL    HW168446   7.122   6.042   2.548
22335SOL    HW268447   7.173   6.092   2.682
22336SOL     OW68448   5.803   7.311   2.329
22336SOL    HW168449   5.829   7.383   2.386
22336SOL    HW268450   5.879   7.298   2.271
22337SOL     OW68451   6.722   6.929   3.557
22337SOL    HW168452   6.762   6.923   3.644
22337SOL    HW268453   6.669   6.850   3.550
22338SOL     OW68454   5.818   7.034   2.400
22338SOL    HW168455   5.795   7.126   2.409
22338SOL    HW268456   5.765   6.989   2.465
22339SOL     OW68457   5.864   6.678   2.757
22339SOL    HW168458   5.855   6.589   2.793
22339SOL    HW268459   5.804   6.731   2.810
22340SOL     OW68460   6.182   7.375   3.289
22340SOL    HW168461   6.102   7.356   3.338
22340SOL    HW268462   6.207   7.464   3.317
22341SOL     OW68463   6.167   6.573   2.006
22341SOL    HW168464   6.214   6.618   1.937
22341SOL    HW268465   6.204   6.607   2.087
22342SOL     OW68466   7.184   5.716   3.323
22342SOL    HW168467   7.199   5.801   3.281
22342SOL    HW268468   7.157   5.739   3.413
22343SOL     OW68469   5.710   6.240   2.424
22343SOL    HW168470   5.670   6.155   2.446
22343SOL    HW268471   5.699   6.292   2.504
22344SOL     OW68472   7.427   7.336   2.187
22344SOL    HW168473   7.493   7.313   2.253
22344SOL    HW268474   7.443   7.428   2.167
22345SOL     OW68475   5.630   7.173   1.981
22345SOL    HW168476   5.611   7.081   1.999
22345SOL    HW268477   5.603   7.219   2.060
22346SOL     OW68478   7.275   6.508   2.506
22346SOL    HW168479   7.354   6.461   2.479
22346SOL    HW268480   7.251   6.561   2.430
22347SOL     OW68481   7.238   6.689   2.291
22347SOL    HW168482   7.324   6.689   2.251
22347SOL    HW268483   7.244   6.756   2.360
22348SOL     OW68484   5.705   6.330   3.439
22348SOL    HW168485   5.792   6.369   3.453
22348SOL    HW268486   5.646   6.405   3.442
22349SOL     OW68487   6.205   6.978   2.598
22349SOL    HW168488   6.162   6.893   2.606
22349SOL    HW268489   6.188   7.005   2.507
22350SOL     OW68490   6.869   6.822   3.277
22350SOL    HW168491   6.900   6.751   3.220
22350SOL    HW268492   6.925   6.816   3.355
22351SOL     OW68493   6.415   5.596   2.375
22351SOL    HW168494   6.451   5.682   2.352
22351SOL    HW268495   6.321   5.610   2.382
22352SOL     OW68496   5.774   6.545   3.140
22352SOL    HW168497   5.859   6.504   3.124
22352SOL    HW268498   5.710   6.482   3.106
22353SOL     OW68499   7.123   6.592   2.060
22353SOL    HW168500   7.055   6.533   2.090
22353SOL    HW268501   7.163   6.626   2.140
22354SOL     OW68502   6.779   7.403   3.495
22354SOL    HW168503   6.777   7.464   3.420
22354SOL    HW268504   6.793   7.317   3.455
22355SOL     OW68505   5.937   5.842   3.701
22355SOL    HW168506   5.970   5.927   3.731
22355SOL    HW268507   5.843   5.845   3.717
22356SOL     OW68508   7.057   7.003   2.808
22356SOL    HW168509   6.990   7.021   2.874
22356SOL    HW268510   7.041   6.912   2.781
22357SOL     OW68511   7.238   7.345   2.435
22357SOL    HW168512   7.213   7.310   2.350
22357SOL    HW268513   7.221   7.274   2.497
22358SOL     OW68514   6.185   6.309   2.145
22358SOL    HW168515   6.198   6.392   2.099
22358SOL    HW268516   6.118   6.328   2.210
22359SOL     OW68517   6.864   5.956   2.795
22359SOL    HW168518   6.776   5.920   2.803
22359SOL    HW268519   6.917   5.902   2.854
22360SOL     OW68520   7.160   7.264   2.174
22360SOL    HW168521   7.253   7.284   2.165
22360SOL    HW268522   7.130   7.246   2.085
22361SOL     OW68523   6.382   6.204   3.302
22361SOL    HW168524   6.360   6.177   3.391
22361SOL    HW268525   6.349   6.133   3.247
22362SOL     OW68526   6.983   6.061   3.541
22362SOL    HW168527   6.985   6.103   3.626
22362SOL    HW268528   7.032   5.979   3.553
22363SOL     OW68529   6.535   6.470   3.453
22363SOL    HW168530   6.590   6.403   3.413
22363SOL    HW268531   6.485   6.507   3.380
22364SOL     OW68532   6.586   5.995   3.086
22364SOL    HW168533   6.498   6.014   3.119
22364SOL    HW268534   6.572   5.934   3.013
22365SOL     OW68535   6.627   6.261   2.317
22365SOL    HW168536   6.673   6.280   2.398
22365SOL    HW268537   6.552   6.208   2.344
22366SOL     OW68538   5.679   6.417   2.632
22366SOL    HW168539   5.756   6.404   2.687
22366SOL    HW268540   5.631   6.488   2.675
22367SOL     OW68541   5.710   7.458   3.446
22367SOL    HW168542   5.716   7.439   3.539
22367SOL    HW268543   5.625   7.422   3.420
22368SOL     OW68544   6.442   5.969   2.063
22368SOL    HW168545   6.504   6.019   2.010
22368SOL    HW268546   6.429   5.888   2.015
22369SOL     OW68547   7.295   6.151   3.690
22369SOL    HW168548   7.258   6.227   3.644
22369SOL    HW268549   7.317   6.089   3.621
22370SOL     OW68550   6.970   6.732   2.401
22370SOL    HW168551   7.049   6.724   2.348
22370SOL    HW268552   6.915   6.795   2.354
22371SOL     OW68553   6.156   5.774   2.767
22371SOL    HW168554   6.151   5.791   2.862
22371SOL    HW268555   6.135   5.859   2.727
22372SOL     OW68556   6.581   7.032   2.327
22372SOL    HW168557   6.556   7.107   2.274
22372SOL    HW268558   6.553   7.055   2.416
22373SOL     OW68559   5.937   7.401   2.734
22373SOL    HW168560   5.981   7.316   2.739
22373SOL    HW268561   6.004   7.464   2.758
22374SOL     OW68562   7.386   6.639   2.729
22374SOL    HW168563   7.330   6.615   2.656
22374SOL    HW268564   7.326   6.646   2.804
22375SOL     OW68565   6.812   7.128   3.376
22375SOL    HW168566   6.799   7.057   3.438
22375SOL    HW268567   6.733   7.128   3.322
22376SOL     OW68568   5.898   6.548   2.120
22376SOL    HW168569   5.980   6.568   2.073
22376SOL    HW268570   5.864   6.470   2.076
22377SOL     OW68571   7.068   6.339   2.579
22377SOL    HW168572   7.066   6.297   2.665
22377SOL    HW268573   7.146   6.393   2.580
22378SOL     OW68574   6.061   6.857   3.599
22378SOL    HW168575   6.034   6.862   3.508
22378SOL    HW268576   5.978   6.848   3.648
22379SOL     OW68577   6.717   7.364   2.088
22379SOL    HW168578   6.638   7.329   2.129
22379SOL    HW268579   6.740   7.299   2.021
22380SOL     OW68580   5.780   5.857   3.373
22380SOL    HW168581   5.693   5.896   3.377
22380SOL    HW268582   5.768   5.767   3.404
22381SOL     OW68583   7.223   6.972   1.959
22381SOL    HW168584   7.182   7.057   1.943
22381SOL    HW268585   7.156   6.908   1.936
22382SOL     OW68586   6.046   7.323   2.177
22382SOL    HW168587   6.093   7.374   2.244
22382SOL    HW268588   6.115   7.285   2.123
22383SOL     OW68589   6.983   5.696   2.305
22383SOL    HW168590   6.977   5.666   2.214
22383SOL    HW268591   7.077   5.689   2.326
22384SOL     OW68592   5.842   7.375   3.088
22384SOL    HW168593   5.887   7.304   3.132
22384SOL    HW268594   5.837   7.347   2.996
22385SOL     OW68595   6.522   7.288   2.755
22385SOL    HW168596   6.596   7.237   2.787
22385SOL    HW268597   6.486   7.236   2.683
22386SOL     OW68598   5.983   6.274   2.336
22386SOL    HW168599   5.996   6.181   2.354
22386SOL    HW268600   5.890   6.289   2.352
22387SOL     OW68601   7.107   5.807   3.584
22387SOL    HW168602   7.119   5.826   3.677
22387SOL    HW268603   7.039   5.739   3.582
22388SOL     OW68604   6.240   5.698   1.964
22388SOL    HW168605   6.284   5.618   1.994
22388SOL    HW268606   6.182   5.669   1.893
22389SOL     OW68607   6.349   5.862   3.618
22389SOL    HW168608   6.431   5.812   3.613
22389SOL    HW268609   6.300   5.820   3.689
22390SOL     OW68610   6.463   7.113   3.055
22390SOL    HW168611   6.441   7.071   2.971
22390SOL    HW268612   6.528   7.055   3.094
22391SOL     OW68613   6.925   6.174   3.297
22391SOL    HW168614   6.956   6.143   3.382
22391SOL    HW268615   6.960   6.263   3.290
22392SOL     OW68616   6.407   6.974   2.811
22392SOL    HW168617   6.492   6.963   2.768
22392SOL    HW268618   6.345   6.983   2.739
22393SOL     OW68619   6.528   6.099   2.755
22393SOL    HW168620   6.526   6.092   2.660
22393SOL    HW268621   6.546   6.011   2.786
22394SOL     OW68622   6.149   5.655   2.356
22394SOL    HW168623   6.070   5.652   2.410
22394SOL    HW268624   6.138   5.732   2.301
22395SOL     OW68625   7.019   6.795   1.901
22395SOL    HW168626   7.046   6.719   1.952
22395SOL    HW268627   6.932   6.817   1.935
22396SOL     OW68628   5.872   5.643   2.046
22396SOL    HW168629   5.927   5.694   1.987
22396SOL    HW268630   5.932   5.580   2.087
22397SOL     OW68631   6.528   5.845   2.314
22397SOL    HW168632   6.514   5.878   2.225
22397SOL    HW268633   6.623   5.851   2.326
22398SOL     OW68634   6.667   6.274   3.316
22398SOL    HW168635   6.599   6.207   3.326
22398SOL    HW268636   6.749   6.225   3.316
22399SOL     OW68637   6.808   7.156   2.654
22399SOL    HW168638   6.818   7.223   2.587
22399SOL    HW268639   6.869   7.182   2.723
22400SOL     OW68640   6.063   6.739   2.583
22400SOL    HW168641   6.000   6.719   2.652
22400SOL    HW268642   6.014   6.730   2.501
22401SOL     OW68643   6.846   7.374   2.478
22401SOL    HW168644   6.891   7.437   2.422
22401SOL    HW268645   6.775   7.424   2.518
22402SOL     OW68646   6.611   6.116   1.897
22402SOL    HW168647   6.572   6.200   1.872
22402SOL    HW268648   6.678   6.138   1.960
22403SOL     OW68649   5.674   6.146   3.244
22403SOL    HW168650   5.767   6.141   3.223
22403SOL    HW268651   5.668   6.210   3.314
22404SOL     OW68652   6.144   5.811   3.041
22404SOL    HW168653   6.183   5.742   3.095
22404SOL    HW268654   6.052   5.812   3.066
22405SOL     OW68655   6.423   6.081   2.419
22405SOL    HW168656   6.359   6.081   2.490
22405SOL    HW268657   6.457   5.991   2.418
22406SOL     OW68658   6.603   5.634   2.598
22406SOL    HW168659   6.542   5.619   2.525
22406SOL    HW268660   6.583   5.564   2.660
22407SOL     OW68661   7.024   6.743   2.719
22407SOL    HW168662   6.953   6.680   2.731
22407SOL    HW268663   7.035   6.750   2.625
22408SOL     OW68664   7.052   6.193   2.820
22408SOL    HW168665   6.990   6.121   2.830
22408SOL    HW268666   7.107   6.188   2.898
22409SOL     OW68667   7.435   6.389   2.253
22409SOL    HW168668   7.494   6.340   2.309
22409SOL    HW268669   7.408   6.327   2.185
22410SOL     OW68670   6.075   7.008   2.012
22410SOL    HW168671   5.999   6.979   2.063
22410SOL    HW268672   6.071   6.955   1.932
22411SOL     OW68673   7.265   6.858   2.494
22411SOL    HW168674   7.358   6.857   2.517
22411SOL    HW268675   7.235   6.945   2.522
22412SOL     OW68676   6.977   6.156   1.936
22412SOL    HW168677   6.916   6.138   2.008
22412SOL    HW268678   7.060   6.121   1.966
22413SOL     OW68679   6.146   5.866   2.164
22413SOL    HW168680   6.177   5.804   2.099
22413SOL    HW268681   6.085   5.922   2.117
22414SOL     OW68682   7.328   6.830   3.411
22414SOL    HW168683   7.415   6.790   3.406
22414SOL    HW268684   7.343   6.917   3.445
22415SOL     OW68685   6.634   6.934   3.186
22415SOL    HW168686   6.558   6.905   3.236
22415SOL    HW268687   6.709   6.897   3.232
22416SOL     OW68688   7.196   7.218   3.525
22416SOL    HW168689   7.187   7.251   3.436
22416SOL    HW268690   7.275   7.165   3.523
22417SOL     OW68691   6.724   6.798   2.960
22417SOL    HW168692   6.667   6.835   3.026
22417SOL    HW268693   6.695   6.837   2.878
22418SOL     OW68694   7.212   6.686   2.937
22418SOL    HW168695   7.205   6.747   3.010
22418SOL    HW268696   7.135   6.704   2.883
22419SOL     OW68697   6.504   5.679   3.250
22419SOL    HW168698   6.529   5.661   3.160
22419SOL    HW268699   6.582   5.717   3.290
22420SOL     OW68700   6.569   6.702   3.586
22420SOL    HW168701   6.479   6.718   3.614
22420SOL    HW268702   6.564   6.621   3.534
22421SOL     OW68703   6.304   6.645   2.236
22421SOL    HW168704   6.287   6.626   2.328
22421SOL    HW268705   6.375   6.586   2.212
22422SOL     OW68706   6.011   6.405   3.112
22422SOL    HW168707   6.074   6.416   3.183
22422SOL    HW268708   5.976   6.316   3.125
22423SOL     OW68709   6.852   5.964   3.140
22423SOL    HW168710   6.882   6.040   3.190
22423SOL    HW268711   6.761   5.984   3.119
22424SOL     OW68712   5.663   7.163   3.226
22424SOL    HW168713   5.638   7.236   3.169
22424SOL    HW268714   5.758   7.155   3.216
22425SOL     OW68715   5.919   6.711   2.350
22425SOL    HW168716   5.914   6.787   2.291
22425SOL    HW268717   5.916   6.635   2.291
22426SOL     OW68718   6.145   6.101   2.703
22426SOL    HW168719   6.154   6.169   2.637
22426SOL    HW268720   6.199   6.132   2.776
22427SOL     OW68721   6.831   6.937   2.256
22427SOL    HW168722   6.886   7.008   2.289
22427SOL    HW268723   6.743   6.959   2.288
22428SOL     OW68724   6.881   7.049   3.011
22428SOL    HW168725   6.935   7.056   3.090
22428SOL    HW268726   6.822   6.975   3.029
22429SOL     OW68727   7.158   6.205   2.348
22429SOL    HW168728   7.111   6.245   2.421
22429SOL    HW268729   7.187   6.279   2.295
22430SOL     OW68730   5.930   7.119   3.169
22430SOL    HW168731   5.919   7.070   3.088
22430SOL    HW268732   6.025   7.129   3.179
22431SOL     OW68733   6.000   6.339   3.468
22431SOL    HW168734   6.070   6.371   3.412
22431SOL    HW268735   6.023   6.248   3.486
22432SOL     OW68736   7.202   6.366   3.553
22432SOL    HW168737   7.115   6.406   3.548
22432SOL    HW268738   7.251   6.409   3.483
22433SOL     OW68739   6.583   5.722   3.607
22433SOL    HW168740   6.644   5.794   3.591
22433SOL    HW268741   6.635   5.643   3.593
22434SOL     OW68742   6.082   5.625   3.613
22434SOL    HW168743   6.029   5.570   3.555
22434SOL    HW268744   6.027   5.700   3.632
22435SOL     OW68745   6.170   6.459   2.895
22435SOL    HW168746   6.203   6.549   2.899
22435SOL    HW268747   6.115   6.450   2.973
22436SOL     OW68748   6.921   6.442   2.873
22436SOL    HW168749   6.831   6.419   2.853
22436SOL    HW268750   6.970   6.360   2.863
22437SOL     OW68751   6.778   6.117   2.130
22437SOL    HW168752   6.794   6.037   2.181
22437SOL    HW268753   6.733   6.175   2.191
22438SOL     OW68754   5.880   5.789   3.107
22438SOL    HW168755   5.837   5.817   3.188
22438SOL    HW268756   5.867   5.695   3.104
22439SOL     OW68757   5.653   6.900   3.130
22439SOL    HW168758   5.673   6.840   3.201
22439SOL    HW268759   5.641   6.985   3.173
22440SOL     OW68760   6.294   6.210   2.902
22440SOL    HW168761   6.381   6.212   2.862
22440SOL    HW268762   6.264   6.301   2.898
22441SOL     OW68763   7.325   6.549   3.724
22441SOL    HW168764   7.284   6.477   3.676
22441SOL    HW268765   7.264   6.568   3.795
22442SOL     OW68766   5.907   5.657   2.484
22442SOL    HW168767   5.874   5.744   2.509
22442SOL    HW268768   5.912   5.609   2.567
22443SOL     OW68769   7.218   5.972   2.217
22443SOL    HW168770   7.243   5.904   2.279
22443SOL    HW268771   7.189   6.045   2.271
22444SOL     OW68772   6.624   6.344   2.828
22444SOL    HW168773   6.605   6.362   2.920
22444SOL    HW268774   6.595   6.254   2.815
22445SOL     OW68775   6.571   7.158   3.586
22445SOL    HW168776   6.553   7.197   3.500
22445SOL    HW268777   6.606   7.071   3.566
22446SOL     OW68778   7.432   7.084   3.467
22446SOL    HW168779   7.457   7.113   3.380
22446SOL    HW268780   7.512   7.096   3.520
22447SOL     OW68781   5.938   6.517   3.668
22447SOL    HW168782   6.015   6.524   3.724
22447SOL    HW268783   5.961   6.450   3.603
22448SOL     OW68784   7.109   5.861   1.987
22448SOL    HW168785   7.050   5.791   2.016
22448SOL    HW268786   7.147   5.896   2.067
22449SOL     OW68787   6.870   6.407   1.887
22449SOL    HW168788   6.913   6.322   1.891
22449SOL    HW268789   6.902   6.446   1.806
22450SOL     OW68790   6.658   6.929   2.719
22450SOL    HW168791   6.664   6.857   2.656
22450SOL    HW268792   6.715   6.997   2.683
22451SOL     OW68793   5.897   6.392   2.803
22451SOL    HW168794   5.989   6.414   2.813
22451SOL    HW268795   5.889   6.302   2.837
22452SOL     OW68796   5.923   6.115   2.867
22452SOL    HW168797   5.882   6.029   2.860
22452SOL    HW268798   5.997   6.112   2.807
22453SOL     OW68799   6.724   5.960   3.542
22453SOL    HW168800   6.674   6.009   3.608
22453SOL    HW268801   6.810   6.001   3.542
22454SOL     OW68802   6.746   5.785   3.329
22454SOL    HW168803   6.734   5.844   3.402
22454SOL    HW268804   6.790   5.837   3.262
22455SOL     OW68805   5.599   6.898   2.050
22455SOL    HW168806   5.511   6.917   2.018
22455SOL    HW268807   5.593   6.810   2.088
22456SOL     OW68808   5.671   7.365   2.799
22456SOL    HW168809   5.642   7.286   2.754
22456SOL    HW268810   5.761   7.378   2.770
22457SOL     OW68811   6.074   7.161   2.762
22457SOL    HW168812   6.143   7.223   2.785
22457SOL    HW268813   6.118   7.097   2.706
22458SOL     OW68814   6.548   6.368   3.086
22458SOL    HW168815   6.612   6.351   3.156
22458SOL    HW268816   6.465   6.334   3.121
22459SOL     OW68817   5.621   6.152   2.975
22459SOL    HW168818   5.700   6.121   2.930
22459SOL    HW268819   5.643   6.146   3.068
22460SOL     OW68820   5.773   6.110   3.596
22460SOL    HW168821   5.798   6.046   3.530
22460SOL    HW268822   5.736   6.183   3.547
22461SOL     OW68823   6.972   6.512   3.518
22461SOL    HW168824   6.989   6.606   3.515
22461SOL    HW268825   6.965   6.486   3.427
22462SOL     OW68826   7.224   6.190   3.033
22462SOL    HW168827   7.214   6.132   3.109
22462SOL    HW268828   7.313   6.174   3.002
22463SOL     OW68829   5.822   7.129   3.585
22463SOL    HW168830   5.798   7.188   3.657
22463SOL    HW268831   5.830   7.043   3.626
22464SOL     OW68832   6.309   6.028   3.108
22464SOL    HW168833   6.247   5.956   3.097
22464SOL    HW268834   6.289   6.089   3.036
22465SOL     OW68835   6.518   7.257   3.329
22465SOL    HW168836   6.483   7.218   3.249
22465SOL    HW268837   6.506   7.352   3.316
22466SOL     OW68838   6.049   6.094   2.050
22466SOL    HW168839   6.083   6.184   2.056
22466SOL    HW268840   5.955   6.105   2.034
22467SOL     OW68841   5.734   6.730   3.335
22467SOL    HW168842   5.731   6.686   3.419
22467SOL    HW268843   5.747   6.660   3.271
22468SOL     OW68844   6.907   6.628   3.074
22468SOL    HW168845   6.923   6.563   3.004
22468SOL    HW268846   6.842   6.687   3.037
22469SOL     OW68847   6.916   6.444   2.158
22469SOL    HW168848   6.840   6.428   2.214
22469SOL    HW268849   6.885   6.428   2.069
22470SOL     OW68850   7.367   7.319   3.023
22470SOL    HW168851   7.426   7.344   2.952
22470SOL    HW268852   7.339   7.231   3.001
22471SOL     OW68853   6.823   7.315   2.958
22471SOL    HW168854   6.907   7.342   2.921
22471SOL    HW268855   6.836   7.224   2.984
22472SOL     OW68856   5.678   6.854   2.866
22472SOL    HW168857   5.665   6.869   2.960
22472SOL    HW268858   5.606   6.796   2.842
22473SOL     OW68859   6.264   7.262   3.606
22473SOL    HW168860   6.201   7.334   3.599
22473SOL    HW268861   6.334   7.284   3.546
22474SOL     OW68862   7.316   5.751   2.366
22474SOL    HW168863   7.382   5.732   2.300
22474SOL    HW268864   7.295   5.666   2.404
22475SOL     OW68865   6.980   7.154   2.357
22475SOL    HW168866   7.034   7.190   2.287
22475SOL    HW268867   6.926   7.228   2.387
22476SOL     OW68868   5.729   7.387   3.704
22476SOL    HW168869   5.681   7.317   3.748
22476SOL    HW268870   5.776   7.431   3.774
22477SOL     OW68871   6.866   6.518   2.526
22477SOL    HW168872   6.942   6.460   2.540
22477SOL    HW268873   6.901   6.591   2.476
22478SOL     OW68874   6.381   6.866   3.280
22478SOL    HW168875   6.356   6.909   3.362
22478SOL    HW268876   6.305   6.877   3.223
22479SOL     OW68877   6.253   7.213   2.016
22479SOL    HW168878   6.266   7.228   1.923
22479SOL    HW268879   6.197   7.136   2.020
22480SOL     OW68880   7.203   7.316   3.257
22480SOL    HW168881   7.258   7.320   3.179
22480SOL    HW268882   7.187   7.407   3.280
22481SOL     OW68883   7.434   5.754   2.823
22481SOL    HW168884   7.461   5.664   2.804
22481SOL    HW268885   7.345   5.760   2.788
22482SOL     OW68886   5.839   5.910   2.574
22482SOL    HW168887   5.750   5.938   2.551
22482SOL    HW268888   5.837   5.899   2.669
22483SOL     OW68889   6.798   7.183   1.896
22483SOL    HW168890   6.784   7.092   1.921
22483SOL    HW268891   6.732   7.200   1.828
22484SOL     OW68892   6.409   6.595   3.242
22484SOL    HW168893   6.450   6.590   3.156
22484SOL    HW268894   6.402   6.689   3.260
22485SOL     OW68895   6.497   6.471   2.158
22485SOL    HW168896   6.557   6.507   2.093
22485SOL    HW268897   6.549   6.408   2.208
22486SOL     OW68898   7.074   7.220   1.911
22486SOL    HW168899   6.981   7.206   1.895
22486SOL    HW268900   7.113   7.224   1.824
22487SOL     OW68901   5.958   6.892   3.352
22487SOL    HW168902   5.938   6.970   3.299
22487SOL    HW268903   5.882   6.835   3.341
22488SOL     OW68904   7.198   6.875   3.145
22488SOL    HW168905   7.247   6.852   3.224
22488SOL    HW268906   7.134   6.940   3.175
22489SOL     OW68907   6.654   6.697   2.576
22489SOL    HW168908   6.580   6.649   2.613
22489SOL    HW268909   6.717   6.630   2.552
22490SOL     OW68910   6.612   5.825   2.815
22490SOL    HW168911   6.609   5.774   2.734
22490SOL    HW268912   6.606   5.759   2.885
22491SOL     OW68913   6.191   7.072   2.342
22491SOL    HW168914   6.242   7.023   2.277
22491SOL    HW268915   6.112   7.099   2.295
22492SOL     OW68916   7.312   5.982   3.234
22492SOL    HW168917   7.386   6.043   3.237
22492SOL    HW268918   7.342   5.910   3.180
22493SOL     OW68919   5.854   6.925   2.161
22493SOL    HW168920   5.763   6.920   2.130
22493SOL    HW268921   5.848   6.970   2.245
22494SOL     OW68922   5.700   6.639   3.595
22494SOL    HW168923   5.623   6.607   3.641
22494SOL    HW268924   5.773   6.589   3.632
22495SOL     OW68925   6.264   5.781   3.359
22495SOL    HW168926   6.348   5.755   3.323
22495SOL    HW268927   6.284   5.812   3.448
22496SOL     OW68928   5.669   5.907   1.891
22496SOL    HW168929   5.580   5.886   1.864
22496SOL    HW268930   5.691   5.985   1.840
22497SOL     OW68931   7.008   6.443   3.256
22497SOL    HW168932   6.958   6.504   3.202
22497SOL    HW268933   7.097   6.446   3.220
22498SOL     OW68934   5.642   5.738   2.161
22498SOL    HW168935   5.630   5.817   2.109
22498SOL    HW268936   5.727   5.704   2.133
22499SOL     OW68937   6.763   6.916   1.981
22499SOL    HW168938   6.670   6.895   1.979
22499SOL    HW268939   6.786   6.918   2.074
22500SOL     OW68940   6.208   6.414   3.298
22500SOL    HW168941   6.266   6.490   3.288
22500SOL    HW268942   6.267   6.339   3.305
22501SOL     OW68943   7.069   7.375   2.847
22501SOL    HW168944   7.090   7.445   2.785
22501SOL    HW268945   7.154   7.347   2.881
22502SOL     OW68946   6.319   6.137   3.553
22502SOL    HW168947   6.355   6.191   3.623
22502SOL    HW268948   6.324   6.047   3.587
22503SOL     OW68949   7.056   6.776   3.488
22503SOL    HW168950   7.043   6.793   3.582
22503SOL    HW268951   7.148   6.798   3.472
22504SOL     OW68952   5.951   7.324   3.430
22504SOL    HW168953   5.869   7.371   3.416
22504SOL    HW268954   5.925   7.242   3.472
22505SOL     OW68955   7.248   6.465   3.115
22505SOL    HW168956   7.243   6.380   3.072
22505SOL    HW268957   7.239   6.529   3.044
22506SOL     OW68958   6.802   5.907   2.320
22506SOL    HW168959   6.862   5.833   2.313
22506SOL    HW268960   6.833   5.956   2.396
22507SOL     OW68961   6.192   6.303   2.518
22507SOL    HW168962   6.225   6.393   2.517
22507SOL    HW268963   6.114   6.306   2.461
22508SOL     OW68964   7.337   5.949   3.506
22508SOL    HW168965   7.316   5.968   3.414
22508SOL    HW268966   7.266   5.891   3.535
22509SOL     OW68967   7.337   6.516   3.369
22509SOL    HW168968   7.320   6.609   3.385
22509SOL    HW268969   7.314   6.503   3.278
22510SOL     OW68970   6.460   6.948   1.914
22510SOL    HW168971   6.417   6.974   1.996
22510SOL    HW268972   6.469   7.030   1.865
22511SOL     OW68973   6.248   7.369   2.790
22511SOL    HW168974   6.231   7.462   2.777
22511SOL    HW268975   6.343   7.361   2.788
22512SOL     OW68976   6.458   6.559   2.717
22512SOL    HW168977   6.508   6.489   2.759
22512SOL    HW268978   6.415   6.604   2.790
22513SOL     OW68979   6.655   6.561   1.957
22513SOL    HW168980   6.635   6.620   1.884
22513SOL    HW268981   6.731   6.511   1.927
22514SOL     OW68982   7.422   7.136   2.702
22514SOL    HW168983   7.343   7.127   2.650
22514SOL    HW268984   7.405   7.085   2.781
22515SOL     OW68985   5.807   6.876   3.706
22515SOL    HW168986   5.764   6.801   3.666
22515SOL    HW268987   5.759   6.891   3.788
22516SOL     OW68988   5.683   6.816   2.532
22516SOL    HW168989   5.678   6.772   2.616
22516SOL    HW268990   5.750   6.769   2.483
22517SOL     OW68991   6.273   7.001   3.493
22517SOL    HW168992   6.198   6.954   3.528
22517SOL    HW268993   6.270   7.087   3.533
22518SOL     OW68994   7.400   5.771   3.094
22518SOL    HW168995   7.394   5.677   3.112
22518SOL    HW268996   7.414   5.776   2.999
22519SOL     OW68997   6.034   6.013   2.392
22519SOL    HW168998   6.038   5.933   2.339
22519SOL    HW268999   5.976   5.990   2.465
22520SOL     OW69000   7.286   7.068   2.949
22520SOL    HW169001   7.205   7.050   2.901
22520SOL    HW269002   7.286   7.003   3.020
22521SOL     OW69003   5.932   6.147   3.152
22521SOL    HW169004   5.977   6.084   3.208
22521SOL    HW269005   5.944   6.112   3.063
22522SOL     OW69006   6.423   7.168   2.530
22522SOL    HW169007   6.400   7.243   2.476
22522SOL    HW269008   6.344   7.113   2.530
22523SOL     OW69009   7.012   5.816   2.976
22523SOL    HW169010   7.018   5.727   3.012
22523SOL    HW269011   6.965   5.866   3.042
22524SOL     OW69012   6.597   5.609   2.993
22524SOL    HW169013   6.535   5.541   2.966
22524SOL    HW269014   6.682   5.565   2.992
22525SOL     OW69015   6.362   6.918   2.185
22525SOL    HW169016   6.339   6.826   2.196
22525SOL    HW269017   6.442   6.929   2.236
22526SOL     OW69018   6.206   7.144   3.147
22526SOL    HW169019   6.203   7.225   3.198
22526SOL    HW269020   6.295   7.139   3.113
22527SOL     OW69021   6.951   5.634   2.036
22527SOL    HW169022   6.989   5.559   1.989
22527SOL    HW269023   6.860   5.608   2.053
22528SOL     OW69024   6.883   6.052   2.539
22528SOL    HW169025   6.838   6.136   2.548
22528SOL    HW269026   6.879   6.013   2.627
22529SOL     OW69027   7.173   5.776   2.751
22529SOL    HW169028   7.118   5.801   2.825
22529SOL    HW269029   7.171   5.853   2.693
22530SOL     OW69030   5.628   6.646   2.170
22530SOL    HW169031   5.723   6.639   2.154
22530SOL    HW269032   5.601   6.557   2.191
22531SOL     OW69033   6.479   7.247   2.187
22531SOL    HW169034   6.402   7.232   2.133
22531SOL    HW269035   6.450   7.310   2.253
22532SOL     OW69036   5.802   6.213   3.857
22532SOL    HW169037   5.715   6.204   3.898
22532SOL    HW269038   5.789   6.187   3.766
22533SOL     OW69039   5.796   5.878   4.724
22533SOL    HW169040   5.824   5.837   4.806
22533SOL    HW269041   5.713   5.836   4.703
22534SOL     OW69042   5.574   5.975   4.365
22534SOL    HW169043   5.495   6.007   4.409
22534SOL    HW269044   5.546   5.896   4.319
22535SOL     OW69045   6.160   6.885   4.915
22535SOL    HW169046   6.073   6.885   4.874
22535SOL    HW269047   6.172   6.974   4.946
22536SOL     OW69048   7.162   7.105   4.435
22536SOL    HW169049   7.118   7.077   4.516
22536SOL    HW269050   7.092   7.107   4.370
22537SOL     OW69051   6.723   6.283   4.418
22537SOL    HW169052   6.769   6.367   4.405
22537SOL    HW269053   6.674   6.295   4.499
22538SOL     OW69054   7.377   6.181   3.946
22538SOL    HW169055   7.346   6.175   3.855
22538SOL    HW269056   7.335   6.108   3.991
22539SOL     OW69057   6.337   6.723   4.778
22539SOL    HW169058   6.268   6.758   4.835
22539SOL    HW269059   6.373   6.801   4.735
22540SOL     OW69060   6.474   6.347   5.561
22540SOL    HW169061   6.443   6.414   5.622
22540SOL    HW269062   6.488   6.394   5.479
22541SOL     OW69063   6.274   6.585   4.363
22541SOL    HW169064   6.339   6.578   4.433
22541SOL    HW269065   6.205   6.640   4.399
22542SOL     OW69066   6.305   6.738   5.544
22542SOL    HW169067   6.350   6.816   5.577
22542SOL    HW269068   6.223   6.772   5.507
22543SOL     OW69069   5.922   6.995   4.791
22543SOL    HW169070   5.845   6.953   4.752
22543SOL    HW269071   5.959   7.047   4.720
22544SOL     OW69072   7.043   7.088   5.090
22544SOL    HW169073   7.095   7.168   5.102
22544SOL    HW269074   6.970   7.098   5.152
22545SOL     OW69075   6.051   5.954   5.163
22545SOL    HW169076   6.123   5.898   5.191
22545SOL    HW269077   5.974   5.917   5.207
22546SOL     OW69078   7.184   6.024   4.472
22546SOL    HW169079   7.109   6.035   4.413
22546SOL    HW269080   7.175   6.095   4.536
22547SOL     OW69081   5.802   7.308   4.191
22547SOL    HW169082   5.826   7.381   4.248
22547SOL    HW269083   5.878   7.296   4.134
22548SOL     OW69084   6.722   6.927   5.418
22548SOL    HW169085   6.759   6.922   5.506
22548SOL    HW269086   6.669   6.847   5.409
22549SOL     OW69087   5.824   7.032   4.266
22549SOL    HW169088   5.793   7.123   4.274
22549SOL    HW269089   5.770   6.983   4.328
22550SOL     OW69090   5.875   6.680   4.628
22550SOL    HW169091   5.858   6.591   4.658
22550SOL    HW269092   5.808   6.733   4.671
22551SOL     OW69093   6.189   7.371   5.162
22551SOL    HW169094   6.105   7.354   5.205
22551SOL    HW269095   6.209   7.462   5.184
22552SOL     OW69096   6.160   6.570   3.865
22552SOL    HW169097   6.210   6.613   3.797
22552SOL    HW269098   6.197   6.602   3.947
22553SOL     OW69099   7.180   5.698   5.190
22553SOL    HW169100   7.210   5.775   5.140
22553SOL    HW269101   7.154   5.734   5.275
22554SOL     OW69102   5.710   6.238   4.285
22554SOL    HW169103   5.669   6.154   4.304
22554SOL    HW269104   5.698   6.290   4.365
22555SOL     OW69105   7.433   7.334   4.049
22555SOL    HW169106   7.502   7.312   4.113
22555SOL    HW269107   7.448   7.427   4.030
22556SOL     OW69108   5.634   7.172   3.836
22556SOL    HW169109   5.612   7.081   3.854
22556SOL    HW269110   5.604   7.220   3.914
22557SOL     OW69111   7.279   6.511   4.372
22557SOL    HW169112   7.354   6.460   4.342
22557SOL    HW269113   7.252   6.561   4.295
22558SOL     OW69114   7.236   6.688   4.153
22558SOL    HW169115   7.322   6.687   4.112
22558SOL    HW269116   7.243   6.755   4.221
22559SOL     OW69117   5.692   6.336   5.302
22559SOL    HW169118   5.774   6.382   5.321
22559SOL    HW269119   5.627   6.406   5.296
22560SOL     OW69120   6.208   6.979   4.460
22560SOL    HW169121   6.163   6.895   4.469
22560SOL    HW269122   6.190   7.006   4.369
22561SOL     OW69123   6.867   6.821   5.141
22561SOL    HW169124   6.896   6.751   5.083
22561SOL    HW269125   6.924   6.814   5.217
22562SOL     OW69126   6.415   5.600   4.239
22562SOL    HW169127   6.451   5.685   4.214
22562SOL    HW269128   6.320   5.614   4.244
22563SOL     OW69129   5.769   6.547   5.006
22563SOL    HW169130   5.852   6.507   4.983
22563SOL    HW269131   5.703   6.497   4.958
22564SOL     OW69132   7.118   6.589   3.923
22564SOL    HW169133   7.048   6.531   3.955
22564SOL    HW269134   7.159   6.622   4.003
22565SOL     OW69135   6.785   7.404   5.358
22565SOL    HW169136   6.778   7.464   5.284
22565SOL    HW269137   6.794   7.318   5.318
22566SOL     OW69138   5.935   5.845   5.563
22566SOL    HW169139   5.963   5.933   5.589
22566SOL    HW269140   5.840   5.846   5.575
22567SOL     OW69141   7.058   7.002   4.668
22567SOL    HW169142   6.990   7.020   4.733
22567SOL    HW269143   7.041   6.912   4.640
22568SOL     OW69144   7.239   7.344   4.298
22568SOL    HW169145   7.214   7.310   4.212
22568SOL    HW269146   7.220   7.272   4.359
22569SOL     OW69147   6.177   6.299   3.998
22569SOL    HW169148   6.175   6.384   3.955
22569SOL    HW269149   6.110   6.304   4.066
22570SOL     OW69150   6.863   5.959   4.660
22570SOL    HW169151   6.775   5.923   4.667
22570SOL    HW269152   6.917   5.903   4.715
22571SOL     OW69153   7.163   7.265   4.037
22571SOL    HW169154   7.257   7.283   4.027
22571SOL    HW269155   7.133   7.247   3.947
22572SOL     OW69156   6.352   6.156   5.168
22572SOL    HW169157   6.352   6.173   5.262
22572SOL    HW269158   6.325   6.064   5.159
22573SOL     OW69159   6.983   6.062   5.403
22573SOL    HW169160   6.986   6.104   5.488
22573SOL    HW269161   7.033   5.981   5.413
22574SOL     OW69162   6.533   6.468   5.310
22574SOL    HW169163   6.588   6.400   5.270
22574SOL    HW269164   6.488   6.509   5.236
22575SOL     OW69165   6.604   5.993   4.947
22575SOL    HW169166   6.524   5.999   4.998
22575SOL    HW269167   6.580   5.943   4.869
22576SOL     OW69168   6.643   6.286   4.147
22576SOL    HW169169   6.661   6.279   4.241
22576SOL    HW269170   6.558   6.243   4.135
22577SOL     OW69171   5.680   6.411   4.495
22577SOL    HW169172   5.754   6.404   4.555
22577SOL    HW269173   5.627   6.483   4.530
22578SOL     OW69174   5.711   7.461   5.307
22578SOL    HW169175   5.714   7.440   5.400
22578SOL    HW269176   5.630   7.422   5.276
22579SOL     OW69177   6.476   5.939   3.924
22579SOL    HW169178   6.524   5.990   3.859
22579SOL    HW269179   6.446   5.861   3.876
22580SOL     OW69180   7.292   6.155   5.554
22580SOL    HW169181   7.257   6.229   5.505
22580SOL    HW269182   7.315   6.091   5.487
22581SOL     OW69183   6.971   6.731   4.268
22581SOL    HW169184   7.047   6.719   4.212
22581SOL    HW269185   6.915   6.792   4.219
22582SOL     OW69186   6.148   5.758   4.615
22582SOL    HW169187   6.133   5.797   4.701
22582SOL    HW269188   6.134   5.830   4.553
22583SOL     OW69189   6.583   7.034   4.190
22583SOL    HW169190   6.556   7.108   4.136
22583SOL    HW269191   6.552   7.056   4.278
22584SOL     OW69192   5.937   7.399   4.594
22584SOL    HW169193   5.981   7.314   4.601
22584SOL    HW269194   6.004   7.463   4.621
22585SOL     OW69195   7.386   6.644   4.594
22585SOL    HW169196   7.335   6.616   4.518
22585SOL    HW269197   7.323   6.648   4.666
22586SOL     OW69198   6.811   7.128   5.238
22586SOL    HW169199   6.798   7.055   5.298
22586SOL    HW269200   6.734   7.127   5.182
22587SOL     OW69201   5.893   6.545   3.983
22587SOL    HW169202   5.974   6.560   3.933
22587SOL    HW269203   5.863   6.458   3.955
22588SOL     OW69204   7.070   6.340   4.441
22588SOL    HW169205   7.067   6.297   4.527
22588SOL    HW269206   7.148   6.395   4.444
22589SOL     OW69207   6.058   6.858   5.463
22589SOL    HW169208   6.031   6.864   5.371
22589SOL    HW269209   5.976   6.845   5.511
22590SOL     OW69210   6.716   7.366   3.946
22590SOL    HW169211   6.638   7.332   3.989
22590SOL    HW269212   6.739   7.299   3.882
22591SOL     OW69213   5.780   5.866   5.236
22591SOL    HW169214   5.690   5.900   5.240
22591SOL    HW269215   5.772   5.776   5.267
22592SOL     OW69216   7.217   6.970   3.815
22592SOL    HW169217   7.174   7.055   3.803
22592SOL    HW269218   7.149   6.905   3.795
22593SOL     OW69219   6.045   7.326   4.039
22593SOL    HW169220   6.092   7.375   4.107
22593SOL    HW269221   6.114   7.283   3.989
22594SOL     OW69222   6.984   5.694   4.168
22594SOL    HW169223   6.977   5.666   4.076
22594SOL    HW269224   7.077   5.689   4.187
22595SOL     OW69225   5.848   7.377   4.945
22595SOL    HW169226   5.888   7.299   4.982
22595SOL    HW269227   5.821   7.351   4.857
22596SOL     OW69228   6.523   7.288   4.616
22596SOL    HW169229   6.596   7.235   4.647
22596SOL    HW269230   6.485   7.237   4.544
22597SOL     OW69231   5.981   6.273   4.194
22597SOL    HW169232   5.999   6.180   4.211
22597SOL    HW269233   5.887   6.283   4.212
22598SOL     OW69234   7.103   5.806   5.445
22598SOL    HW169235   7.115   5.825   5.538
22598SOL    HW269236   7.032   5.742   5.443
22599SOL     OW69237   6.241   5.700   3.822
22599SOL    HW169238   6.276   5.619   3.859
22599SOL    HW269239   6.182   5.672   3.753
22600SOL     OW69240   6.351   5.865   5.484
22600SOL    HW169241   6.432   5.815   5.479
22600SOL    HW269242   6.299   5.820   5.551
22601SOL     OW69243   6.463   7.114   4.917
22601SOL    HW169244   6.441   7.073   4.834
22601SOL    HW269245   6.527   7.055   4.957
22602SOL     OW69246   6.923   6.181   5.162
22602SOL    HW169247   6.956   6.148   5.246
22602SOL    HW269248   6.964   6.267   5.153
22603SOL     OW69249   6.408   6.975   4.674
22603SOL    HW169250   6.492   6.963   4.630
22603SOL    HW269251   6.345   6.982   4.603
22604SOL     OW69252   6.496   6.090   4.632
22604SOL    HW169253   6.478   6.085   4.538
22604SOL    HW269254   6.534   6.005   4.654
22605SOL     OW69255   6.148   5.654   4.219
22605SOL    HW169256   6.067   5.650   4.271
22605SOL    HW269257   6.135   5.728   4.159
22606SOL     OW69258   7.014   6.790   3.761
22606SOL    HW169259   7.043   6.715   3.813
22606SOL    HW269260   6.928   6.812   3.797
22607SOL     OW69261   5.874   5.641   3.909
22607SOL    HW169262   5.934   5.706   3.872
22607SOL    HW269263   5.931   5.578   3.953
22608SOL     OW69264   6.533   5.846   4.180
22608SOL    HW169265   6.508   5.878   4.094
22608SOL    HW269266   6.628   5.859   4.184
22609SOL     OW69267   6.662   6.264   5.178
22609SOL    HW169268   6.612   6.186   5.201
22609SOL    HW269269   6.753   6.234   5.174
22610SOL     OW69270   6.808   7.157   4.517
22610SOL    HW169271   6.817   7.223   4.449
22610SOL    HW269272   6.871   7.183   4.584
22611SOL     OW69273   6.065   6.743   4.447
22611SOL    HW169274   6.003   6.723   4.516
22611SOL    HW269275   6.016   6.732   4.366
22612SOL     OW69276   6.846   7.375   4.340
22612SOL    HW169277   6.891   7.439   4.285
22612SOL    HW269278   6.774   7.424   4.380
22613SOL     OW69279   6.615   6.111   3.749
22613SOL    HW169280   6.569   6.194   3.734
22613SOL    HW269281   6.674   6.129   3.823
22614SOL     OW69282   5.671   6.150   5.108
22614SOL    HW169283   5.766   6.160   5.097
22614SOL    HW269284   5.649   6.212   5.178
22615SOL     OW69285   6.136   5.826   4.891
22615SOL    HW169286   6.187   5.747   4.910
22615SOL    HW269287   6.048   5.806   4.922
22616SOL     OW69288   6.453   6.048   4.366
22616SOL    HW169289   6.407   6.103   4.302
22616SOL    HW269290   6.476   5.969   4.317
22617SOL     OW69291   6.606   5.639   4.463
22617SOL    HW169292   6.545   5.634   4.389
22617SOL    HW269293   6.583   5.566   4.519
22618SOL     OW69294   7.022   6.744   4.578
22618SOL    HW169295   6.951   6.681   4.588
22618SOL    HW269296   7.035   6.750   4.483
22619SOL     OW69297   7.052   6.196   4.683
22619SOL    HW169298   6.990   6.123   4.689
22619SOL    HW269299   7.106   6.188   4.761
22620SOL     OW69300   7.425   6.391   4.115
22620SOL    HW169301   7.484   6.342   4.172
22620SOL    HW269302   7.403   6.329   4.045
22621SOL     OW69303   6.074   7.008   3.875
22621SOL    HW169304   5.999   6.981   3.927
22621SOL    HW269305   6.069   6.955   3.796
22622SOL     OW69306   7.269   6.859   4.354
22622SOL    HW169307   7.362   6.858   4.376
22622SOL    HW269308   7.239   6.945   4.382
22623SOL     OW69309   6.978   6.156   3.797
22623SOL    HW169310   6.912   6.137   3.863
22623SOL    HW269311   7.059   6.119   3.832
22624SOL     OW69312   6.115   5.849   4.029
22624SOL    HW169313   6.164   5.805   3.960
22624SOL    HW269314   6.083   5.930   3.988
22625SOL     OW69315   7.327   6.825   5.278
22625SOL    HW169316   7.412   6.781   5.291
22625SOL    HW269317   7.343   6.916   5.305
22626SOL     OW69318   6.631   6.936   5.053
22626SOL    HW169319   6.556   6.905   5.103
22626SOL    HW269320   6.707   6.898   5.097
22627SOL     OW69321   7.196   7.219   5.390
22627SOL    HW169322   7.185   7.254   5.301
22627SOL    HW269323   7.273   7.163   5.384
22628SOL     OW69324   6.729   6.806   4.824
22628SOL    HW169325   6.665   6.838   4.888
22628SOL    HW269326   6.697   6.839   4.740
22629SOL     OW69327   7.209   6.684   4.800
22629SOL    HW169328   7.201   6.746   4.873
22629SOL    HW269329   7.132   6.701   4.745
22630SOL     OW69330   6.503   5.688   5.104
22630SOL    HW169331   6.529   5.659   5.017
22630SOL    HW269332   6.584   5.721   5.144
22631SOL     OW69333   6.569   6.698   5.448
22631SOL    HW169334   6.479   6.716   5.475
22631SOL    HW269335   6.564   6.619   5.395
22632SOL     OW69336   6.299   6.652   4.092
22632SOL    HW169337   6.283   6.630   4.184
22632SOL    HW269338   6.373   6.597   4.067
22633SOL     OW69339   6.008   6.406   4.975
22633SOL    HW169340   6.070   6.422   5.046
22633SOL    HW269341   5.970   6.321   4.995
22634SOL     OW69342   6.866   5.962   5.009
22634SOL    HW169343   6.893   6.040   5.057
22634SOL    HW269344   6.777   5.980   4.981
22635SOL     OW69345   5.659   7.165   5.090
22635SOL    HW169346   5.625   7.229   5.027
22635SOL    HW269347   5.753   7.162   5.073
22636SOL     OW69348   5.923   6.710   4.212
22636SOL    HW169349   5.914   6.783   4.152
22636SOL    HW269350   5.917   6.632   4.157
22637SOL     OW69351   6.150   6.118   4.563
22637SOL    HW169352   6.146   6.175   4.486
22637SOL    HW269353   6.236   6.136   4.602
22638SOL     OW69354   6.832   6.938   4.118
22638SOL    HW169355   6.887   7.008   4.152
22638SOL    HW269356   6.744   6.959   4.150
22639SOL     OW69357   6.882   7.048   4.870
22639SOL    HW169358   6.931   7.051   4.952
22639SOL    HW269359   6.826   6.971   4.880
22640SOL     OW69360   7.160   6.207   4.207
22640SOL    HW169361   7.110   6.244   4.280
22640SOL    HW269362   7.193   6.283   4.160
22641SOL     OW69363   5.929   7.123   5.027
22641SOL    HW169364   5.917   7.070   4.948
22641SOL    HW269365   6.023   7.131   5.037
22642SOL     OW69366   5.997   6.351   5.335
22642SOL    HW169367   6.072   6.369   5.278
22642SOL    HW269368   6.007   6.259   5.360
22643SOL     OW69369   7.203   6.369   5.413
22643SOL    HW169370   7.116   6.409   5.407
22643SOL    HW269371   7.253   6.411   5.342
22644SOL     OW69372   6.583   5.728   5.470
22644SOL    HW169373   6.647   5.796   5.452
22644SOL    HW269374   6.634   5.647   5.470
22645SOL     OW69375   6.080   5.631   5.474
22645SOL    HW169376   6.026   5.573   5.419
22645SOL    HW269377   6.022   5.704   5.495
22646SOL     OW69378   6.192   6.439   4.773
22646SOL    HW169379   6.210   6.532   4.755
22646SOL    HW269380   6.121   6.441   4.837
22647SOL     OW69381   6.923   6.443   4.738
22647SOL    HW169382   6.835   6.423   4.706
22647SOL    HW269383   6.972   6.361   4.726
22648SOL     OW69384   6.780   6.114   3.982
22648SOL    HW169385   6.790   6.036   4.037
22648SOL    HW269386   6.739   6.178   4.039
22649SOL     OW69387   5.880   5.787   4.972
22649SOL    HW169388   5.826   5.807   5.048
22649SOL    HW269389   5.873   5.692   4.961
22650SOL     OW69390   5.659   6.901   4.995
22650SOL    HW169391   5.677   6.841   5.067
22650SOL    HW269392   5.641   6.985   5.038
22651SOL     OW69393   6.299   6.188   4.814
22651SOL    HW169394   6.376   6.171   4.760
22651SOL    HW269395   6.273   6.278   4.792
22652SOL     OW69396   7.325   6.551   5.585
22652SOL    HW169397   7.287   6.478   5.536
22652SOL    HW269398   7.263   6.568   5.656
22653SOL     OW69399   5.905   5.655   4.344
22653SOL    HW169400   5.869   5.740   4.367
22653SOL    HW269401   5.908   5.607   4.427
22654SOL     OW69402   7.219   5.973   4.077
22654SOL    HW169403   7.243   5.904   4.140
22654SOL    HW269404   7.190   6.046   4.132
22655SOL     OW69405   6.613   6.338   4.677
22655SOL    HW169406   6.604   6.356   4.771
22655SOL    HW269407   6.578   6.250   4.666
22656SOL     OW69408   6.574   7.158   5.448
22656SOL    HW169409   6.552   7.198   5.363
22656SOL    HW269410   6.608   7.072   5.425
22657SOL     OW69411   7.431   7.080   5.330
22657SOL    HW169412   7.458   7.114   5.245
22657SOL    HW269413   7.507   7.094   5.387
22658SOL     OW69414   5.945   6.519   5.544
22658SOL    HW169415   6.029   6.524   5.590
22658SOL    HW269416   5.960   6.458   5.472
22659SOL     OW69417   7.113   5.859   3.848
22659SOL    HW169418   7.052   5.791   3.877
22659SOL    HW269419   7.149   5.896   3.928
22660SOL     OW69420   6.871   6.408   3.751
22660SOL    HW169421   6.911   6.321   3.758
22660SOL    HW269422   6.905   6.444   3.669
22661SOL     OW69423   6.659   6.929   4.582
22661SOL    HW169424   6.664   6.857   4.519
22661SOL    HW269425   6.715   6.997   4.545
22662SOL     OW69426   5.891   6.395   4.671
22662SOL    HW169427   5.984   6.395   4.651
22662SOL    HW269428   5.876   6.312   4.716
22663SOL     OW69429   5.969   6.081   4.754
22663SOL    HW169430   5.900   6.019   4.730
22663SOL    HW269431   6.018   6.096   4.673
22664SOL     OW69432   6.723   5.965   5.400
22664SOL    HW169433   6.675   6.013   5.468
22664SOL    HW269434   6.810   6.004   5.401
22665SOL     OW69435   6.744   5.786   5.191
22665SOL    HW169436   6.733   5.848   5.263
22665SOL    HW269437   6.795   5.834   5.126
22666SOL     OW69438   5.602   6.897   3.907
22666SOL    HW169439   5.513   6.915   3.876
22666SOL    HW269440   5.596   6.810   3.948
22667SOL     OW69441   5.675   7.362   4.668
22667SOL    HW169442   5.642   7.286   4.620
22667SOL    HW269443   5.763   7.376   4.633
22668SOL     OW69444   6.075   7.162   4.624
22668SOL    HW169445   6.144   7.225   4.647
22668SOL    HW269446   6.119   7.098   4.568
22669SOL     OW69447   6.559   6.365   4.942
22669SOL    HW169448   6.615   6.341   5.016
22669SOL    HW269449   6.470   6.343   4.971
22670SOL     OW69450   5.633   6.138   4.836
22670SOL    HW169451   5.641   6.047   4.808
22670SOL    HW269452   5.640   6.134   4.932
22671SOL     OW69453   5.790   6.119   5.451
22671SOL    HW169454   5.775   6.038   5.402
22671SOL    HW269455   5.736   6.185   5.406
22672SOL     OW69456   6.971   6.513   5.380
22672SOL    HW169457   6.988   6.607   5.376
22672SOL    HW269458   6.966   6.486   5.288
22673SOL     OW69459   6.406   6.161   4.092
22673SOL    HW169460   6.410   6.084   4.035
22673SOL    HW269461   6.328   6.208   4.062
22674SOL     OW69462   7.223   6.188   4.899
22674SOL    HW169463   7.215   6.127   4.972
22674SOL    HW269464   7.312   6.173   4.865
22675SOL     OW69465   5.826   7.129   5.451
22675SOL    HW169466   5.797   7.186   5.522
22675SOL    HW269467   5.829   7.042   5.490
22676SOL     OW69468   6.518   7.258   5.191
22676SOL    HW169469   6.485   7.217   5.111
22676SOL    HW269470   6.504   7.352   5.178
22677SOL     OW69471   6.039   6.077   3.895
22677SOL    HW169472   6.099   6.146   3.924
22677SOL    HW269473   5.953   6.119   3.891
22678SOL     OW69474   5.736   6.732   5.202
22678SOL    HW169475   5.732   6.687   5.287
22678SOL    HW269476   5.745   6.661   5.138
22679SOL     OW69477   6.906   6.629   4.937
22679SOL    HW169478   6.920   6.563   4.869
22679SOL    HW269479   6.842   6.689   4.900
22680SOL     OW69480   6.907   6.444   4.026
22680SOL    HW169481   6.835   6.411   4.081
22680SOL    HW269482   6.876   6.429   3.937
22681SOL     OW69483   7.371   7.314   4.889
22681SOL    HW169484   7.433   7.339   4.820
22681SOL    HW269485   7.337   7.229   4.862
22682SOL     OW69486   6.825   7.316   4.827
22682SOL    HW169487   6.908   7.342   4.786
22682SOL    HW269488   6.836   7.224   4.849
22683SOL     OW69489   5.683   6.851   4.732
22683SOL    HW169490   5.669   6.867   4.825
22683SOL    HW269491   5.607   6.800   4.705
22684SOL     OW69492   6.261   7.264   5.467
22684SOL    HW169493   6.194   7.333   5.463
22684SOL    HW269494   6.321   7.285   5.395
22685SOL     OW69495   7.314   5.750   4.226
22685SOL    HW169496   7.382   5.731   4.161
22685SOL    HW269497   7.294   5.665   4.266
22686SOL     OW69498   6.981   7.155   4.220
22686SOL    HW169499   7.035   7.192   4.150
22686SOL    HW269500   6.927   7.228   4.250
22687SOL     OW69501   5.727   7.388   5.565
22687SOL    HW169502   5.679   7.316   5.607
22687SOL    HW269503   5.773   7.431   5.637
22688SOL     OW69504   6.864   6.515   4.392
22688SOL    HW169505   6.938   6.455   4.404
22688SOL    HW269506   6.899   6.587   4.340
22689SOL     OW69507   6.378   6.863   5.146
22689SOL    HW169508   6.353   6.907   5.227
22689SOL    HW269509   6.304   6.877   5.087
22690SOL     OW69510   6.252   7.213   3.881
22690SOL    HW169511   6.264   7.228   3.787
22690SOL    HW269512   6.197   7.135   3.886
22691SOL     OW69513   7.202   7.314   5.120
22691SOL    HW169514   7.254   7.319   5.040
22691SOL    HW269515   7.187   7.406   5.144
22692SOL     OW69516   7.431   5.754   4.687
22692SOL    HW169517   7.460   5.666   4.666
22692SOL    HW269518   7.343   5.760   4.650
22693SOL     OW69519   5.831   5.904   4.440
22693SOL    HW169520   5.745   5.933   4.411
22693SOL    HW269521   5.823   5.895   4.535
22694SOL     OW69522   6.796   7.181   3.758
22694SOL    HW169523   6.783   7.091   3.788
22694SOL    HW269524   6.727   7.195   3.693
22695SOL     OW69525   6.409   6.593   5.099
22695SOL    HW169526   6.437   6.595   5.007
22695SOL    HW269527   6.397   6.684   5.123
22696SOL     OW69528   6.506   6.499   4.012
22696SOL    HW169529   6.568   6.534   3.948
22696SOL    HW269530   6.554   6.431   4.059
22697SOL     OW69531   7.072   7.222   3.774
22697SOL    HW169532   6.979   7.206   3.758
22697SOL    HW269533   7.110   7.226   3.686
22698SOL     OW69534   5.958   6.895   5.214
22698SOL    HW169535   5.937   6.971   5.160
22698SOL    HW269536   5.883   6.837   5.204
22699SOL     OW69537   7.198   6.874   5.010
22699SOL    HW169538   7.246   6.849   5.089
22699SOL    HW269539   7.134   6.938   5.040
22700SOL     OW69540   6.655   6.698   4.440
22700SOL    HW169541   6.579   6.651   4.475
22700SOL    HW269542   6.716   6.630   4.414
22701SOL     OW69543   6.610   5.826   4.688
22701SOL    HW169544   6.606   5.783   4.603
22701SOL    HW269545   6.607   5.754   4.752
22702SOL     OW69546   6.192   7.071   4.203
22702SOL    HW169547   6.241   7.023   4.135
22702SOL    HW269548   6.106   7.086   4.164
22703SOL     OW69549   7.314   5.978   5.100
22703SOL    HW169550   7.388   6.038   5.100
22703SOL    HW269551   7.341   5.905   5.044
22704SOL     OW69552   5.855   6.928   4.024
22704SOL    HW169553   5.765   6.920   3.993
22704SOL    HW269554   5.847   6.970   4.109
22705SOL     OW69555   5.707   6.638   5.459
22705SOL    HW169556   5.627   6.608   5.501
22705SOL    HW269557   5.777   6.588   5.502
22706SOL     OW69558   6.282   5.813   5.216
22706SOL    HW169559   6.358   5.765   5.183
22706SOL    HW269560   6.299   5.825   5.309
22707SOL     OW69561   5.671   5.905   3.759
22707SOL    HW169562   5.580   5.883   3.739
22707SOL    HW269563   5.686   5.988   3.713
22708SOL     OW69564   7.010   6.445   5.118
22708SOL    HW169565   6.959   6.505   5.063
22708SOL    HW269566   7.097   6.446   5.079
22709SOL     OW69567   5.646   5.736   4.025
22709SOL    HW169568   5.632   5.817   3.975
22709SOL    HW269569   5.729   5.702   3.993
22710SOL     OW69570   6.763   6.917   3.844
22710SOL    HW169571   6.674   6.882   3.845
22710SOL    HW269572   6.789   6.918   3.936
22711SOL     OW69573   6.211   6.402   5.158
22711SOL    HW169574   6.271   6.476   5.148
22711SOL    HW269575   6.269   6.325   5.162
22712SOL     OW69576   7.066   7.376   4.707
22712SOL    HW169577   7.085   7.447   4.645
22712SOL    HW269578   7.152   7.342   4.732
22713SOL     OW69579   6.325   6.144   5.431
22713SOL    HW169580   6.360   6.199   5.501
22713SOL    HW269581   6.327   6.055   5.466
22714SOL     OW69582   7.056   6.776   5.351
22714SOL    HW169583   7.043   6.793   5.444
22714SOL    HW269584   7.148   6.797   5.334
22715SOL     OW69585   5.953   7.325   5.295
22715SOL    HW169586   5.871   7.372   5.277
22715SOL    HW269587   5.925   7.243   5.337
22716SOL     OW69588   7.248   6.463   4.978
22716SOL    HW169589   7.244   6.377   4.936
22716SOL    HW269590   7.238   6.525   4.906
22717SOL     OW69591   6.808   5.911   4.178
22717SOL    HW169592   6.865   5.835   4.174
22717SOL    HW269593   6.838   5.959   4.255
22718SOL     OW69594   6.172   6.325   4.386
22718SOL    HW169595   6.210   6.411   4.371
22718SOL    HW269596   6.105   6.316   4.318
22719SOL     OW69597   7.333   5.949   5.373
22719SOL    HW169598   7.318   5.966   5.280
22719SOL    HW269599   7.262   5.891   5.399
22720SOL     OW69600   7.343   6.520   5.229
22720SOL    HW169601   7.317   6.611   5.241
22720SOL    HW269602   7.319   6.500   5.139
22721SOL     OW69603   6.451   6.948   3.775
22721SOL    HW169604   6.415   6.961   3.863
22721SOL    HW269605   6.458   7.037   3.740
22722SOL     OW69606   6.248   7.372   4.652
22722SOL    HW169607   6.231   7.465   4.639
22722SOL    HW269608   6.344   7.365   4.649
22723SOL     OW69609   6.456   6.562   4.577
22723SOL    HW169610   6.500   6.485   4.613
22723SOL    HW269611   6.417   6.605   4.654
22724SOL     OW69612   6.672   6.585   3.816
22724SOL    HW169613   6.645   6.630   3.736
22724SOL    HW269614   6.740   6.524   3.787
22725SOL     OW69615   7.429   7.144   4.568
22725SOL    HW169616   7.350   7.133   4.516
22725SOL    HW269617   7.424   7.075   4.634
22726SOL     OW69618   5.800   6.876   5.568
22726SOL    HW169619   5.764   6.799   5.524
22726SOL    HW269620   5.742   6.890   5.643
22727SOL     OW69621   5.682   6.821   4.396
22727SOL    HW169622   5.661   6.771   4.475
22727SOL    HW269623   5.745   6.766   4.349
22728SOL     OW69624   6.275   6.999   5.362
22728SOL    HW169625   6.196   6.955   5.392
22728SOL    HW269626   6.269   7.087   5.398
22729SOL     OW69627   7.390   5.762   4.959
22729SOL    HW169628   7.396   5.667   4.971
22729SOL    HW269629   7.406   5.775   4.865
22730SOL     OW69630   6.019   6.014   4.256
22730SOL    HW169631   6.042   5.943   4.196
22730SOL    HW269632   5.959   5.974   4.319
22731SOL     OW69633   7.278   7.069   4.819
22731SOL    HW169634   7.202   7.051   4.764
22731SOL    HW269635   7.275   7.002   4.887
22732SOL     OW69636   5.933   6.148   5.023
22732SOL    HW169637   5.951   6.077   5.084
22732SOL    HW269638   5.889   6.106   4.949
22733SOL     OW69639   6.423   7.167   4.393
22733SOL    HW169640   6.396   7.240   4.338
22733SOL    HW269641   6.346   7.110   4.396
22734SOL     OW69642   7.015   5.814   4.835
22734SOL    HW169643   7.023   5.726   4.870
22734SOL    HW269644   6.972   5.864   4.904
22735SOL     OW69645   6.598   5.600   4.856
22735SOL    HW169646   6.537   5.535   4.820
22735SOL    HW269647   6.682   5.555   4.860
22736SOL     OW69648   6.365   6.919   4.041
22736SOL    HW169649   6.337   6.829   4.053
22736SOL    HW269650   6.442   6.928   4.098
22737SOL     OW69651   6.206   7.142   5.013
22737SOL    HW169652   6.205   7.222   5.066
22737SOL    HW269653   6.294   7.139   4.975
22738SOL     OW69654   6.951   5.634   3.898
22738SOL    HW169655   6.988   5.560   3.850
22738SOL    HW269656   6.861   5.609   3.916
22739SOL     OW69657   6.891   6.053   4.402
22739SOL    HW169658   6.836   6.132   4.402
22739SOL    HW269659   6.879   6.016   4.489
22740SOL     OW69660   7.171   5.775   4.608
22740SOL    HW169661   7.117   5.801   4.683
22740SOL    HW269662   7.170   5.852   4.551
22741SOL     OW69663   5.631   6.648   4.031
22741SOL    HW169664   5.724   6.637   4.011
22741SOL    HW269665   5.600   6.560   4.055
22742SOL     OW69666   6.481   7.249   4.049
22742SOL    HW169667   6.402   7.231   3.996
22742SOL    HW269668   6.451   7.311   4.116
22743SOL     OW69669   5.805   6.211   5.720
22743SOL    HW169670   5.718   6.203   5.758
22743SOL    HW269671   5.793   6.188   5.627
22744SOL     OW69672   5.805   5.881   6.585
22744SOL    HW169673   5.838   5.840   6.665
22744SOL    HW269674   5.722   5.838   6.568
22745SOL     OW69675   5.576   5.971   6.226
22745SOL    HW169676   5.495   6.002   6.265
22745SOL    HW269677   5.552   5.891   6.180
22746SOL     OW69678   6.153   6.894   6.744
22746SOL    HW169679   6.061   6.908   6.721
22746SOL    HW269680   6.177   6.973   6.793
22747SOL     OW69681   7.163   7.105   6.300
22747SOL    HW169682   7.117   7.078   6.379
22747SOL    HW269683   7.095   7.108   6.232
22748SOL     OW69684   6.726   6.283   6.277
22748SOL    HW169685   6.770   6.368   6.267
22748SOL    HW269686   6.679   6.290   6.361
22749SOL     OW69687   7.372   6.184   5.810
22749SOL    HW169688   7.342   6.178   5.719
22749SOL    HW269689   7.334   6.107   5.853
22750SOL     OW69690   6.471   6.340   7.422
22750SOL    HW169691   6.445   6.408   7.484
22750SOL    HW269692   6.486   6.387   7.340
22751SOL     OW69693   6.288   6.589   6.230
22751SOL    HW169694   6.336   6.573   6.312
22751SOL    HW269695   6.210   6.637   6.257
22752SOL     OW69696   6.301   6.735   7.407
22752SOL    HW169697   6.348   6.812   7.440
22752SOL    HW269698   6.221   6.770   7.368
22753SOL     OW69699   5.919   6.994   6.649
22753SOL    HW169700   5.840   6.951   6.616
22753SOL    HW269701   5.945   7.052   6.578
22754SOL     OW69702   7.046   7.091   6.952
22754SOL    HW169703   7.099   7.169   6.964
22754SOL    HW269704   6.974   7.101   7.015
22755SOL     OW69705   6.037   5.970   7.062
22755SOL    HW169706   6.111   5.910   7.069
22755SOL    HW269707   5.960   5.917   7.083
22756SOL     OW69708   7.188   6.026   6.334
22756SOL    HW169709   7.115   6.035   6.272
22756SOL    HW269710   7.172   6.094   6.399
22757SOL     OW69711   5.802   7.306   6.051
22757SOL    HW169712   5.827   7.380   6.107
22757SOL    HW269713   5.875   7.295   5.991
22758SOL     OW69714   6.720   6.928   7.280
22758SOL    HW169715   6.760   6.922   7.367
22758SOL    HW269716   6.668   6.849   7.272
22759SOL     OW69717   5.835   7.030   6.139
22759SOL    HW169718   5.795   7.117   6.141
22759SOL    HW269719   5.779   6.977   6.196
22760SOL     OW69720   5.902   6.674   6.522
22760SOL    HW169721   5.870   6.584   6.532
22760SOL    HW269722   5.828   6.729   6.546
22761SOL     OW69723   6.192   7.367   7.026
22761SOL    HW169724   6.106   7.352   7.067
22761SOL    HW269725   6.212   7.458   7.045
22762SOL     OW69726   6.171   6.564   5.720
22762SOL    HW169727   6.220   6.615   5.654
22762SOL    HW269728   6.200   6.599   5.804
22763SOL     OW69729   7.187   5.715   7.049
22763SOL    HW169730   7.191   5.799   7.003
22763SOL    HW269731   7.156   5.738   7.137
22764SOL     OW69732   5.717   6.232   6.147
22764SOL    HW169733   5.671   6.149   6.161
22764SOL    HW269734   5.698   6.284   6.225
22765SOL     OW69735   7.438   7.331   5.907
22765SOL    HW169736   7.507   7.306   5.969
22765SOL    HW269737   7.451   7.425   5.894
22766SOL     OW69738   5.637   7.171   5.698
22766SOL    HW169739   5.610   7.080   5.713
22766SOL    HW269740   5.605   7.218   5.774
22767SOL     OW69741   7.282   6.510   6.234
22767SOL    HW169742   7.354   6.457   6.201
22767SOL    HW269743   7.252   6.561   6.158
22768SOL     OW69744   7.235   6.688   6.016
22768SOL    HW169745   7.321   6.686   5.974
22768SOL    HW269746   7.243   6.754   6.084
22769SOL     OW69747   5.704   6.328   7.173
22769SOL    HW169748   5.793   6.362   7.173
22769SOL    HW269749   5.649   6.405   7.156
22770SOL     OW69750   6.188   6.974   6.323
22770SOL    HW169751   6.139   6.892   6.318
22770SOL    HW269752   6.183   7.010   6.234
22771SOL     OW69753   6.872   6.822   7.000
22771SOL    HW169754   6.899   6.751   6.942
22771SOL    HW269755   6.929   6.813   7.077
22772SOL     OW69756   6.416   5.601   6.102
22772SOL    HW169757   6.451   5.686   6.077
22772SOL    HW269758   6.321   5.614   6.107
22773SOL     OW69759   5.779   6.537   6.884
22773SOL    HW169760   5.863   6.499   6.857
22773SOL    HW269761   5.716   6.504   6.819
22774SOL     OW69762   7.117   6.589   5.785
22774SOL    HW169763   7.048   6.531   5.816
22774SOL    HW269764   7.159   6.621   5.866
22775SOL     OW69765   6.789   7.406   7.221
22775SOL    HW169766   6.779   7.464   7.146
22775SOL    HW269767   6.799   7.318   7.183
22776SOL     OW69768   5.945   5.844   7.431
22776SOL    HW169769   5.977   5.929   7.461
22776SOL    HW269770   5.850   5.850   7.440
22777SOL     OW69771   7.047   7.005   6.531
22777SOL    HW169772   6.982   7.017   6.600
22777SOL    HW269773   7.035   6.914   6.503
22778SOL     OW69774   7.235   7.348   6.159
22778SOL    HW169775   7.212   7.311   6.073
22778SOL    HW269776   7.221   7.276   6.220
22779SOL     OW69777   6.176   6.302   5.863
22779SOL    HW169778   6.168   6.385   5.816
22779SOL    HW269779   6.108   6.307   5.931
22780SOL     OW69780   6.864   5.962   6.521
22780SOL    HW169781   6.775   5.925   6.526
22780SOL    HW269782   6.916   5.905   6.578
22781SOL     OW69783   7.164   7.265   5.899
22781SOL    HW169784   7.258   7.279   5.888
22781SOL    HW269785   7.131   7.248   5.811
22782SOL     OW69786   6.379   6.205   7.030
22782SOL    HW169787   6.357   6.176   7.118
22782SOL    HW269788   6.348   6.134   6.973
22783SOL     OW69789   6.983   6.063   7.263
22783SOL    HW169790   6.986   6.104   7.350
22783SOL    HW269791   7.029   5.980   7.275
22784SOL     OW69792   6.532   6.466   7.179
22784SOL    HW169793   6.586   6.399   7.138
22784SOL    HW269794   6.476   6.499   7.109
22785SOL     OW69795   6.586   5.995   6.806
22785SOL    HW169796   6.496   6.007   6.836
22785SOL    HW269797   6.578   5.936   6.731
22786SOL     OW69798   6.643   6.284   6.008
22786SOL    HW169799   6.662   6.274   6.101
22786SOL    HW269800   6.558   6.241   5.996
22787SOL     OW69801   5.679   6.399   6.359
22787SOL    HW169802   5.741   6.400   6.432
22787SOL    HW269803   5.618   6.470   6.378
22788SOL     OW69804   5.714   7.466   7.167
22788SOL    HW169805   5.713   7.442   7.259
22788SOL    HW269806   5.639   7.419   7.129
22789SOL     OW69807   6.473   5.940   5.787
22789SOL    HW169808   6.521   5.987   5.719
22789SOL    HW269809   6.433   5.866   5.742
22790SOL     OW69810   7.300   6.157   7.415
22790SOL    HW169811   7.262   6.231   7.368
22790SOL    HW269812   7.314   6.091   7.347
22791SOL     OW69813   6.970   6.731   6.128
22791SOL    HW169814   7.046   6.716   6.072
22791SOL    HW269815   6.915   6.791   6.077
22792SOL     OW69816   6.153   5.762   6.485
22792SOL    HW169817   6.148   5.796   6.574
22792SOL    HW269818   6.127   5.836   6.430
22793SOL     OW69819   6.585   7.036   6.053
22793SOL    HW169820   6.557   7.108   5.996
22793SOL    HW269821   6.550   7.060   6.140
22794SOL     OW69822   5.937   7.402   6.452
22794SOL    HW169823   5.979   7.317   6.463
22794SOL    HW269824   6.004   7.465   6.480
22795SOL     OW69825   7.389   6.644   6.456
22795SOL    HW169826   7.339   6.615   6.380
22795SOL    HW269827   7.325   6.647   6.527
22796SOL     OW69828   6.813   7.131   7.102
22796SOL    HW169829   6.799   7.057   7.161
22796SOL    HW269830   6.732   7.139   7.053
22797SOL     OW69831   5.901   6.537   5.851
22797SOL    HW169832   5.960   6.554   5.778
22797SOL    HW269833   5.859   6.453   5.829
22798SOL     OW69834   7.066   6.346   6.305
22798SOL    HW169835   7.065   6.297   6.388
22798SOL    HW269836   7.148   6.395   6.307
22799SOL     OW69837   6.059   6.859   7.320
22799SOL    HW169838   6.032   6.865   7.228
22799SOL    HW269839   5.977   6.850   7.369
22800SOL     OW69840   6.721   7.362   5.815
22800SOL    HW169841   6.639   7.331   5.854
22800SOL    HW269842   6.741   7.298   5.747
22801SOL     OW69843   5.779   5.854   7.095
22801SOL    HW169844   5.697   5.881   7.054
22801SOL    HW269845   5.764   5.765   7.124
22802SOL     OW69846   7.217   6.974   5.677
22802SOL    HW169847   7.172   7.057   5.664
22802SOL    HW269848   7.151   6.908   5.657
22803SOL     OW69849   6.046   7.329   5.898
22803SOL    HW169850   6.094   7.377   5.966
22803SOL    HW269851   6.114   7.284   5.848
22804SOL     OW69852   6.983   5.694   6.028
22804SOL    HW169853   6.975   5.666   5.937
22804SOL    HW269854   7.076   5.681   6.048
22805SOL     OW69855   5.852   7.382   6.804
22805SOL    HW169856   5.886   7.299   6.836
22805SOL    HW269857   5.804   7.359   6.724
22806SOL     OW69858   6.533   7.277   6.473
22806SOL    HW169859   6.619   7.237   6.475
22806SOL    HW269860   6.486   7.230   6.404
22807SOL     OW69861   5.988   6.271   6.069
22807SOL    HW169862   6.005   6.178   6.081
22807SOL    HW269863   5.893   6.279   6.080
22808SOL     OW69864   7.102   5.807   7.308
22808SOL    HW169865   7.113   5.826   7.401
22808SOL    HW269866   7.036   5.738   7.305
22809SOL     OW69867   6.240   5.701   5.684
22809SOL    HW169868   6.267   5.619   5.724
22809SOL    HW269869   6.180   5.674   5.614
22810SOL     OW69870   6.352   5.864   7.347
22810SOL    HW169871   6.433   5.813   7.340
22810SOL    HW269872   6.301   5.818   7.414
22811SOL     OW69873   6.467   7.118   6.787
22811SOL    HW169874   6.455   7.091   6.696
22811SOL    HW269875   6.535   7.059   6.821
22812SOL     OW69876   6.922   6.176   7.021
22812SOL    HW169877   6.953   6.144   7.105
22812SOL    HW269878   6.959   6.264   7.013
22813SOL     OW69879   6.384   6.925   6.516
22813SOL    HW169880   6.477   6.931   6.493
22813SOL    HW269881   6.339   6.969   6.445
22814SOL     OW69882   6.514   6.095   6.482
22814SOL    HW169883   6.491   6.085   6.389
22814SOL    HW269884   6.541   6.008   6.510
22815SOL     OW69885   6.150   5.655   6.082
22815SOL    HW169886   6.070   5.650   6.134
22815SOL    HW269887   6.136   5.728   6.022
22816SOL     OW69888   7.016   6.792   5.625
22816SOL    HW169889   7.043   6.716   5.675
22816SOL    HW269890   6.928   6.812   5.657
22817SOL     OW69891   5.872   5.645   5.770
22817SOL    HW169892   5.931   5.710   5.731
22817SOL    HW269893   5.931   5.582   5.812
22818SOL     OW69894   6.535   5.846   6.042
22818SOL    HW169895   6.509   5.877   5.955
22818SOL    HW269896   6.630   5.858   6.045
22819SOL     OW69897   6.663   6.275   7.034
22819SOL    HW169898   6.596   6.207   7.042
22819SOL    HW269899   6.746   6.227   7.032
22820SOL     OW69900   6.791   7.171   6.392
22820SOL    HW169901   6.808   7.231   6.319
22820SOL    HW269902   6.869   7.178   6.447
22821SOL     OW69903   6.070   6.729   6.323
22821SOL    HW169904   6.001   6.711   6.387
22821SOL    HW269905   6.027   6.722   6.238
22822SOL     OW69906   6.844   7.377   6.203
22822SOL    HW169907   6.890   7.439   6.147
22822SOL    HW269908   6.773   7.428   6.242
22823SOL     OW69909   6.616   6.113   5.610
22823SOL    HW169910   6.573   6.197   5.597
22823SOL    HW269911   6.675   6.127   5.685
22824SOL     OW69912   5.687   6.144   6.970
22824SOL    HW169913   5.779   6.145   6.946
22824SOL    HW269914   5.679   6.212   7.037
22825SOL     OW69915   6.150   5.817   6.759
22825SOL    HW169916   6.185   5.733   6.789
22825SOL    HW269917   6.058   5.815   6.786
22826SOL     OW69918   6.456   6.052   6.219
22826SOL    HW169919   6.409   6.101   6.152
22826SOL    HW269920   6.478   5.969   6.177
22827SOL     OW69921   6.607   5.638   6.323
22827SOL    HW169922   6.545   5.631   6.250
22827SOL    HW269923   6.583   5.565   6.381
22828SOL     OW69924   7.022   6.745   6.439
22828SOL    HW169925   6.954   6.677   6.447
22828SOL    HW269926   7.038   6.751   6.345
22829SOL     OW69927   7.052   6.193   6.543
22829SOL    HW169928   6.989   6.121   6.549
22829SOL    HW269929   7.106   6.185   6.622
22830SOL     OW69930   7.425   6.393   5.978
22830SOL    HW169931   7.484   6.342   6.035
22830SOL    HW269932   7.400   6.332   5.909
22831SOL     OW69933   6.075   7.008   5.736
22831SOL    HW169934   6.002   6.980   5.791
22831SOL    HW269935   6.062   6.960   5.654
22832SOL     OW69936   7.270   6.858   6.218
22832SOL    HW169937   7.364   6.855   6.238
22832SOL    HW269938   7.242   6.945   6.246
22833SOL     OW69939   6.980   6.156   5.659
22833SOL    HW169940   6.913   6.136   5.725
22833SOL    HW269941   7.060   6.116   5.692
22834SOL     OW69942   6.118   5.851   5.891
22834SOL    HW169943   6.163   5.804   5.821
22834SOL    HW269944   6.085   5.931   5.850
22835SOL     OW69945   7.328   6.830   7.136
22835SOL    HW169946   7.415   6.792   7.125
22835SOL    HW269947   7.345   6.918   7.170
22836SOL     OW69948   6.645   6.936   6.904
22836SOL    HW169949   6.568   6.909   6.954
22836SOL    HW269950   6.719   6.899   6.952
22837SOL     OW69951   7.199   7.222   7.252
22837SOL    HW169952   7.187   7.254   7.162
22837SOL    HW269953   7.277   7.166   7.246
22838SOL     OW69954   6.697   6.773   6.687
22838SOL    HW169955   6.662   6.830   6.755
22838SOL    HW269956   6.680   6.820   6.605
22839SOL     OW69957   7.208   6.682   6.660
22839SOL    HW169958   7.199   6.744   6.732
22839SOL    HW269959   7.131   6.698   6.605
22840SOL     OW69960   6.499   5.684   6.973
22840SOL    HW169961   6.522   5.661   6.883
22840SOL    HW269962   6.580   5.718   7.011
22841SOL     OW69963   6.568   6.700   7.308
22841SOL    HW169964   6.478   6.715   7.337
22841SOL    HW269965   6.564   6.619   7.258
22842SOL     OW69966   6.302   6.655   5.953
22842SOL    HW169967   6.286   6.631   6.044
22842SOL    HW269968   6.377   6.600   5.927
22843SOL     OW69969   6.024   6.408   6.832
22843SOL    HW169970   6.083   6.416   6.906
22843SOL    HW269971   5.989   6.319   6.838
22844SOL     OW69972   6.851   5.960   6.867
22844SOL    HW169973   6.880   6.038   6.914
22844SOL    HW269974   6.760   5.980   6.842
22845SOL     OW69975   5.659   7.167   6.959
22845SOL    HW169976   5.620   7.223   6.893
22845SOL    HW269977   5.752   7.162   6.934
22846SOL     OW69978   5.955   6.706   6.075
22846SOL    HW169979   5.930   6.780   6.020
22846SOL    HW269980   5.940   6.629   6.019
22847SOL     OW69981   6.135   6.115   6.445
22847SOL    HW169982   6.149   6.172   6.369
22847SOL    HW269983   6.208   6.134   6.504
22848SOL     OW69984   6.832   6.937   5.981
22848SOL    HW169985   6.888   7.008   6.014
22848SOL    HW269986   6.744   6.960   6.011
22849SOL     OW69987   6.877   7.050   6.743
22849SOL    HW169988   6.939   7.058   6.815
22849SOL    HW269989   6.805   6.997   6.779
22850SOL     OW69990   7.159   6.205   6.072
22850SOL    HW169991   7.107   6.246   6.141
22850SOL    HW269992   7.188   6.278   6.018
22851SOL     OW69993   5.927   7.124   6.885
22851SOL    HW169994   5.913   7.071   6.806
22851SOL    HW269995   6.022   7.130   6.893
22852SOL     OW69996   5.996   6.330   7.190
22852SOL    HW169997   6.064   6.369   7.136
22852SOL    HW269998   6.020   6.237   7.195
22853SOL     OW69999   7.204   6.371   7.278
22853SOL    HW170000   7.116   6.409   7.271
22853SOL    HW270001   7.252   6.410   7.205
22854SOL     OW70002   6.584   5.723   7.336
22854SOL    HW170003   6.647   5.791   7.313
22854SOL    HW270004   6.631   5.641   7.319
22855SOL     OW70005   6.083   5.624   7.340
22855SOL    HW170006   6.031   5.569   7.281
22855SOL    HW270007   6.028   5.702   7.354
22856SOL     OW70008   6.160   6.535   6.622
22856SOL    HW170009   6.086   6.518   6.564
22856SOL    HW270010   6.134   6.497   6.706
22857SOL     OW70011   6.926   6.441   6.599
22857SOL    HW170012   6.839   6.422   6.566
22857SOL    HW270013   6.975   6.360   6.587
22858SOL     OW70014   6.781   6.112   5.842
22858SOL    HW170015   6.791   6.035   5.897
22858SOL    HW270016   6.738   6.176   5.899
22859SOL     OW70017   5.891   5.785   6.832
22859SOL    HW170018   5.843   5.805   6.912
22859SOL    HW270019   5.880   5.691   6.820
22860SOL     OW70020   5.673   6.901   6.859
22860SOL    HW170021   5.681   6.841   6.933
22860SOL    HW270022   5.639   6.982   6.897
22861SOL     OW70023   6.320   6.217   6.631
22861SOL    HW170024   6.393   6.180   6.581
22861SOL    HW270025   6.301   6.300   6.588
22862SOL     OW70026   7.329   6.552   7.447
22862SOL    HW170027   7.291   6.480   7.397
22862SOL    HW270028   7.266   6.568   7.518
22863SOL     OW70029   5.908   5.655   6.207
22863SOL    HW170030   5.870   5.741   6.229
22863SOL    HW270031   5.909   5.607   6.290
22864SOL     OW70032   7.219   5.971   5.940
22864SOL    HW170033   7.246   5.902   6.002
22864SOL    HW270034   7.190   6.043   5.996
22865SOL     OW70035   6.622   6.343   6.542
22865SOL    HW170036   6.608   6.360   6.635
22865SOL    HW270037   6.593   6.252   6.530
22866SOL     OW70038   6.575   7.160   7.311
22866SOL    HW170039   6.553   7.198   7.226
22866SOL    HW270040   6.607   7.073   7.291
22867SOL     OW70041   7.433   7.085   7.191
22867SOL    HW170042   7.455   7.113   7.102
22867SOL    HW270043   7.515   7.096   7.240
22868SOL     OW70044   5.940   6.506   7.395
22868SOL    HW170045   6.020   6.515   7.447
22868SOL    HW270046   5.962   6.440   7.329
22869SOL     OW70047   7.109   5.861   5.709
22869SOL    HW170048   7.050   5.792   5.739
22869SOL    HW270049   7.148   5.896   5.790
22870SOL     OW70050   6.874   6.409   5.614
22870SOL    HW170051   6.913   6.322   5.620
22870SOL    HW270052   6.906   6.444   5.532
22871SOL     OW70053   6.651   6.932   6.458
22871SOL    HW170054   6.661   6.859   6.397
22871SOL    HW270055   6.705   7.002   6.422
22872SOL     OW70056   5.910   6.387   6.522
22872SOL    HW170057   5.952   6.354   6.443
22872SOL    HW270058   5.896   6.310   6.576
22873SOL     OW70059   5.926   6.116   6.609
22873SOL    HW170060   5.879   6.034   6.596
22873SOL    HW270061   5.999   6.113   6.547
22874SOL     OW70062   6.724   5.961   7.265
22874SOL    HW170063   6.674   6.009   7.331
22874SOL    HW270064   6.809   6.004   7.264
22875SOL     OW70065   6.743   5.783   7.054
22875SOL    HW170066   6.732   5.845   7.126
22875SOL    HW270067   6.787   5.833   6.986
22876SOL     OW70068   5.605   6.894   5.769
22876SOL    HW170069   5.516   6.913   5.741
22876SOL    HW270070   5.599   6.812   5.817
22877SOL     OW70071   5.678   7.362   6.537
22877SOL    HW170072   5.641   7.288   6.490
22877SOL    HW270073   5.763   7.376   6.496
22878SOL     OW70074   6.074   7.166   6.488
22878SOL    HW170075   6.145   7.227   6.507
22878SOL    HW270076   6.113   7.103   6.427
22879SOL     OW70077   6.546   6.376   6.805
22879SOL    HW170078   6.605   6.354   6.877
22879SOL    HW270079   6.467   6.324   6.822
22880SOL     OW70080   5.619   6.153   6.698
22880SOL    HW170081   5.670   6.091   6.646
22880SOL    HW270082   5.654   6.143   6.787
22881SOL     OW70083   5.762   6.092   7.309
22881SOL    HW170084   5.792   6.030   7.242
22881SOL    HW270085   5.743   6.172   7.260
22882SOL     OW70086   6.971   6.514   7.243
22882SOL    HW170087   6.989   6.608   7.238
22882SOL    HW270088   6.965   6.486   7.151
22883SOL     OW70089   6.404   6.163   5.953
22883SOL    HW170090   6.408   6.085   5.898
22883SOL    HW270091   6.326   6.210   5.923
22884SOL     OW70092   7.223   6.190   6.761
22884SOL    HW170093   7.214   6.128   6.833
22884SOL    HW270094   7.312   6.174   6.727
22885SOL     OW70095   5.827   7.131   7.311
22885SOL    HW170096   5.800   7.189   7.382
22885SOL    HW270097   5.832   7.044   7.352
22886SOL     OW70098   6.310   6.030   6.835
22886SOL    HW170099   6.252   5.956   6.819
22886SOL    HW270100   6.291   6.091   6.764
22887SOL     OW70101   6.524   7.256   7.051
22887SOL    HW170102   6.487   7.216   6.972
22887SOL    HW270103   6.509   7.350   7.040
22888SOL     OW70104   6.042   6.078   5.758
22888SOL    HW170105   6.099   6.150   5.788
22888SOL    HW270106   5.955   6.117   5.752
22889SOL     OW70107   5.728   6.728   7.070
22889SOL    HW170108   5.729   6.685   7.156
22889SOL    HW270109   5.745   6.657   7.008
22890SOL     OW70110   6.897   6.624   6.800
22890SOL    HW170111   6.919   6.560   6.731
22890SOL    HW270112   6.824   6.674   6.764
22891SOL     OW70113   6.905   6.443   5.889
22891SOL    HW170114   6.833   6.407   5.942
22891SOL    HW270115   6.878   6.429   5.798
22892SOL     OW70116   7.374   7.318   6.748
22892SOL    HW170117   7.434   7.342   6.677
22892SOL    HW270118   7.341   7.232   6.724
22893SOL     OW70119   6.829   7.320   6.694
22893SOL    HW170120   6.911   7.344   6.651
22893SOL    HW270121   6.839   7.227   6.714
22894SOL     OW70122   5.695   6.838   6.596
22894SOL    HW170123   5.674   6.859   6.687
22894SOL    HW270124   5.613   6.805   6.560
22895SOL     OW70125   6.261   7.264   7.328
22895SOL    HW170126   6.194   7.332   7.324
22895SOL    HW270127   6.320   7.284   7.255
22896SOL     OW70128   7.322   5.752   6.090
22896SOL    HW170129   7.387   5.732   6.023
22896SOL    HW270130   7.299   5.667   6.127
22897SOL     OW70131   6.982   7.155   6.086
22897SOL    HW170132   7.034   7.190   6.014
22897SOL    HW270133   6.926   7.228   6.113
22898SOL     OW70134   5.724   7.386   7.425
22898SOL    HW170135   5.677   7.315   7.469
22898SOL    HW270136   5.771   7.431   7.496
22899SOL     OW70137   6.862   6.522   6.261
22899SOL    HW170138   6.934   6.461   6.273
22899SOL    HW270139   6.896   6.590   6.205
22900SOL     OW70140   6.396   6.869   7.008
22900SOL    HW170141   6.375   6.906   7.093
22900SOL    HW270142   6.318   6.883   6.955
22901SOL     OW70143   6.254   7.212   5.741
22901SOL    HW170144   6.264   7.228   5.647
22901SOL    HW270145   6.198   7.135   5.746
22902SOL     OW70146   7.205   7.315   6.982
22902SOL    HW170147   7.261   7.317   6.904
22902SOL    HW270148   7.189   7.407   7.003
22903SOL     OW70149   7.436   5.755   6.551
22903SOL    HW170150   7.461   5.664   6.530
22903SOL    HW270151   7.348   5.764   6.515
22904SOL     OW70152   5.835   5.906   6.300
22904SOL    HW170153   5.747   5.932   6.272
22904SOL    HW270154   5.829   5.898   6.395
22905SOL     OW70155   6.796   7.182   5.621
22905SOL    HW170156   6.783   7.091   5.649
22905SOL    HW270157   6.729   7.196   5.554
22906SOL     OW70158   6.410   6.591   6.966
22906SOL    HW170159   6.472   6.572   6.895
22906SOL    HW270160   6.415   6.686   6.977
22907SOL     OW70161   6.513   6.505   5.882
22907SOL    HW170162   6.573   6.537   5.814
22907SOL    HW270163   6.559   6.431   5.922
22908SOL     OW70164   7.071   7.225   5.636
22908SOL    HW170165   6.978   7.208   5.621
22908SOL    HW270166   7.109   7.228   5.549
22909SOL     OW70167   5.954   6.894   7.072
22909SOL    HW170168   5.932   6.971   7.019
22909SOL    HW270169   5.879   6.835   7.062
22910SOL     OW70170   7.193   6.873   6.866
22910SOL    HW170171   7.246   6.850   6.943
22910SOL    HW270172   7.131   6.938   6.899
22911SOL     OW70173   6.652   6.703   6.313
22911SOL    HW170174   6.568   6.657   6.304
22911SOL    HW270175   6.718   6.638   6.288
22912SOL     OW70176   6.614   5.826   6.547
22912SOL    HW170177   6.608   5.782   6.463
22912SOL    HW270178   6.605   5.757   6.612
22913SOL     OW70179   6.198   7.076   6.071
22913SOL    HW170180   6.244   7.027   6.002
22913SOL    HW270181   6.110   7.090   6.037
22914SOL     OW70182   7.315   5.981   6.961
22914SOL    HW170183   7.388   6.042   6.960
22914SOL    HW270184   7.343   5.908   6.907
22915SOL     OW70185   5.863   6.926   5.894
22915SOL    HW170186   5.775   6.916   5.858
22915SOL    HW270187   5.850   6.968   5.978
22916SOL     OW70188   5.706   6.636   7.329
22916SOL    HW170189   5.629   6.602   7.373
22916SOL    HW270190   5.778   6.583   7.363
22917SOL     OW70191   6.260   5.787   7.087
22917SOL    HW170192   6.342   5.759   7.045
22917SOL    HW270193   6.287   5.815   7.175
22918SOL     OW70194   5.668   5.901   5.618
22918SOL    HW170195   5.583   5.858   5.606
22918SOL    HW270196   5.652   5.993   5.596
22919SOL     OW70197   7.008   6.445   6.981
22919SOL    HW170198   6.955   6.502   6.926
22919SOL    HW270199   7.095   6.446   6.941
22920SOL     OW70200   5.645   5.736   5.890
22920SOL    HW170201   5.631   5.819   5.843
22920SOL    HW270202   5.728   5.704   5.855
22921SOL     OW70203   6.761   6.918   5.703
22921SOL    HW170204   6.668   6.893   5.700
22921SOL    HW270205   6.783   6.915   5.796
22922SOL     OW70206   6.206   6.417   7.030
22922SOL    HW170207   6.265   6.491   7.014
22922SOL    HW270208   6.264   6.341   7.034
22923SOL     OW70209   7.069   7.378   6.572
22923SOL    HW170210   7.089   7.446   6.508
22923SOL    HW270211   7.154   7.342   6.597
22924SOL     OW70212   6.320   6.135   7.282
22924SOL    HW170213   6.358   6.187   7.352
22924SOL    HW270214   6.326   6.045   7.312
22925SOL     OW70215   7.057   6.777   7.213
22925SOL    HW170216   7.047   6.794   7.306
22925SOL    HW270217   7.149   6.798   7.195
22926SOL     OW70218   5.955   7.327   7.158
22926SOL    HW170219   5.874   7.374   7.136
22926SOL    HW270220   5.925   7.245   7.197
22927SOL     OW70221   7.247   6.463   6.841
22927SOL    HW170222   7.243   6.377   6.800
22927SOL    HW270223   7.238   6.525   6.769
22928SOL     OW70224   6.810   5.913   6.039
22928SOL    HW170225   6.866   5.835   6.034
22928SOL    HW270226   6.841   5.960   6.116
22929SOL     OW70227   6.159   6.337   6.274
22929SOL    HW170228   6.210   6.410   6.238
22929SOL    HW270229   6.099   6.312   6.204
22930SOL     OW70230   7.331   5.951   7.235
22930SOL    HW170231   7.316   5.967   7.142
22930SOL    HW270232   7.260   5.891   7.260
22931SOL     OW70233   7.345   6.517   7.093
22931SOL    HW170234   7.321   6.608   7.107
22931SOL    HW270235   7.320   6.499   7.002
22932SOL     OW70236   6.462   6.951   5.642
22932SOL    HW170237   6.416   6.968   5.724
22932SOL    HW270238   6.462   7.035   5.596
22933SOL     OW70239   6.253   7.370   6.514
22933SOL    HW170240   6.230   7.462   6.501
22933SOL    HW270241   6.349   7.368   6.508
22934SOL     OW70242   6.420   6.552   6.477
22934SOL    HW170243   6.502   6.504   6.483
22934SOL    HW270244   6.367   6.517   6.549
22935SOL     OW70245   6.674   6.585   5.679
22935SOL    HW170246   6.646   6.630   5.600
22935SOL    HW270247   6.741   6.524   5.650
22936SOL     OW70248   7.430   7.141   6.425
22936SOL    HW170249   7.348   7.130   6.377
22936SOL    HW270250   7.427   7.075   6.493
22937SOL     OW70251   5.804   6.877   7.429
22937SOL    HW170252   5.767   6.799   7.387
22937SOL    HW270253   5.749   6.891   7.507
22938SOL     OW70254   5.689   6.816   6.260
22938SOL    HW170255   5.648   6.765   6.330
22938SOL    HW270256   5.716   6.752   6.195
22939SOL     OW70257   6.280   6.998   7.222
22939SOL    HW170258   6.201   6.953   7.251
22939SOL    HW270259   6.272   7.086   7.260
22940SOL     OW70260   7.408   5.771   6.822
22940SOL    HW170261   7.393   5.678   6.839
22940SOL    HW270262   7.418   5.776   6.727
22941SOL     OW70263   6.028   6.012   6.122
22941SOL    HW170264   6.046   5.942   6.059
22941SOL    HW270265   5.964   5.973   6.183
22942SOL     OW70266   7.276   7.073   6.678
22942SOL    HW170267   7.198   7.054   6.625
22942SOL    HW270268   7.278   7.005   6.744
22943SOL     OW70269   5.942   6.152   6.881
22943SOL    HW170270   5.985   6.085   6.934
22943SOL    HW270271   5.945   6.119   6.792
22944SOL     OW70272   6.416   7.178   6.244
22944SOL    HW170273   6.412   7.263   6.201
22944SOL    HW270274   6.338   7.132   6.213
22945SOL     OW70275   7.010   5.813   6.697
22945SOL    HW170276   7.007   5.720   6.721
22945SOL    HW270277   6.963   5.858   6.766
22946SOL     OW70278   6.593   5.606   6.719
22946SOL    HW170279   6.531   5.540   6.687
22946SOL    HW270280   6.678   5.562   6.720
22947SOL     OW70281   6.362   6.923   5.906
22947SOL    HW170282   6.332   6.832   5.912
22947SOL    HW270283   6.443   6.925   5.957
22948SOL     OW70284   6.208   7.135   6.878
22948SOL    HW170285   6.203   7.215   6.931
22948SOL    HW270286   6.297   7.136   6.842
22949SOL     OW70287   6.950   5.635   5.758
22949SOL    HW170288   6.987   5.560   5.711
22949SOL    HW270289   6.859   5.609   5.776
22950SOL     OW70290   6.894   6.054   6.264
22950SOL    HW170291   6.838   6.131   6.263
22950SOL    HW270292   6.881   6.016   6.350
22951SOL     OW70293   7.178   5.780   6.475
22951SOL    HW170294   7.119   5.802   6.547
22951SOL    HW270295   7.173   5.855   6.416
22952SOL     OW70296   5.656   6.654   5.913
22952SOL    HW170297   5.745   6.634   5.885
22952SOL    HW270298   5.616   6.569   5.929
22953SOL     OW70299   6.480   7.249   5.911
22953SOL    HW170300   6.403   7.231   5.857
22953SOL    HW270301   6.448   7.311   5.977
22954SOL     OW70302   5.810   6.211   7.571
22954SOL    HW170303   5.724   6.203   7.613
22954SOL    HW270304   5.795   6.184   7.481
22955SOL     OW70305   5.809   5.878   8.444
22955SOL    HW170306   5.840   5.839   8.526
22955SOL    HW270307   5.724   5.837   8.429
22956SOL     OW70308   5.577   5.976   8.086
22956SOL    HW170309   5.496   6.005   8.128
22956SOL    HW270310   5.552   5.894   8.042
22957SOL     OW70311   6.142   6.880   8.617
22957SOL    HW170312   6.058   6.910   8.580
22957SOL    HW270313   6.169   6.952   8.675
22958SOL     OW70314   7.161   7.109   8.161
22958SOL    HW170315   7.118   7.077   8.239
22958SOL    HW270316   7.092   7.111   8.094
22959SOL     OW70317   6.725   6.280   8.138
22959SOL    HW170318   6.768   6.365   8.128
22959SOL    HW270319   6.675   6.289   8.219
22960SOL     OW70320   7.374   6.184   7.671
22960SOL    HW170321   7.344   6.178   7.581
22960SOL    HW270322   7.333   6.109   7.715
22961SOL     OW70323   6.321   6.718   8.492
22961SOL    HW170324   6.254   6.757   8.548
22961SOL    HW270325   6.368   6.793   8.455
22962SOL     OW70326   6.471   6.346   9.273
22962SOL    HW170327   6.448   6.418   9.332
22962SOL    HW270328   6.489   6.388   9.189
22963SOL     OW70329   6.272   6.583   8.089
22963SOL    HW170330   6.338   6.575   8.159
22963SOL    HW270331   6.204   6.638   8.127
22964SOL     OW70332   6.302   6.737   9.279
22964SOL    HW170333   6.354   6.814   9.304
22964SOL    HW270334   6.228   6.773   9.229
22965SOL     OW70335   5.911   7.005   8.512
22965SOL    HW170336   5.838   6.960   8.468
22965SOL    HW270337   5.956   7.052   8.442
22966SOL     OW70338   7.046   7.112   8.779
22966SOL    HW170339   7.083   7.181   8.835
22966SOL    HW270340   6.999   7.055   8.840
22967SOL     OW70341   6.037   5.972   8.922
22967SOL    HW170342   6.111   5.912   8.929
22967SOL    HW270343   5.960   5.919   8.942
22968SOL     OW70344   7.185   6.026   8.198
22968SOL    HW170345   7.113   6.034   8.136
22968SOL    HW270346   7.168   6.094   8.263
22969SOL     OW70347   5.802   7.310   7.913
22969SOL    HW170348   5.829   7.382   7.971
22969SOL    HW270349   5.876   7.298   7.854
22970SOL     OW70350   6.741   6.921   9.150
22970SOL    HW170351   6.761   6.909   9.243
22970SOL    HW270352   6.686   6.846   9.127
22971SOL     OW70353   5.824   7.037   7.988
22971SOL    HW170354   5.795   7.128   7.994
22971SOL    HW270355   5.768   6.990   8.051
22972SOL     OW70356   5.862   6.677   8.341
22972SOL    HW170357   5.861   6.587   8.374
22972SOL    HW270358   5.802   6.724   8.399
22973SOL     OW70359   6.175   7.390   8.872
22973SOL    HW170360   6.097   7.367   8.922
22973SOL    HW270361   6.199   7.477   8.904
22974SOL     OW70362   6.161   6.571   7.591
22974SOL    HW170363   6.211   6.614   7.522
22974SOL    HW270364   6.199   6.602   7.673
22975SOL     OW70365   7.189   5.714   8.907
22975SOL    HW170366   7.190   5.798   8.861
22975SOL    HW270367   7.159   5.735   8.995
22976SOL     OW70368   5.702   6.241   8.006
22976SOL    HW170369   5.670   6.153   8.027
22976SOL    HW270370   5.696   6.289   8.088
22977SOL     OW70371   7.424   7.336   7.768
22977SOL    HW170372   7.477   7.315   7.844
22977SOL    HW270373   7.444   7.428   7.750
22978SOL     OW70374   5.635   7.173   7.565
22978SOL    HW170375   5.613   7.082   7.581
22978SOL    HW270376   5.604   7.220   7.642
22979SOL     OW70377   7.285   6.514   8.092
22979SOL    HW170378   7.348   6.456   8.051
22979SOL    HW270379   7.250   6.566   8.020
22980SOL     OW70380   7.236   6.690   7.875
22980SOL    HW170381   7.321   6.685   7.833
22980SOL    HW270382   7.244   6.759   7.940
22981SOL     OW70383   5.709   6.327   9.031
22981SOL    HW170384   5.797   6.362   9.031
22981SOL    HW270385   5.652   6.403   9.021
22982SOL     OW70386   6.205   6.979   8.175
22982SOL    HW170387   6.159   6.895   8.184
22982SOL    HW270388   6.186   7.007   8.085
22983SOL     OW70389   6.975   6.845   8.851
22983SOL    HW170390   6.927   6.778   8.802
22983SOL    HW270391   6.981   6.811   8.940
22984SOL     OW70392   6.415   5.599   7.967
22984SOL    HW170393   6.451   5.683   7.939
22984SOL    HW270394   6.320   5.613   7.970
22985SOL     OW70395   5.772   6.543   8.732
22985SOL    HW170396   5.859   6.508   8.718
22985SOL    HW270397   5.715   6.492   8.674
22986SOL     OW70398   7.119   6.588   7.646
22986SOL    HW170399   7.049   6.530   7.675
22986SOL    HW270400   7.158   6.621   7.727
22987SOL     OW70401   6.784   7.398   9.082
22987SOL    HW170402   6.775   7.453   9.004
22987SOL    HW270403   6.794   7.309   9.047
22988SOL     OW70404   5.930   5.832   9.300
22988SOL    HW170405   5.967   5.920   9.309
22988SOL    HW270406   5.836   5.844   9.310
22989SOL     OW70407   7.065   6.995   8.392
22989SOL    HW170408   6.992   7.016   8.450
22989SOL    HW270409   7.046   6.907   8.360
22990SOL     OW70410   7.237   7.352   8.016
22990SOL    HW170411   7.209   7.315   7.932
22990SOL    HW270412   7.221   7.283   8.080
22991SOL     OW70413   6.178   6.299   7.722
22991SOL    HW170414   6.176   6.384   7.679
22991SOL    HW270415   6.112   6.305   7.791
22992SOL     OW70416   6.867   5.961   8.384
22992SOL    HW170417   6.777   5.927   8.388
22992SOL    HW270418   6.917   5.903   8.442
22993SOL     OW70419   7.155   7.275   7.757
22993SOL    HW170420   7.249   7.289   7.746
22993SOL    HW270421   7.124   7.253   7.669
22994SOL     OW70422   6.384   6.199   8.896
22994SOL    HW170423   6.356   6.171   8.983
22994SOL    HW270424   6.351   6.131   8.837
22995SOL     OW70425   6.989   6.066   9.141
22995SOL    HW170426   7.010   6.107   9.225
22995SOL    HW270427   7.036   5.982   9.144
22996SOL     OW70428   6.538   6.471   9.032
22996SOL    HW170429   6.591   6.402   8.993
22996SOL    HW270430   6.488   6.508   8.959
22997SOL     OW70431   6.586   5.989   8.675
22997SOL    HW170432   6.497   6.007   8.703
22997SOL    HW270433   6.576   5.944   8.590
22998SOL     OW70434   6.642   6.288   7.870
22998SOL    HW170435   6.660   6.278   7.963
22998SOL    HW270436   6.558   6.243   7.857
22999SOL     OW70437   5.680   6.409   8.223
22999SOL    HW170438   5.759   6.399   8.276
22999SOL    HW270439   5.634   6.484   8.262
23000SOL     OW70440   5.711   7.462   9.031
23000SOL    HW170441   5.711   7.443   9.125
23000SOL    HW270442   5.635   7.416   8.996
23001SOL     OW70443   6.476   5.939   7.646
23001SOL    HW170444   6.524   5.989   7.580
23001SOL    HW270445   6.442   5.863   7.598
23002SOL     OW70446   7.386   6.167   9.239
23002SOL    HW170447   7.320   6.235   9.227
23002SOL    HW270448   7.355   6.093   9.187
23003SOL     OW70449   6.974   6.733   7.998
23003SOL    HW170450   7.047   6.719   7.938
23003SOL    HW270451   6.915   6.792   7.950
23004SOL     OW70452   6.147   5.761   8.348
23004SOL    HW170453   6.145   5.794   8.438
23004SOL    HW270454   6.135   5.839   8.294
23005SOL     OW70455   6.585   7.034   7.913
23005SOL    HW170456   6.557   7.109   7.860
23005SOL    HW270457   6.554   7.053   8.001
23006SOL     OW70458   5.940   7.399   8.322
23006SOL    HW170459   5.982   7.313   8.326
23006SOL    HW270460   6.010   7.461   8.343
23007SOL     OW70461   7.393   6.651   8.308
23007SOL    HW170462   7.342   6.617   8.234
23007SOL    HW270463   7.330   6.652   8.381
23008SOL     OW70464   6.813   7.131   8.979
23008SOL    HW170465   6.807   7.055   9.037
23008SOL    HW270466   6.760   7.106   8.903
23009SOL     OW70467   5.893   6.546   7.705
23009SOL    HW170468   5.975   6.564   7.658
23009SOL    HW270469   5.866   6.460   7.673
23010SOL     OW70470   7.070   6.342   8.165
23010SOL    HW170471   7.063   6.296   8.248
23010SOL    HW270472   7.150   6.395   8.173
23011SOL     OW70473   6.053   6.865   9.194
23011SOL    HW170474   6.029   6.870   9.101
23011SOL    HW270475   5.970   6.851   9.239
23012SOL     OW70476   6.721   7.364   7.675
23012SOL    HW170477   6.641   7.332   7.717
23012SOL    HW270478   6.741   7.298   7.609
23013SOL     OW70479   5.785   5.854   8.957
23013SOL    HW170480   5.699   5.892   8.940
23013SOL    HW270481   5.766   5.765   8.987
23014SOL     OW70482   7.224   6.975   7.544
23014SOL    HW170483   7.178   7.058   7.528
23014SOL    HW270484   7.158   6.907   7.524
23015SOL     OW70485   6.045   7.329   7.760
23015SOL    HW170486   6.093   7.375   7.829
23015SOL    HW270487   6.113   7.284   7.710
23016SOL     OW70488   6.981   5.692   7.889
23016SOL    HW170489   6.971   5.665   7.798
23016SOL    HW270490   7.075   5.682   7.907
23017SOL     OW70491   5.847   7.375   8.669
23017SOL    HW170492   5.891   7.299   8.707
23017SOL    HW270493   5.831   7.351   8.578
23018SOL     OW70494   6.517   7.290   8.330
23018SOL    HW170495   6.532   7.228   8.401
23018SOL    HW270496   6.489   7.236   8.256
23019SOL     OW70497   5.982   6.276   7.921
23019SOL    HW170498   5.998   6.183   7.935
23019SOL    HW270499   5.888   6.287   7.938
23020SOL     OW70500   7.106   5.800   9.161
23020SOL    HW170501   7.126   5.811   9.254
23020SOL    HW270502   7.030   5.743   9.159
23021SOL     OW70503   6.241   5.697   7.548
23021SOL    HW170504   6.281   5.616   7.579
23021SOL    HW270505   6.183   5.670   7.477
23022SOL     OW70506   6.351   5.864   9.207
23022SOL    HW170507   6.433   5.814   9.202
23022SOL    HW270508   6.301   5.821   9.277
23023SOL     OW70509   6.429   7.162   8.575
23023SOL    HW170510   6.405   7.092   8.514
23023SOL    HW270511   6.490   7.120   8.636
23024SOL     OW70512   6.926   6.170   8.889
23024SOL    HW170513   6.956   6.144   8.976
23024SOL    HW270514   6.958   6.259   8.879
23025SOL     OW70515   6.398   6.971   8.382
23025SOL    HW170516   6.485   6.957   8.344
23025SOL    HW270517   6.339   6.968   8.307
23026SOL     OW70518   6.519   6.097   8.342
23026SOL    HW170519   6.493   6.087   8.251
23026SOL    HW270520   6.543   6.008   8.371
23027SOL     OW70521   6.149   5.652   7.943
23027SOL    HW170522   6.068   5.648   7.994
23027SOL    HW270523   6.136   5.725   7.883
23028SOL     OW70524   7.020   6.794   7.488
23028SOL    HW170525   7.047   6.716   7.537
23028SOL    HW270526   6.932   6.814   7.520
23029SOL     OW70527   5.875   5.645   7.632
23029SOL    HW170528   5.939   5.697   7.584
23029SOL    HW270529   5.927   5.578   7.677
23030SOL     OW70530   6.534   5.843   7.901
23030SOL    HW170531   6.508   5.874   7.814
23030SOL    HW270532   6.628   5.857   7.905
23031SOL     OW70533   6.665   6.269   8.903
23031SOL    HW170534   6.592   6.207   8.907
23031SOL    HW270535   6.743   6.214   8.903
23032SOL     OW70536   6.825   7.140   8.229
23032SOL    HW170537   6.829   7.219   8.175
23032SOL    HW270538   6.848   7.171   8.317
23033SOL     OW70539   6.060   6.745   8.168
23033SOL    HW170540   5.998   6.722   8.236
23033SOL    HW270541   6.012   6.732   8.086
23034SOL     OW70542   6.849   7.378   8.065
23034SOL    HW170543   6.887   7.445   8.008
23034SOL    HW270544   6.773   7.420   8.105
23035SOL     OW70545   6.617   6.112   7.474
23035SOL    HW170546   6.571   6.194   7.459
23035SOL    HW270547   6.675   6.130   7.548
23036SOL     OW70548   5.679   6.138   8.836
23036SOL    HW170549   5.771   6.139   8.810
23036SOL    HW270550   5.673   6.205   8.904
23037SOL     OW70551   6.147   5.816   8.622
23037SOL    HW170552   6.183   5.735   8.657
23037SOL    HW270553   6.055   5.814   8.648
23038SOL     OW70554   6.457   6.046   8.083
23038SOL    HW170555   6.408   6.101   8.021
23038SOL    HW270556   6.478   5.967   8.033
23039SOL     OW70557   6.607   5.637   8.185
23039SOL    HW170558   6.545   5.632   8.113
23039SOL    HW270559   6.582   5.565   8.243
23040SOL     OW70560   7.019   6.741   8.296
23040SOL    HW170561   6.948   6.680   8.318
23040SOL    HW270562   7.017   6.746   8.200
23041SOL     OW70563   7.050   6.194   8.403
23041SOL    HW170564   6.986   6.123   8.410
23041SOL    HW270565   7.102   6.187   8.483
23042SOL     OW70566   7.428   6.393   7.841
23042SOL    HW170567   7.485   6.341   7.898
23042SOL    HW270568   7.401   6.333   7.772
23043SOL     OW70569   6.075   7.009   7.598
23043SOL    HW170570   6.001   6.979   7.650
23043SOL    HW270571   6.069   6.959   7.517
23044SOL     OW70572   7.278   6.871   8.064
23044SOL    HW170573   7.369   6.872   8.092
23044SOL    HW270574   7.240   6.951   8.102
23045SOL     OW70575   6.980   6.154   7.522
23045SOL    HW170576   6.912   6.137   7.587
23045SOL    HW270577   7.056   6.106   7.553
23046SOL     OW70578   6.119   5.849   7.754
23046SOL    HW170579   6.166   5.801   7.685
23046SOL    HW270580   6.089   5.929   7.712
23047SOL     OW70581   7.333   6.829   8.999
23047SOL    HW170582   7.420   6.790   8.988
23047SOL    HW270583   7.350   6.917   9.032
23048SOL     OW70584   7.207   7.221   9.124
23048SOL    HW170585   7.197   7.258   9.036
23048SOL    HW270586   7.283   7.163   9.117
23049SOL     OW70587   6.705   6.786   8.558
23049SOL    HW170588   6.669   6.845   8.625
23049SOL    HW270589   6.682   6.827   8.475
23050SOL     OW70590   7.218   6.682   8.518
23050SOL    HW170591   7.215   6.745   8.590
23050SOL    HW270592   7.136   6.697   8.470
23051SOL     OW70593   6.503   5.679   8.838
23051SOL    HW170594   6.524   5.660   8.746
23051SOL    HW270595   6.583   5.717   8.873
23052SOL     OW70596   6.577   6.695   9.177
23052SOL    HW170597   6.485   6.716   9.195
23052SOL    HW270598   6.573   6.620   9.118
23053SOL     OW70599   6.299   6.652   7.819
23053SOL    HW170600   6.283   6.629   7.910
23053SOL    HW270601   6.374   6.598   7.793
23054SOL     OW70602   6.011   6.410   8.702
23054SOL    HW170603   6.078   6.418   8.769
23054SOL    HW270604   5.978   6.321   8.711
23055SOL     OW70605   6.852   5.958   8.731
23055SOL    HW170606   6.881   6.036   8.779
23055SOL    HW270607   6.761   5.977   8.708
23056SOL     OW70608   5.662   7.162   8.811
23056SOL    HW170609   5.631   7.226   8.747
23056SOL    HW270610   5.756   7.158   8.798
23057SOL     OW70611   5.914   6.712   7.936
23057SOL    HW170612   5.912   6.782   7.871
23057SOL    HW270613   5.913   6.631   7.884
23058SOL     OW70614   6.133   6.113   8.304
23058SOL    HW170615   6.147   6.172   8.230
23058SOL    HW270616   6.199   6.138   8.368
23059SOL     OW70617   6.834   6.937   7.843
23059SOL    HW170618   6.889   7.007   7.879
23059SOL    HW270619   6.746   6.957   7.874
23060SOL     OW70620   6.876   7.066   8.576
23060SOL    HW170621   6.939   7.076   8.648
23060SOL    HW270622   6.796   7.035   8.619
23061SOL     OW70623   7.160   6.206   7.933
23061SOL    HW170624   7.112   6.243   8.007
23061SOL    HW270625   7.172   6.279   7.873
23062SOL     OW70626   5.929   7.119   8.753
23062SOL    HW170627   5.916   7.072   8.670
23062SOL    HW270628   6.023   7.129   8.761
23063SOL     OW70629   6.000   6.337   9.052
23063SOL    HW170630   6.068   6.373   8.996
23063SOL    HW270631   6.023   6.245   9.063
23064SOL     OW70632   7.215   6.374   9.143
23064SOL    HW170633   7.123   6.397   9.138
23064SOL    HW270634   7.254   6.415   9.065
23065SOL     OW70635   6.585   5.724   9.203
23065SOL    HW170636   6.645   5.796   9.183
23065SOL    HW270637   6.634   5.645   9.180
23066SOL     OW70638   6.078   5.620   9.207
23066SOL    HW170639   6.030   5.568   9.142
23066SOL    HW270640   6.021   5.695   9.224
23067SOL     OW70641   6.175   6.462   8.483
23067SOL    HW170642   6.211   6.550   8.486
23067SOL    HW270643   6.117   6.456   8.559
23068SOL     OW70644   6.922   6.444   8.462
23068SOL    HW170645   6.831   6.427   8.435
23068SOL    HW270646   6.968   6.362   8.447
23069SOL     OW70647   6.782   6.115   7.707
23069SOL    HW170648   6.790   6.037   7.761
23069SOL    HW270649   6.738   6.179   7.763
23070SOL     OW70650   5.886   5.785   8.695
23070SOL    HW170651   5.842   5.809   8.776
23070SOL    HW270652   5.874   5.691   8.687
23071SOL     OW70653   5.637   6.899   8.717
23071SOL    HW170654   5.666   6.840   8.786
23071SOL    HW270655   5.638   6.986   8.758
23072SOL     OW70656   6.304   6.213   8.496
23072SOL    HW170657   6.381   6.205   8.441
23072SOL    HW270658   6.273   6.303   8.481
23073SOL     OW70659   7.337   6.554   9.311
23073SOL    HW170660   7.299   6.483   9.258
23073SOL    HW270661   7.272   6.570   9.379
23074SOL     OW70662   5.906   5.652   8.070
23074SOL    HW170663   5.874   5.739   8.092
23074SOL    HW270664   5.909   5.605   8.153
23075SOL     OW70665   7.220   5.971   7.804
23075SOL    HW170666   7.245   5.903   7.867
23075SOL    HW270667   7.191   6.044   7.858
23076SOL     OW70668   6.623   6.342   8.403
23076SOL    HW170669   6.609   6.358   8.496
23076SOL    HW270670   6.592   6.252   8.389
23077SOL     OW70671   6.576   7.144   9.182
23077SOL    HW170672   6.544   7.193   9.106
23077SOL    HW270673   6.621   7.068   9.145
23078SOL     OW70674   7.439   7.081   9.058
23078SOL    HW170675   7.455   7.113   8.970
23078SOL    HW270676   7.521   7.094   9.104
23079SOL     OW70677   5.936   6.507   9.258
23079SOL    HW170678   6.017   6.520   9.307
23079SOL    HW270679   5.959   6.444   9.190
23080SOL     OW70680   7.107   5.863   7.573
23080SOL    HW170681   7.048   5.794   7.601
23080SOL    HW270682   7.146   5.896   7.654
23081SOL     OW70683   6.874   6.408   7.477
23081SOL    HW170684   6.913   6.321   7.482
23081SOL    HW270685   6.906   6.444   7.394
23082SOL     OW70686   6.652   6.928   8.297
23082SOL    HW170687   6.660   6.852   8.240
23082SOL    HW270688   6.715   6.992   8.263
23083SOL     OW70689   5.897   6.397   8.395
23083SOL    HW170690   5.992   6.413   8.391
23083SOL    HW270691   5.889   6.307   8.426
23084SOL     OW70692   5.915   6.121   8.461
23084SOL    HW170693   5.876   6.034   8.451
23084SOL    HW270694   5.991   6.121   8.403
23085SOL     OW70695   6.731   5.957   9.134
23085SOL    HW170696   6.676   6.007   9.194
23085SOL    HW270697   6.816   6.001   9.137
23086SOL     OW70698   6.747   5.781   8.921
23086SOL    HW170699   6.736   5.844   8.992
23086SOL    HW270700   6.787   5.832   8.850
23087SOL     OW70701   5.605   6.897   7.633
23087SOL    HW170702   5.515   6.916   7.604
23087SOL    HW270703   5.599   6.810   7.672
23088SOL     OW70704   5.676   7.364   8.393
23088SOL    HW170705   5.644   7.286   8.346
23088SOL    HW270706   5.765   7.377   8.359
23089SOL     OW70707   6.076   7.159   8.348
23089SOL    HW170708   6.145   7.221   8.373
23089SOL    HW270709   6.120   7.095   8.292
23090SOL     OW70710   6.564   6.366   8.665
23090SOL    HW170711   6.618   6.344   8.740
23090SOL    HW270712   6.474   6.346   8.694
23091SOL     OW70713   5.620   6.153   8.564
23091SOL    HW170714   5.694   6.124   8.509
23091SOL    HW270715   5.651   6.142   8.654
23092SOL     OW70716   5.780   6.104   9.180
23092SOL    HW170717   5.806   6.042   9.111
23092SOL    HW270718   5.745   6.179   9.133
23093SOL     OW70719   6.968   6.502   9.113
23093SOL    HW170720   6.993   6.594   9.109
23093SOL    HW270721   6.957   6.476   9.022
23094SOL     OW70722   6.407   6.161   7.812
23094SOL    HW170723   6.412   6.084   7.756
23094SOL    HW270724   6.329   6.207   7.783
23095SOL     OW70725   7.220   6.191   8.622
23095SOL    HW170726   7.209   6.130   8.694
23095SOL    HW270727   7.308   6.173   8.589
23096SOL     OW70728   5.820   7.130   9.176
23096SOL    HW170729   5.796   7.181   9.253
23096SOL    HW270730   5.830   7.040   9.207
23097SOL     OW70731   6.310   6.029   8.697
23097SOL    HW170732   6.250   5.957   8.677
23097SOL    HW270733   6.296   6.092   8.626
23098SOL     OW70734   6.479   7.269   8.957
23098SOL    HW170735   6.509   7.205   8.893
23098SOL    HW270736   6.474   7.351   8.908
23099SOL     OW70737   6.044   6.076   7.618
23099SOL    HW170738   6.105   6.143   7.647
23099SOL    HW270739   5.960   6.122   7.611
23100SOL     OW70740   5.723   6.730   8.923
23100SOL    HW170741   5.728   6.686   9.008
23100SOL    HW270742   5.741   6.661   8.859
23101SOL     OW70743   6.899   6.626   8.668
23101SOL    HW170744   6.914   6.563   8.597
23101SOL    HW270745   6.827   6.681   8.636
23102SOL     OW70746   6.908   6.442   7.752
23102SOL    HW170747   6.836   6.411   7.806
23102SOL    HW270748   6.879   6.427   7.662
23103SOL     OW70749   7.379   7.315   8.617
23103SOL    HW170750   7.431   7.340   8.540
23103SOL    HW270751   7.340   7.231   8.593
23104SOL     OW70752   6.825   7.337   8.556
23104SOL    HW170753   6.910   7.356   8.517
23104SOL    HW270754   6.827   7.244   8.577
23105SOL     OW70755   5.670   6.862   8.449
23105SOL    HW170756   5.652   6.871   8.543
23105SOL    HW270757   5.607   6.796   8.420
23106SOL     OW70758   6.278   7.271   9.186
23106SOL    HW170759   6.215   7.341   9.167
23106SOL    HW270760   6.343   7.278   9.116
23107SOL     OW70761   7.323   5.752   7.956
23107SOL    HW170762   7.386   5.733   7.887
23107SOL    HW270763   7.299   5.665   7.990
23108SOL     OW70764   6.984   7.156   7.943
23108SOL    HW170765   7.031   7.195   7.870
23108SOL    HW270766   6.926   7.225   7.975
23109SOL     OW70767   5.717   7.395   9.292
23109SOL    HW170768   5.673   7.319   9.332
23109SOL    HW270769   5.767   7.434   9.363
23110SOL     OW70770   6.863   6.513   8.113
23110SOL    HW170771   6.937   6.454   8.126
23110SOL    HW270772   6.899   6.587   8.063
23111SOL     OW70773   6.365   6.842   8.891
23111SOL    HW170774   6.336   6.894   8.966
23111SOL    HW270775   6.425   6.899   8.844
23112SOL     OW70776   6.253   7.215   7.603
23112SOL    HW170777   6.265   7.230   7.509
23112SOL    HW270778   6.198   7.137   7.608
23113SOL     OW70779   7.222   7.324   8.867
23113SOL    HW170780   7.259   7.317   8.779
23113SOL    HW270781   7.199   7.417   8.876
23114SOL     OW70782   7.433   5.751   8.415
23114SOL    HW170783   7.458   5.662   8.391
23114SOL    HW270784   7.345   5.762   8.378
23115SOL     OW70785   5.836   5.902   8.161
23115SOL    HW170786   5.748   5.931   8.137
23115SOL    HW270787   5.835   5.896   8.256
23116SOL     OW70788   6.797   7.181   7.484
23116SOL    HW170789   6.784   7.091   7.513
23116SOL    HW270790   6.728   7.195   7.418
23117SOL     OW70791   6.408   6.586   8.818
23117SOL    HW170792   6.454   6.596   8.735
23117SOL    HW270793   6.386   6.675   8.844
23118SOL     OW70794   6.507   6.502   7.735
23118SOL    HW170795   6.570   6.536   7.672
23118SOL    HW270796   6.554   6.433   7.781
23119SOL     OW70797   7.071   7.227   7.496
23119SOL    HW170798   6.979   7.207   7.481
23119SOL    HW270799   7.110   7.229   7.409
23120SOL     OW70800   5.944   6.903   8.950
23120SOL    HW170801   5.939   6.970   8.883
23120SOL    HW270802   5.873   6.842   8.928
23121SOL     OW70803   7.220   6.868   8.728
23121SOL    HW170804   7.264   6.851   8.811
23121SOL    HW270805   7.129   6.886   8.752
23122SOL     OW70806   6.655   6.695   8.161
23122SOL    HW170807   6.580   6.649   8.198
23122SOL    HW270808   6.716   6.626   8.137
23123SOL     OW70809   6.616   5.827   8.409
23123SOL    HW170810   6.609   5.782   8.325
23123SOL    HW270811   6.606   5.758   8.475
23124SOL     OW70812   6.190   7.074   7.919
23124SOL    HW170813   6.242   7.024   7.856
23124SOL    HW270814   6.104   7.083   7.876
23125SOL     OW70815   7.314   5.981   8.818
23125SOL    HW170816   7.387   6.043   8.819
23125SOL    HW270817   7.345   5.908   8.766
23126SOL     OW70818   5.860   6.926   7.750
23126SOL    HW170819   5.771   6.920   7.715
23126SOL    HW270820   5.850   6.969   7.834
23127SOL     OW70821   5.704   6.638   9.186
23127SOL    HW170822   5.626   6.605   9.230
23127SOL    HW270823   5.776   6.584   9.219
23128SOL     OW70824   6.262   5.782   8.948
23128SOL    HW170825   6.344   5.758   8.907
23128SOL    HW270826   6.287   5.815   9.034
23129SOL     OW70827   5.614   5.960   7.497
23129SOL    HW170828   5.573   5.885   7.454
23129SOL    HW270829   5.665   6.003   7.428
23130SOL     OW70830   7.008   6.441   8.846
23130SOL    HW170831   6.954   6.501   8.794
23130SOL    HW270832   7.094   6.444   8.805
23131SOL     OW70833   5.646   5.737   7.750
23131SOL    HW170834   5.634   5.820   7.704
23131SOL    HW270835   5.731   5.705   7.720
23132SOL     OW70836   6.764   6.917   7.568
23132SOL    HW170837   6.675   6.882   7.566
23132SOL    HW270838   6.789   6.916   7.660
23133SOL     OW70839   6.209   6.410   8.887
23133SOL    HW170840   6.267   6.484   8.867
23133SOL    HW270841   6.268   6.335   8.893
23134SOL     OW70842   7.070   7.385   8.446
23134SOL    HW170843   7.097   7.434   8.368
23134SOL    HW270844   7.142   7.323   8.461
23135SOL     OW70845   6.311   6.138   9.148
23135SOL    HW170846   6.357   6.193   9.211
23135SOL    HW270847   6.324   6.049   9.179
23136SOL     OW70848   7.072   6.756   9.098
23136SOL    HW170849   7.058   6.784   9.188
23136SOL    HW270850   7.160   6.787   9.076
23137SOL     OW70851   5.953   7.328   9.024
23137SOL    HW170852   5.871   7.373   9.005
23137SOL    HW270853   5.927   7.244   9.061
23138SOL     OW70854   7.248   6.464   8.702
23138SOL    HW170855   7.240   6.377   8.661
23138SOL    HW270856   7.238   6.526   8.629
23139SOL     OW70857   6.808   5.912   7.902
23139SOL    HW170858   6.864   5.835   7.897
23139SOL    HW270859   6.838   5.959   7.979
23140SOL     OW70860   6.174   6.318   8.120
23140SOL    HW170861   6.212   6.404   8.105
23140SOL    HW270862   6.108   6.308   8.052
23141SOL     OW70863   7.336   5.944   9.088
23141SOL    HW170864   7.314   5.964   8.996
23141SOL    HW270865   7.265   5.888   9.118
23142SOL     OW70866   7.344   6.525   8.951
23142SOL    HW170867   7.314   6.615   8.965
23142SOL    HW270868   7.318   6.505   8.861
23143SOL     OW70869   6.453   6.948   7.501
23143SOL    HW170870   6.416   6.961   7.588
23143SOL    HW270871   6.458   7.036   7.464
23144SOL     OW70872   6.245   7.374   8.377
23144SOL    HW170873   6.233   7.468   8.360
23144SOL    HW270874   6.339   7.360   8.374
23145SOL     OW70875   6.458   6.560   8.300
23145SOL    HW170876   6.507   6.487   8.338
23145SOL    HW270877   6.414   6.601   8.374
23146SOL     OW70878   6.675   6.588   7.539
23146SOL    HW170879   6.646   6.630   7.458
23146SOL    HW270880   6.742   6.525   7.512
23147SOL     OW70881   7.423   7.143   8.289
23147SOL    HW170882   7.342   7.131   8.239
23147SOL    HW270883   7.417   7.079   8.360
23148SOL     OW70884   5.796   6.876   9.291
23148SOL    HW170885   5.762   6.798   9.247
23148SOL    HW270886   5.738   6.887   9.367
23149SOL     OW70887   5.684   6.820   8.114
23149SOL    HW170888   5.685   6.771   8.196
23149SOL    HW270889   5.747   6.774   8.059
23150SOL     OW70890   6.282   6.996   9.111
23150SOL    HW170891   6.195   6.962   9.133
23150SOL    HW270892   6.276   7.089   9.132
23151SOL     OW70893   7.415   5.769   8.686
23151SOL    HW170894   7.391   5.677   8.702
23151SOL    HW270895   7.421   5.775   8.591
23152SOL     OW70896   6.013   6.016   7.972
23152SOL    HW170897   6.045   5.944   7.917
23152SOL    HW270898   5.961   5.973   8.039
23153SOL     OW70899   7.280   7.072   8.542
23153SOL    HW170900   7.205   7.051   8.487
23153SOL    HW270901   7.274   7.011   8.616
23154SOL     OW70902   5.932   6.150   8.741
23154SOL    HW170903   5.981   6.087   8.794
23154SOL    HW270904   5.943   6.120   8.651
23155SOL     OW70905   6.419   7.161   8.112
23155SOL    HW170906   6.385   7.230   8.054
23155SOL    HW270907   6.345   7.102   8.124
23156SOL     OW70908   7.010   5.812   8.563
23156SOL    HW170909   7.002   5.720   8.590
23156SOL    HW270910   6.962   5.861   8.630
23157SOL     OW70911   6.594   5.604   8.580
23157SOL    HW170912   6.535   5.539   8.542
23157SOL    HW270913   6.679   5.560   8.582
23158SOL     OW70914   6.366   6.919   7.767
23158SOL    HW170915   6.337   6.829   7.779
23158SOL    HW270916   6.444   6.927   7.821
23159SOL     OW70917   6.198   7.151   8.736
23159SOL    HW170918   6.203   7.231   8.787
23159SOL    HW270919   6.276   7.153   8.679
23160SOL     OW70920   6.950   5.634   7.620
23160SOL    HW170921   6.986   5.562   7.569
23160SOL    HW270922   6.860   5.608   7.638
23161SOL     OW70923   6.894   6.053   8.126
23161SOL    HW170924   6.837   6.130   8.124
23161SOL    HW270925   6.881   6.016   8.213
23162SOL     OW70926   7.175   5.779   8.338
23162SOL    HW170927   7.117   5.802   8.411
23162SOL    HW270928   7.170   5.854   8.279
23163SOL     OW70929   5.629   6.646   7.757
23163SOL    HW170930   5.722   6.637   7.737
23163SOL    HW270931   5.599   6.557   7.775
23164SOL     OW70932   6.481   7.251   7.775
23164SOL    HW170933   6.403   7.233   7.723
23164SOL    HW270934   6.452   7.315   7.840
23165SOL     OW70935   5.807   6.213   9.438
23165SOL    HW170936   5.718   6.202   9.471
23165SOL    HW270937   5.802   6.188   9.346
23166SOL     OW70938   5.807   5.877  10.306
23166SOL    HW170939   5.837   5.838  10.388
23166SOL    HW270940   5.720   5.838  10.291
23167SOL     OW70941   5.582   5.970   9.949
23167SOL    HW170942   5.501   5.995   9.992
23167SOL    HW270943   5.559   5.894   9.896
23168SOL     OW70944   6.158   6.888  10.504
23168SOL    HW170945   6.074   6.889  10.458
23168SOL    HW270946   6.172   6.978  10.531
23169SOL     OW70947   7.167   7.096  10.016
23169SOL    HW170948   7.120   7.070  10.095
23169SOL    HW270949   7.099   7.102   9.949
23170SOL     OW70950   6.732   6.288  10.011
23170SOL    HW170951   6.770   6.374   9.996
23170SOL    HW270952   6.680   6.297  10.090
23171SOL     OW70953   7.379   6.180   9.542
23171SOL    HW170954   7.317   6.186   9.470
23171SOL    HW270955   7.344   6.112   9.599
23172SOL     OW70956   6.333   6.726  10.366
23172SOL    HW170957   6.268   6.763  10.425
23172SOL    HW270958   6.369   6.801  10.319
23173SOL     OW70959   6.468   6.341  11.138
23173SOL    HW170960   6.448   6.411  11.199
23173SOL    HW270961   6.486   6.386  11.055
23174SOL     OW70962   6.273   6.581   9.954
23174SOL    HW170963   6.338   6.576  10.024
23174SOL    HW270964   6.204   6.637   9.989
23175SOL     OW70965   6.301   6.735  11.134
23175SOL    HW170966   6.350   6.812  11.166
23175SOL    HW270967   6.223   6.772  11.093
23176SOL     OW70968   5.918   6.997  10.376
23176SOL    HW170969   5.844   6.955  10.333
23176SOL    HW270970   5.960   7.049  10.307
23177SOL     OW70971   7.041   7.086  10.674
23177SOL    HW170972   7.095   7.165  10.686
23177SOL    HW270973   6.970   7.097  10.738
23178SOL     OW70974   6.038   5.974  10.786
23178SOL    HW170975   6.112   5.914  10.792
23178SOL    HW270976   5.961   5.919  10.805
23179SOL     OW70977   7.192   6.047  10.062
23179SOL    HW170978   7.114   6.045  10.006
23179SOL    HW270979   7.169   6.106  10.133
23180SOL     OW70980   5.803   7.308   9.775
23180SOL    HW170981   5.829   7.381   9.831
23180SOL    HW270982   5.876   7.297   9.714
23181SOL     OW70983   6.724   6.928  11.006
23181SOL    HW170984   6.763   6.920  11.093
23181SOL    HW270985   6.671   6.848  10.996
23182SOL     OW70986   5.825   7.038   9.851
23182SOL    HW170987   5.797   7.129   9.851
23182SOL    HW270988   5.766   6.995   9.913
23183SOL     OW70989   5.867   6.678  10.210
23183SOL    HW170990   5.859   6.587  10.240
23183SOL    HW270991   5.801   6.726  10.260
23184SOL     OW70992   6.185   7.378  10.741
23184SOL    HW170993   6.103   7.359  10.787
23184SOL    HW270994   6.207   7.467  10.767
23185SOL     OW70995   6.158   6.571   9.454
23185SOL    HW170996   6.208   6.616   9.385
23185SOL    HW270997   6.197   6.602   9.536
23186SOL     OW70998   7.181   5.714  10.772
23186SOL    HW170999   7.200   5.794  10.722
23186SOL    HW271000   7.158   5.746  10.859
23187SOL     OW71001   5.708   6.239   9.871
23187SOL    HW171002   5.675   6.151   9.888
23187SOL    HW271003   5.697   6.286   9.954
23188SOL     OW71004   7.430   7.336   9.636
23188SOL    HW171005   7.500   7.314   9.697
23188SOL    HW271006   7.446   7.428   9.613
23189SOL     OW71007   5.636   7.175   9.426
23189SOL    HW171008   5.615   7.083   9.443
23189SOL    HW271009   5.604   7.221   9.504
23190SOL     OW71010   7.254   6.638   9.789
23190SOL    HW171011   7.314   6.665   9.720
23190SOL    HW271012   7.249   6.713   9.848
23191SOL     OW71013   5.709   6.328  10.894
23191SOL    HW171014   5.798   6.364  10.894
23191SOL    HW271015   5.652   6.405  10.884
23192SOL     OW71016   6.200   6.978  10.050
23192SOL    HW171017   6.158   6.893  10.054
23192SOL    HW271018   6.186   7.008   9.960
23193SOL     OW71019   6.868   6.818  10.727
23193SOL    HW171020   6.898   6.749  10.668
23193SOL    HW271021   6.926   6.812  10.803
23194SOL     OW71022   6.413   5.597   9.831
23194SOL    HW171023   6.451   5.679   9.801
23194SOL    HW271024   6.318   5.613   9.831
23195SOL     OW71025   5.772   6.544  10.596
23195SOL    HW171026   5.858   6.507  10.581
23195SOL    HW271027   5.715   6.500  10.533
23196SOL     OW71028   7.120   6.572   9.498
23196SOL    HW171029   7.060   6.507   9.461
23196SOL    HW271030   7.127   6.548   9.590
23197SOL     OW71031   6.780   7.400  10.941
23197SOL    HW171032   6.775   7.460  10.866
23197SOL    HW271033   6.790   7.313  10.902
23198SOL     OW71034   5.930   5.833  11.163
23198SOL    HW171035   5.968   5.920  11.175
23198SOL    HW271036   5.836   5.846  11.172
23199SOL     OW71037   7.056   7.001  10.251
23199SOL    HW171038   6.989   7.019  10.317
23199SOL    HW271039   7.038   6.912  10.222
23200SOL     OW71040   7.235   7.346   9.883
23200SOL    HW171041   7.213   7.314   9.796
23200SOL    HW271042   7.220   7.272   9.941
23201SOL     OW71043   6.180   6.303   9.586
23201SOL    HW171044   6.176   6.386   9.537
23201SOL    HW271045   6.113   6.312   9.653
23202SOL     OW71046   6.864   5.959  10.242
23202SOL    HW171047   6.775   5.925  10.246
23202SOL    HW271048   6.915   5.902  10.299
23203SOL     OW71049   7.161   7.269   9.623
23203SOL    HW171050   7.255   7.285   9.611
23203SOL    HW271051   7.128   7.252   9.535
23204SOL     OW71052   6.379   6.201  10.755
23204SOL    HW171053   6.353   6.173  10.842
23204SOL    HW271054   6.348   6.131  10.697
23205SOL     OW71055   6.978   6.063  10.986
23205SOL    HW171056   6.983   6.105  11.072
23205SOL    HW271057   7.030   5.983  10.996
23206SOL     OW71058   6.534   6.469  10.899
23206SOL    HW171059   6.588   6.401  10.858
23206SOL    HW271060   6.484   6.507  10.827
23207SOL     OW71061   6.584   5.992  10.533
23207SOL    HW171062   6.493   6.004  10.560
23207SOL    HW271063   6.579   5.947  10.449
23208SOL     OW71064   6.636   6.295   9.745
23208SOL    HW171065   6.653   6.280   9.838
23208SOL    HW271066   6.553   6.250   9.728
23209SOL     OW71067   5.675   6.400  10.092
23209SOL    HW171068   5.755   6.396  10.144
23209SOL    HW271069   5.629   6.478  10.124
23210SOL     OW71070   5.713   7.460  10.894
23210SOL    HW171071   5.715   7.439  10.987
23210SOL    HW271072   5.632   7.419  10.862
23211SOL     OW71073   6.474   5.936   9.513
23211SOL    HW171074   6.527   5.992   9.456
23211SOL    HW271075   6.451   5.861   9.458
23212SOL     OW71076   7.290   6.157  11.141
23212SOL    HW171077   7.256   6.231  11.092
23212SOL    HW271078   7.312   6.092  11.074
23213SOL     OW71079   6.970   6.737   9.857
23213SOL    HW171080   7.022   6.700   9.787
23213SOL    HW271081   6.912   6.800   9.814
23214SOL     OW71082   6.139   5.755  10.208
23214SOL    HW171083   6.141   5.794  10.296
23214SOL    HW271084   6.132   5.830  10.149
23215SOL     OW71085   6.590   7.042   9.781
23215SOL    HW171086   6.558   7.111   9.722
23215SOL    HW271087   6.550   7.062   9.866
23216SOL     OW71088   5.940   7.402  10.184
23216SOL    HW171089   5.984   7.317  10.190
23216SOL    HW271090   6.009   7.466  10.203
23217SOL     OW71091   7.343   6.622  10.148
23217SOL    HW171092   7.311   6.693  10.093
23217SOL    HW271093   7.298   6.635  10.232
23218SOL     OW71094   6.809   7.126  10.824
23218SOL    HW171095   6.798   7.055  10.888
23218SOL    HW271096   6.742   7.110  10.758
23219SOL     OW71097   5.893   6.544   9.567
23219SOL    HW171098   5.974   6.565   9.520
23219SOL    HW271099   5.863   6.462   9.528
23220SOL     OW71100   7.097   6.363  10.045
23220SOL    HW171101   7.052   6.282  10.024
23220SOL    HW271102   7.097   6.368  10.141
23221SOL     OW71103   6.058   6.860  11.050
23221SOL    HW171104   6.032   6.865  10.958
23221SOL    HW271105   5.976   6.851  11.098
23222SOL     OW71106   6.719   7.359   9.540
23222SOL    HW171107   6.637   7.326   9.578
23222SOL    HW271108   6.741   7.295   9.472
23223SOL     OW71109   5.788   5.852  10.816
23223SOL    HW171110   5.704   5.896  10.806
23223SOL    HW271111   5.765   5.764  10.847
23224SOL     OW71112   7.224   6.980   9.414
23224SOL    HW171113   7.181   7.063   9.391
23224SOL    HW271114   7.157   6.913   9.397
23225SOL     OW71115   6.045   7.327   9.623
23225SOL    HW171116   6.095   7.373   9.690
23225SOL    HW271117   6.111   7.284   9.569
23226SOL     OW71118   6.988   5.694   9.754
23226SOL    HW171119   6.974   5.670   9.662
23226SOL    HW271120   7.079   5.672   9.771
23227SOL     OW71121   5.846   7.375  10.531
23227SOL    HW171122   5.891   7.298  10.566
23227SOL    HW271123   5.827   7.352  10.440
23228SOL     OW71124   6.525   7.286  10.200
23228SOL    HW171125   6.604   7.236  10.220
23228SOL    HW271126   6.483   7.238  10.129
23229SOL     OW71127   5.985   6.276   9.787
23229SOL    HW171128   6.002   6.183   9.799
23229SOL    HW271129   5.890   6.285   9.799
23230SOL     OW71130   7.106   5.812  11.031
23230SOL    HW171131   7.115   5.829  11.124
23230SOL    HW271132   7.041   5.741  11.026
23231SOL     OW71133   6.241   5.698   9.410
23231SOL    HW171134   6.292   5.620   9.429
23231SOL    HW271135   6.180   5.671   9.341
23232SOL     OW71136   6.352   5.864  11.070
23232SOL    HW171137   6.433   5.814  11.064
23232SOL    HW271138   6.302   5.822  11.139
23233SOL     OW71139   6.462   7.114  10.505
23233SOL    HW171140   6.442   7.074  10.420
23233SOL    HW271141   6.529   7.057  10.544
23234SOL     OW71142   6.921   6.176  10.742
23234SOL    HW171143   6.952   6.145  10.827
23234SOL    HW271144   6.958   6.263  10.734
23235SOL     OW71145   6.404   6.976  10.259
23235SOL    HW171146   6.489   6.965  10.217
23235SOL    HW271147   6.342   6.983  10.187
23236SOL     OW71148   6.517   6.100  10.202
23236SOL    HW171149   6.492   6.090  10.110
23236SOL    HW271150   6.540   6.011  10.230
23237SOL     OW71151   6.146   5.651   9.804
23237SOL    HW171152   6.065   5.648   9.854
23237SOL    HW271153   6.136   5.725   9.745
23238SOL     OW71154   7.023   6.800   9.367
23238SOL    HW171155   7.046   6.719   9.413
23238SOL    HW271156   6.931   6.816   9.390
23239SOL     OW71157   5.871   5.637   9.498
23239SOL    HW171158   5.923   5.697   9.445
23239SOL    HW271159   5.935   5.576   9.535
23240SOL     OW71160   6.535   5.840   9.766
23240SOL    HW171161   6.509   5.872   9.679
23240SOL    HW271162   6.629   5.855   9.769
23241SOL     OW71163   6.662   6.273  10.763
23241SOL    HW171164   6.595   6.205  10.766
23241SOL    HW271165   6.745   6.224  10.757
23242SOL     OW71166   6.799   7.164  10.109
23242SOL    HW171167   6.811   7.226  10.037
23242SOL    HW271168   6.872   7.182  10.168
23243SOL     OW71169   6.061   6.742  10.032
23243SOL    HW171170   5.997   6.720  10.099
23243SOL    HW271171   6.014   6.731   9.949
23244SOL     OW71172   6.845   7.377   9.928
23244SOL    HW171173   6.889   7.439   9.869
23244SOL    HW271174   6.772   7.427   9.963
23245SOL     OW71175   6.607   6.110   9.328
23245SOL    HW171176   6.568   6.196   9.314
23245SOL    HW271177   6.664   6.120   9.404
23246SOL     OW71178   5.678   6.136  10.702
23246SOL    HW171179   5.770   6.138  10.675
23246SOL    HW271180   5.671   6.205  10.768
23247SOL     OW71181   6.146   5.817  10.481
23247SOL    HW171182   6.183   5.735  10.514
23247SOL    HW271183   6.054   5.814  10.509
23248SOL     OW71184   6.460   6.049   9.941
23248SOL    HW171185   6.415   6.102   9.875
23248SOL    HW271186   6.481   5.967   9.896
23249SOL     OW71187   6.598   5.648  10.055
23249SOL    HW171188   6.540   5.641   9.979
23249SOL    HW271189   6.578   5.571  10.108
23250SOL     OW71190   7.012   6.746  10.157
23250SOL    HW171191   6.943   6.681  10.170
23250SOL    HW271192   7.020   6.754  10.062
23251SOL     OW71193   7.045   6.189  10.284
23251SOL    HW171194   6.985   6.115  10.288
23251SOL    HW271195   7.101   6.179  10.361
23252SOL     OW71196   7.441   6.390   9.705
23252SOL    HW171197   7.508   6.340   9.750
23252SOL    HW271198   7.410   6.333   9.635
23253SOL     OW71199   6.077   7.010   9.454
23253SOL    HW171200   6.004   6.977   9.507
23253SOL    HW271201   6.074   6.956   9.375
23254SOL     OW71202   7.281   6.836   9.979
23254SOL    HW171203   7.376   6.848   9.975
23254SOL    HW271204   7.246   6.925   9.981
23255SOL     OW71205   6.117   5.848   9.618
23255SOL    HW171206   6.165   5.802   9.549
23255SOL    HW271207   6.086   5.929   9.577
23256SOL     OW71208   7.329   6.830  10.860
23256SOL    HW171209   7.416   6.791  10.852
23256SOL    HW271210   7.345   6.918  10.894
23257SOL     OW71211   6.637   6.946  10.647
23257SOL    HW171212   6.560   6.911  10.692
23257SOL    HW271213   6.711   6.899  10.685
23258SOL     OW71214   7.196   7.219  10.975
23258SOL    HW171215   7.185   7.249  10.885
23258SOL    HW271216   7.276   7.166  10.973
23259SOL     OW71217   6.732   6.808  10.411
23259SOL    HW171218   6.661   6.832  10.471
23259SOL    HW271219   6.702   6.839  10.325
23260SOL     OW71220   7.212   6.690  10.382
23260SOL    HW171221   7.207   6.748  10.458
23260SOL    HW271222   7.129   6.702  10.336
23261SOL     OW71223   6.502   5.677  10.698
23261SOL    HW171224   6.523   5.656  10.607
23261SOL    HW271225   6.583   5.714  10.733
23262SOL     OW71226   6.570   6.700  11.034
23262SOL    HW171227   6.479   6.717  11.059
23262SOL    HW271228   6.566   6.621  10.980
23263SOL     OW71229   6.293   6.650   9.683
23263SOL    HW171230   6.279   6.625   9.774
23263SOL    HW271231   6.371   6.601   9.656
23264SOL     OW71232   6.009   6.410  10.564
23264SOL    HW171233   6.077   6.418  10.631
23264SOL    HW271234   5.977   6.320  10.574
23265SOL     OW71235   6.847   5.954  10.598
23265SOL    HW171236   6.878   6.034  10.641
23265SOL    HW271237   6.757   5.974  10.572
23266SOL     OW71238   5.662   7.159  10.672
23266SOL    HW171239   5.630   7.225  10.610
23266SOL    HW271240   5.757   7.158  10.658
23267SOL     OW71241   5.916   6.711   9.798
23267SOL    HW171242   5.917   6.781   9.734
23267SOL    HW271243   5.914   6.630   9.746
23268SOL     OW71244   6.131   6.118  10.175
23268SOL    HW171245   6.143   6.175  10.099
23268SOL    HW271246   6.203   6.141  10.234
23269SOL     OW71247   6.832   6.935   9.716
23269SOL    HW171248   6.888   7.008   9.741
23269SOL    HW271249   6.744   6.961   9.742
23270SOL     OW71250   6.881   7.049  10.453
23270SOL    HW171251   6.930   7.050  10.535
23270SOL    HW271252   6.825   6.972  10.461
23271SOL     OW71253   7.144   6.289   9.747
23271SOL    HW171254   7.049   6.288   9.744
23271SOL    HW271255   7.171   6.237   9.671
23272SOL     OW71256   5.931   7.119  10.614
23272SOL    HW171257   5.920   7.070  10.532
23272SOL    HW271258   6.026   7.130  10.623
23273SOL     OW71259   6.001   6.335  10.914
23273SOL    HW171260   6.069   6.373  10.858
23273SOL    HW271261   6.028   6.243  10.924
23274SOL     OW71262   7.200   6.370  11.001
23274SOL    HW171263   7.113   6.410  10.994
23274SOL    HW271264   7.251   6.410  10.930
23275SOL     OW71265   6.585   5.721  11.068
23275SOL    HW171266   6.642   5.794  11.045
23275SOL    HW271267   6.633   5.643  11.040
23276SOL     OW71268   6.078   5.621  11.069
23276SOL    HW171269   6.031   5.570  11.003
23276SOL    HW271270   6.022   5.696  11.086
23277SOL     OW71271   6.181   6.457  10.349
23277SOL    HW171272   6.203   6.550  10.347
23277SOL    HW271273   6.115   6.450  10.418
23278SOL     OW71274   6.924   6.438  10.322
23278SOL    HW171275   6.834   6.423  10.292
23278SOL    HW271276   6.965   6.351  10.320
23279SOL     OW71277   6.728   6.100   9.571
23279SOL    HW171278   6.766   6.030   9.624
23279SOL    HW271279   6.710   6.170   9.634
23280SOL     OW71280   5.885   5.784  10.556
23280SOL    HW171281   5.845   5.809  10.639
23280SOL    HW271282   5.871   5.690  10.550
23281SOL     OW71283   5.632   6.898  10.581
23281SOL    HW171284   5.664   6.840  10.651
23281SOL    HW271285   5.636   6.986  10.618
23282SOL     OW71286   6.313   6.215  10.364
23282SOL    HW171287   6.384   6.203  10.301
23282SOL    HW271288   6.279   6.302  10.346
23283SOL     OW71289   7.327   6.549  11.173
23283SOL    HW171290   7.286   6.479  11.122
23283SOL    HW271291   7.265   6.567  11.243
23284SOL     OW71292   5.904   5.647   9.933
23284SOL    HW171293   5.874   5.736   9.953
23284SOL    HW271294   5.908   5.604  10.018
23285SOL     OW71295   7.241   6.002   9.703
23285SOL    HW171296   7.259   5.918   9.745
23285SOL    HW271297   7.155   5.991   9.663
23286SOL     OW71298   6.621   6.344  10.269
23286SOL    HW171299   6.604   6.359  10.362
23286SOL    HW271300   6.590   6.254  10.254
23287SOL     OW71301   6.570   7.155  11.035
23287SOL    HW171302   6.550   7.196  10.951
23287SOL    HW271303   6.609   7.070  11.011
23288SOL     OW71304   7.433   7.085  10.917
23288SOL    HW171305   7.455   7.115  10.829
23288SOL    HW271306   7.513   7.096  10.968
23289SOL     OW71307   5.936   6.505  11.120
23289SOL    HW171308   6.017   6.519  11.169
23289SOL    HW271309   5.961   6.442  11.052
23290SOL     OW71310   7.137   5.848   9.423
23290SOL    HW171311   7.064   5.799   9.462
23290SOL    HW271312   7.113   5.940   9.436
23291SOL     OW71313   6.914   6.422   9.373
23291SOL    HW171314   6.950   6.334   9.383
23291SOL    HW271315   6.924   6.441   9.280
23292SOL     OW71316   6.657   6.930  10.171
23292SOL    HW171317   6.660   6.859  10.108
23292SOL    HW271318   6.710   7.000  10.132
23293SOL     OW71319   5.895   6.396  10.257
23293SOL    HW171320   5.988   6.407  10.235
23293SOL    HW271321   5.889   6.306  10.289
23294SOL     OW71322   5.911   6.120  10.326
23294SOL    HW171323   5.873   6.033  10.313
23294SOL    HW271324   5.988   6.122  10.269
23295SOL     OW71325   6.721   5.957  10.998
23295SOL    HW171326   6.673   6.010  11.061
23295SOL    HW271327   6.806   6.000  10.991
23296SOL     OW71328   6.744   5.778  10.786
23296SOL    HW171329   6.732   5.842  10.856
23296SOL    HW271330   6.787   5.827  10.716
23297SOL     OW71331   5.604   6.898   9.498
23297SOL    HW171332   5.515   6.917   9.469
23297SOL    HW271333   5.599   6.811   9.537
23298SOL     OW71334   5.678   7.363  10.258
23298SOL    HW171335   5.645   7.287  10.209
23298SOL    HW271336   5.765   7.378  10.222
23299SOL     OW71337   6.076   7.162  10.215
23299SOL    HW171338   6.146   7.223  10.238
23299SOL    HW271339   6.117   7.099  10.156
23300SOL     OW71340   6.550   6.372  10.531
23300SOL    HW171341   6.605   6.353  10.606
23300SOL    HW271342   6.469   6.325  10.547
23301SOL     OW71343   5.620   6.146  10.427
23301SOL    HW171344   5.695   6.128  10.371
23301SOL    HW271345   5.654   6.139  10.517
23302SOL     OW71346   5.779   6.106  11.043
23302SOL    HW171347   5.814   6.049  10.974
23302SOL    HW271348   5.746   6.183  10.996
23303SOL     OW71349   6.969   6.515  10.966
23303SOL    HW171350   6.989   6.608  10.961
23303SOL    HW271351   6.962   6.487  10.875
23304SOL     OW71352   6.405   6.162   9.682
23304SOL    HW171353   6.413   6.086   9.623
23304SOL    HW271354   6.329   6.210   9.648
23305SOL     OW71355   7.224   6.189  10.494
23305SOL    HW171356   7.218   6.125  10.564
23305SOL    HW271357   7.312   6.174  10.457
23306SOL     OW71358   5.821   7.131  11.033
23306SOL    HW171359   5.800   7.190  11.105
23306SOL    HW271360   5.829   7.045  11.074
23307SOL     OW71361   6.309   6.027  10.560
23307SOL    HW171362   6.249   5.955  10.538
23307SOL    HW271363   6.298   6.090  10.489
23308SOL     OW71364   6.503   7.262  10.785
23308SOL    HW171365   6.481   7.217  10.703
23308SOL    HW271366   6.494   7.355  10.765
23309SOL     OW71367   6.041   6.078   9.494
23309SOL    HW171368   6.102   6.149   9.516
23309SOL    HW271369   5.957   6.122   9.482
23310SOL     OW71370   5.724   6.731  10.786
23310SOL    HW171371   5.729   6.688  10.871
23310SOL    HW271372   5.741   6.662  10.723
23311SOL     OW71373   6.909   6.628  10.520
23311SOL    HW171374   6.921   6.562  10.452
23311SOL    HW271375   6.845   6.689  10.482
23312SOL     OW71376   6.883   6.434   9.659
23312SOL    HW171377   6.798   6.398   9.686
23312SOL    HW271378   6.882   6.428   9.563
23313SOL     OW71379   7.376   7.315  10.472
23313SOL    HW171380   7.435   7.340  10.401
23313SOL    HW271381   7.343   7.229  10.447
23314SOL     OW71382   6.828   7.320  10.420
23314SOL    HW171383   6.910   7.344  10.378
23314SOL    HW271384   6.836   7.227  10.438
23315SOL     OW71385   5.672   6.856  10.314
23315SOL    HW171386   5.651   6.867  10.407
23315SOL    HW271387   5.606   6.794  10.282
23316SOL     OW71388   6.266   7.262  11.052
23316SOL    HW171389   6.202   7.333  11.042
23316SOL    HW271390   6.333   7.280  10.985
23317SOL     OW71391   7.326   5.769   9.818
23317SOL    HW171392   7.388   5.747   9.748
23317SOL    HW271393   7.324   5.692   9.874
23318SOL     OW71394   6.985   7.155   9.809
23318SOL    HW171395   7.036   7.190   9.735
23318SOL    HW271396   6.927   7.227   9.834
23319SOL     OW71397   5.724   7.387  11.153
23319SOL    HW171398   5.677   7.316  11.197
23319SOL    HW271399   5.772   7.430  11.223
23320SOL     OW71400   6.869   6.522   9.989
23320SOL    HW171401   6.950   6.472  10.000
23320SOL    HW271402   6.893   6.592   9.929
23321SOL     OW71403   6.382   6.866  10.726
23321SOL    HW171404   6.355   6.909  10.807
23321SOL    HW271405   6.308   6.879  10.666
23322SOL     OW71406   6.253   7.217   9.462
23322SOL    HW171407   6.269   7.232   9.369
23322SOL    HW271408   6.197   7.139   9.464
23323SOL     OW71409   7.204   7.308  10.704
23323SOL    HW171410   7.260   7.313  10.627
23323SOL    HW271411   7.189   7.399  10.729
23324SOL     OW71412   7.437   5.746  10.271
23324SOL    HW171413   7.457   5.660  10.236
23324SOL    HW271414   7.349   5.766  10.238
23325SOL     OW71415   5.839   5.897  10.023
23325SOL    HW171416   5.752   5.929   9.998
23325SOL    HW271417   5.836   5.895  10.119
23326SOL     OW71418   6.798   7.179   9.349
23326SOL    HW171419   6.788   7.087   9.375
23326SOL    HW271420   6.734   7.192   9.280
23327SOL     OW71421   6.408   6.594  10.690
23327SOL    HW171422   6.443   6.583  10.602
23327SOL    HW271423   6.402   6.689  10.702
23328SOL     OW71424   6.510   6.512   9.610
23328SOL    HW171425   6.569   6.539   9.540
23328SOL    HW271426   6.555   6.438   9.651
23329SOL     OW71427   7.071   7.232   9.362
23329SOL    HW171428   6.979   7.209   9.345
23329SOL    HW271429   7.112   7.232   9.276
23330SOL     OW71430   5.951   6.896  10.805
23330SOL    HW171431   5.940   6.969  10.745
23330SOL    HW271432   5.876   6.839  10.788
23331SOL     OW71433   7.199   6.875  10.593
23331SOL    HW171434   7.248   6.852  10.672
23331SOL    HW271435   7.133   6.938  10.623
23332SOL     OW71436   6.650   6.702  10.029
23332SOL    HW171437   6.574   6.654  10.063
23332SOL    HW271438   6.708   6.634   9.996
23333SOL     OW71439   6.611   5.830  10.275
23333SOL    HW171440   6.605   5.786  10.191
23333SOL    HW271441   6.605   5.760  10.340
23334SOL     OW71442   6.193   7.078   9.796
23334SOL    HW171443   6.246   7.026   9.736
23334SOL    HW271444   6.110   7.091   9.750
23335SOL     OW71445   7.320   5.976  10.688
23335SOL    HW171446   7.393   6.038  10.685
23335SOL    HW271447   7.347   5.905  10.630
23336SOL     OW71448   5.863   6.924   9.613
23336SOL    HW171449   5.775   6.920   9.576
23336SOL    HW271450   5.852   6.969   9.696
23337SOL     OW71451   5.705   6.637  11.047
23337SOL    HW171452   5.627   6.605  11.092
23337SOL    HW271453   5.777   6.584  11.082
23338SOL     OW71454   6.262   5.782  10.811
23338SOL    HW171455   6.344   5.758  10.768
23338SOL    HW271456   6.289   5.816  10.896
23339SOL     OW71457   5.662   5.911   9.343
23339SOL    HW171458   5.583   5.884   9.296
23339SOL    HW271459   5.691   5.990   9.297
23340SOL     OW71460   7.008   6.444  10.705
23340SOL    HW171461   6.957   6.503  10.649
23340SOL    HW271462   7.096   6.445  10.667
23341SOL     OW71463   5.643   5.743   9.602
23341SOL    HW171464   5.628   5.814   9.540
23341SOL    HW271465   5.729   5.707   9.578
23342SOL     OW71466   6.758   6.914   9.433
23342SOL    HW171467   6.663   6.901   9.424
23342SOL    HW271468   6.774   6.906   9.526
23343SOL     OW71469   6.208   6.415  10.749
23343SOL    HW171470   6.266   6.489  10.735
23343SOL    HW271471   6.267   6.339  10.753
23344SOL     OW71472   7.068   7.382  10.302
23344SOL    HW171473   7.090   7.440  10.229
23344SOL    HW271474   7.152   7.341  10.325
23345SOL     OW71475   6.310   6.138  11.007
23345SOL    HW171476   6.354   6.194  11.071
23345SOL    HW271477   6.323   6.049  11.040
23346SOL     OW71478   7.058   6.776  10.936
23346SOL    HW171479   7.047   6.794  11.030
23346SOL    HW271480   7.149   6.798  10.918
23347SOL     OW71481   5.953   7.325  10.879
23347SOL    HW171482   5.872   7.372  10.861
23347SOL    HW271483   5.925   7.242  10.918
23348SOL     OW71484   7.247   6.464  10.566
23348SOL    HW171485   7.243   6.376  10.527
23348SOL    HW271486   7.240   6.524  10.491
23349SOL     OW71487   6.810   5.909   9.778
23349SOL    HW171488   6.867   5.834   9.765
23349SOL    HW271489   6.850   5.958   9.850
23350SOL     OW71490   6.166   6.323   9.992
23350SOL    HW171491   6.209   6.406   9.970
23350SOL    HW271492   6.105   6.308   9.920
23351SOL     OW71493   7.334   5.952  10.961
23351SOL    HW171494   7.321   5.968  10.867
23351SOL    HW271495   7.261   5.894  10.985
23352SOL     OW71496   7.342   6.515  10.818
23352SOL    HW171497   7.323   6.608  10.832
23352SOL    HW271498   7.318   6.499  10.727
23353SOL     OW71499   6.478   6.952   9.371
23353SOL    HW171500   6.416   6.987   9.435
23353SOL    HW271501   6.486   7.022   9.306
23354SOL     OW71502   6.251   7.371  10.246
23354SOL    HW171503   6.234   7.464  10.227
23354SOL    HW271504   6.345   7.361  10.235
23355SOL     OW71505   6.456   6.562  10.168
23355SOL    HW171506   6.503   6.486  10.203
23355SOL    HW271507   6.414   6.601  10.244
23356SOL     OW71508   6.676   6.578   9.408
23356SOL    HW171509   6.649   6.623   9.327
23356SOL    HW271510   6.752   6.526   9.382
23357SOL     OW71511   7.423   7.142  10.152
23357SOL    HW171512   7.347   7.129  10.095
23357SOL    HW271513   7.404   7.088  10.229
23358SOL     OW71514   5.804   6.877  11.155
23358SOL    HW171515   5.765   6.800  11.112
23358SOL    HW271516   5.751   6.889  11.234
23359SOL     OW71517   5.681   6.820   9.973
23359SOL    HW171518   5.685   6.767  10.053
23359SOL    HW271519   5.743   6.778   9.914
23360SOL     OW71520   6.275   6.997  10.943
23360SOL    HW171521   6.196   6.954  10.977
23360SOL    HW271522   6.272   7.085  10.980
23361SOL     OW71523   7.402   5.764  10.543
23361SOL    HW171524   7.393   5.671  10.559
23361SOL    HW271525   7.413   5.772  10.448
23362SOL     OW71526   6.021   6.015   9.840
23362SOL    HW171527   6.048   5.948   9.777
23362SOL    HW271528   5.964   5.969   9.901
23363SOL     OW71529   7.282   7.068  10.397
23363SOL    HW171530   7.203   7.049  10.347
23363SOL    HW271531   7.281   7.004  10.468
23364SOL     OW71532   5.930   6.150  10.604
23364SOL    HW171533   5.981   6.087  10.656
23364SOL    HW271534   5.940   6.120  10.514
23365SOL     OW71535   6.419   7.173   9.977
23365SOL    HW171536   6.401   7.248   9.921
23365SOL    HW271537   6.342   7.116   9.967
23366SOL     OW71538   7.006   5.814  10.420
23366SOL    HW171539   7.012   5.721  10.443
23366SOL    HW271540   6.958   5.854  10.493
23367SOL     OW71541   6.595   5.601  10.440
23367SOL    HW171542   6.543   5.536  10.394
23367SOL    HW271543   6.683   5.563  10.445
23368SOL     OW71544   6.353   6.920   9.644
23368SOL    HW171545   6.323   6.829   9.644
23368SOL    HW271546   6.444   6.915   9.674
23369SOL     OW71547   6.205   7.145  10.598
23369SOL    HW171548   6.205   7.227  10.648
23369SOL    HW271549   6.294   7.140  10.561
23370SOL     OW71550   6.941   5.644   9.486
23370SOL    HW171551   6.980   5.572   9.437
23370SOL    HW271552   6.852   5.614   9.504
23371SOL     OW71553   6.914   6.080  10.000
23371SOL    HW171554   6.843   6.144   9.992
23371SOL    HW271555   6.894   6.030  10.079
23372SOL     OW71556   7.184   5.798  10.202
23372SOL    HW171557   7.116   5.814  10.268
23372SOL    HW271558   7.176   5.872  10.142
23373SOL     OW71559   5.630   6.649   9.624
23373SOL    HW171560   5.721   6.637   9.599
23373SOL    HW271561   5.599   6.560   9.645
23374SOL     OW71562   6.477   7.250   9.638
23374SOL    HW171563   6.401   7.232   9.583
23374SOL    HW271564   6.445   7.314   9.702
23375SOL     OW71565   5.807   6.210  11.303
23375SOL    HW171566   5.717   6.202  11.337
23375SOL    HW271567   5.799   6.187  11.210
23376SOL     OW71568   5.811   5.873  12.164
23376SOL    HW171569   5.841   5.834  12.246
23376SOL    HW271570   5.723   5.839  12.152
23377SOL     OW71571   5.583   5.971  11.811
23377SOL    HW171572   5.503   5.999  11.856
23377SOL    HW271573   5.556   5.895  11.759
23378SOL     OW71574   6.130   6.835  12.334
23378SOL    HW171575   6.053   6.874  12.293
23378SOL    HW271576   6.142   6.886  12.415
23379SOL     OW71577   7.165   7.105  11.885
23379SOL    HW171578   7.123   7.080  11.968
23379SOL    HW271579   7.093   7.108  11.822
23380SOL     OW71580   6.722   6.282  11.866
23380SOL    HW171581   6.767   6.366  11.855
23380SOL    HW271582   6.669   6.293  11.945
23381SOL     OW71583   7.372   6.181  11.395
23381SOL    HW171584   7.342   6.179  11.305
23381SOL    HW271585   7.333   6.104  11.436
23382SOL     OW71586   6.348   6.721  12.232
23382SOL    HW171587   6.266   6.751  12.270
23382SOL    HW271588   6.381   6.796  12.183
23383SOL     OW71589   6.272   6.578  11.816
23383SOL    HW171590   6.338   6.575  11.885
23383SOL    HW271591   6.203   6.635  11.851
23384SOL     OW71592   5.922   6.994  12.229
23384SOL    HW171593   5.842   6.959  12.189
23384SOL    HW271594   5.961   7.048  12.161
23385SOL     OW71595   7.190   6.020  11.921
23385SOL    HW171596   7.123   6.037  11.854
23385SOL    HW271597   7.183   6.094  11.981
23386SOL     OW71598   5.803   7.305  11.636
23386SOL    HW171599   5.827   7.378  11.693
23386SOL    HW271600   5.878   7.295  11.577
23387SOL     OW71601   5.821   7.035  11.712
23387SOL    HW171602   5.797   7.128  11.713
23387SOL    HW271603   5.763   6.995  11.777
23388SOL     OW71604   5.858   6.678  12.065
23388SOL    HW171605   5.856   6.589  12.100
23388SOL    HW271606   5.803   6.729  12.125
23389SOL     OW71607   6.160   6.572  11.316
23389SOL    HW171608   6.210   6.615  11.247
23389SOL    HW271609   6.200   6.603  11.398
23390SOL     OW71610   5.707   6.244  11.735
23390SOL    HW171611   5.675   6.156  11.756
23390SOL    HW271612   5.697   6.293  11.817
23391SOL     OW71613   7.433   7.335  11.498
23391SOL    HW171614   7.503   7.312  11.560
23391SOL    HW271615   7.448   7.427  11.478
23392SOL     OW71616   5.631   7.174  11.288
23392SOL    HW171617   5.613   7.082  11.308
23392SOL    HW271618   5.602   7.221  11.367
23393SOL     OW71619   7.275   6.508  11.821
23393SOL    HW171620   7.356   6.463  11.798
23393SOL    HW271621   7.253   6.558  11.742
23394SOL     OW71622   7.236   6.689  11.603
23394SOL    HW171623   7.322   6.688  11.561
23394SOL    HW271624   7.243   6.754  11.673
23395SOL     OW71625   5.760   6.335   0.220
23395SOL    HW171626   5.743   6.311   0.311
23395SOL    HW271627   5.681   6.381   0.192
23396SOL     OW71628   6.197   6.981  11.901
23396SOL    HW171629   6.154   6.896  11.909
23396SOL    HW271630   6.183   7.008  11.810
23397SOL     OW71631   6.412   5.595  11.696
23397SOL    HW171632   6.452   5.676  11.666
23397SOL    HW271633   6.318   5.612  11.695
23398SOL     OW71634   5.781   6.582  12.410
23398SOL    HW171635   5.857   6.524  12.414
23398SOL    HW271636   5.707   6.527  12.435
23399SOL     OW71637   7.118   6.590  11.373
23399SOL    HW171638   7.049   6.531  11.404
23399SOL    HW271639   7.160   6.622  11.452
23400SOL     OW71640   7.060   6.999  12.119
23400SOL    HW171641   6.991   7.016  12.183
23400SOL    HW271642   7.043   6.909  12.089
23401SOL     OW71643   7.234   7.349  11.745
23401SOL    HW171644   7.213   7.310  11.661
23401SOL    HW271645   7.222   7.279  11.809
23402SOL     OW71646   6.180   6.302  11.447
23402SOL    HW171647   6.179   6.386  11.402
23402SOL    HW271648   6.114   6.311  11.516
23403SOL     OW71649   6.877   5.957  12.112
23403SOL    HW171650   6.787   5.924  12.108
23403SOL    HW271651   6.921   5.901  12.175
23404SOL     OW71652   7.163   7.264  11.485
23404SOL    HW171653   7.256   7.282  11.476
23404SOL    HW271654   7.133   7.247  11.396
23405SOL     OW71655   6.569   5.935  12.386
23405SOL    HW171656   6.575   6.007  12.450
23405SOL    HW271657   6.478   5.937  12.356
23406SOL     OW71658   6.642   6.284  11.595
23406SOL    HW171659   6.661   6.277  11.688
23406SOL    HW271660   6.558   6.240  11.584
23407SOL     OW71661   5.673   6.413  11.951
23407SOL    HW171662   5.754   6.405  12.000
23407SOL    HW271663   5.627   6.487  11.991
23408SOL     OW71664   6.482   5.938  11.371
23408SOL    HW171665   6.528   5.998  11.311
23408SOL    HW271666   6.461   5.862  11.317
23409SOL     OW71667   6.969   6.729  11.712
23409SOL    HW171668   7.047   6.717  11.659
23409SOL    HW271669   6.915   6.790  11.662
23410SOL     OW71670   6.140   5.769  12.065
23410SOL    HW171671   6.140   5.824  12.143
23410SOL    HW271672   6.132   5.829  11.992
23411SOL     OW71673   6.583   7.034  11.640
23411SOL    HW171674   6.556   7.108  11.585
23411SOL    HW271675   6.553   7.058  11.727
23412SOL     OW71676   5.940   7.402  12.041
23412SOL    HW171677   5.987   7.319  12.051
23412SOL    HW271678   6.005   7.469  12.060
23413SOL     OW71679   7.382   6.643  12.045
23413SOL    HW171680   7.330   6.617  11.969
23413SOL    HW271681   7.320   6.648  12.117
23414SOL     OW71682   5.894   6.546  11.429
23414SOL    HW171683   5.976   6.566  11.384
23414SOL    HW271684   5.866   6.463  11.391
23415SOL     OW71685   7.068   6.338  11.886
23415SOL    HW171686   7.066   6.298  11.973
23415SOL    HW271687   7.145   6.394  11.888
23416SOL     OW71688   6.718   7.365  11.396
23416SOL    HW171689   6.639   7.331  11.438
23416SOL    HW271690   6.740   7.300  11.329
23417SOL     OW71691   7.218   6.973  11.266
23417SOL    HW171692   7.175   7.057  11.251
23417SOL    HW271693   7.152   6.907  11.245
23418SOL     OW71694   6.046   7.323  11.488
23418SOL    HW171695   6.093   7.373  11.555
23418SOL    HW271696   6.116   7.285  11.433
23419SOL     OW71697   6.982   5.684  11.623
23419SOL    HW171698   6.972   5.662  11.531
23419SOL    HW271699   7.076   5.693  11.636
23420SOL     OW71700   5.828   7.367  12.392
23420SOL    HW171701   5.839   7.288  12.445
23420SOL    HW271702   5.788   7.335  12.311
23421SOL     OW71703   6.531   7.282  12.067
23421SOL    HW171704   6.613   7.234  12.079
23421SOL    HW271705   6.485   7.235  11.998
23422SOL     OW71706   5.985   6.277  11.647
23422SOL    HW171707   6.001   6.183  11.660
23422SOL    HW271708   5.891   6.288  11.662
23423SOL     OW71709   6.242   5.697  11.271
23423SOL    HW171710   6.295   5.620  11.287
23423SOL    HW271711   6.180   5.671  11.203
23424SOL     OW71712   6.398   6.950  12.100
23424SOL    HW171713   6.486   6.957  12.063
23424SOL    HW271714   6.339   6.968  12.027
23425SOL     OW71715   6.520   6.097  12.067
23425SOL    HW171716   6.491   6.086  11.976
23425SOL    HW271717   6.554   6.012  12.092
23426SOL     OW71718   6.146   5.650  11.666
23426SOL    HW171719   6.064   5.648  11.714
23426SOL    HW271720   6.137   5.725  11.607
23427SOL     OW71721   7.017   6.792  11.210
23427SOL    HW171722   7.045   6.716  11.261
23427SOL    HW271723   6.930   6.813  11.244
23428SOL     OW71724   5.870   5.636  11.360
23428SOL    HW171725   5.921   5.698  11.307
23428SOL    HW271726   5.935   5.577  11.397
23429SOL     OW71727   6.533   5.835  11.624
23429SOL    HW171728   6.507   5.871  11.539
23429SOL    HW271729   6.627   5.853  11.630
23430SOL     OW71730   6.803   7.167  11.971
23430SOL    HW171731   6.814   7.229  11.899
23430SOL    HW271732   6.877   7.185  12.029
23431SOL     OW71733   6.060   6.740  11.893
23431SOL    HW171734   5.995   6.720  11.960
23431SOL    HW271735   6.012   6.730  11.810
23432SOL     OW71736   6.843   7.377  11.787
23432SOL    HW171737   6.891   7.440  11.732
23432SOL    HW271738   6.776   7.430  11.830
23433SOL     OW71739   6.613   6.115  11.201
23433SOL    HW171740   6.569   6.197  11.181
23433SOL    HW271741   6.677   6.138  11.268
23434SOL     OW71742   6.148   5.794  12.356
23434SOL    HW171743   6.162   5.707  12.318
23434SOL    HW271744   6.054   5.797  12.374
23435SOL     OW71745   6.452   6.042  11.806
23435SOL    HW171746   6.409   6.099  11.743
23435SOL    HW271747   6.476   5.964  11.756
23436SOL     OW71748   6.602   5.618  11.917
23436SOL    HW171749   6.541   5.622  11.843
23436SOL    HW271750   6.571   5.544  11.969
23437SOL     OW71751   7.021   6.741  12.025
23437SOL    HW171752   6.953   6.673  12.024
23437SOL    HW271753   7.044   6.753  11.933
23438SOL     OW71754   7.046   6.196  12.127
23438SOL    HW171755   6.989   6.120  12.132
23438SOL    HW271756   7.106   6.187  12.202
23439SOL     OW71757   7.424   6.392  11.562
23439SOL    HW171758   7.484   6.344  11.620
23439SOL    HW271759   7.402   6.330  11.493
23440SOL     OW71760   6.076   7.009  11.321
23440SOL    HW171761   6.001   6.978  11.373
23440SOL    HW271762   6.073   6.956  11.242
23441SOL     OW71763   7.267   6.855  11.810
23441SOL    HW171764   7.361   6.851  11.830
23441SOL    HW271765   7.241   6.944  11.835
23442SOL     OW71766   6.979   6.158  11.243
23442SOL    HW171767   6.917   6.136  11.312
23442SOL    HW271768   7.063   6.123  11.274
23443SOL     OW71769   6.118   5.846  11.479
23443SOL    HW171770   6.165   5.801  11.409
23443SOL    HW271771   6.087   5.928  11.439
23444SOL     OW71772   6.693   6.824  12.286
23444SOL    HW171773   6.610   6.842  12.330
23444SOL    HW271774   6.679   6.854  12.196
23445SOL     OW71775   7.192   6.681  12.244
23445SOL    HW171776   7.161   6.718  12.327
23445SOL    HW271777   7.124   6.703  12.180
23446SOL     OW71778   6.299   6.651  11.544
23446SOL    HW171779   6.283   6.627  11.636
23446SOL    HW271780   6.374   6.597  11.518
23447SOL     OW71781   6.017   6.412  12.451
23447SOL    HW171782   6.062   6.460  12.520
23447SOL    HW271783   6.042   6.321  12.465
23448SOL     OW71784   6.841   5.946  12.430
23448SOL    HW171785   6.869   6.031  12.465
23448SOL    HW271786   6.751   5.960  12.402
23449SOL     OW71787   5.914   6.711  11.659
23449SOL    HW171788   5.914   6.784  11.597
23449SOL    HW271789   5.914   6.633  11.604
23450SOL     OW71790   6.126   6.110  12.035
23450SOL    HW171791   6.140   6.168  11.959
23450SOL    HW271792   6.192   6.138  12.099
23451SOL     OW71793   6.832   6.937  11.566
23451SOL    HW171794   6.887   7.008  11.599
23451SOL    HW271795   6.744   6.959  11.598
23452SOL     OW71796   6.874   7.033  12.315
23452SOL    HW171797   6.930   7.030  12.393
23452SOL    HW271798   6.818   6.956  12.324
23453SOL     OW71799   7.163   6.200  11.661
23453SOL    HW171800   7.112   6.245  11.728
23453SOL    HW271801   7.201   6.271  11.609
23454SOL     OW71802   5.962   7.123  12.463
23454SOL    HW171803   5.932   7.069  12.390
23454SOL    HW271804   6.026   7.183  12.424
23455SOL     OW71805   6.166   6.459  12.215
23455SOL    HW171806   6.193   6.551  12.207
23455SOL    HW271807   6.109   6.457  12.291
23456SOL     OW71808   6.911   6.442  12.167
23456SOL    HW171809   6.825   6.415  12.136
23456SOL    HW271810   6.964   6.362  12.161
23457SOL     OW71811   6.786   6.112  11.433
23457SOL    HW171812   6.792   6.033  11.487
23457SOL    HW271813   6.743   6.176  11.489
23458SOL     OW71814   5.884   5.768  12.408
23458SOL    HW171815   5.848   5.797  12.492
23458SOL    HW271816   5.869   5.673  12.408
23459SOL     OW71817   5.645   6.915  12.432
23459SOL    HW171818   5.681   6.838  12.477
23459SOL    HW271819   5.646   6.985  12.497
23460SOL     OW71820   6.299   6.214  12.221
23460SOL    HW171821   6.377   6.206  12.166
23460SOL    HW271822   6.269   6.304  12.208
23461SOL     OW71823   5.902   5.647  11.792
23461SOL    HW171824   5.873   5.736  11.811
23461SOL    HW271825   5.906   5.604  11.877
23462SOL     OW71826   7.211   5.967  11.527
23462SOL    HW171827   7.244   5.902  11.590
23462SOL    HW271828   7.186   6.042  11.581
23463SOL     OW71829   6.616   6.341  12.141
23463SOL    HW171830   6.606   6.350  12.236
23463SOL    HW271831   6.588   6.251  12.122
23464SOL     OW71832   7.107   5.857  11.296
23464SOL    HW171833   7.046   5.790  11.327
23464SOL    HW271834   7.144   5.895  11.376
23465SOL     OW71835   6.872   6.409  11.199
23465SOL    HW171836   6.912   6.322  11.204
23465SOL    HW271837   6.904   6.446  11.117
23466SOL     OW71838   6.661   6.931  12.031
23466SOL    HW171839   6.668   6.859  11.969
23466SOL    HW271840   6.717   6.999  11.994
23467SOL     OW71841   5.898   6.400  12.112
23467SOL    HW171842   5.992   6.414  12.110
23467SOL    HW271843   5.888   6.309  12.140
23468SOL     OW71844   5.894   6.128  12.171
23468SOL    HW171845   5.864   6.037  12.170
23468SOL    HW271846   5.976   6.127  12.122
23469SOL     OW71847   6.756   5.801   0.148
23469SOL    HW171848   6.735   5.867   0.214
23469SOL    HW271849   6.785   5.852   0.072
23470SOL     OW71850   5.603   6.898  11.359
23470SOL    HW171851   5.514   6.917  11.329
23470SOL    HW271852   5.597   6.811  11.398
23471SOL     OW71853   5.679   7.364  12.116
23471SOL    HW171854   5.649   7.287  12.068
23471SOL    HW271855   5.767   7.381  12.084
23472SOL     OW71856   6.081   7.165  12.075
23472SOL    HW171857   6.152   7.222  12.104
23472SOL    HW271858   6.122   7.102  12.017
23473SOL     OW71859   6.558   6.371  12.416
23473SOL    HW171860   6.605   6.442  12.460
23473SOL    HW271861   6.466   6.394  12.427
23474SOL     OW71862   5.639   6.154  12.284
23474SOL    HW171863   5.719   6.156  12.230
23474SOL    HW271864   5.660   6.092  12.354
23475SOL     OW71865   6.404   6.158  11.542
23475SOL    HW171866   6.410   6.084  11.482
23475SOL    HW271867   6.329   6.208  11.511
23476SOL     OW71868   7.230   6.180  12.327
23476SOL    HW171869   7.232   6.134  12.411
23476SOL    HW271870   7.320   6.176  12.295
23477SOL     OW71871   6.308   6.018  12.414
23477SOL    HW171872   6.236   5.958  12.395
23477SOL    HW271873   6.294   6.092  12.354
23478SOL     OW71874   6.473   7.232   0.032
23478SOL    HW171875   6.483   7.298  -0.036
23478SOL    HW271876   6.508   7.274   0.111
23479SOL     OW71877   6.043   6.077  11.355
23479SOL    HW171878   6.103   6.148  11.378
23479SOL    HW271879   5.958   6.120  11.344
23480SOL     OW71880   6.872   6.621  12.368
23480SOL    HW171881   6.892   6.565  12.293
23480SOL    HW271882   6.818   6.691  12.331
23481SOL     OW71883   6.906   6.442  11.473
23481SOL    HW171884   6.833   6.410  11.525
23481SOL    HW271885   6.879   6.429  11.382
23482SOL     OW71886   7.344   7.341  12.304
23482SOL    HW171887   7.415   7.357  12.242
23482SOL    HW271888   7.329   7.246  12.300
23483SOL     OW71889   6.831   7.303  12.278
23483SOL    HW171890   6.910   7.339  12.238
23483SOL    HW271891   6.849   7.209  12.284
23484SOL     OW71892   5.671   6.867  12.167
23484SOL    HW171893   5.657   6.882  12.261
23484SOL    HW271894   5.609   6.798  12.145
23485SOL     OW71895   7.320   5.754  11.677
23485SOL    HW171896   7.385   5.737  11.609
23485SOL    HW271897   7.299   5.668  11.713
23486SOL     OW71898   6.980   7.155  11.669
23486SOL    HW171899   7.035   7.190  11.600
23486SOL    HW271900   6.926   7.229  11.697
23487SOL     OW71901   6.863   6.515  11.841
23487SOL    HW171902   6.937   6.455  11.851
23487SOL    HW271903   6.898   6.586  11.787
23488SOL     OW71904   6.253   7.214  11.327
23488SOL    HW171905   6.266   7.229  11.233
23488SOL    HW271906   6.198   7.136  11.331
23489SOL     OW71907   7.208   7.374   0.044
23489SOL    HW171908   7.264   7.364  -0.033
23489SOL    HW271909   7.222   7.465   0.071
23490SOL     OW71910   7.424   5.756  12.146
23490SOL    HW171911   7.457   5.669  12.120
23490SOL    HW271912   7.339   5.763  12.102
23491SOL     OW71913   5.840   5.896  11.882
23491SOL    HW171914   5.753   5.930  11.858
23491SOL    HW271915   5.840   5.897  11.978
23492SOL     OW71916   6.795   7.181  11.206
23492SOL    HW171917   6.783   7.090  11.235
23492SOL    HW271918   6.728   7.194  11.140
23493SOL     OW71919   6.378   6.598  12.482
23493SOL    HW171920   6.378   6.645  12.399
23493SOL    HW271921   6.453   6.633  12.529
23494SOL     OW71922   6.507   6.501  11.466
23494SOL    HW171923   6.566   6.533  11.398
23494SOL    HW271924   6.557   6.430  11.509
23495SOL     OW71925   7.071   7.226  11.222
23495SOL    HW171926   6.978   7.208  11.205
23495SOL    HW271927   7.111   7.228  11.135
23496SOL     OW71928   6.654   6.700  11.890
23496SOL    HW171929   6.579   6.650  11.923
23496SOL    HW271930   6.716   6.633  11.861
23497SOL     OW71931   6.630   5.832  12.105
23497SOL    HW171932   6.617   5.766  12.037
23497SOL    HW271933   6.605   5.787  12.186
23498SOL     OW71934   6.193   7.076  11.646
23498SOL    HW171935   6.244   7.025  11.583
23498SOL    HW271936   6.113   7.099  11.599
23499SOL     OW71937   7.355   6.024   0.039
23499SOL    HW171938   7.449   6.032   0.054
23499SOL    HW271939   7.343   5.933   0.009
23500SOL     OW71940   5.858   6.925  11.473
23500SOL    HW171941   5.769   6.921  11.439
23500SOL    HW271942   5.850   6.969  11.558
23501SOL     OW71943   5.663   5.911  11.202
23501SOL    HW171944   5.584   5.887  11.153
23501SOL    HW271945   5.694   5.990  11.158
23502SOL     OW71946   5.641   5.741  11.465
23502SOL    HW171947   5.627   5.814  11.405
23502SOL    HW271948   5.727   5.707  11.441
23503SOL     OW71949   6.764   6.916  11.291
23503SOL    HW171950   6.673   6.885  11.291
23503SOL    HW271951   6.788   6.916  11.384
23504SOL     OW71952   7.072   7.370  12.154
23504SOL    HW171953   7.090   7.446  12.100
23504SOL    HW271954   7.154   7.353  12.200
23505SOL     OW71955   7.259   6.454  12.401
23505SOL    HW171956   7.237   6.370  12.360
23505SOL    HW271957   7.237   6.519  12.334
23506SOL     OW71958   6.803   5.904  11.629
23506SOL    HW171959   6.864   5.830  11.625
23506SOL    HW271960   6.833   5.955  11.705
23507SOL     OW71961   6.170   6.317  11.852
23507SOL    HW171962   6.211   6.401  11.835
23507SOL    HW271963   6.107   6.306  11.780
23508SOL     OW71964   7.402   6.489   0.123
23508SOL    HW171965   7.357   6.556   0.175
23508SOL    HW271966   7.345   6.475   0.047
23509SOL     OW71967   6.454   6.949  11.223
23509SOL    HW171968   6.415   6.971  11.307
23509SOL    HW271969   6.464   7.034  11.179
23510SOL     OW71970   6.256   7.369  12.133
23510SOL    HW171971   6.233   7.456  12.100
23510SOL    HW271972   6.349   7.360  12.113
23511SOL     OW71973   6.458   6.557  12.028
23511SOL    HW171974   6.506   6.483  12.066
23511SOL    HW271975   6.422   6.604  12.103
23512SOL     OW71976   6.667   6.580  11.263
23512SOL    HW171977   6.642   6.627  11.184
23512SOL    HW271978   6.737   6.521  11.235
23513SOL     OW71979   7.435   7.141  12.015
23513SOL    HW171980   7.350   7.130  11.971
23513SOL    HW271981   7.433   7.078  12.087
23514SOL     OW71982   5.682   6.813  11.837
23514SOL    HW171983   5.697   6.773  11.922
23514SOL    HW271984   5.746   6.773  11.779
23515SOL     OW71985   7.392   5.765  12.421
23515SOL    HW171986   7.431   5.678  12.431
23515SOL    HW271987   7.398   5.783  12.327
23516SOL     OW71988   6.018   6.015  11.699
23516SOL    HW171989   6.045   5.947  11.638
23516SOL    HW271990   5.962   5.970  11.762
23517SOL     OW71991   7.292   7.077  12.275
23517SOL    HW171992   7.212   7.043  12.235
23517SOL    HW271993   7.304   7.024  12.354
23518SOL     OW71994   6.417   7.176  11.843
23518SOL    HW171995   6.401   7.251  11.785
23518SOL    HW271996   6.339   7.121  11.833
23519SOL     OW71997   7.033   5.810  12.304
23519SOL    HW171998   7.103   5.795  12.367
23519SOL    HW271999   6.963   5.852  12.354
23520SOL     OW72000   6.592   5.570  12.292
23520SOL    HW172001   6.552   5.523  12.218
23520SOL    HW272002   6.685   5.546  12.287
23521SOL     OW72003   6.363   6.920  11.494
23521SOL    HW172004   6.336   6.828  11.503
23521SOL    HW272005   6.444   6.926  11.545
23522SOL     OW72006   6.948   5.632  11.354
23522SOL    HW172007   6.984   5.566  11.295
23522SOL    HW272008   6.859   5.602  11.372
23523SOL     OW72009   6.884   6.048  11.849
23523SOL    HW172010   6.832   6.128  11.851
23523SOL    HW272011   6.881   6.016  11.939
23524SOL     OW72012   7.165   5.775  12.058
23524SOL    HW172013   7.113   5.804  12.133
23524SOL    HW272014   7.167   5.851  12.000
23525SOL     OW72015   5.628   6.647  11.482
23525SOL    HW172016   5.721   6.638  11.461
23525SOL    HW272017   5.599   6.559  11.503
23526SOL     OW72018   6.480   7.248  11.498
23526SOL    HW172019   6.403   7.231  11.443
23526SOL    HW272020   6.450   7.311  11.563
23527SOL     OW72021   5.818   7.726   0.991
23527SOL    HW172022   5.846   7.694   1.076
23527SOL    HW272023   5.728   7.694   0.982
23528SOL     OW72024   5.571   7.826   0.646
23528SOL    HW172025   5.488   7.865   0.675
23528SOL    HW272026   5.546   7.745   0.602
23529SOL     OW72027   7.205   8.029   0.201
23529SOL    HW172028   7.251   7.981   0.133
23529SOL    HW272029   7.209   7.972   0.278
23530SOL     OW72030   6.022   7.860   1.542
23530SOL    HW172031   6.095   7.847   1.481
23530SOL    HW272032   5.957   7.795   1.515
23531SOL     OW72033   7.182   7.949   0.698
23531SOL    HW172034   7.093   7.932   0.668
23531SOL    HW272035   7.172   7.973   0.790
23532SOL     OW72036   7.181   7.573   1.467
23532SOL    HW172037   7.206   7.653   1.420
23532SOL    HW272038   7.151   7.604   1.553
23533SOL     OW72039   5.657   0.102   0.595
23533SOL    HW172040   5.640   0.009   0.610
23533SOL    HW272041   5.752   0.112   0.604
23534SOL     OW72042   6.404   7.443   0.532
23534SOL    HW172043   6.447   7.523   0.501
23534SOL    HW272044   6.311   7.465   0.531
23535SOL     OW72045   5.935   7.700   1.835
23535SOL    HW172046   5.970   7.787   1.816
23535SOL    HW272047   5.842   7.716   1.854
23536SOL     OW72048   6.856   7.802   0.931
23536SOL    HW172049   6.767   7.768   0.940
23536SOL    HW272050   6.909   7.745   0.986
23537SOL     OW72051   6.979   7.928   1.700
23537SOL    HW172052   6.969   7.953   1.792
23537SOL    HW272053   7.029   7.846   1.703
23538SOL     OW72054   6.521   0.369   1.496
23538SOL    HW172055   6.527   0.280   1.460
23538SOL    HW272056   6.431   0.377   1.525
23539SOL     OW72057   6.607   7.814   1.266
23539SOL    HW172058   6.565   7.879   1.322
23539SOL    HW272059   6.542   7.796   1.198
23540SOL     OW72060   6.458   7.782   0.212
23540SOL    HW172061   6.537   7.807   0.164
23540SOL    HW272062   6.444   7.690   0.189
23541SOL     OW72063   7.349   0.030   1.812
23541SOL    HW172064   7.280   0.091   1.785
23541SOL    HW272065   7.338  -0.046   1.754
23542SOL     OW72066   6.135   7.626   0.903
23542SOL    HW172067   6.140   7.646   0.996
23542SOL    HW272068   6.133   7.711   0.860
23543SOL     OW72069   5.780   7.715   1.500
23543SOL    HW172070   5.740   7.773   1.566
23543SOL    HW272071   5.756   7.627   1.528
23544SOL     OW72072   6.996   7.548   0.452
23544SOL    HW172073   6.985   7.512   0.364
23544SOL    HW272074   7.087   7.527   0.475
23545SOL     OW72075   7.102   7.672   1.728
23545SOL    HW172076   7.105   7.692   1.822
23545SOL    HW272077   7.038   7.601   1.722
23546SOL     OW72078   6.208   7.566   0.121
23546SOL    HW172079   6.297   7.532   0.123
23546SOL    HW272080   6.196   7.598   0.031
23547SOL     OW72081   6.355   7.717   1.748
23547SOL    HW172082   6.436   7.667   1.746
23547SOL    HW272083   6.308   7.683   1.824
23548SOL     OW72084   6.977   0.022   1.434
23548SOL    HW172085   6.980  -0.017   1.522
23548SOL    HW272086   6.920   0.098   1.443
23549SOL     OW72087   6.139   7.505   0.500
23549SOL    HW172088   6.059   7.510   0.553
23549SOL    HW272089   6.140   7.586   0.449
23550SOL     OW72090   5.900   7.524   0.208
23550SOL    HW172091   5.981   7.558   0.170
23550SOL    HW272092   5.925   7.439   0.244
23551SOL     OW72093   6.536   7.666   0.455
23551SOL    HW172094   6.504   7.721   0.383
23551SOL    HW272095   6.628   7.690   0.465
23552SOL     OW72096   5.683  -0.002   1.386
23552SOL    HW172097   5.746  -0.054   1.437
23552SOL    HW272098   5.684   0.084   1.429
23553SOL     OW72099   6.143   7.665   1.176
23553SOL    HW172100   6.190   7.606   1.237
23553SOL    HW272101   6.051   7.658   1.203
23554SOL     OW72102   6.611   7.495   0.740
23554SOL    HW172103   6.546   7.497   0.669
23554SOL    HW272104   6.585   7.421   0.795
23555SOL     OW72105   7.086   7.955   0.953
23555SOL    HW172106   6.997   7.920   0.956
23555SOL    HW272107   7.097   8.002   1.035
23556SOL     OW72108   6.142   7.719   0.332
23556SOL    HW172109   6.164   7.663   0.257
23556SOL    HW272110   6.191   7.800   0.317
23557SOL     OW72111   6.512   7.527   1.391
23557SOL    HW172112   6.530   7.511   1.299
23557SOL    HW272113   6.590   7.571   1.424
23558SOL     OW72114   6.874   7.802   1.290
23558SOL    HW172115   6.901   7.885   1.329
23558SOL    HW272116   6.780   7.813   1.274
23559SOL     OW72117   6.138   7.931   0.858
23559SOL    HW172118   6.142   8.002   0.794
23559SOL    HW272119   6.204   7.955   0.924
23560SOL     OW72120   6.592   7.584   1.760
23560SOL    HW172121   6.649   7.657   1.737
23560SOL    HW272122   6.640   7.506   1.733
23561SOL     OW72123   6.080   7.480   1.756
23561SOL    HW172124   6.031   7.430   1.690
23561SOL    HW272125   6.027   7.559   1.770
23562SOL     OW72126   5.881   7.639   1.249
23562SOL    HW172127   5.839   7.672   1.328
23562SOL    HW272128   5.862   7.545   1.249
23563SOL     OW72129   6.330   0.049   1.020
23563SOL    HW172130   6.424   0.061   1.006
23563SOL    HW272131   6.300   0.133   1.054
23564SOL     OW72132   5.896   7.516   0.630
23564SOL    HW172133   5.872   7.606   0.651
23564SOL    HW272134   5.905   7.473   0.715
23565SOL     OW72135   7.193   7.824   0.387
23565SOL    HW172136   7.238   7.750   0.428
23565SOL    HW272137   7.114   7.837   0.441
23566SOL     OW72138   7.101   7.661   0.095
23566SOL    HW172139   7.039   7.614   0.151
23566SOL    HW272140   7.127   7.737   0.147
23567SOL     OW72141   5.880   7.991   1.033
23567SOL    HW172142   5.886   7.898   1.011
23567SOL    HW272143   5.959   8.030   0.993
23568SOL     OW72144   6.719   7.826   1.680
23568SOL    HW172145   6.657   7.899   1.680
23568SOL    HW272146   6.805   7.868   1.685
23569SOL     OW72147   6.754   7.632   1.482
23569SOL    HW172148   6.736   7.703   1.545
23569SOL    HW272149   6.796   7.676   1.408
23570SOL     OW72150   5.618   7.951   1.127
23570SOL    HW172151   5.699   7.950   1.077
23570SOL    HW272152   5.645   7.957   1.218
23571SOL     OW72153   5.763   7.956   1.672
23571SOL    HW172154   5.858   7.945   1.677
23571SOL    HW272155   5.747   8.044   1.707
23572SOL     OW72156   6.378   8.028   0.285
23572SOL    HW172157   6.408   7.937   0.276
23572SOL    HW272158   6.326   8.027   0.366
23573SOL     OW72159   7.216   8.022   1.199
23573SOL    HW172160   7.193   7.961   1.269
23573SOL    HW272161   7.284   7.977   1.149
23574SOL     OW72162   6.192   7.934   1.232
23574SOL    HW172163   6.178   7.840   1.216
23574SOL    HW272164   6.254   7.960   1.164
23575SOL     OW72165   6.486   7.524   0.114
23575SOL    HW172166   6.532   7.555   0.036
23575SOL    HW272167   6.555   7.495   0.173
23576SOL     OW72168   7.314   7.606   0.515
23576SOL    HW172169   7.381   7.582   0.451
23576SOL    HW272170   7.289   7.523   0.555
23577SOL     OW72171   7.430   7.614   0.962
23577SOL    HW172172   7.450   7.524   0.937
23577SOL    HW272173   7.344   7.631   0.924
23578SOL     OW72174   5.835   7.770   0.713
23578SOL    HW172175   5.744   7.794   0.699
23578SOL    HW272176   5.843   7.760   0.808
23579SOL     OW72177   6.619   7.673   0.959
23579SOL    HW172178   6.614   7.623   0.878
23579SOL    HW272179   6.606   7.608   1.028
23580SOL     OW72180   7.323   7.813   1.391
23580SOL    HW172181   7.383   7.887   1.382
23580SOL    HW272182   7.354   7.749   1.327
23581SOL     OW72183   6.270   7.624   1.489
23581SOL    HW172184   6.357   7.603   1.455
23581SOL    HW272185   6.286   7.668   1.572
23582SOL     OW72186   5.652   7.594   0.307
23582SOL    HW172187   5.645   7.688   0.289
23582SOL    HW272188   5.740   7.571   0.278
23583SOL     OW72189   6.317   7.994   1.732
23583SOL    HW172190   6.406   8.024   1.717
23583SOL    HW272191   6.322   7.899   1.724
23584SOL     OW72192   6.807   7.746   0.449
23584SOL    HW172193   6.872   7.676   0.455
23584SOL    HW272194   6.832   7.808   0.518
23585SOL     OW72195   6.205   0.245   0.700
23585SOL    HW172196   6.250   0.326   0.673
23585SOL    HW272197   6.175   0.206   0.617
23586SOL     OW72198   7.338   7.804   1.664
23586SOL    HW172199   7.328   7.817   1.570
23586SOL    HW272200   7.266   7.746   1.689
23587SOL     OW72201   7.413   7.615   1.235
23587SOL    HW172202   7.401   7.521   1.242
23587SOL    HW272203   7.419   7.632   1.141
23588SOL     OW72204   5.929   7.855   0.443
23588SOL    HW172205   5.995   7.790   0.418
23588SOL    HW272206   5.907   7.832   0.534
23589SOL     OW72207   7.015   7.660   1.104
23589SOL    HW172208   7.017   7.567   1.127
23589SOL    HW272209   6.973   7.703   1.178
23590SOL     OW72210   6.590   7.453   1.132
23590SOL    HW172211   6.541   7.388   1.081
23590SOL    HW272212   6.678   7.417   1.139
23591SOL     OW72213   6.935   7.470   0.197
23591SOL    HW172214   6.947   7.438   0.108
23591SOL    HW272215   6.842   7.456   0.216
23592SOL     OW72216   6.902   7.898   0.673
23592SOL    HW172217   6.847   7.977   0.672
23592SOL    HW272218   6.885   7.858   0.759
23593SOL     OW72219   7.178   7.667   0.882
23593SOL    HW172220   7.124   7.665   0.961
23593SOL    HW272221   7.154   7.749   0.839
23594SOL     OW72222   5.816   7.718   2.856
23594SOL    HW172223   5.841   7.689   2.944
23594SOL    HW272224   5.726   7.689   2.845
23595SOL     OW72225   5.570   7.832   2.509
23595SOL    HW172226   5.484   7.864   2.538
23595SOL    HW272227   5.550   7.750   2.463
23596SOL     OW72228   7.258   0.027   2.088
23596SOL    HW172229   7.305   0.042   2.006
23596SOL    HW272230   7.279  -0.063   2.112
23597SOL     OW72231   6.011   7.856   3.402
23597SOL    HW172232   6.088   7.809   3.368
23597SOL    HW272233   5.938   7.796   3.386
23598SOL     OW72234   7.185   7.928   2.564
23598SOL    HW172235   7.095   7.918   2.534
23598SOL    HW272236   7.177   7.959   2.654
23599SOL     OW72237   7.177   7.579   3.325
23599SOL    HW172238   7.210   7.659   3.284
23599SOL    HW272239   7.150   7.605   3.412
23600SOL     OW72240   5.645   0.099   2.450
23600SOL    HW172241   5.629   0.008   2.477
23600SOL    HW272242   5.740   0.109   2.454
23601SOL     OW72243   6.405   7.430   2.381
23601SOL    HW172244   6.450   7.510   2.355
23601SOL    HW272245   6.312   7.454   2.384
23602SOL     OW72246   5.932   7.698   3.694
23602SOL    HW172247   5.970   7.785   3.709
23602SOL    HW272248   5.839   7.709   3.712
23603SOL     OW72249   6.851   7.802   2.796
23603SOL    HW172250   6.762   7.767   2.806
23603SOL    HW272251   6.905   7.746   2.852
23604SOL     OW72252   6.987   7.933   3.565
23604SOL    HW172253   6.966   7.956   3.656
23604SOL    HW272254   7.039   7.853   3.572
23605SOL     OW72255   6.516   0.400   3.360
23605SOL    HW172256   6.566   0.322   3.336
23605SOL    HW272257   6.424   0.375   3.350
23606SOL     OW72258   6.586   7.817   3.110
23606SOL    HW172259   6.501   7.844   3.144
23606SOL    HW272260   6.564   7.754   3.041
23607SOL     OW72261   6.485   7.783   2.057
23607SOL    HW172262   6.507   7.814   1.969
23607SOL    HW272263   6.506   7.690   2.055
23608SOL     OW72264   7.355   0.031   3.667
23608SOL    HW172265   7.282   0.087   3.642
23608SOL    HW272266   7.348  -0.046   3.611
23609SOL     OW72267   6.139   7.628   2.767
23609SOL    HW172268   6.140   7.649   2.860
23609SOL    HW272269   6.134   7.714   2.724
23610SOL     OW72270   5.773   7.716   3.373
23610SOL    HW172271   5.717   7.766   3.432
23610SOL    HW272272   5.757   7.624   3.396
23611SOL     OW72273   6.984   7.545   2.304
23611SOL    HW172274   6.975   7.522   2.212
23611SOL    HW272275   7.078   7.547   2.320
23612SOL     OW72276   7.103   7.671   3.591
23612SOL    HW172277   7.111   7.692   3.684
23612SOL    HW272278   7.039   7.600   3.587
23613SOL     OW72279   6.238   7.564   1.959
23613SOL    HW172280   6.291   7.488   1.982
23613SOL    HW272281   6.180   7.534   1.890
23614SOL     OW72282   6.356   7.722   3.610
23614SOL    HW172283   6.437   7.671   3.609
23614SOL    HW272284   6.309   7.690   3.687
23615SOL     OW72285   6.939   0.016   3.300
23615SOL    HW172286   6.964  -0.011   3.388
23615SOL    HW272287   6.873   0.084   3.312
23616SOL     OW72288   6.143   7.502   2.359
23616SOL    HW172289   6.064   7.509   2.413
23616SOL    HW272290   6.142   7.581   2.305
23617SOL     OW72291   5.875   7.498   2.044
23617SOL    HW172292   5.931   7.560   1.997
23617SOL    HW272293   5.937   7.438   2.086
23618SOL     OW72294   6.536   7.661   2.320
23618SOL    HW172295   6.497   7.733   2.270
23618SOL    HW272296   6.627   7.686   2.331
23619SOL     OW72297   5.679  -0.007   3.246
23619SOL    HW172298   5.735  -0.051   3.310
23619SOL    HW272299   5.663   0.079   3.284
23620SOL     OW72300   6.139   7.670   3.040
23620SOL    HW172301   6.181   7.607   3.099
23620SOL    HW272302   6.047   7.670   3.066
23621SOL     OW72303   6.616   7.497   2.603
23621SOL    HW172304   6.555   7.504   2.529
23621SOL    HW272305   6.583   7.424   2.655
23622SOL     OW72306   7.089   7.948   2.819
23622SOL    HW172307   6.998   7.921   2.827
23622SOL    HW272308   7.109   7.991   2.902
23623SOL     OW72309   6.140   7.710   2.183
23623SOL    HW172310   6.175   7.672   2.103
23623SOL    HW272311   6.170   7.801   2.181
23624SOL     OW72312   6.507   7.532   3.255
23624SOL    HW172313   6.530   7.513   3.165
23624SOL    HW272314   6.585   7.573   3.292
23625SOL     OW72315   6.855   7.807   3.145
23625SOL    HW172316   6.885   7.885   3.192
23625SOL    HW272317   6.761   7.821   3.134
23626SOL     OW72318   6.134   7.937   2.726
23626SOL    HW172319   6.134   8.006   2.660
23626SOL    HW272320   6.205   7.960   2.786
23627SOL     OW72321   6.592   7.587   3.614
23627SOL    HW172322   6.652   7.659   3.595
23627SOL    HW272323   6.641   7.508   3.594
23628SOL     OW72324   6.080   7.482   3.612
23628SOL    HW172325   6.030   7.429   3.550
23628SOL    HW272326   6.025   7.558   3.629
23629SOL     OW72327   5.877   7.643   3.116
23629SOL    HW172328   5.833   7.675   3.195
23629SOL    HW272329   5.861   7.549   3.115
23630SOL     OW72330   6.333   0.059   2.883
23630SOL    HW172331   6.377   0.094   2.805
23630SOL    HW272332   6.277   0.131   2.912
23631SOL     OW72333   5.899   7.515   2.489
23631SOL    HW172334   5.871   7.603   2.512
23631SOL    HW272335   5.907   7.470   2.573
23632SOL     OW72336   7.195   7.790   2.233
23632SOL    HW172337   7.241   7.728   2.290
23632SOL    HW272338   7.166   7.860   2.291
23633SOL     OW72339   7.077   7.737   1.993
23633SOL    HW172340   7.026   7.659   2.012
23633SOL    HW272341   7.126   7.754   2.074
23634SOL     OW72342   6.916   0.251   1.918
23634SOL    HW172343   6.891   0.162   1.943
23634SOL    HW272344   6.840   0.285   1.870
23635SOL     OW72345   5.887   7.977   2.880
23635SOL    HW172346   5.877   7.883   2.869
23635SOL    HW272347   5.973   7.997   2.841
23636SOL     OW72348   6.734   7.822   3.537
23636SOL    HW172349   6.681   7.899   3.557
23636SOL    HW272350   6.824   7.853   3.543
23637SOL     OW72351   6.751   7.634   3.336
23637SOL    HW172352   6.738   7.700   3.404
23637SOL    HW272353   6.796   7.680   3.266
23638SOL     OW72354   5.623   7.957   2.980
23638SOL    HW172355   5.708   7.954   2.934
23638SOL    HW272356   5.646   7.961   3.073
23639SOL     OW72357   5.773   7.975   3.534
23639SOL    HW172358   5.862   7.943   3.521
23639SOL    HW272359   5.783   8.050   3.593
23640SOL     OW72360   6.377   0.032   2.112
23640SOL    HW172361   6.422  -0.052   2.109
23640SOL    HW272362   6.328   0.030   2.194
23641SOL     OW72363   7.214   8.026   3.061
23641SOL    HW172364   7.201   7.976   3.142
23641SOL    HW272365   7.285   7.979   3.016
23642SOL     OW72366   6.316   7.879   3.095
23642SOL    HW172367   6.248   7.814   3.080
23642SOL    HW272368   6.307   7.941   3.022
23643SOL     OW72369   7.328   7.600   2.378
23643SOL    HW172370   7.393   7.584   2.310
23643SOL    HW272371   7.304   7.512   2.409
23644SOL     OW72372   7.429   7.617   2.822
23644SOL    HW172373   7.451   7.527   2.799
23644SOL    HW272374   7.342   7.631   2.786
23645SOL     OW72375   5.832   7.766   2.580
23645SOL    HW172376   5.741   7.792   2.566
23645SOL    HW272377   5.839   7.753   2.675
23646SOL     OW72378   6.616   7.668   2.827
23646SOL    HW172379   6.613   7.624   2.742
23646SOL    HW272380   6.606   7.598   2.891
23647SOL     OW72381   7.317   7.818   3.247
23647SOL    HW172382   7.383   7.887   3.247
23647SOL    HW272383   7.352   7.752   3.187
23648SOL     OW72384   6.264   7.633   3.356
23648SOL    HW172385   6.350   7.610   3.319
23648SOL    HW272386   6.284   7.669   3.442
23649SOL     OW72387   5.668   7.773   1.887
23649SOL    HW172388   5.599   7.756   1.823
23649SOL    HW272389   5.692   7.865   1.872
23650SOL     OW72390   5.644   7.599   2.150
23650SOL    HW172391   5.634   7.676   2.094
23650SOL    HW272392   5.731   7.565   2.128
23651SOL     OW72393   6.368   8.004   3.586
23651SOL    HW172394   6.275   8.023   3.589
23651SOL    HW272395   6.373   7.908   3.586
23652SOL     OW72396   6.798   7.748   2.335
23652SOL    HW172397   6.863   7.678   2.323
23652SOL    HW272398   6.837   7.805   2.401
23653SOL     OW72399   6.233   0.222   2.500
23653SOL    HW172400   6.237   0.318   2.503
23653SOL    HW272401   6.140   0.202   2.514
23654SOL     OW72402   7.337   7.803   3.520
23654SOL    HW172403   7.322   7.819   3.427
23654SOL    HW272404   7.264   7.747   3.547
23655SOL     OW72405   7.407   7.618   3.094
23655SOL    HW172406   7.401   7.523   3.101
23655SOL    HW272407   7.417   7.635   3.000
23656SOL     OW72408   5.931   7.847   2.326
23656SOL    HW172409   5.991   7.779   2.294
23656SOL    HW272410   5.907   7.818   2.414
23657SOL     OW72411   7.010   7.665   2.977
23657SOL    HW172412   7.021   7.580   3.018
23657SOL    HW272413   6.963   7.717   3.041
23658SOL     OW72414   6.592   7.456   3.001
23658SOL    HW172415   6.534   7.390   2.963
23658SOL    HW272416   6.679   7.415   2.998
23659SOL     OW72417   6.948   7.497   2.031
23659SOL    HW172418   6.984   7.423   1.983
23659SOL    HW272419   6.858   7.471   2.051
23660SOL     OW72420   6.908   7.899   2.542
23660SOL    HW172421   6.861   7.983   2.540
23660SOL    HW272422   6.887   7.862   2.628
23661SOL     OW72423   7.168   7.650   2.752
23661SOL    HW172424   7.117   7.666   2.831
23661SOL    HW272425   7.154   7.729   2.699
23662SOL     OW72426   5.817   7.722   4.720
23662SOL    HW172427   5.843   7.689   4.807
23662SOL    HW272428   5.728   7.690   4.709
23663SOL     OW72429   5.563   7.815   4.380
23663SOL    HW172430   5.481   7.858   4.405
23663SOL    HW272431   5.535   7.736   4.333
23664SOL     OW72432   7.232   0.022   3.931
23664SOL    HW172433   7.294   0.037   3.860
23664SOL    HW272434   7.265  -0.056   3.976
23665SOL     OW72435   6.020   7.846   5.261
23665SOL    HW172436   6.095   7.797   5.227
23665SOL    HW272437   5.945   7.789   5.247
23666SOL     OW72438   7.183   7.908   4.435
23666SOL    HW172439   7.094   7.909   4.400
23666SOL    HW272440   7.174   7.946   4.522
23667SOL     OW72441   7.175   7.576   5.189
23667SOL    HW172442   7.212   7.653   5.145
23667SOL    HW272443   7.146   7.609   5.274
23668SOL     OW72444   5.654   0.074   4.331
23668SOL    HW172445   5.639  -0.019   4.342
23668SOL    HW272446   5.671   0.106   4.420
23669SOL     OW72447   6.405   7.430   4.242
23669SOL    HW172448   6.451   7.510   4.217
23669SOL    HW272449   6.313   7.455   4.246
23670SOL     OW72450   5.926   7.697   5.561
23670SOL    HW172451   5.947   7.788   5.541
23670SOL    HW272452   5.833   7.698   5.584
23671SOL     OW72453   6.854   7.802   4.656
23671SOL    HW172454   6.764   7.768   4.667
23671SOL    HW272455   6.907   7.746   4.713
23672SOL     OW72456   6.987   7.928   5.418
23672SOL    HW172457   6.977   7.959   5.508
23672SOL    HW272458   7.036   7.846   5.425
23673SOL     OW72459   6.520   0.391   5.227
23673SOL    HW172460   6.530   0.305   5.186
23673SOL    HW272461   6.427   0.398   5.246
23674SOL     OW72462   6.590   7.819   4.961
23674SOL    HW172463   6.502   7.839   4.993
23674SOL    HW272464   6.576   7.758   4.889
23675SOL     OW72465   6.482   7.785   3.919
23675SOL    HW172466   6.516   7.812   3.834
23675SOL    HW272467   6.506   7.693   3.927
23676SOL     OW72468   7.377   0.055   5.483
23676SOL    HW172469   7.294   0.101   5.474
23676SOL    HW272470   7.363  -0.029   5.441
23677SOL     OW72471   6.147   7.633   4.629
23677SOL    HW172472   6.145   7.652   4.723
23677SOL    HW272473   6.137   7.719   4.587
23678SOL     OW72474   5.778   7.714   5.227
23678SOL    HW172475   5.691   7.753   5.229
23678SOL    HW272476   5.766   7.625   5.261
23679SOL     OW72477   6.985   7.546   4.167
23679SOL    HW172478   6.977   7.523   4.075
23679SOL    HW272479   7.080   7.546   4.183
23680SOL     OW72480   7.098   7.673   5.455
23680SOL    HW172481   7.101   7.693   5.549
23680SOL    HW272482   7.036   7.601   5.448
23681SOL     OW72483   6.233   7.569   3.820
23681SOL    HW172484   6.279   7.492   3.852
23681SOL    HW272485   6.178   7.536   3.748
23682SOL     OW72486   6.362   7.726   5.476
23682SOL    HW172487   6.441   7.672   5.473
23682SOL    HW272488   6.309   7.688   5.546
23683SOL     OW72489   6.962   0.023   5.157
23683SOL    HW172490   6.973  -0.013   5.245
23683SOL    HW272491   6.894   0.089   5.166
23684SOL     OW72492   6.144   7.506   4.220
23684SOL    HW172493   6.066   7.509   4.275
23684SOL    HW272494   6.139   7.585   4.166
23685SOL     OW72495   5.875   7.500   3.910
23685SOL    HW172496   5.935   7.563   3.870
23685SOL    HW272497   5.933   7.437   3.953
23686SOL     OW72498   6.537   7.662   4.184
23686SOL    HW172499   6.493   7.739   4.148
23686SOL    HW272500   6.629   7.687   4.192
23687SOL     OW72501   5.674  -0.007   5.107
23687SOL    HW172502   5.763  -0.002   5.142
23687SOL    HW272503   5.635   0.077   5.130
23688SOL     OW72504   6.145   7.671   4.903
23688SOL    HW172505   6.182   7.602   4.958
23688SOL    HW272506   6.052   7.672   4.927
23689SOL     OW72507   6.618   7.497   4.465
23689SOL    HW172508   6.556   7.506   4.392
23689SOL    HW272509   6.584   7.425   4.517
23690SOL     OW72510   7.083   7.955   4.683
23690SOL    HW172511   6.994   7.920   4.684
23690SOL    HW272512   7.086   8.016   4.757
23691SOL     OW72513   6.129   7.715   4.041
23691SOL    HW172514   6.168   7.676   3.962
23691SOL    HW272515   6.160   7.806   4.041
23692SOL     OW72516   6.506   7.533   5.117
23692SOL    HW172517   6.527   7.513   5.026
23692SOL    HW272518   6.586   7.573   5.152
23693SOL     OW72519   6.860   7.808   5.013
23693SOL    HW172520   6.892   7.889   5.051
23693SOL    HW272521   6.767   7.825   4.994
23694SOL     OW72522   6.122   7.928   4.582
23694SOL    HW172523   6.083   7.981   4.513
23694SOL    HW272524   6.186   7.986   4.624
23695SOL     OW72525   6.594   7.585   5.481
23695SOL    HW172526   6.653   7.657   5.458
23695SOL    HW272527   6.642   7.506   5.458
23696SOL     OW72528   6.077   7.484   5.478
23696SOL    HW172529   6.027   7.432   5.415
23696SOL    HW272530   6.021   7.559   5.496
23697SOL     OW72531   5.884   7.643   4.976
23697SOL    HW172532   5.840   7.672   5.056
23697SOL    HW272533   5.867   7.549   4.973
23698SOL     OW72534   6.345   0.067   4.738
23698SOL    HW172535   6.387   0.078   4.652
23698SOL    HW272536   6.278   0.134   4.741
23699SOL     OW72537   5.901   7.511   4.349
23699SOL    HW172538   5.869   7.598   4.373
23699SOL    HW272539   5.909   7.465   4.433
23700SOL     OW72540   7.198   7.795   4.100
23700SOL    HW172541   7.243   7.729   4.153
23700SOL    HW272542   7.165   7.859   4.164
23701SOL     OW72543   7.089   7.732   3.855
23701SOL    HW172544   7.034   7.656   3.876
23701SOL    HW272545   7.133   7.754   3.937
23702SOL     OW72546   6.912   0.249   3.767
23702SOL    HW172547   6.887   0.161   3.794
23702SOL    HW272548   6.836   0.283   3.720
23703SOL     OW72549   5.888   7.979   4.762
23703SOL    HW172550   5.879   7.885   4.744
23703SOL    HW272551   5.961   8.006   4.706
23704SOL     OW72552   6.732   7.823   5.398
23704SOL    HW172553   6.677   7.898   5.421
23704SOL    HW272554   6.821   7.857   5.397
23705SOL     OW72555   6.750   7.633   5.199
23705SOL    HW172556   6.736   7.700   5.266
23705SOL    HW272557   6.796   7.680   5.129
23706SOL     OW72558   5.618   7.951   4.839
23706SOL    HW172559   5.703   7.946   4.796
23706SOL    HW272560   5.638   7.956   4.932
23707SOL     OW72561   5.788   7.948   5.458
23707SOL    HW172562   5.811   7.922   5.369
23707SOL    HW272563   5.738   8.029   5.447
23708SOL     OW72564   6.382   0.036   3.970
23708SOL    HW172565   6.424  -0.050   3.967
23708SOL    HW272566   6.326   0.034   4.048
23709SOL     OW72567   7.210   8.021   4.931
23709SOL    HW172568   7.203   7.961   5.005
23709SOL    HW272569   7.265   7.975   4.868
23710SOL     OW72570   6.322   7.881   4.954
23710SOL    HW172571   6.253   7.816   4.941
23710SOL    HW272572   6.309   7.944   4.883
23711SOL     OW72573   7.327   7.598   4.238
23711SOL    HW172574   7.393   7.582   4.170
23711SOL    HW272575   7.305   7.511   4.270
23712SOL     OW72576   7.427   7.612   4.689
23712SOL    HW172577   7.452   7.524   4.661
23712SOL    HW272578   7.340   7.625   4.652
23713SOL     OW72579   5.825   7.755   4.442
23713SOL    HW172580   5.733   7.779   4.431
23713SOL    HW272581   5.837   7.750   4.537
23714SOL     OW72582   6.619   7.667   4.693
23714SOL    HW172583   6.614   7.626   4.607
23714SOL    HW272584   6.607   7.596   4.755
23715SOL     OW72585   7.316   7.814   5.115
23715SOL    HW172586   7.383   7.883   5.118
23715SOL    HW272587   7.352   7.750   5.053
23716SOL     OW72588   6.264   7.634   5.221
23716SOL    HW172589   6.349   7.612   5.182
23716SOL    HW272590   6.286   7.673   5.305
23717SOL     OW72591   5.673   7.774   3.750
23717SOL    HW172592   5.592   7.751   3.704
23717SOL    HW272593   5.681   7.869   3.738
23718SOL     OW72594   5.645   7.599   4.020
23718SOL    HW172595   5.636   7.681   3.971
23718SOL    HW272596   5.730   7.564   3.991
23719SOL     OW72597   6.365   8.007   5.449
23719SOL    HW172598   6.271   8.024   5.447
23719SOL    HW272599   6.373   7.911   5.449
23720SOL     OW72600   6.799   7.749   4.194
23720SOL    HW172601   6.864   7.679   4.184
23720SOL    HW272602   6.836   7.807   4.260
23721SOL     OW72603   6.228   0.237   4.355
23721SOL    HW172604   6.195   0.326   4.340
23721SOL    HW272605   6.152   0.189   4.388
23722SOL     OW72606   7.340   7.797   5.391
23722SOL    HW172607   7.334   7.808   5.296
23722SOL    HW272608   7.263   7.745   5.414
23723SOL     OW72609   7.402   7.610   4.962
23723SOL    HW172610   7.395   7.514   4.961
23723SOL    HW272611   7.415   7.634   4.870
23724SOL     OW72612   5.960   7.860   4.226
23724SOL    HW172613   5.992   7.785   4.176
23724SOL    HW272614   5.915   7.821   4.301
23725SOL     OW72615   7.009   7.664   4.837
23725SOL    HW172616   7.014   7.576   4.872
23725SOL    HW272617   6.965   7.715   4.905
23726SOL     OW72618   6.592   7.454   4.864
23726SOL    HW172619   6.534   7.388   4.824
23726SOL    HW272620   6.679   7.413   4.862
23727SOL     OW72621   6.951   7.496   3.894
23727SOL    HW172622   6.988   7.420   3.850
23727SOL    HW272623   6.860   7.471   3.913
23728SOL     OW72624   6.904   7.902   4.403
23728SOL    HW172625   6.853   7.983   4.401
23728SOL    HW272626   6.885   7.863   4.489
23729SOL     OW72627   7.170   7.649   4.611
23729SOL    HW172628   7.118   7.670   4.689
23729SOL    HW272629   7.159   7.726   4.554
23730SOL     OW72630   5.815   7.731   6.584
23730SOL    HW172631   5.843   7.695   6.668
23730SOL    HW272632   5.728   7.694   6.570
23731SOL     OW72633   5.561   7.818   6.241
23731SOL    HW172634   5.478   7.859   6.266
23731SOL    HW272635   5.535   7.740   6.193
23732SOL     OW72636   7.347   7.955   5.778
23732SOL    HW172637   7.318   8.046   5.779
23732SOL    HW272638   7.296   7.912   5.846
23733SOL     OW72639   6.044   7.832   7.134
23733SOL    HW172640   6.108   7.776   7.090
23733SOL    HW272641   5.960   7.792   7.113
23734SOL     OW72642   7.181   7.915   6.293
23734SOL    HW172643   7.090   7.911   6.263
23734SOL    HW272644   7.175   7.951   6.382
23735SOL     OW72645   7.178   7.576   7.051
23735SOL    HW172646   7.216   7.654   7.011
23735SOL    HW272647   7.146   7.606   7.137
23736SOL     OW72648   5.711   0.045   6.206
23736SOL    HW172649   5.657  -0.034   6.210
23736SOL    HW272650   5.660   0.110   6.255
23737SOL     OW72651   6.408   7.430   6.114
23737SOL    HW172652   6.454   7.509   6.084
23737SOL    HW272653   6.316   7.454   6.113
23738SOL     OW72654   5.924   7.699   7.420
23738SOL    HW172655   5.946   7.785   7.386
23738SOL    HW272656   5.833   7.708   7.450
23739SOL     OW72657   6.853   7.803   6.520
23739SOL    HW172658   6.764   7.770   6.532
23739SOL    HW272659   6.907   7.747   6.575
23740SOL     OW72660   6.993   7.934   7.277
23740SOL    HW172661   6.977   7.951   7.370
23740SOL    HW272662   7.039   7.850   7.275
23741SOL     OW72663   6.519   0.385   7.103
23741SOL    HW172664   6.532   0.303   7.056
23741SOL    HW272665   6.424   0.395   7.109
23742SOL     OW72666   6.589   7.817   6.817
23742SOL    HW172667   6.500   7.836   6.848
23742SOL    HW272668   6.576   7.761   6.741
23743SOL     OW72669   6.488   7.775   5.786
23743SOL    HW172670   6.485   7.824   5.704
23743SOL    HW272671   6.495   7.683   5.758
23744SOL     OW72672   7.300   0.015   7.444
23744SOL    HW172673   7.253   0.082   7.395
23744SOL    HW272674   7.321  -0.052   7.379
23745SOL     OW72675   6.150   7.629   6.491
23745SOL    HW172676   6.148   7.654   6.583
23745SOL    HW272677   6.142   7.712   6.444
23746SOL     OW72678   5.777   7.723   7.095
23746SOL    HW172679   5.692   7.747   7.058
23746SOL    HW272680   5.764   7.635   7.129
23747SOL     OW72681   6.989   7.546   6.029
23747SOL    HW172682   6.979   7.520   5.937
23747SOL    HW272683   7.083   7.535   6.046
23748SOL     OW72684   7.092   7.671   7.313
23748SOL    HW172685   7.092   7.691   7.406
23748SOL    HW272686   7.032   7.596   7.305
23749SOL     OW72687   6.241   7.566   5.677
23749SOL    HW172688   6.282   7.484   5.708
23749SOL    HW272689   6.180   7.538   5.609
23750SOL     OW72690   6.367   7.731   7.343
23750SOL    HW172691   6.444   7.674   7.337
23750SOL    HW272692   6.311   7.689   7.409
23751SOL     OW72693   6.965   0.023   7.014
23751SOL    HW172694   6.977  -0.013   7.102
23751SOL    HW272695   6.896   0.089   7.024
23752SOL     OW72696   6.149   7.504   6.083
23752SOL    HW172697   6.068   7.507   6.135
23752SOL    HW272698   6.144   7.581   6.026
23753SOL     OW72699   5.873   7.501   5.770
23753SOL    HW172700   5.929   7.565   5.726
23753SOL    HW272701   5.935   7.440   5.812
23754SOL     OW72702   6.542   7.657   6.044
23754SOL    HW172703   6.504   7.715   5.979
23754SOL    HW272704   6.632   7.688   6.054
23755SOL     OW72705   5.677  -0.006   6.971
23755SOL    HW172706   5.760   0.001   7.018
23755SOL    HW272707   5.635   0.079   6.985
23756SOL     OW72708   6.147   7.674   6.764
23756SOL    HW172709   6.182   7.599   6.813
23756SOL    HW272710   6.055   7.677   6.788
23757SOL     OW72711   6.615   7.501   6.331
23757SOL    HW172712   6.554   7.512   6.258
23757SOL    HW272713   6.581   7.425   6.379
23758SOL     OW72714   7.087   7.953   6.547
23758SOL    HW172715   6.997   7.922   6.548
23758SOL    HW272716   7.094   8.011   6.623
23759SOL     OW72717   6.130   7.704   5.897
23759SOL    HW172718   6.169   7.667   5.818
23759SOL    HW272719   6.133   7.798   5.883
23760SOL     OW72720   6.507   7.531   6.979
23760SOL    HW172721   6.526   7.511   6.887
23760SOL    HW272722   6.587   7.571   7.012
23761SOL     OW72723   6.857   7.806   6.874
23761SOL    HW172724   6.889   7.889   6.908
23761SOL    HW272725   6.765   7.822   6.853
23762SOL     OW72726   6.126   7.938   6.435
23762SOL    HW172727   6.083   7.965   6.354
23762SOL    HW272728   6.151   8.020   6.477
23763SOL     OW72729   6.595   7.585   7.341
23763SOL    HW172730   6.656   7.655   7.319
23763SOL    HW272731   6.641   7.504   7.320
23764SOL     OW72732   6.077   7.486   7.342
23764SOL    HW172733   6.029   7.433   7.278
23764SOL    HW272734   6.020   7.561   7.359
23765SOL     OW72735   5.888   7.646   6.839
23765SOL    HW172736   5.844   7.672   6.920
23765SOL    HW272737   5.872   7.552   6.832
23766SOL     OW72738   6.359   0.064   6.611
23766SOL    HW172739   6.388   0.046   6.522
23766SOL    HW272740   6.286   0.125   6.601
23767SOL     OW72741   5.903   7.511   6.207
23767SOL    HW172742   5.869   7.598   6.229
23767SOL    HW272743   5.908   7.465   6.290
23768SOL     OW72744   7.197   7.817   5.964
23768SOL    HW172745   7.234   7.743   6.013
23768SOL    HW272746   7.158   7.873   6.031
23769SOL     OW72747   7.072   7.740   5.722
23769SOL    HW172748   7.026   7.659   5.742
23769SOL    HW272749   7.122   7.760   5.801
23770SOL     OW72750   6.919   0.246   5.627
23770SOL    HW172751   6.878   0.168   5.666
23770SOL    HW272752   6.848   0.288   5.578
23771SOL     OW72753   5.892   7.986   6.632
23771SOL    HW172754   5.884   7.893   6.610
23771SOL    HW272755   5.955   8.020   6.569
23772SOL     OW72756   6.736   7.825   7.260
23772SOL    HW172757   6.681   7.899   7.286
23772SOL    HW272758   6.823   7.862   7.251
23773SOL     OW72759   6.749   7.633   7.061
23773SOL    HW172760   6.735   7.700   7.128
23773SOL    HW272761   6.794   7.679   6.990
23774SOL     OW72762   5.613   7.944   6.704
23774SOL    HW172763   5.694   7.929   6.656
23774SOL    HW272764   5.641   7.957   6.795
23775SOL     OW72765   5.789   7.952   7.273
23775SOL    HW172766   5.776   7.873   7.222
23775SOL    HW272767   5.701   7.987   7.288
23776SOL     OW72768   6.374   0.025   5.836
23776SOL    HW172769   6.423  -0.056   5.850
23776SOL    HW272770   6.316   0.031   5.912
23777SOL     OW72771   7.219   8.024   6.796
23777SOL    HW172772   7.196   7.953   6.856
23777SOL    HW272773   7.286   7.987   6.739
23778SOL     OW72774   6.323   7.883   6.821
23778SOL    HW172775   6.254   7.819   6.805
23778SOL    HW272776   6.315   7.945   6.749
23779SOL     OW72777   7.316   7.602   6.092
23779SOL    HW172778   7.387   7.584   6.031
23779SOL    HW272779   7.294   7.517   6.130
23780SOL     OW72780   7.428   7.615   6.552
23780SOL    HW172781   7.454   7.527   6.526
23780SOL    HW272782   7.341   7.627   6.514
23781SOL     OW72783   5.825   7.753   6.302
23781SOL    HW172784   5.735   7.782   6.287
23781SOL    HW272785   5.834   7.752   6.398
23782SOL     OW72786   6.618   7.668   6.560
23782SOL    HW172787   6.612   7.630   6.473
23782SOL    HW272788   6.607   7.595   6.620
23783SOL     OW72789   7.327   7.813   6.989
23783SOL    HW172790   7.387   7.887   6.980
23783SOL    HW272791   7.357   7.750   6.923
23784SOL     OW72792   6.266   7.631   7.085
23784SOL    HW172793   6.350   7.610   7.044
23784SOL    HW272794   6.289   7.673   7.168
23785SOL     OW72795   5.663   7.769   5.633
23785SOL    HW172796   5.588   7.761   5.575
23785SOL    HW272797   5.706   7.851   5.606
23786SOL     OW72798   5.644   7.603   5.877
23786SOL    HW172799   5.631   7.676   5.817
23786SOL    HW272800   5.730   7.567   5.853
23787SOL     OW72801   6.361   8.012   7.311
23787SOL    HW172802   6.266   8.022   7.307
23787SOL    HW272803   6.375   7.917   7.311
23788SOL     OW72804   6.805   7.751   6.054
23788SOL    HW172805   6.869   7.680   6.045
23788SOL    HW272806   6.840   7.807   6.123
23789SOL     OW72807   6.213   0.257   6.260
23789SOL    HW172808   6.182   0.336   6.216
23789SOL    HW272809   6.147   0.191   6.239
23790SOL     OW72810   7.328   7.808   7.267
23790SOL    HW172811   7.331   7.824   7.173
23790SOL    HW272812   7.254   7.747   7.279
23791SOL     OW72813   7.405   7.617   6.825
23791SOL    HW172814   7.400   7.522   6.828
23791SOL    HW272815   7.415   7.638   6.731
23792SOL     OW72816   5.977   7.853   6.089
23792SOL    HW172817   5.999   7.774   6.041
23792SOL    HW272818   5.923   7.822   6.162
23793SOL     OW72819   7.011   7.665   6.699
23793SOL    HW172820   7.016   7.575   6.732
23793SOL    HW272821   6.964   7.712   6.768
23794SOL     OW72822   6.592   7.449   6.724
23794SOL    HW172823   6.538   7.383   6.681
23794SOL    HW272824   6.680   7.412   6.724
23795SOL     OW72825   6.952   7.495   5.757
23795SOL    HW172826   6.988   7.421   5.708
23795SOL    HW272827   6.862   7.470   5.777
23796SOL     OW72828   6.905   7.901   6.267
23796SOL    HW172829   6.853   7.981   6.261
23796SOL    HW272830   6.883   7.865   6.352
23797SOL     OW72831   7.170   7.651   6.472
23797SOL    HW172832   7.119   7.670   6.550
23797SOL    HW272833   7.158   7.727   6.416
23798SOL     OW72834   5.810   7.734   8.448
23798SOL    HW172835   5.842   7.694   8.530
23798SOL    HW272836   5.724   7.694   8.434
23799SOL     OW72837   5.565   7.818   8.101
23799SOL    HW172838   5.481   7.857   8.126
23799SOL    HW272839   5.541   7.739   8.052
23800SOL     OW72840   6.026   7.841   8.991
23800SOL    HW172841   6.101   7.793   8.957
23800SOL    HW272842   5.951   7.785   8.971
23801SOL     OW72843   7.176   7.948   8.134
23801SOL    HW172844   7.085   7.925   8.118
23801SOL    HW272845   7.178   7.980   8.224
23802SOL     OW72846   7.176   7.588   8.909
23802SOL    HW172847   7.202   7.670   8.868
23802SOL    HW272848   7.143   7.613   8.995
23803SOL     OW72849   5.704   0.056   8.078
23803SOL    HW172850   5.659  -0.029   8.076
23803SOL    HW272851   5.661   0.104   8.149
23804SOL     OW72852   6.409   7.440   7.963
23804SOL    HW172853   6.452   7.521   7.938
23804SOL    HW272854   6.316   7.462   7.969
23805SOL     OW72855   5.919   7.698   9.287
23805SOL    HW172856   5.935   7.784   9.247
23805SOL    HW272857   5.827   7.700   9.313
23806SOL     OW72858   6.854   7.798   8.382
23806SOL    HW172859   6.766   7.763   8.391
23806SOL    HW272860   6.908   7.743   8.438
23807SOL     OW72861   6.991   7.930   9.145
23807SOL    HW172862   6.978   7.954   9.236
23807SOL    HW272863   7.037   7.847   9.148
23808SOL     OW72864   6.518   0.391   8.954
23808SOL    HW172865   6.535   0.305   8.914
23808SOL    HW272866   6.423   0.400   8.953
23809SOL     OW72867   6.588   7.820   8.685
23809SOL    HW172868   6.500   7.839   8.717
23809SOL    HW272869   6.574   7.752   8.618
23810SOL     OW72870   6.482   7.786   7.640
23810SOL    HW172871   6.485   7.816   7.550
23810SOL    HW272872   6.482   7.690   7.634
23811SOL     OW72873   7.338   0.025   9.271
23811SOL    HW172874   7.274   0.088   9.237
23811SOL    HW272875   7.334  -0.049   9.210
23812SOL     OW72876   6.145   7.638   8.351
23812SOL    HW172877   6.146   7.658   8.444
23812SOL    HW272878   6.137   7.724   8.309
23813SOL     OW72879   5.781   7.714   8.950
23813SOL    HW172880   5.693   7.752   8.947
23813SOL    HW272881   5.767   7.625   8.983
23814SOL     OW72882   6.989   7.554   7.884
23814SOL    HW172883   6.976   7.523   7.795
23814SOL    HW272884   7.078   7.526   7.906
23815SOL     OW72885   7.099   7.671   9.176
23815SOL    HW172886   7.100   7.690   9.269
23815SOL    HW272887   7.040   7.596   9.167
23816SOL     OW72888   6.242   7.565   7.542
23816SOL    HW172889   6.282   7.484   7.572
23816SOL    HW272890   6.181   7.538   7.473
23817SOL     OW72891   6.365   7.729   9.207
23817SOL    HW172892   6.443   7.673   9.201
23817SOL    HW272893   6.310   7.685   9.273
23818SOL     OW72894   6.964   0.022   8.880
23818SOL    HW172895   6.975  -0.012   8.969
23818SOL    HW272896   6.894   0.087   8.889
23819SOL     OW72897   6.145   7.505   7.946
23819SOL    HW172898   6.066   7.508   8.000
23819SOL    HW272899   6.139   7.582   7.889
23820SOL     OW72900   5.871   7.500   7.632
23820SOL    HW172901   5.926   7.563   7.584
23820SOL    HW272902   5.934   7.440   7.672
23821SOL     OW72903   6.542   7.671   7.900
23821SOL    HW172904   6.504   7.735   7.841
23821SOL    HW272905   6.633   7.698   7.910
23822SOL     OW72906   5.679  -0.009   8.832
23822SOL    HW172907   5.771  -0.010   8.858
23822SOL    HW272908   5.647   0.077   8.859
23823SOL     OW72909   6.148   7.671   8.626
23823SOL    HW172910   6.184   7.592   8.667
23823SOL    HW272911   6.055   7.670   8.651
23824SOL     OW72912   6.618   7.494   8.184
23824SOL    HW172913   6.554   7.498   8.112
23824SOL    HW272914   6.587   7.423   8.239
23825SOL     OW72915   7.090   7.949   8.399
23825SOL    HW172916   6.999   7.917   8.405
23825SOL    HW272917   7.105   7.992   8.483
23826SOL     OW72918   6.129   7.705   7.761
23826SOL    HW172919   6.165   7.664   7.682
23826SOL    HW272920   6.146   7.799   7.749
23827SOL     OW72921   6.497   7.542   8.840
23827SOL    HW172922   6.519   7.514   8.751
23827SOL    HW272923   6.580   7.574   8.876
23828SOL     OW72924   6.858   7.805   8.736
23828SOL    HW172925   6.890   7.887   8.773
23828SOL    HW272926   6.766   7.822   8.716
23829SOL     OW72927   6.118   7.934   8.303
23829SOL    HW172928   6.078   7.977   8.227
23829SOL    HW272929   6.171   8.002   8.344
23830SOL     OW72930   6.593   7.584   9.207
23830SOL    HW172931   6.656   7.651   9.179
23830SOL    HW272932   6.634   7.501   9.181
23831SOL     OW72933   6.079   7.491   9.202
23831SOL    HW172934   6.031   7.434   9.141
23831SOL    HW272935   6.019   7.564   9.218
23832SOL     OW72936   5.886   7.641   8.698
23832SOL    HW172937   5.843   7.669   8.779
23832SOL    HW272938   5.869   7.546   8.694
23833SOL     OW72939   6.355   0.064   8.461
23833SOL    HW172940   6.397   0.057   8.375
23833SOL    HW272941   6.286   0.130   8.449
23834SOL     OW72942   5.902   7.509   8.075
23834SOL    HW172943   5.871   7.597   8.099
23834SOL    HW272944   5.910   7.464   8.159
23835SOL     OW72945   7.210   7.827   7.801
23835SOL    HW172946   7.253   7.754   7.845
23835SOL    HW272947   7.151   7.864   7.867
23836SOL     OW72948   7.063   7.743   7.578
23836SOL    HW172949   7.019   7.660   7.598
23836SOL    HW272950   7.120   7.758   7.653
23837SOL     OW72951   6.923   0.246   7.498
23837SOL    HW172952   6.874   0.175   7.539
23837SOL    HW272953   6.859   0.291   7.443
23838SOL     OW72954   5.894   7.986   8.495
23838SOL    HW172955   5.880   7.893   8.476
23838SOL    HW272956   5.961   8.014   8.432
23839SOL     OW72957   6.734   7.827   9.122
23839SOL    HW172958   6.681   7.903   9.146
23839SOL    HW272959   6.824   7.860   9.121
23840SOL     OW72960   6.745   7.635   8.924
23840SOL    HW172961   6.733   7.704   8.990
23840SOL    HW272962   6.792   7.677   8.853
23841SOL     OW72963   5.610   7.946   8.566
23841SOL    HW172964   5.690   7.925   8.518
23841SOL    HW272965   5.639   7.957   8.656
23842SOL     OW72966   5.797   7.943   9.178
23842SOL    HW172967   5.811   7.914   9.088
23842SOL    HW272968   5.746   8.024   9.170
23843SOL     OW72969   6.375   0.038   7.687
23843SOL    HW172970   6.422  -0.044   7.691
23843SOL    HW272971   6.317   0.036   7.763
23844SOL     OW72972   7.216   8.021   8.646
23844SOL    HW172973   7.200   7.959   8.717
23844SOL    HW272974   7.288   7.982   8.596
23845SOL     OW72975   6.318   7.888   8.682
23845SOL    HW172976   6.253   7.819   8.668
23845SOL    HW272977   6.310   7.944   8.605
23846SOL     OW72978   7.321   7.613   7.947
23846SOL    HW172979   7.391   7.593   7.884
23846SOL    HW272980   7.298   7.528   7.985
23847SOL     OW72981   7.435   7.619   8.413
23847SOL    HW172982   7.454   7.529   8.389
23847SOL    HW272983   7.348   7.635   8.378
23848SOL     OW72984   5.827   7.754   8.167
23848SOL    HW172985   5.736   7.781   8.152
23848SOL    HW272986   5.836   7.754   8.262
23849SOL     OW72987   6.620   7.661   8.415
23849SOL    HW172988   6.614   7.619   8.329
23849SOL    HW272989   6.604   7.590   8.477
23850SOL     OW72990   7.322   7.820   8.837
23850SOL    HW172991   7.386   7.891   8.832
23850SOL    HW272992   7.355   7.754   8.776
23851SOL     OW72993   6.262   7.646   8.951
23851SOL    HW172994   6.342   7.619   8.906
23851SOL    HW272995   6.292   7.678   9.036
23852SOL     OW72996   5.665   7.774   7.499
23852SOL    HW172997   5.603   7.781   7.426
23852SOL    HW272998   5.696   7.863   7.513
23853SOL     OW72999   5.642   7.602   7.738
23853SOL    HW173000   5.628   7.673   7.676
23853SOL    HW273001   5.728   7.567   7.716
23854SOL     OW73002   6.365   8.007   9.178
23854SOL    HW173003   6.271   8.020   9.161
23854SOL    HW273004   6.376   7.912   9.179
23855SOL     OW73005   6.811   7.764   7.905
23855SOL    HW173006   6.870   7.689   7.899
23855SOL    HW273007   6.841   7.812   7.982
23856SOL     OW73008   6.220   0.249   8.083
23856SOL    HW173009   6.180   0.334   8.068
23856SOL    HW273010   6.147   0.192   8.107
23857SOL     OW73011   7.337   7.805   9.113
23857SOL    HW173012   7.328   7.820   9.019
23857SOL    HW273013   7.266   7.745   9.135
23858SOL     OW73014   7.419   7.621   8.686
23858SOL    HW173015   7.399   7.528   8.695
23858SOL    HW273016   7.425   7.636   8.592
23859SOL     OW73017   5.977   7.856   7.957
23859SOL    HW173018   5.998   7.781   7.902
23859SOL    HW273019   5.927   7.820   8.029
23860SOL     OW73020   7.012   7.661   8.560
23860SOL    HW173021   7.006   7.568   8.581
23860SOL    HW273022   6.965   7.705   8.631
23861SOL     OW73023   6.581   7.452   8.593
23861SOL    HW173024   6.523   7.379   8.572
23861SOL    HW273025   6.670   7.415   8.586
23862SOL     OW73026   6.951   7.495   7.614
23862SOL    HW173027   6.988   7.420   7.567
23862SOL    HW273028   6.861   7.469   7.634
23863SOL     OW73029   6.903   7.900   8.130
23863SOL    HW173030   6.849   7.979   8.128
23863SOL    HW273031   6.884   7.860   8.214
23864SOL     OW73032   7.177   7.660   8.339
23864SOL    HW173033   7.123   7.661   8.419
23864SOL    HW273034   7.153   7.741   8.294
23865SOL     OW73035   5.812   7.735  10.310
23865SOL    HW173036   5.842   7.696  10.392
23865SOL    HW273037   5.725   7.697  10.295
23866SOL     OW73038   5.568   7.815   9.969
23866SOL    HW173039   5.483   7.853   9.994
23866SOL    HW273040   5.545   7.736   9.920
23867SOL     OW73041   7.303   0.030   9.556
23867SOL    HW173042   7.320   0.038   9.462
23867SOL    HW273043   7.282  -0.063   9.568
23868SOL     OW73044   6.013   7.849  10.853
23868SOL    HW173045   6.091   7.807  10.817
23868SOL    HW273046   5.942   7.788  10.834
23869SOL     OW73047   7.183   7.901  10.043
23869SOL    HW173048   7.097   7.907  10.003
23869SOL    HW273049   7.177   7.956  10.122
23870SOL     OW73050   7.176   7.568  10.777
23870SOL    HW173051   7.199   7.647  10.728
23870SOL    HW273052   7.150   7.600  10.864
23871SOL     OW73053   5.699   0.055   9.940
23871SOL    HW173054   5.655  -0.030   9.941
23871SOL    HW273055   5.664   0.101  10.016
23872SOL     OW73056   6.408   7.436   9.835
23872SOL    HW173057   6.451   7.516   9.805
23872SOL    HW273058   6.315   7.459   9.836
23873SOL     OW73059   5.922   7.692  11.145
23873SOL    HW173060   5.946   7.780  11.117
23873SOL    HW273061   5.830   7.698  11.170
23874SOL     OW73062   6.858   7.805  10.244
23874SOL    HW173063   6.769   7.771  10.252
23874SOL    HW273064   6.910   7.748  10.301
23875SOL     OW73065   6.990   7.931  11.008
23875SOL    HW173066   6.969   7.958  11.098
23875SOL    HW273067   7.036   7.848  11.018
23876SOL     OW73068   6.517   0.393  10.810
23876SOL    HW173069   6.535   0.305  10.777
23876SOL    HW273070   6.422   0.401  10.806
23877SOL     OW73071   6.588   7.818  10.544
23877SOL    HW173072   6.500   7.837  10.577
23877SOL    HW273073   6.574   7.758  10.471
23878SOL     OW73074   6.486   7.775   9.506
23878SOL    HW173075   6.495   7.819   9.422
23878SOL    HW273076   6.490   7.682   9.485
23879SOL     OW73077   7.342   0.013  11.139
23879SOL    HW173078   7.279   0.079  11.107
23879SOL    HW273079   7.343  -0.054  11.070
23880SOL     OW73080   6.143   7.631  10.213
23880SOL    HW173081   6.144   7.655  10.306
23880SOL    HW273082   6.139   7.715  10.167
23881SOL     OW73083   5.778   7.711  10.810
23881SOL    HW173084   5.699   7.757  10.837
23881SOL    HW273085   5.766   7.621  10.841
23882SOL     OW73086   6.984   7.545   9.749
23882SOL    HW173087   6.971   7.520   9.657
23882SOL    HW273088   7.078   7.532   9.764
23883SOL     OW73089   7.099   7.671  11.039
23883SOL    HW173090   7.106   7.691  11.132
23883SOL    HW273091   7.038   7.596  11.035
23884SOL     OW73092   6.240   7.560   9.405
23884SOL    HW173093   6.286   7.479   9.427
23884SOL    HW273094   6.180   7.536   9.335
23885SOL     OW73095   6.361   7.727  11.061
23885SOL    HW173096   6.440   7.673  11.057
23885SOL    HW273097   6.313   7.693  11.136
23886SOL     OW73098   6.982   0.026  10.742
23886SOL    HW173099   6.986  -0.011  10.830
23886SOL    HW273100   6.912   0.091  10.747
23887SOL     OW73101   6.146   7.504   9.809
23887SOL    HW173102   6.065   7.507   9.859
23887SOL    HW273103   6.140   7.580   9.751
23888SOL     OW73104   5.873   7.501   9.495
23888SOL    HW173105   5.926   7.561   9.444
23888SOL    HW273106   5.935   7.439   9.534
23889SOL     OW73107   6.539   7.665   9.765
23889SOL    HW173108   6.508   7.720   9.693
23889SOL    HW273109   6.629   7.693   9.779
23890SOL     OW73110   5.679  -0.010  10.692
23890SOL    HW173111   5.768  -0.031  10.721
23890SOL    HW273112   5.661   0.077  10.729
23891SOL     OW73113   6.145   7.673  10.488
23891SOL    HW173114   6.183   7.598  10.533
23891SOL    HW273115   6.053   7.672  10.512
23892SOL     OW73116   6.612   7.501  10.051
23892SOL    HW173117   6.552   7.506   9.977
23892SOL    HW273118   6.581   7.426  10.102
23893SOL     OW73119   7.064   7.982  10.292
23893SOL    HW173120   6.990   7.924  10.273
23893SOL    HW273121   7.023   8.061  10.329
23894SOL     OW73122   6.132   7.703   9.622
23894SOL    HW173123   6.165   7.658   9.544
23894SOL    HW273124   6.164   7.793   9.614
23895SOL     OW73125   6.503   7.535  10.701
23895SOL    HW173126   6.525   7.512  10.610
23895SOL    HW273127   6.584   7.572  10.737
23896SOL     OW73128   6.857   7.810  10.600
23896SOL    HW173129   6.884   7.893  10.639
23896SOL    HW273130   6.765   7.822  10.578
23897SOL     OW73131   6.121   7.933  10.160
23897SOL    HW173132   6.080   7.962  10.079
23897SOL    HW273133   6.150   8.014  10.202
23898SOL     OW73134   6.593   7.586  11.064
23898SOL    HW173135   6.655   7.656  11.042
23898SOL    HW273136   6.639   7.505  11.041
23899SOL     OW73137   6.078   7.481  11.063
23899SOL    HW173138   6.030   7.429  10.999
23899SOL    HW273139   6.021   7.555  11.082
23900SOL     OW73140   5.884   7.641  10.560
23900SOL    HW173141   5.839   7.669  10.640
23900SOL    HW273142   5.868   7.547  10.556
23901SOL     OW73143   6.358   0.065  10.334
23901SOL    HW173144   6.389   0.049  10.244
23901SOL    HW273145   6.284   0.124  10.324
23902SOL     OW73146   5.901   7.508   9.936
23902SOL    HW173147   5.871   7.596   9.958
23902SOL    HW273148   5.909   7.463  10.020
23903SOL     OW73149   7.196   7.797   9.677
23903SOL    HW173150   7.241   7.730   9.728
23903SOL    HW273151   7.160   7.857   9.742
23904SOL     OW73152   7.069   7.737   9.441
23904SOL    HW173153   7.021   7.656   9.458
23904SOL    HW273154   7.120   7.752   9.520
23905SOL     OW73155   6.910   0.252   9.360
23905SOL    HW173156   6.879   0.166   9.388
23905SOL    HW273157   6.839   0.286   9.305
23906SOL     OW73158   5.892   7.989  10.358
23906SOL    HW173159   5.882   7.897  10.335
23906SOL    HW273160   5.956   8.022  10.295
23907SOL     OW73161   6.733   7.824  10.985
23907SOL    HW173162   6.680   7.901  11.006
23907SOL    HW273163   6.824   7.856  10.989
23908SOL     OW73164   6.747   7.634  10.785
23908SOL    HW173165   6.734   7.700  10.853
23908SOL    HW273166   6.793   7.681  10.715
23909SOL     OW73167   5.609   7.947  10.428
23909SOL    HW173168   5.690   7.926  10.381
23909SOL    HW273169   5.636   7.958  10.519
23910SOL     OW73170   5.787   7.946  11.028
23910SOL    HW173171   5.847   7.932  10.955
23910SOL    HW273172   5.771   8.041  11.028
23911SOL     OW73173   6.377   0.028   9.554
23911SOL    HW173174   6.425  -0.054   9.562
23911SOL    HW273175   6.323   0.033   9.632
23912SOL     OW73176   7.205   8.003  10.529
23912SOL    HW173177   7.123   7.978  10.573
23912SOL    HW273178   7.188   7.986  10.436
23913SOL     OW73179   6.320   7.885  10.545
23913SOL    HW173180   6.253   7.819  10.528
23913SOL    HW273181   6.315   7.945  10.471
23914SOL     OW73182   7.326   7.600   9.819
23914SOL    HW173183   7.392   7.584   9.751
23914SOL    HW273184   7.303   7.513   9.852
23915SOL     OW73185   7.430   7.615  10.274
23915SOL    HW173186   7.457   7.526  10.249
23915SOL    HW273187   7.344   7.626  10.235
23916SOL     OW73188   5.830   7.754  10.028
23916SOL    HW173189   5.740   7.781  10.012
23916SOL    HW273190   5.839   7.754  10.123
23917SOL     OW73191   6.624   7.668  10.279
23917SOL    HW173192   6.615   7.628  10.192
23917SOL    HW273193   6.611   7.596  10.340
23918SOL     OW73194   7.344   7.824  10.697
23918SOL    HW173195   7.306   7.882  10.631
23918SOL    HW273196   7.376   7.748  10.648
23919SOL     OW73197   6.264   7.637  10.809
23919SOL    HW173198   6.347   7.614  10.767
23919SOL    HW273199   6.289   7.672  10.894
23920SOL     OW73200   5.655   7.771   9.361
23920SOL    HW173201   5.593   7.763   9.287
23920SOL    HW273202   5.696   7.856   9.348
23921SOL     OW73203   5.642   7.602   9.600
23921SOL    HW173204   5.626   7.672   9.537
23921SOL    HW273205   5.729   7.568   9.578
23922SOL     OW73206   6.366   8.007  11.037
23922SOL    HW173207   6.272   8.020  11.027
23922SOL    HW273208   6.377   7.912  11.040
23923SOL     OW73209   6.803   7.751   9.783
23923SOL    HW173210   6.865   7.679   9.769
23923SOL    HW273211   6.846   7.807   9.849
23924SOL     OW73212   6.210   0.255   9.988
23924SOL    HW173213   6.182   0.336   9.946
23924SOL    HW273214   6.141   0.192   9.966
23925SOL     OW73215   7.336   7.799  10.969
23925SOL    HW173216   7.333   7.811  10.874
23925SOL    HW273217   7.259   7.745  10.989
23926SOL     OW73218   7.400   7.609  10.546
23926SOL    HW173219   7.398   7.514  10.555
23926SOL    HW273220   7.411   7.623  10.452
23927SOL     OW73221   5.978   7.854   9.813
23927SOL    HW173222   6.001   7.780   9.758
23927SOL    HW273223   5.927   7.817   9.885
23928SOL     OW73224   7.012   7.667  10.422
23928SOL    HW173225   7.011   7.574  10.445
23928SOL    HW273226   6.963   7.709  10.494
23929SOL     OW73227   6.591   7.453  10.448
23929SOL    HW173228   6.535   7.389  10.405
23929SOL    HW273229   6.678   7.413  10.449
23930SOL     OW73230   6.949   7.493   9.478
23930SOL    HW173231   6.987   7.419   9.429
23930SOL    HW273232   6.859   7.465   9.496
23931SOL     OW73233   6.911   7.906   9.992
23931SOL    HW173234   6.852   7.981   9.979
23931SOL    HW273235   6.883   7.868  10.076
23932SOL     OW73236   7.174   7.651  10.194
23932SOL    HW173237   7.118   7.672  10.269
23932SOL    HW273238   7.164   7.726  10.135
23933SOL     OW73239   5.811   7.730  12.166
23933SOL    HW173240   5.840   7.690  12.248
23933SOL    HW273241   5.721   7.698  12.154
23934SOL     OW73242   5.568   7.824  11.821
23934SOL    HW173243   5.484   7.858  11.851
23934SOL    HW273244   5.546   7.742  11.776
23935SOL     OW73245   7.282   0.032  11.411
23935SOL    HW173246   7.310   0.029  11.320
23935SOL    HW273247   7.273  -0.060  11.437
23936SOL     OW73248   7.177   7.932  11.869
23936SOL    HW173249   7.086   7.923  11.841
23936SOL    HW273250   7.172   7.960  11.960
23937SOL     OW73251   5.659   0.093  11.797
23937SOL    HW173252   5.641  -0.002  11.797
23937SOL    HW273253   5.754   0.099  11.792
23938SOL     OW73254   6.406   7.431  11.692
23938SOL    HW173255   6.451   7.511  11.665
23938SOL    HW273256   6.314   7.454  11.694
23939SOL     OW73257   6.854   7.786  12.104
23939SOL    HW173258   6.763   7.763  12.123
23939SOL    HW273259   6.905   7.735  12.167
23940SOL     OW73260   6.560   7.829  12.415
23940SOL    HW173261   6.476   7.871  12.433
23940SOL    HW273262   6.547   7.785  12.330
23941SOL     OW73263   6.480   7.793  11.358
23941SOL    HW173264   6.523   7.792  11.272
23941SOL    HW273265   6.503   7.709  11.397
23942SOL     OW73266   6.134   7.611  12.071
23942SOL    HW173267   6.131   7.668  12.148
23942SOL    HW273268   6.138   7.670  11.996
23943SOL     OW73269   6.987   7.546  11.615
23943SOL    HW173270   6.980   7.522  11.523
23943SOL    HW273271   7.080   7.538  11.635
23944SOL     OW73272   6.239   7.566  11.264
23944SOL    HW173273   6.291   7.489  11.287
23944SOL    HW273274   6.181   7.536  11.194
23945SOL     OW73275   6.145   7.501  11.672
23945SOL    HW173276   6.062   7.506  11.720
23945SOL    HW273277   6.145   7.579  11.616
23946SOL     OW73278   5.874   7.497  11.358
23946SOL    HW173279   5.930   7.561  11.314
23946SOL    HW273280   5.936   7.436  11.400
23947SOL     OW73281   6.535   7.667  11.631
23947SOL    HW173282   6.490   7.751  11.633
23947SOL    HW273283   6.628   7.688  11.632
23948SOL     OW73284   5.683   0.011   0.067
23948SOL    HW173285   5.772  -0.002   0.100
23948SOL    HW273286   5.643   0.071   0.130
23949SOL     OW73287   6.152   7.642  12.362
23949SOL    HW173288   6.164   7.562  12.312
23949SOL    HW273289   6.057   7.648  12.376
23950SOL     OW73290   6.615   7.502  11.921
23950SOL    HW173291   6.557   7.512  11.846
23950SOL    HW273292   6.583   7.425  11.967
23951SOL     OW73293   7.083   7.945  12.124
23951SOL    HW173294   6.992   7.917  12.131
23951SOL    HW273295   7.107   7.972  12.213
23952SOL     OW73296   6.149   7.703  11.491
23952SOL    HW173297   6.182   7.665  11.410
23952SOL    HW273298   6.165   7.797  11.482
23953SOL     OW73299   6.836   7.821  12.442
23953SOL    HW173300   6.862   7.886  12.507
23953SOL    HW273301   6.740   7.825  12.442
23954SOL     OW73302   5.885   7.627  12.413
23954SOL    HW173303   5.837   7.656  12.491
23954SOL    HW273304   5.866   7.534  12.407
23955SOL     OW73305   6.360   0.053  12.204
23955SOL    HW173306   6.305   0.007  12.140
23955SOL    HW273307   6.335   0.145  12.195
23956SOL     OW73308   5.899   7.508  11.793
23956SOL    HW173309   5.870   7.597  11.813
23956SOL    HW273310   5.905   7.466  11.879
23957SOL     OW73311   7.199   7.801  11.542
23957SOL    HW173312   7.243   7.732  11.592
23957SOL    HW273313   7.166   7.861  11.609
23958SOL     OW73314   7.078   7.737  11.305
23958SOL    HW173315   7.029   7.657  11.324
23958SOL    HW273316   7.126   7.756  11.385
23959SOL     OW73317   6.916   0.245  11.208
23959SOL    HW173318   6.888   0.159  11.240
23959SOL    HW273319   6.840   0.279  11.160
23960SOL     OW73320   5.893   7.984  12.212
23960SOL    HW173321   5.875   7.892  12.190
23960SOL    HW273322   5.971   8.005  12.162
23961SOL     OW73323   6.731   7.696   0.176
23961SOL    HW173324   6.764   7.722   0.262
23961SOL    HW273325   6.800   7.722   0.115
23962SOL     OW73326   5.630   7.956  12.306
23962SOL    HW173327   5.711   7.958  12.256
23962SOL    HW273328   5.658   7.966  12.397
23963SOL     OW73329   6.368   0.033  11.419
23963SOL    HW173330   6.414  -0.050  11.405
23963SOL    HW273331   6.344   0.032  11.512
23964SOL     OW73332   7.192   8.012  12.366
23964SOL    HW173333   7.209   7.941  12.428
23964SOL    HW273334   7.278   8.030  12.327
23965SOL     OW73335   6.253   7.906  12.413
23965SOL    HW173336   6.215   7.823  12.385
23965SOL    HW273337   6.281   7.948  12.332
23966SOL     OW73338   7.325   7.602  11.681
23966SOL    HW173339   7.394   7.585  11.617
23966SOL    HW273340   7.302   7.516  11.716
23967SOL     OW73341   7.422   7.617  12.139
23967SOL    HW173342   7.448   7.529  12.111
23967SOL    HW273343   7.334   7.629  12.104
23968SOL     OW73344   5.829   7.754  11.878
23968SOL    HW173345   5.740   7.786  11.868
23968SOL    HW273346   5.848   7.764  11.971
23969SOL     OW73347   6.608   7.669  12.161
23969SOL    HW173348   6.605   7.632  12.073
23969SOL    HW273349   6.602   7.593  12.219
23970SOL     OW73350   7.327   7.842   0.041
23970SOL    HW173351   7.409   7.892   0.044
23970SOL    HW273352   7.352   7.758   0.002
23971SOL     OW73353   5.660   7.772  11.211
23971SOL    HW173354   5.594   7.756  11.144
23971SOL    HW273355   5.701   7.854  11.185
23972SOL     OW73356   5.641   7.598  11.463
23972SOL    HW173357   5.628   7.674  11.405
23972SOL    HW273358   5.729   7.566  11.441
23973SOL     OW73359   6.799   7.750  11.637
23973SOL    HW173360   6.866   7.682  11.630
23973SOL    HW273361   6.831   7.808  11.706
23974SOL     OW73362   6.214   0.266  11.865
23974SOL    HW173363   6.176   0.336  11.810
23974SOL    HW273364   6.184   0.185  11.824
23975SOL     OW73365   7.428   7.618  12.415
23975SOL    HW173366   7.428   7.522  12.418
23975SOL    HW273367   7.421   7.638  12.321
23976SOL     OW73368   5.943   7.855  11.626
23976SOL    HW173369   6.000   7.780  11.610
23976SOL    HW273370   5.912   7.843  11.716
23977SOL     OW73371   7.022   7.682  12.308
23977SOL    HW173372   7.077   7.648  12.379
23977SOL    HW273373   6.955   7.733  12.353
23978SOL     OW73374   6.589   7.427  12.307
23978SOL    HW173375   6.550   7.378  12.234
23978SOL    HW273376   6.680   7.398  12.310
23979SOL     OW73377   6.953   7.495  11.341
23979SOL    HW173378   6.991   7.418  11.298
23979SOL    HW273379   6.863   7.470  11.360
23980SOL     OW73380   6.892   7.902  11.854
23980SOL    HW173381   6.827   7.973  11.857
23980SOL    HW273382   6.881   7.857  11.938
23981SOL     OW73383   7.160   7.649  12.069
23981SOL    HW173384   7.113   7.666  12.151
23981SOL    HW273385   7.145   7.727  12.016
23982SOL     OW73386   7.676   0.594  -0.004
23982SOL    HW173387   7.645   0.644   0.072
23982SOL    HW273388   7.706   0.511   0.033
23983SOL     OW73389   7.697   0.279   0.971
23983SOL    HW173390   7.715   0.257   1.063
23983SOL    HW273391   7.611   0.239   0.954
23984SOL     OW73392   7.462   0.387   0.639
23984SOL    HW173393   7.377   0.409   0.678
23984SOL    HW273394   7.450   0.298   0.606
23985SOL     OW73395   7.740   1.435   1.064
23985SOL    HW173396   7.669   1.379   1.033
23985SOL    HW273397   7.788   1.459   0.985
23986SOL     OW73398   7.853   0.411   1.526
23986SOL    HW173399   7.930   0.356   1.538
23986SOL    HW273400   7.781   0.349   1.511
23987SOL     OW73401   7.669   1.710   0.493
23987SOL    HW173402   7.688   1.791   0.542
23987SOL    HW273403   7.718   1.720   0.412
23988SOL     OW73404   7.674   1.440   0.534
23988SOL    HW173405   7.669   1.535   0.532
23988SOL    HW273406   7.610   1.414   0.602
23989SOL     OW73407   7.708   1.091   0.904
23989SOL    HW173408   7.703   1.001   0.935
23989SOL    HW273409   7.648   1.139   0.961
23990SOL     OW73410   7.557   0.640   0.573
23990SOL    HW173411   7.522   0.554   0.598
23990SOL    HW273412   7.549   0.693   0.653
23991SOL     OW73413   7.477   1.533   0.143
23991SOL    HW173414   7.390   1.496   0.126
23991SOL    HW273415   7.460   1.607   0.202
23992SOL     OW73416   7.557   0.745   1.580
23992SOL    HW173417   7.643   0.785   1.586
23992SOL    HW273418   7.496   0.818   1.573
23993SOL     OW73419   7.634   0.961   1.279
23993SOL    HW173420   7.722   0.923   1.273
23993SOL    HW273421   7.581   0.906   1.221
23994SOL     OW73422   7.761   0.246   1.796
23994SOL    HW173423   7.821   0.311   1.832
23994SOL    HW273424   7.678   0.262   1.841
23995SOL     OW73425   7.535   0.815   0.781
23995SOL    HW173426   7.612   0.813   0.838
23995SOL    HW273427   7.484   0.890   0.810
23996SOL     OW73428   7.535   1.787   1.559
23996SOL    HW173429   7.553   1.792   1.653
23996SOL    HW273430   7.495   1.871   1.538
23997SOL     OW73431   7.981   0.257   0.899
23997SOL    HW173432   7.892   0.241   0.930
23997SOL    HW273433   7.977   0.342   0.857
23998SOL     OW73434   7.817   1.826   0.872
23998SOL    HW173435   7.894   1.770   0.879
23998SOL    HW273436   7.852   1.915   0.876
23999SOL     OW73437   7.732   1.006   0.250
23999SOL    HW173438   7.791   1.051   0.190
23999SOL    HW273439   7.746   0.913   0.233
24000SOL     OW73440   7.958   1.240   1.742
24000SOL    HW173441   7.916   1.244   1.657
24000SOL    HW273442   7.888   1.259   1.805
24001SOL     OW73443   7.628   0.252   1.507
24001SOL    HW173444   7.552   0.309   1.497
24001SOL    HW273445   7.635   0.236   1.601
24002SOL     OW73446   7.687   1.772   1.239
24002SOL    HW173447   7.775   1.740   1.260
24002SOL    HW273448   7.683   1.772   1.144
24003SOL     OW73449   7.808   0.659   0.464
24003SOL    HW173450   7.861   0.595   0.512
24003SOL    HW273451   7.722   0.655   0.504
24004SOL     OW73452   7.779   7.981   0.098
24004SOL    HW173453   7.802   8.060   0.148
24004SOL    HW273454   7.825   7.911   0.143
24005SOL     OW73455   7.919   1.116   0.739
24005SOL    HW173456   7.845   1.106   0.798
24005SOL    HW273457   7.881   1.111   0.651
24006SOL     OW73458   7.548   0.554   1.388
24006SOL    HW173459   7.640   0.559   1.362
24006SOL    HW273460   7.539   0.621   1.456
24007SOL     OW73461   7.878   0.829   1.268
24007SOL    HW173462   7.966   0.832   1.306
24007SOL    HW273463   7.851   0.738   1.278
24008SOL     OW73464   7.818   1.122   0.485
24008SOL    HW173465   7.800   1.210   0.451
24008SOL    HW273466   7.783   1.063   0.418
24009SOL     OW73467  -0.018   0.552   0.872
24009SOL    HW173468   0.020   0.627   0.828
24009SOL    HW273469   0.021   0.552   0.959
24010SOL     OW73470   7.779   1.511   1.322
24010SOL    HW173471   7.781   1.480   1.232
24010SOL    HW273472   7.868   1.542   1.339
24011SOL     OW73473   7.848   0.735   1.603
24011SOL    HW173474   7.930   0.776   1.575
24011SOL    HW273475   7.862   0.641   1.590
24012SOL     OW73476   7.948   0.073   1.676
24012SOL    HW173477   7.906  -0.005   1.639
24012SOL    HW273478   7.876   0.121   1.716
24013SOL     OW73479   7.990   0.920   1.033
24013SOL    HW173480   8.008   1.014   1.033
24013SOL    HW273481   7.947   0.904   1.116
24014SOL     OW73482   7.741   0.218   1.231
24014SOL    HW173483   7.697   0.221   1.316
24014SOL    HW273484   7.758   0.125   1.215
24015SOL     OW73485   7.531   1.368   1.303
24015SOL    HW173486   7.520   1.294   1.362
24015SOL    HW273487   7.616   1.352   1.261
24016SOL     OW73488   7.826   0.059   0.695
24016SOL    HW173489   7.784   0.141   0.670
24016SOL    HW273490   7.761  -0.009   0.675
24017SOL     OW73491   7.796   0.921   1.805
24017SOL    HW173492   7.886   0.954   1.814
24017SOL    HW273493   7.804   0.843   1.751
24018SOL     OW73494   7.743   0.817   0.959
24018SOL    HW173495   7.835   0.841   0.968
24018SOL    HW273496   7.740   0.724   0.982
24019SOL     OW73497   7.747   0.542   1.002
24019SOL    HW173498   7.720   0.450   0.991
24019SOL    HW273499   7.827   0.550   0.951
24020SOL     OW73500   7.559   1.781   0.958
24020SOL    HW173501   7.523   1.707   0.910
24020SOL    HW273502   7.644   1.797   0.918
24021SOL     OW73503   7.486   0.557   1.117
24021SOL    HW173504   7.569   0.561   1.068
24021SOL    HW273505   7.513   0.548   1.208
24022SOL     OW73506   7.629   0.524   1.733
24022SOL    HW173507   7.700   0.496   1.676
24022SOL    HW273508   7.588   0.597   1.685
24023SOL     OW73509   7.690   1.534   1.718
24023SOL    HW173510   7.677   1.596   1.790
24023SOL    HW273511   7.710   1.451   1.762
24024SOL     OW73512   7.973   0.532   0.125
24024SOL    HW173513   7.936   0.611   0.164
24024SOL    HW273514   7.929   0.460   0.170
24025SOL     OW73515   7.577   1.145   1.471
24025SOL    HW173516   7.580   1.098   1.554
24025SOL    HW273517   7.595   1.077   1.405
24026SOL     OW73518   7.523   1.261   1.025
24026SOL    HW173519   7.473   1.294   1.100
24026SOL    HW273520   7.461   1.205   0.978
24027SOL     OW73521   7.589   1.799   1.826
24027SOL    HW173522   7.544   1.732   1.877
24027SOL    HW273523   7.637   1.850   1.890
24028SOL     OW73524   7.738   0.332   0.699
24028SOL    HW173525   7.652   0.359   0.667
24028SOL    HW273526   7.726   0.319   0.793
24029SOL     OW73527   7.816   1.285   1.517
24029SOL    HW173528   7.816   1.358   1.456
24029SOL    HW273529   7.734   1.238   1.498
24030SOL     OW73530  -0.001   1.514   0.405
24030SOL    HW173531   0.020   1.450   0.473
24030SOL    HW273532   0.009   1.599   0.448
24031SOL     OW73533   7.738   1.338   0.295
24031SOL    HW173534   7.658   1.354   0.244
24031SOL    HW273535   7.722   1.382   0.379
24032SOL     OW73536   7.559   1.043   1.726
24032SOL    HW173537   7.482   1.016   1.776
24032SOL    HW273538   7.632   0.998   1.767
24033SOL     OW73539   7.537   0.188   0.274
24033SOL    HW173540   7.497   0.264   0.316
24033SOL    HW273541   7.631   0.205   0.276
24034SOL     OW73542   7.818   1.748   1.563
24034SOL    HW173543   7.724   1.766   1.553
24034SOL    HW273544   7.822   1.661   1.601
24035SOL     OW73545   7.707   1.295   1.857
24035SOL    HW173546   7.641   1.231   1.831
24035SOL    HW273547   7.695   1.307   1.951
24036SOL     OW73548   7.523   1.243   0.681
24036SOL    HW173549   7.540   1.182   0.753
24036SOL    HW273550   7.569   1.205   0.606
24037SOL     OW73551   0.089   1.452   1.554
24037SOL    HW173552   0.050   1.382   1.606
24037SOL    HW273553   0.167   1.477   1.603
24038SOL     OW73554   7.802   0.567   1.291
24038SOL    HW173555   7.846   0.504   1.348
24038SOL    HW273556   7.814   0.531   1.203
24039SOL     OW73557   7.489   1.077   0.365
24039SOL    HW173558   7.569   1.070   0.314
24039SOL    HW273559   7.468   0.987   0.390
24040SOL     OW73560   7.655   0.620   1.995
24040SOL    HW173561   7.569   0.613   2.036
24040SOL    HW273562   7.641   0.596   1.903
24041SOL     OW73563   7.695   0.279   2.835
24041SOL    HW173564   7.711   0.256   2.926
24041SOL    HW273565   7.611   0.238   2.815
24042SOL     OW73566   7.474   0.397   2.487
24042SOL    HW173567   7.387   0.406   2.524
24042SOL    HW273568   7.464   0.331   2.418
24043SOL     OW73569   7.752   1.443   2.914
24043SOL    HW173570   7.676   1.385   2.903
24043SOL    HW273571   7.790   1.449   2.827
24044SOL     OW73572   7.860   0.405   3.384
24044SOL    HW173573   7.936   0.350   3.404
24044SOL    HW273574   7.788   0.343   3.374
24045SOL     OW73575   7.672   1.716   2.336
24045SOL    HW173576   7.682   1.795   2.390
24045SOL    HW273577   7.762   1.692   2.312
24046SOL     OW73578   7.671   1.438   2.391
24046SOL    HW173579   7.651   1.532   2.396
24046SOL    HW273580   7.614   1.399   2.458
24047SOL     OW73581   7.709   1.091   2.758
24047SOL    HW173582   7.701   1.002   2.794
24047SOL    HW273583   7.652   1.144   2.813
24048SOL     OW73584   7.572   0.656   2.426
24048SOL    HW173585   7.540   0.568   2.448
24048SOL    HW273586   7.560   0.707   2.506
24049SOL     OW73587   7.495   1.591   1.972
24049SOL    HW173588   7.479   1.499   1.994
24049SOL    HW273589   7.468   1.639   2.051
24050SOL     OW73590   7.561   0.748   3.441
24050SOL    HW173591   7.648   0.786   3.447
24050SOL    HW273592   7.502   0.824   3.442
24051SOL     OW73593   7.636   0.957   3.148
24051SOL    HW173594   7.723   0.919   3.138
24051SOL    HW273595   7.580   0.906   3.089
24052SOL     OW73596   7.755   0.251   3.642
24052SOL    HW173597   7.820   0.307   3.685
24052SOL    HW273598   7.677   0.257   3.698
24053SOL     OW73599   8.008   0.738   2.124
24053SOL    HW173600   8.023   0.833   2.122
24053SOL    HW273601   7.947   0.725   2.196
24054SOL     OW73602   7.534   0.827   2.636
24054SOL    HW173603   7.611   0.818   2.693
24054SOL    HW273604   7.486   0.901   2.673
24055SOL     OW73605   7.569   1.869   3.449
24055SOL    HW173606   7.579   1.848   3.542
24055SOL    HW273607   7.485   1.831   3.424
24056SOL     OW73608   7.980   0.256   2.756
24056SOL    HW173609   7.896   0.241   2.799
24056SOL    HW273610   7.974   0.346   2.724
24057SOL     OW73611   7.820   1.831   2.739
24057SOL    HW173612   7.890   1.772   2.765
24057SOL    HW273613   7.859   1.918   2.740
24058SOL     OW73614   7.742   0.962   2.119
24058SOL    HW173615   7.825   0.979   2.074
24058SOL    HW273616   7.720   0.872   2.095
24059SOL     OW73617   7.955   1.243   3.599
24059SOL    HW173618   7.914   1.248   3.513
24059SOL    HW273619   7.884   1.264   3.661
24060SOL     OW73620   7.629   0.248   3.375
24060SOL    HW173621   7.554   0.306   3.369
24060SOL    HW273622   7.648   0.243   3.469
24061SOL     OW73623   7.698   1.787   3.093
24061SOL    HW173624   7.748   1.721   3.141
24061SOL    HW273625   7.698   1.756   3.003
24062SOL     OW73626   7.828   0.690   2.321
24062SOL    HW173627   7.867   0.618   2.371
24062SOL    HW273628   7.736   0.688   2.345
24063SOL     OW73629   0.036   0.080   1.989
24063SOL    HW173630   0.126   0.051   2.000
24063SOL    HW273631   0.039   0.139   1.914
24064SOL     OW73632   7.741   0.048   2.054
24064SOL    HW173633   7.779   0.096   1.981
24064SOL    HW273634   7.815   0.004   2.096
24065SOL     OW73635   7.919   1.116   2.593
24065SOL    HW173636   7.848   1.105   2.655
24065SOL    HW273637   7.878   1.107   2.507
24066SOL     OW73638   7.543   0.557   3.251
24066SOL    HW173639   7.635   0.559   3.225
24066SOL    HW273640   7.536   0.625   3.318
24067SOL     OW73641   7.877   0.823   3.127
24067SOL    HW173642   7.958   0.829   3.177
24067SOL    HW273643   7.848   0.733   3.139
24068SOL     OW73644   7.525   1.574   3.222
24068SOL    HW173645   7.506   1.651   3.170
24068SOL    HW273646   7.620   1.562   3.216
24069SOL     OW73647   7.800   1.115   2.345
24069SOL    HW173648   7.779   1.196   2.298
24069SOL    HW273649   7.777   1.045   2.284
24070SOL     OW73650  -0.016   0.547   2.731
24070SOL    HW173651   0.020   0.625   2.689
24070SOL    HW273652   0.022   0.547   2.819
24071SOL     OW73653   7.789   1.525   3.174
24071SOL    HW173654   7.785   1.486   3.087
24071SOL    HW273655   7.881   1.547   3.187
24072SOL     OW73656   7.854   0.736   3.466
24072SOL    HW173657   7.938   0.777   3.448
24072SOL    HW273658   7.869   0.642   3.451
24073SOL     OW73659   7.947   0.086   3.518
24073SOL    HW173660   7.903   0.009   3.483
24073SOL    HW273661   7.880   0.131   3.570
24074SOL     OW73662   7.990   0.920   2.895
24074SOL    HW173663   8.007   1.014   2.899
24074SOL    HW273664   7.949   0.900   2.979
24075SOL     OW73665   7.741   0.219   3.095
24075SOL    HW173666   7.700   0.226   3.181
24075SOL    HW273667   7.777   0.130   3.092
24076SOL     OW73668   7.494   1.314   3.138
24076SOL    HW173669   7.525   1.257   3.209
24076SOL    HW273670   7.499   1.402   3.174
24077SOL     OW73671   7.834   0.060   2.543
24077SOL    HW173672   7.815   0.153   2.544
24077SOL    HW273673   7.751   0.018   2.523
24078SOL     OW73674   7.799   0.917   3.673
24078SOL    HW173675   7.888   0.952   3.679
24078SOL    HW273676   7.807   0.841   3.616
24079SOL     OW73677   7.742   0.816   2.816
24079SOL    HW173678   7.833   0.842   2.829
24079SOL    HW273679   7.739   0.724   2.842
24080SOL     OW73680   7.747   0.542   2.862
24080SOL    HW173681   7.720   0.451   2.852
24080SOL    HW273682   7.828   0.549   2.811
24081SOL     OW73683   7.460   1.315   2.051
24081SOL    HW173684   7.374   1.333   2.014
24081SOL    HW273685   7.452   1.227   2.088
24082SOL     OW73686   7.544   1.779   2.802
24082SOL    HW173687   7.515   1.702   2.755
24082SOL    HW273688   7.634   1.794   2.773
24083SOL     OW73689   7.487   0.555   2.978
24083SOL    HW173690   7.571   0.560   2.931
24083SOL    HW273691   7.512   0.549   3.071
24084SOL     OW73692   7.624   0.529   3.597
24084SOL    HW173693   7.698   0.501   3.543
24084SOL    HW273694   7.586   0.602   3.549
24085SOL     OW73695   0.217   0.506   2.160
24085SOL    HW173696   0.178   0.419   2.173
24085SOL    HW273697   0.186   0.557   2.235
24086SOL     OW73698   7.685   1.548   3.574
24086SOL    HW173699   7.670   1.614   3.643
24086SOL    HW273700   7.705   1.468   3.622
24087SOL     OW73701   7.909   0.506   2.005
24087SOL    HW173702   7.960   0.575   2.048
24087SOL    HW273703   7.818   0.536   2.010
24088SOL     OW73704   7.580   1.142   3.339
24088SOL    HW173705   7.581   1.097   3.423
24088SOL    HW273706   7.600   1.075   3.274
24089SOL     OW73707   7.537   1.264   2.880
24089SOL    HW173708   7.517   1.279   2.972
24089SOL    HW273709   7.459   1.218   2.846
24090SOL     OW73710   7.595   1.793   3.706
24090SOL    HW173711   7.545   1.725   3.752
24090SOL    HW273712   7.641   1.840   3.776
24091SOL     OW73713   7.745   0.329   2.564
24091SOL    HW173714   7.660   0.352   2.527
24091SOL    HW273715   7.727   0.316   2.657
24092SOL     OW73716   7.815   1.292   3.371
24092SOL    HW173717   7.809   1.369   3.314
24092SOL    HW273718   7.733   1.244   3.356
24093SOL     OW73719  -0.010   1.562   2.277
24093SOL    HW173720  -0.001   1.492   2.341
24093SOL    HW273721   0.050   1.631   2.307
24094SOL     OW73722   7.716   1.334   2.148
24094SOL    HW173723   7.624   1.332   2.122
24094SOL    HW273724   7.717   1.382   2.230
24095SOL     OW73725   7.559   1.028   3.585
24095SOL    HW173726   7.482   1.007   3.639
24095SOL    HW273727   7.632   0.989   3.632
24096SOL     OW73728   7.517   0.326   1.899
24096SOL    HW173729   7.421   0.321   1.901
24096SOL    HW273730   7.535   0.402   1.844
24097SOL     OW73731   7.530   0.208   2.165
24097SOL    HW173732   7.526   0.261   2.086
24097SOL    HW273733   7.602   0.147   2.150
24098SOL     OW73734   7.826   1.755   3.425
24098SOL    HW173735   7.739   1.794   3.412
24098SOL    HW273736   7.808   1.667   3.459
24099SOL     OW73737   7.708   1.307   3.718
24099SOL    HW173738   7.634   1.251   3.696
24099SOL    HW273739   7.702   1.319   3.813
24100SOL     OW73740   7.538   1.228   2.536
24100SOL    HW173741   7.537   1.184   2.621
24100SOL    HW273742   7.606   1.183   2.486
24101SOL     OW73743   0.103   1.437   3.409
24101SOL    HW173744   0.053   1.377   3.464
24101SOL    HW273745   0.174   1.469   3.466
24102SOL     OW73746   7.797   0.561   3.156
24102SOL    HW173747   7.846   0.505   3.217
24102SOL    HW273748   7.814   0.523   3.070
24103SOL     OW73749   7.485   1.061   2.171
24103SOL    HW173750   7.576   1.049   2.146
24103SOL    HW273751   7.455   0.974   2.196
24104SOL     OW73752   7.656   0.617   3.859
24104SOL    HW173753   7.569   0.612   3.900
24104SOL    HW273754   7.640   0.596   3.767
24105SOL     OW73755   7.687   0.284   4.705
24105SOL    HW173756   7.711   0.257   4.794
24105SOL    HW273757   7.598   0.249   4.693
24106SOL     OW73758   7.463   0.401   4.362
24106SOL    HW173759   7.376   0.424   4.394
24106SOL    HW273760   7.453   0.313   4.326
24107SOL     OW73761   7.750   1.444   4.774
24107SOL    HW173762   7.674   1.387   4.763
24107SOL    HW273763   7.795   1.442   4.690
24108SOL     OW73764   7.858   0.415   5.275
24108SOL    HW173765   7.939   0.365   5.264
24108SOL    HW273766   7.789   0.355   5.245
24109SOL     OW73767   7.667   1.713   4.202
24109SOL    HW173768   7.680   1.792   4.253
24109SOL    HW273769   7.753   1.696   4.162
24110SOL     OW73770   7.672   1.438   4.252
24110SOL    HW173771   7.655   1.532   4.255
24110SOL    HW273772   7.614   1.401   4.319
24111SOL     OW73773   7.709   1.092   4.621
24111SOL    HW173774   7.699   1.004   4.657
24111SOL    HW273775   7.650   1.146   4.675
24112SOL     OW73776   7.574   0.653   4.289
24112SOL    HW173777   7.537   0.567   4.310
24112SOL    HW273778   7.561   0.705   4.368
24113SOL     OW73779   7.490   1.587   3.843
24113SOL    HW173780   7.476   1.495   3.864
24113SOL    HW273781   7.464   1.634   3.922
24114SOL     OW73782   7.557   0.738   5.307
24114SOL    HW173783   7.644   0.776   5.313
24114SOL    HW273784   7.498   0.813   5.303
24115SOL     OW73785   7.634   0.956   5.013
24115SOL    HW173786   7.722   0.920   5.003
24115SOL    HW273787   7.582   0.912   4.946
24116SOL     OW73788   7.754   0.231   5.515
24116SOL    HW173789   7.835   0.283   5.522
24116SOL    HW273790   7.685   0.291   5.545
24117SOL     OW73791   8.010   0.742   3.980
24117SOL    HW173792   8.024   0.837   3.982
24117SOL    HW273793   7.949   0.725   4.052
24118SOL     OW73794   7.534   0.824   4.499
24118SOL    HW173795   7.611   0.818   4.555
24118SOL    HW273796   7.485   0.899   4.534
24119SOL     OW73797   7.555   1.847   5.290
24119SOL    HW173798   7.571   1.842   5.384
24119SOL    HW273799   7.465   1.817   5.279
24120SOL     OW73800   7.974   0.246   4.614
24120SOL    HW173801   7.896   0.238   4.669
24120SOL    HW273802   7.971   0.336   4.581
24121SOL     OW73803   7.817   1.835   4.600
24121SOL    HW173804   7.883   1.767   4.616
24121SOL    HW273805   7.866   1.917   4.605
24122SOL     OW73806   7.745   0.965   3.983
24122SOL    HW173807   7.830   0.983   3.944
24122SOL    HW273808   7.724   0.876   3.954
24123SOL     OW73809   7.952   1.238   5.464
24123SOL    HW173810   7.912   1.245   5.377
24123SOL    HW273811   7.881   1.260   5.525
24124SOL     OW73812   7.626   0.277   5.208
24124SOL    HW173813   7.576   0.347   5.168
24124SOL    HW273814   7.593   0.269   5.297
24125SOL     OW73815   7.707   1.800   4.966
24125SOL    HW173816   7.752   1.722   4.999
24125SOL    HW273817   7.697   1.785   4.873
24126SOL     OW73818   7.830   0.690   4.179
24126SOL    HW173819   7.871   0.620   4.230
24126SOL    HW273820   7.738   0.687   4.205
24127SOL     OW73821   0.035   0.081   3.828
24127SOL    HW173822   0.124   0.059   3.856
24127SOL    HW273823   0.045   0.162   3.778
24128SOL     OW73824   7.758   0.051   3.924
24128SOL    HW173825   7.834   0.075   3.871
24128SOL    HW273826   7.791  -0.016   3.984
24129SOL     OW73827   7.920   1.113   4.456
24129SOL    HW173828   7.848   1.103   4.519
24129SOL    HW273829   7.877   1.108   4.370
24130SOL     OW73830   7.553   0.545   5.116
24130SOL    HW173831   7.643   0.556   5.087
24130SOL    HW273832   7.539   0.613   5.181
24131SOL     OW73833   7.879   0.829   4.994
24131SOL    HW173834   7.968   0.832   5.029
24131SOL    HW273835   7.853   0.738   5.005
24132SOL     OW73836   7.521   1.572   5.084
24132SOL    HW173837   7.493   1.639   5.021
24132SOL    HW273838   7.616   1.567   5.072
24133SOL     OW73839   7.794   1.118   4.211
24133SOL    HW173840   7.778   1.198   4.163
24133SOL    HW273841   7.774   1.047   4.149
24134SOL     OW73842  -0.015   0.544   4.594
24134SOL    HW173843   0.021   0.621   4.551
24134SOL    HW273844   0.024   0.546   4.682
24135SOL     OW73845   7.786   1.537   5.030
24135SOL    HW173846   7.783   1.493   4.945
24135SOL    HW273847   7.879   1.554   5.044
24136SOL     OW73848   7.846   0.738   5.331
24136SOL    HW173849   7.920   0.789   5.298
24136SOL    HW273850   7.875   0.647   5.323
24137SOL     OW73851   7.962   0.082   5.401
24137SOL    HW173852   7.928   0.008   5.351
24137SOL    HW273853   7.884   0.124   5.437
24138SOL     OW73854   7.987   0.921   4.756
24138SOL    HW173855   8.007   1.014   4.756
24138SOL    HW273856   7.946   0.905   4.842
24139SOL     OW73857   7.753   0.218   4.957
24139SOL    HW173858   7.708   0.224   5.042
24139SOL    HW273859   7.790   0.130   4.956
24140SOL     OW73860   7.502   1.311   4.999
24140SOL    HW173861   7.528   1.254   5.071
24140SOL    HW273862   7.501   1.399   5.037
24141SOL     OW73863   7.813   0.056   4.375
24141SOL    HW173864   7.785   0.143   4.404
24141SOL    HW273865   7.767  -0.005   4.432
24142SOL     OW73866   7.800   0.916   5.541
24142SOL    HW173867   7.885   0.959   5.538
24142SOL    HW273868   7.809   0.840   5.483
24143SOL     OW73869   7.741   0.817   4.680
24143SOL    HW173870   7.832   0.844   4.690
24143SOL    HW273871   7.740   0.725   4.704
24144SOL     OW73872   7.751   0.543   4.729
24144SOL    HW173873   7.721   0.453   4.718
24144SOL    HW273874   7.830   0.548   4.676
24145SOL     OW73875   7.460   1.313   3.915
24145SOL    HW173876   7.373   1.331   3.881
24145SOL    HW273877   7.453   1.224   3.951
24146SOL     OW73878   7.548   1.780   4.672
24146SOL    HW173879   7.515   1.704   4.624
24146SOL    HW273880   7.636   1.794   4.636
24147SOL     OW73881   7.487   0.552   4.843
24147SOL    HW173882   7.567   0.558   4.791
24147SOL    HW273883   7.517   0.546   4.934
24148SOL     OW73884   7.635   0.511   5.450
24148SOL    HW173885   7.715   0.496   5.399
24148SOL    HW273886   7.593   0.585   5.406
24149SOL     OW73887   0.218   0.509   4.020
24149SOL    HW173888   0.182   0.421   4.032
24149SOL    HW273889   0.186   0.559   4.096
24150SOL     OW73890   7.682   1.545   5.439
24150SOL    HW173891   7.669   1.608   5.509
24150SOL    HW273892   7.704   1.463   5.484
24151SOL     OW73893   7.910   0.504   3.863
24151SOL    HW173894   7.961   0.573   3.907
24151SOL    HW273895   7.820   0.533   3.870
24152SOL     OW73896   7.578   1.141   5.204
24152SOL    HW173897   7.579   1.095   5.288
24152SOL    HW273898   7.598   1.073   5.139
24153SOL     OW73899   7.534   1.266   4.739
24153SOL    HW173900   7.517   1.280   4.832
24153SOL    HW273901   7.457   1.219   4.708
24154SOL     OW73902   7.596   1.806   5.555
24154SOL    HW173903   7.548   1.737   5.601
24154SOL    HW273904   7.641   1.854   5.624
24155SOL     OW73905   7.729   0.319   4.434
24155SOL    HW173906   7.647   0.355   4.401
24155SOL    HW273907   7.715   0.310   4.528
24156SOL     OW73908   7.814   1.289   5.236
24156SOL    HW173909   7.812   1.364   5.176
24156SOL    HW273910   7.732   1.243   5.220
24157SOL     OW73911  -0.008   1.563   4.135
24157SOL    HW173912   0.002   1.491   4.198
24157SOL    HW273913   0.051   1.631   4.166
24158SOL     OW73914   7.718   1.334   4.008
24158SOL    HW173915   7.625   1.330   3.983
24158SOL    HW273916   7.718   1.383   4.090
24159SOL     OW73917   7.560   1.026   5.450
24159SOL    HW173918   7.483   1.005   5.503
24159SOL    HW273919   7.633   0.988   5.498
24160SOL     OW73920   7.516   0.327   3.764
24160SOL    HW173921   7.420   0.324   3.767
24160SOL    HW273922   7.536   0.403   3.710
24161SOL     OW73923   7.531   0.179   4.030
24161SOL    HW173924   7.518   0.248   3.965
24161SOL    HW273925   7.609   0.132   4.000
24162SOL     OW73926   7.820   1.759   5.281
24162SOL    HW173927   7.724   1.764   5.288
24162SOL    HW273928   7.840   1.668   5.303
24163SOL     OW73929   7.706   1.304   5.581
24163SOL    HW173930   7.631   1.251   5.555
24163SOL    HW273931   7.695   1.319   5.675
24164SOL     OW73932   7.538   1.229   4.398
24164SOL    HW173933   7.541   1.183   4.482
24164SOL    HW273934   7.605   1.186   4.345
24165SOL     OW73935   0.094   1.443   5.275
24165SOL    HW173936   0.051   1.376   5.329
24165SOL    HW273937   0.169   1.471   5.327
24166SOL     OW73938   7.801   0.565   5.012
24166SOL    HW173939   7.865   0.510   5.058
24166SOL    HW273940   7.808   0.539   4.921
24167SOL     OW73941   7.485   1.060   4.035
24167SOL    HW173942   7.577   1.048   4.010
24167SOL    HW273943   7.456   0.972   4.059
24168SOL     OW73944   7.653   0.602   5.720
24168SOL    HW173945   7.565   0.610   5.756
24168SOL    HW273946   7.639   0.593   5.626
24169SOL     OW73947   7.689   0.285   6.564
24169SOL    HW173948   7.710   0.260   6.654
24169SOL    HW273949   7.601   0.250   6.550
24170SOL     OW73950   7.466   0.388   6.224
24170SOL    HW173951   7.377   0.411   6.250
24170SOL    HW273952   7.464   0.293   6.212
24171SOL     OW73953   7.759   1.431   6.637
24171SOL    HW173954   7.684   1.371   6.631
24171SOL    HW273955   7.774   1.460   6.547
24172SOL     OW73956   7.852   0.418   7.129
24172SOL    HW173957   7.939   0.379   7.123
24172SOL    HW273958   7.792   0.349   7.101
24173SOL     OW73959   7.667   1.712   6.065
24173SOL    HW173960   7.676   1.793   6.115
24173SOL    HW273961   7.754   1.698   6.026
24174SOL     OW73962   7.671   1.440   6.118
24174SOL    HW173963   7.658   1.535   6.115
24174SOL    HW273964   7.609   1.409   6.185
24175SOL     OW73965   7.712   1.092   6.486
24175SOL    HW173966   7.702   1.002   6.519
24175SOL    HW273967   7.654   1.144   6.541
24176SOL     OW73968   7.572   0.649   6.153
24176SOL    HW173969   7.535   0.563   6.175
24176SOL    HW273970   7.560   0.701   6.233
24177SOL     OW73971   7.502   1.592   5.696
24177SOL    HW173972   7.479   1.501   5.715
24177SOL    HW273973   7.471   1.641   5.773
24178SOL     OW73974   7.554   0.742   7.169
24178SOL    HW173975   7.642   0.782   7.172
24178SOL    HW273976   7.495   0.817   7.156
24179SOL     OW73977   7.634   0.953   6.881
24179SOL    HW173978   7.720   0.911   6.880
24179SOL    HW273979   7.589   0.919   6.804
24180SOL     OW73980   7.754   0.239   7.368
24180SOL    HW173981   7.816   0.306   7.398
24180SOL    HW273982   7.677   0.252   7.423
24181SOL     OW73983   8.006   0.740   5.847
24181SOL    HW173984   8.024   0.834   5.843
24181SOL    HW273985   7.946   0.730   5.921
24182SOL     OW73986   7.536   0.817   6.367
24182SOL    HW173987   7.613   0.818   6.424
24182SOL    HW273988   7.484   0.891   6.396
24183SOL     OW73989   7.568   1.841   7.161
24183SOL    HW173990   7.571   1.826   7.255
24183SOL    HW273991   7.476   1.862   7.143
24184SOL     OW73992   7.962   0.249   6.482
24184SOL    HW173993   7.877   0.251   6.527
24184SOL    HW273994   7.968   0.334   6.438
24185SOL     OW73995   7.812   1.832   6.456
24185SOL    HW173996   7.881   1.767   6.473
24185SOL    HW273997   7.856   1.916   6.463
24186SOL     OW73998   7.748   0.969   5.846
24186SOL    HW173999   7.832   0.991   5.806
24186SOL    HW274000   7.727   0.882   5.811
24187SOL     OW74001   7.941   1.275   7.310
24187SOL    HW174002   7.895   1.277   7.226
24187SOL    HW274003   7.871   1.285   7.375
24188SOL     OW74004   7.629   0.252   7.085
24188SOL    HW174005   7.565   0.316   7.053
24188SOL    HW274006   7.628   0.262   7.180
24189SOL     OW74007   7.700   1.788   6.807
24189SOL    HW174008   7.750   1.712   6.835
24189SOL    HW274009   7.675   1.770   6.717
24190SOL     OW74010   7.828   0.692   6.048
24190SOL    HW174011   7.870   0.617   6.089
24190SOL    HW274012   7.737   0.687   6.076
24191SOL     OW74013   0.021   0.091   5.707
24191SOL    HW174014   0.108   0.056   5.727
24191SOL    HW274015   0.036   0.152   5.635
24192SOL     OW74016   7.761   0.010   5.733
24192SOL    HW174017   7.849   0.045   5.717
24192SOL    HW274018   7.767  -0.031   5.820
24193SOL     OW74019   7.924   1.090   6.317
24193SOL    HW174020   7.851   1.092   6.379
24193SOL    HW274021   7.882   1.095   6.231
24194SOL     OW74022   7.553   0.544   6.984
24194SOL    HW174023   7.643   0.552   6.952
24194SOL    HW274024   7.543   0.616   7.047
24195SOL     OW74025   7.875   0.818   6.889
24195SOL    HW174026   7.969   0.818   6.871
24195SOL    HW274027   7.848   0.727   6.875
24196SOL     OW74028   7.526   1.572   6.933
24196SOL    HW174029   7.493   1.649   6.886
24196SOL    HW274030   7.621   1.579   6.927
24197SOL     OW74031   7.797   1.119   6.074
24197SOL    HW174032   7.782   1.200   6.027
24197SOL    HW274033   7.777   1.050   6.011
24198SOL     OW74034  -0.019   0.555   6.458
24198SOL    HW174035   0.020   0.630   6.413
24198SOL    HW274036   0.023   0.554   6.544
24199SOL     OW74037   7.801   1.532   6.888
24199SOL    HW174038   7.797   1.490   6.802
24199SOL    HW274039   7.894   1.543   6.905
24200SOL     OW74040   7.839   0.749   7.174
24200SOL    HW174041   7.872   0.790   7.094
24200SOL    HW274042   7.879   0.662   7.174
24201SOL     OW74043   7.958   0.077   7.281
24201SOL    HW174044   7.918   0.007   7.230
24201SOL    HW274045   7.885   0.133   7.308
24202SOL     OW74046   8.000   0.925   6.645
24202SOL    HW174047   8.016   1.016   6.618
24202SOL    HW274048   7.925   0.930   6.703
24203SOL     OW74049   7.754   0.218   6.818
24203SOL    HW174050   7.702   0.213   6.899
24203SOL    HW274051   7.773   0.127   6.796
24204SOL     OW74052   7.458   1.314   6.883
24204SOL    HW174053   7.508   1.262   6.946
24204SOL    HW274054   7.483   1.405   6.901
24205SOL     OW74055   7.763   0.063   6.225
24205SOL    HW174056   7.806   0.145   6.247
24205SOL    HW274057   7.805  -0.002   6.282
24206SOL     OW74058   7.784   0.911   7.387
24206SOL    HW174059   7.856   0.900   7.449
24206SOL    HW274060   7.806   0.852   7.315
24207SOL     OW74061   7.748   0.819   6.547
24207SOL    HW174062   7.842   0.832   6.535
24207SOL    HW274063   7.740   0.726   6.568
24208SOL     OW74064   7.748   0.544   6.589
24208SOL    HW174065   7.718   0.454   6.576
24208SOL    HW274066   7.827   0.551   6.537
24209SOL     OW74067   7.462   1.313   5.774
24209SOL    HW174068   7.375   1.334   5.740
24209SOL    HW274069   7.454   1.226   5.812
24210SOL     OW74070   7.554   1.770   6.542
24210SOL    HW174071   7.520   1.698   6.488
24210SOL    HW274072   7.636   1.795   6.501
24211SOL     OW74073   7.485   0.555   6.707
24211SOL    HW174074   7.564   0.560   6.653
24211SOL    HW274075   7.518   0.543   6.796
24212SOL     OW74076   7.644   0.526   7.314
24212SOL    HW174077   7.717   0.501   7.258
24212SOL    HW274078   7.601   0.598   7.268
24213SOL     OW74079   0.218   0.515   5.881
24213SOL    HW174080   0.179   0.428   5.891
24213SOL    HW274081   0.186   0.564   5.957
24214SOL     OW74082   7.701   1.551   7.304
24214SOL    HW174083   7.679   1.623   7.363
24214SOL    HW274084   7.710   1.475   7.361
24215SOL     OW74085   7.910   0.505   5.732
24215SOL    HW174086   7.959   0.574   5.774
24215SOL    HW274087   7.819   0.534   5.736
24216SOL     OW74088   7.593   1.151   7.060
24216SOL    HW174089   7.588   1.107   7.146
24216SOL    HW274090   7.607   1.080   6.998
24217SOL     OW74091   7.540   1.254   6.624
24217SOL    HW174092   7.505   1.272   6.712
24217SOL    HW274093   7.464   1.224   6.574
24218SOL     OW74094   7.598   1.781   7.428
24218SOL    HW174095   7.544   1.719   7.477
24218SOL    HW274096   7.642   1.833   7.495
24219SOL     OW74097   7.739   0.343   6.295
24219SOL    HW174098   7.654   0.370   6.260
24219SOL    HW274099   7.721   0.320   6.386
24220SOL     OW74100   7.821   1.310   7.074
24220SOL    HW174101   7.803   1.388   7.020
24220SOL    HW274102   7.743   1.256   7.064
24221SOL     OW74103  -0.009   1.567   5.999
24221SOL    HW174104   0.015   1.491   6.052
24221SOL    HW274105   0.047   1.638   6.030
24222SOL     OW74106   7.718   1.334   5.875
24222SOL    HW174107   7.626   1.331   5.848
24222SOL    HW274108   7.717   1.384   5.956
24223SOL     OW74109   7.552   1.046   7.313
24223SOL    HW174110   7.478   1.016   7.364
24223SOL    HW274111   7.627   0.999   7.348
24224SOL     OW74112   7.509   0.316   5.611
24224SOL    HW174113   7.415   0.324   5.628
24224SOL    HW274114   7.531   0.395   5.561
24225SOL     OW74115   7.512   0.188   5.874
24225SOL    HW174116   7.518   0.278   5.841
24225SOL    HW274117   7.591   0.177   5.927
24226SOL     OW74118   7.828   1.748   7.146
24226SOL    HW174119   7.745   1.789   7.123
24226SOL    HW274120   7.804   1.667   7.189
24227SOL     OW74121   7.705   1.309   7.447
24227SOL    HW174122   7.635   1.248   7.424
24227SOL    HW274123   7.701   1.316   7.542
24228SOL     OW74124   7.535   1.227   6.260
24228SOL    HW174125   7.544   1.171   6.338
24228SOL    HW274126   7.603   1.195   6.200
24229SOL     OW74127   7.797   0.559   6.867
24229SOL    HW174128   7.854   0.495   6.909
24229SOL    HW274129   7.801   0.538   6.774
24230SOL     OW74130   7.486   1.062   5.900
24230SOL    HW174131   7.578   1.051   5.874
24230SOL    HW274132   7.457   0.974   5.923
24231SOL     OW74133   7.656   0.620   7.582
24231SOL    HW174134   7.567   0.614   7.617
24231SOL    HW274135   7.646   0.606   7.488
24232SOL     OW74136   7.690   0.283   8.426
24232SOL    HW174137   7.710   0.259   8.517
24232SOL    HW274138   7.602   0.248   8.411
24233SOL     OW74139   7.467   0.392   8.091
24233SOL    HW174140   7.378   0.411   8.119
24233SOL    HW274141   7.468   0.297   8.074
24234SOL     OW74142   7.753   1.438   8.500
24234SOL    HW174143   7.679   1.379   8.489
24234SOL    HW274144   7.784   1.454   8.411
24235SOL     OW74145   7.853   0.411   8.980
24235SOL    HW174146   7.931   0.356   8.988
24235SOL    HW274147   7.783   0.349   8.961
24236SOL     OW74148   7.665   1.714   7.924
24236SOL    HW174149   7.678   1.792   7.977
24236SOL    HW274150   7.744   1.709   7.869
24237SOL     OW74151   7.668   1.441   7.976
24237SOL    HW174152   7.662   1.536   7.973
24237SOL    HW274153   7.608   1.415   8.046
24238SOL     OW74154   7.709   1.092   8.342
24238SOL    HW174155   7.700   1.003   8.377
24238SOL    HW274156   7.651   1.146   8.397
24239SOL     OW74157   7.570   0.651   8.014
24239SOL    HW174158   7.535   0.565   8.037
24239SOL    HW274159   7.558   0.704   8.093
24240SOL     OW74160   7.479   1.585   7.568
24240SOL    HW174161   7.474   1.494   7.598
24240SOL    HW274162   7.458   1.636   7.646
24241SOL     OW74163   7.551   0.744   9.030
24241SOL    HW174164   7.638   0.785   9.032
24241SOL    HW274165   7.491   0.817   9.015
24242SOL     OW74166   7.633   0.952   8.745
24242SOL    HW174167   7.722   0.917   8.735
24242SOL    HW274168   7.585   0.918   8.670
24243SOL     OW74169   7.763   0.245   9.249
24243SOL    HW174170   7.819   0.317   9.280
24243SOL    HW274171   7.679   0.260   9.292
24244SOL     OW74172   7.989   0.745   7.702
24244SOL    HW174173   8.039   0.825   7.720
24244SOL    HW274174   7.934   0.733   7.780
24245SOL     OW74175   7.534   0.823   8.224
24245SOL    HW174176   7.611   0.819   8.280
24245SOL    HW274177   7.483   0.896   8.258
24246SOL     OW74178   7.566   1.872   9.031
24246SOL    HW174179   7.573   1.852   9.125
24246SOL    HW274180   7.493   1.817   9.001
24247SOL     OW74181   7.964   0.273   8.365
24247SOL    HW174182   7.873   0.260   8.393
24247SOL    HW274183   7.964   0.359   8.323
24248SOL     OW74184   7.811   1.833   8.321
24248SOL    HW174185   7.879   1.766   8.334
24248SOL    HW274186   7.858   1.916   8.327
24249SOL     OW74187   7.750   0.967   7.710
24249SOL    HW174188   7.843   0.980   7.689
24249SOL    HW274189   7.732   0.876   7.686
24250SOL     OW74190   7.954   1.243   9.191
24250SOL    HW174191   7.915   1.249   9.103
24250SOL    HW274192   7.881   1.262   9.250
24251SOL     OW74193   7.628   0.253   8.951
24251SOL    HW174194   7.556   0.314   8.934
24251SOL    HW274195   7.628   0.243   9.046
24252SOL     OW74196   7.700   1.787   8.672
24252SOL    HW174197   7.748   1.712   8.707
24252SOL    HW274198   7.683   1.764   8.581
24253SOL     OW74199   7.826   0.697   7.913
24253SOL    HW174200   7.870   0.626   7.960
24253SOL    HW274201   7.734   0.689   7.938
24254SOL     OW74202   0.016   0.079   7.565
24254SOL    HW174203   0.109   0.064   7.586
24254SOL    HW274204   0.017   0.108   7.474
24255SOL     OW74205   7.752   0.053   7.652
24255SOL    HW174206   7.828   0.085   7.603
24255SOL    HW274207   7.787  -0.017   7.707
24256SOL     OW74208   7.924   1.095   8.179
24256SOL    HW174209   7.852   1.094   8.242
24256SOL    HW274210   7.882   1.099   8.094
24257SOL     OW74211   7.550   0.551   8.840
24257SOL    HW174212   7.641   0.559   8.812
24257SOL    HW274213   7.539   0.620   8.906
24258SOL     OW74214   7.880   0.829   8.726
24258SOL    HW174215   7.974   0.829   8.745
24258SOL    HW274216   7.855   0.737   8.729
24259SOL     OW74217   7.522   1.574   8.810
24259SOL    HW174218   7.494   1.642   8.748
24259SOL    HW274219   7.617   1.570   8.798
24260SOL     OW74220   7.796   1.121   7.938
24260SOL    HW174221   7.781   1.203   7.891
24260SOL    HW274222   7.773   1.053   7.875
24261SOL     OW74223  -0.020   0.556   8.320
24261SOL    HW174224   0.018   0.631   8.275
24261SOL    HW274225   0.021   0.556   8.407
24262SOL     OW74226   7.788   1.530   8.756
24262SOL    HW174227   7.785   1.487   8.671
24262SOL    HW274228   7.880   1.552   8.770
24263SOL     OW74229   7.838   0.745   9.053
24263SOL    HW174230   7.900   0.796   9.001
24263SOL    HW274231   7.866   0.654   9.042
24264SOL     OW74232   7.947   0.077   9.121
24264SOL    HW174233   7.902   0.001   9.082
24264SOL    HW274234   7.877   0.126   9.164
24265SOL     OW74235   7.988   0.922   8.485
24265SOL    HW174236   8.005   1.016   8.479
24265SOL    HW274237   7.941   0.912   8.568
24266SOL     OW74238   7.746   0.220   8.684
24266SOL    HW174239   7.699   0.221   8.767
24266SOL    HW274240   7.769   0.128   8.670
24267SOL     OW74241   7.493   1.313   8.728
24267SOL    HW174242   7.526   1.258   8.799
24267SOL    HW274243   7.500   1.403   8.762
24268SOL     OW74244   7.768   0.058   8.103
24268SOL    HW174245   7.801   0.147   8.116
24268SOL    HW274246   7.815   0.006   8.168
24269SOL     OW74247   7.812   0.925   9.270
24269SOL    HW174248   7.897   0.964   9.251
24269SOL    HW274249   7.809   0.846   9.216
24270SOL     OW74250   7.742   0.819   8.405
24270SOL    HW174251   7.834   0.843   8.412
24270SOL    HW274252   7.739   0.726   8.429
24271SOL     OW74253   7.747   0.544   8.454
24271SOL    HW174254   7.719   0.454   8.441
24271SOL    HW274255   7.826   0.552   8.401
24272SOL     OW74256   7.458   1.312   7.637
24272SOL    HW174257   7.375   1.325   7.592
24272SOL    HW274258   7.452   1.223   7.673
24273SOL     OW74259   7.548   1.777   8.400
24273SOL    HW174260   7.516   1.703   8.348
24273SOL    HW274261   7.634   1.797   8.362
24274SOL     OW74262   7.486   0.556   8.567
24274SOL    HW174263   7.567   0.562   8.517
24274SOL    HW274264   7.514   0.547   8.658
24275SOL     OW74265   7.632   0.526   9.181
24275SOL    HW174266   7.704   0.500   9.123
24275SOL    HW274267   7.589   0.598   9.134
24276SOL     OW74268   0.208   0.514   7.743
24276SOL    HW174269   0.181   0.424   7.761
24276SOL    HW274270   0.183   0.562   7.822
24277SOL     OW74271   7.684   1.546   9.162
24277SOL    HW174272   7.678   1.608   9.234
24277SOL    HW274273   7.704   1.462   9.204
24278SOL     OW74274   7.906   0.503   7.600
24278SOL    HW174275   7.955   0.577   7.636
24278SOL    HW274276   7.815   0.531   7.602
24279SOL     OW74277   7.580   1.144   8.930
24279SOL    HW174278   7.583   1.100   9.015
24279SOL    HW274279   7.597   1.074   8.867
24280SOL     OW74280   7.537   1.260   8.470
24280SOL    HW174281   7.515   1.277   8.561
24280SOL    HW274282   7.458   1.221   8.433
24281SOL     OW74283   7.585   1.800   9.293
24281SOL    HW174284   7.542   1.727   9.337
24281SOL    HW274285   7.639   1.841   9.360
24282SOL     OW74286   7.743   0.341   8.157
24282SOL    HW174287   7.660   0.371   8.121
24282SOL    HW274288   7.723   0.318   8.248
24283SOL     OW74289   7.815   1.293   8.963
24283SOL    HW174290   7.817   1.367   8.902
24283SOL    HW274291   7.733   1.247   8.943
24284SOL     OW74292  -0.007   1.558   7.858
24284SOL    HW174293   0.031   1.486   7.908
24284SOL    HW274294   0.038   1.636   7.891
24285SOL     OW74295   7.716   1.333   7.734
24285SOL    HW174296   7.623   1.330   7.710
24285SOL    HW274297   7.718   1.384   7.815
24286SOL     OW74298   7.568   1.047   9.189
24286SOL    HW174299   7.488   1.017   9.232
24286SOL    HW274300   7.638   0.996   9.230
24287SOL     OW74301   7.518   0.337   7.474
24287SOL    HW174302   7.432   0.333   7.432
24287SOL    HW274303   7.561   0.413   7.433
24288SOL     OW74304   7.500   0.153   7.691
24288SOL    HW174305   7.507   0.234   7.641
24288SOL    HW274306   7.589   0.118   7.691
24289SOL     OW74307   7.828   1.757   9.013
24289SOL    HW174308   7.743   1.796   8.992
24289SOL    HW274309   7.808   1.668   9.041
24290SOL     OW74310   7.694   1.295   9.294
24290SOL    HW174311   7.642   1.227   9.251
24290SOL    HW274312   7.657   1.304   9.381
24291SOL     OW74313   7.535   1.227   8.123
24291SOL    HW174314   7.545   1.176   8.204
24291SOL    HW274315   7.607   1.197   8.068
24292SOL     OW74316   0.098   1.443   9.001
24292SOL    HW174317   0.050   1.383   9.059
24292SOL    HW274318   0.174   1.471   9.053
24293SOL     OW74319   7.802   0.567   8.739
24293SOL    HW174320   7.849   0.502   8.792
24293SOL    HW274321   7.810   0.534   8.650
24294SOL     OW74322   7.485   1.060   7.756
24294SOL    HW174323   7.578   1.050   7.732
24294SOL    HW274324   7.457   0.972   7.781
24295SOL     OW74325   7.654   0.620   9.444
24295SOL    HW174326   7.566   0.614   9.482
24295SOL    HW274327   7.642   0.597   9.352
24296SOL     OW74328   7.680   0.278  10.280
24296SOL    HW174329   7.708   0.257  10.369
24296SOL    HW274330   7.597   0.231  10.269
24297SOL     OW74331   7.468   0.399   9.937
24297SOL    HW174332   7.379   0.410   9.971
24297SOL    HW274333   7.460   0.330   9.870
24298SOL     OW74334   7.740   1.436  10.368
24298SOL    HW174335   7.668   1.379  10.343
24298SOL    HW274336   7.796   1.439  10.290
24299SOL     OW74337   7.858   0.408  10.833
24299SOL    HW174338   7.940   0.359  10.846
24299SOL    HW274339   7.791   0.340  10.825
24300SOL     OW74340   7.667   1.711   9.786
24300SOL    HW174341   7.682   1.792   9.834
24300SOL    HW274342   7.751   1.691   9.744
24301SOL     OW74343   7.675   1.440   9.844
24301SOL    HW174344   7.658   1.534   9.843
24301SOL    HW274345   7.615   1.405   9.910
24302SOL     OW74346   7.714   1.091  10.222
24302SOL    HW174347   7.711   0.999  10.249
24302SOL    HW274348   7.648   1.134  10.276
24303SOL     OW74349   7.571   0.652   9.876
24303SOL    HW174350   7.536   0.565   9.893
24303SOL    HW274351   7.558   0.700   9.958
24304SOL     OW74352   7.496   1.590   9.437
24304SOL    HW174353   7.481   1.496   9.447
24304SOL    HW274354   7.467   1.628   9.520
24305SOL     OW74355   7.553   0.743  10.886
24305SOL    HW174356   7.640   0.781  10.894
24305SOL    HW274357   7.493   0.817  10.880
24306SOL     OW74358   7.635   0.963  10.586
24306SOL    HW174359   7.722   0.924  10.585
24306SOL    HW274360   7.582   0.906  10.531
24307SOL     OW74361   7.750   0.241  11.081
24307SOL    HW174362   7.819   0.291  11.124
24307SOL    HW274363   7.672   0.253  11.136
24308SOL     OW74364   8.003   0.731   9.575
24308SOL    HW174365   8.020   0.822   9.552
24308SOL    HW274366   7.943   0.736   9.649
24309SOL     OW74367   7.536   0.812  10.093
24309SOL    HW174368   7.614   0.811  10.149
24309SOL    HW274369   7.488   0.890  10.120
24310SOL     OW74370   7.538   1.790  10.872
24310SOL    HW174371   7.559   1.796  10.966
24310SOL    HW274372   7.482   1.866  10.855
24311SOL     OW74373   7.981   0.248  10.211
24311SOL    HW174374   7.893   0.231  10.244
24311SOL    HW274375   7.972   0.331  10.163
24312SOL     OW74376   7.812   1.834  10.174
24312SOL    HW174377   7.875   1.770  10.143
24312SOL    HW274378   7.864   1.912  10.192
24313SOL     OW74379   7.740   0.957   9.562
24313SOL    HW174380   7.791   0.977   9.483
24313SOL    HW274381   7.722   0.864   9.556
24314SOL     OW74382   7.959   1.245  11.054
24314SOL    HW174383   7.916   1.248  10.968
24314SOL    HW274384   7.888   1.259  11.117
24315SOL     OW74385   7.617   0.256  10.802
24315SOL    HW174386   7.569   0.338  10.798
24315SOL    HW274387   7.629   0.239  10.895
24316SOL     OW74388   7.664   1.756  10.553
24316SOL    HW174389   7.738   1.701  10.579
24316SOL    HW274390   7.668   1.759  10.458
24317SOL     OW74391   7.825   0.704   9.779
24317SOL    HW174392   7.864   0.621   9.803
24317SOL    HW274393   7.733   0.696   9.805
24318SOL     OW74394   0.029   0.087   9.436
24318SOL    HW174395   0.119   0.055   9.446
24318SOL    HW274396   0.033   0.145   9.360
24319SOL     OW74397   7.747   0.047   9.512
24319SOL    HW174398   7.789   0.104   9.447
24319SOL    HW274399   7.814  -0.017   9.535
24320SOL     OW74400   7.918   1.116  10.043
24320SOL    HW174401   7.847   1.105  10.106
24320SOL    HW274402   7.875   1.109   9.958
24321SOL     OW74403   7.550   0.541  10.706
24321SOL    HW174404   7.640   0.551  10.676
24321SOL    HW274405   7.538   0.612  10.770
24322SOL     OW74406   7.878   0.828  10.587
24322SOL    HW174407   7.970   0.826  10.610
24322SOL    HW274408   7.850   0.737  10.591
24323SOL     OW74409   7.789   1.113   9.797
24323SOL    HW174410   7.781   1.190   9.741
24323SOL    HW274411   7.777   1.039   9.737
24324SOL     OW74412  -0.021   0.555  10.182
24324SOL    HW174413   0.018   0.631  10.138
24324SOL    HW274414   0.019   0.555  10.269
24325SOL     OW74415   7.784   1.512  10.626
24325SOL    HW174416   7.785   1.481  10.535
24325SOL    HW274417   7.874   1.542  10.642
24326SOL     OW74418   7.840   0.741  10.910
24326SOL    HW174419   7.909   0.789  10.863
24326SOL    HW274420   7.870   0.650  10.909
24327SOL     OW74421   7.955   0.080  10.983
24327SOL    HW174422   7.912   0.006  10.940
24327SOL    HW274423   7.883   0.130  11.022
24328SOL     OW74424   7.991   0.921  10.349
24328SOL    HW174425   8.010   1.015  10.344
24328SOL    HW274426   7.943   0.910  10.431
24329SOL     OW74427   7.745   0.217  10.535
24329SOL    HW174428   7.716   0.212  10.625
24329SOL    HW274429   7.769   0.127  10.512
24330SOL     OW74430   7.529   1.379  10.618
24330SOL    HW174431   7.520   1.301  10.673
24330SOL    HW274432   7.619   1.375  10.586
24331SOL     OW74433   7.817   0.051  10.013
24331SOL    HW174434   7.809   0.122   9.950
24331SOL    HW274435   7.787  -0.027   9.966
24332SOL     OW74436   7.796   0.921  11.116
24332SOL    HW174437   7.885   0.930  11.149
24332SOL    HW274438   7.801   0.848  11.053
24333SOL     OW74439   7.746   0.816  10.270
24333SOL    HW174440   7.839   0.836  10.274
24333SOL    HW274441   7.741   0.722  10.290
24334SOL     OW74442   7.743   0.539  10.311
24334SOL    HW174443   7.714   0.449  10.296
24334SOL    HW274444   7.824   0.547  10.259
24335SOL     OW74445   7.463   1.315   9.504
24335SOL    HW174446   7.375   1.335   9.471
24335SOL    HW274447   7.456   1.226   9.538
24336SOL     OW74448   7.548   1.779  10.252
24336SOL    HW174449   7.516   1.704  10.202
24336SOL    HW274450   7.635   1.796  10.217
24337SOL     OW74451   7.485   0.541  10.432
24337SOL    HW174452   7.565   0.549  10.379
24337SOL    HW274453   7.517   0.536  10.522
24338SOL     OW74454   7.626   0.527  11.045
24338SOL    HW174455   7.702   0.502  10.992
24338SOL    HW274456   7.586   0.598  10.996
24339SOL     OW74457   0.214   0.509   9.604
24339SOL    HW174458   0.176   0.422   9.618
24339SOL    HW274459   0.180   0.562   9.676
24340SOL     OW74460   7.693   1.535  11.032
24340SOL    HW174461   7.673   1.592  11.107
24340SOL    HW274462   7.710   1.449  11.071
24341SOL     OW74463   7.907   0.502   9.452
24341SOL    HW174464   7.958   0.572   9.494
24341SOL    HW274465   7.817   0.532   9.456
24342SOL     OW74466   7.581   1.148  10.780
24342SOL    HW174467   7.583   1.101  10.863
24342SOL    HW274468   7.598   1.080  10.714
24343SOL     OW74469   7.517   1.273  10.328
24343SOL    HW174470   7.469   1.291  10.409
24343SOL    HW274471   7.461   1.211  10.281
24344SOL     OW74472   7.589   1.804  11.140
24344SOL    HW174473   7.545   1.734  11.188
24344SOL    HW274474   7.638   1.853  11.206
24345SOL     OW74475   7.734   0.335  10.008
24345SOL    HW174476   7.650   0.369   9.976
24345SOL    HW274477   7.718   0.314  10.100
24346SOL     OW74478   7.816   1.292  10.827
24346SOL    HW174479   7.815   1.364  10.764
24346SOL    HW274480   7.737   1.241  10.808
24347SOL     OW74481  -0.023   1.578   9.731
24347SOL    HW174482  -0.005   1.492   9.769
24347SOL    HW274483   0.053   1.632   9.755
24348SOL     OW74484   7.722   1.325   9.607
24348SOL    HW174485   7.631   1.326   9.574
24348SOL    HW274486   7.719   1.377   9.687
24349SOL     OW74487   7.561   1.051  11.040
24349SOL    HW174488   7.483   1.021  11.087
24349SOL    HW274489   7.633   1.001  11.078
24350SOL     OW74490   7.518   0.328   9.349
24350SOL    HW174491   7.423   0.320   9.346
24350SOL    HW274492   7.538   0.403   9.293
24351SOL     OW74493   7.560   0.215   9.635
24351SOL    HW174494   7.530   0.263   9.557
24351SOL    HW274495   7.619   0.148   9.601
24352SOL     OW74496   7.821   1.746  10.876
24352SOL    HW174497   7.729   1.765  10.857
24352SOL    HW274498   7.820   1.658  10.914
24353SOL     OW74499   7.700   1.291  11.160
24353SOL    HW174500   7.643   1.222  11.129
24353SOL    HW274501   7.677   1.302  11.253
24354SOL     OW74502   7.539   1.236   9.987
24354SOL    HW174503   7.535   1.174  10.060
24354SOL    HW274504   7.601   1.197   9.925
24355SOL     OW74505   0.091   1.455  10.861
24355SOL    HW174506   0.048   1.385  10.909
24355SOL    HW274507   0.169   1.476  10.914
24356SOL     OW74508   7.799   0.565  10.600
24356SOL    HW174509   7.846   0.504  10.658
24356SOL    HW274510   7.813   0.530  10.512
24357SOL     OW74511   7.486   1.062   9.627
24357SOL    HW174512   7.577   1.051   9.599
24357SOL    HW274513   7.456   0.974   9.649
24358SOL     OW74514   7.654   0.628  11.306
24358SOL    HW174515   7.569   0.616  11.349
24358SOL    HW274516   7.639   0.599  11.216
24359SOL     OW74517   7.701   0.279  12.151
24359SOL    HW174518   7.719   0.254  12.242
24359SOL    HW274519   7.619   0.236  12.130
24360SOL     OW74520   7.472   0.401  11.798
24360SOL    HW174521   7.383   0.408  11.834
24360SOL    HW274522   7.468   0.325  11.740
24361SOL     OW74523   7.779   1.423  12.224
24361SOL    HW174524   7.702   1.367  12.231
24361SOL    HW274525   7.788   1.441  12.131
24362SOL     OW74526   7.663   1.716  11.647
24362SOL    HW174527   7.680   1.795  11.699
24362SOL    HW274528   7.750   1.687  11.619
24363SOL     OW74529   7.672   1.436  11.706
24363SOL    HW174530   7.644   1.527  11.714
24363SOL    HW274531   7.617   1.388  11.768
24364SOL     OW74532   7.709   1.091  12.068
24364SOL    HW174533   7.706   1.002  12.104
24364SOL    HW274534   7.655   1.143  12.127
24365SOL     OW74535   7.570   0.657  11.735
24365SOL    HW174536   7.538   0.569  11.756
24365SOL    HW274537   7.557   0.707  11.816
24366SOL     OW74538   7.498   1.591  11.280
24366SOL    HW174539   7.481   1.499  11.300
24366SOL    HW274540   7.469   1.638  11.357
24367SOL     OW74541   7.593   0.736   0.208
24367SOL    HW174542   7.585   0.728   0.303
24367SOL    HW274543   7.524   0.797   0.183
24368SOL     OW74544   7.647   0.989  12.402
24368SOL    HW174545   7.721   0.929  12.409
24368SOL    HW274546   7.574   0.941  12.442
24369SOL     OW74547   8.000   0.743  11.433
24369SOL    HW174548   8.019   0.837  11.437
24369SOL    HW274549   7.942   0.727  11.507
24370SOL     OW74550   7.531   0.837  11.941
24370SOL    HW174551   7.610   0.822  11.993
24370SOL    HW274552   7.487   0.910  11.985
24371SOL     OW74553   7.982   0.258  12.069
24371SOL    HW174554   7.894   0.239  12.102
24371SOL    HW274555   7.978   0.351  12.044
24372SOL     OW74556   7.812   1.819  12.042
24372SOL    HW174557   7.853   1.763  12.108
24372SOL    HW274558   7.865   1.899  12.043
24373SOL     OW74559   7.738   0.956  11.431
24373SOL    HW174560   7.816   0.972  11.377
24373SOL    HW274561   7.716   0.865  11.416
24374SOL     OW74562   7.684   1.798  12.402
24374SOL    HW174563   7.725   1.718  12.435
24374SOL    HW274564   7.633   1.769  12.326
24375SOL     OW74565   7.827   0.688  11.634
24375SOL    HW174566   7.865   0.613  11.679
24375SOL    HW274567   7.734   0.687  11.659
24376SOL     OW74568   0.029   0.092  11.296
24376SOL    HW174569   0.115   0.053  11.306
24376SOL    HW274570   0.039   0.157  11.226
24377SOL     OW74571   7.764   0.010  11.328
24377SOL    HW174572   7.849   0.050  11.312
24377SOL    HW274573   7.771  -0.027  11.416
24378SOL     OW74574   7.921   1.142  11.910
24378SOL    HW174575   7.851   1.121  11.972
24378SOL    HW274576   7.885   1.120  11.824
24379SOL     OW74577   7.858   0.802  12.451
24379SOL    HW174578   7.877   0.802  12.545
24379SOL    HW274579   7.803   0.725  12.438
24380SOL     OW74580   7.822   1.111  11.650
24380SOL    HW174581   7.787   1.190  11.609
24380SOL    HW274582   7.789   1.039  11.597
24381SOL     OW74583  -0.003   0.542  12.049
24381SOL    HW174584   0.028   0.616  11.997
24381SOL    HW274585   0.028   0.559  12.138
24382SOL     OW74586   7.801   1.564  12.469
24382SOL    HW174587   7.792   1.502  12.397
24382SOL    HW274588   7.887   1.547  12.506
24383SOL     OW74589   7.891   0.771   0.230
24383SOL    HW174590   7.983   0.781   0.254
24383SOL    HW274591   7.849   0.737   0.309
24384SOL     OW74592   7.983   0.892  12.215
24384SOL    HW174593   8.065   0.931  12.246
24384SOL    HW274594   7.943   0.854  12.293
24385SOL     OW74595   7.758   0.214  12.409
24385SOL    HW174596   7.774   0.246  12.498
24385SOL    HW274597   7.773   0.120  12.415
24386SOL     OW74598   7.527   1.341  12.444
24386SOL    HW174599   7.530   1.264  12.501
24386SOL    HW274600   7.520   1.415  12.504
24387SOL     OW74601   7.834   0.068  11.860
24387SOL    HW174602   7.792   0.153  11.852
24387SOL    HW274603   7.763   0.005  11.846
24388SOL     OW74604   7.744   0.816  12.109
24388SOL    HW174605   7.830   0.843  12.139
24388SOL    HW274606   7.738   0.723  12.133
24389SOL     OW74607   7.745   0.546  12.150
24389SOL    HW174608   7.724   0.454  12.161
24389SOL    HW274609   7.832   0.546  12.109
24390SOL     OW74610   7.463   1.315  11.358
24390SOL    HW174611   7.376   1.333  11.322
24390SOL    HW274612   7.455   1.228  11.397
24391SOL     OW74613   7.544   1.779  12.117
24391SOL    HW174614   7.512   1.701  12.072
24391SOL    HW274615   7.633   1.792  12.082
24392SOL     OW74616   7.498   0.571  12.278
24392SOL    HW174617   7.570   0.570  12.214
24392SOL    HW274618   7.543   0.574  12.363
24393SOL     OW74619   0.216   0.514  11.468
24393SOL    HW174620   0.183   0.424  11.479
24393SOL    HW274621   0.184   0.561  11.545
24394SOL     OW74622   7.909   0.510  11.312
24394SOL    HW174623   7.958   0.579  11.356
24394SOL    HW274624   7.817   0.537  11.321
24395SOL     OW74625   7.537   1.276  12.184
24395SOL    HW174626   7.523   1.298  12.277
24395SOL    HW274627   7.465   1.217  12.163
24396SOL     OW74628   7.739   0.335  11.879
24396SOL    HW174629   7.653   0.359  11.844
24396SOL    HW274630   7.724   0.322  11.972
24397SOL     OW74631  -0.012   1.567  11.584
24397SOL    HW174632  -0.015   1.496  11.649
24397SOL    HW274633   0.052   1.629  11.619
24398SOL     OW74634   7.718   1.336  11.461
24398SOL    HW174635   7.627   1.333  11.433
24398SOL    HW274636   7.717   1.382  11.545
24399SOL     OW74637   7.514   0.323  11.206
24399SOL    HW174638   7.420   0.325  11.218
24399SOL    HW274639   7.533   0.400  11.152
24400SOL     OW74640   7.553   0.227  11.471
24400SOL    HW174641   7.539   0.269  11.386
24400SOL    HW274642   7.603   0.148  11.450
24401SOL     OW74643   7.776   1.730   0.240
24401SOL    HW174644   7.706   1.759   0.181
24401SOL    HW274645   7.793   1.639   0.213
24402SOL     OW74646   7.536   1.231  11.850
24402SOL    HW174647   7.520   1.196  11.937
24402SOL    HW274648   7.603   1.174  11.813
24403SOL     OW74649   7.485   1.061  11.481
24403SOL    HW174650   7.577   1.047  11.457
24403SOL    HW274651   7.453   0.975  11.505
24404SOL     OW74652   7.704   2.437   0.030
24404SOL    HW174653   7.675   2.493   0.101
24404SOL    HW274654   7.633   2.441  -0.035
24405SOL     OW74655   7.662   2.152   1.005
24405SOL    HW174656   7.692   2.112   1.086
24405SOL    HW274657   7.576   2.113   0.988
24406SOL     OW74658   7.448   2.240   0.641
24406SOL    HW174659   7.368   2.259   0.689
24406SOL    HW274660   7.425   2.166   0.584
24407SOL     OW74661   7.757   3.307   1.052
24407SOL    HW174662   7.680   3.253   1.035
24407SOL    HW274663   7.793   3.325   0.965
24408SOL     OW74664   7.875   2.272   1.515
24408SOL    HW174665   7.958   2.224   1.517
24408SOL    HW274666   7.808   2.203   1.521
24409SOL     OW74667   7.659   3.576   0.489
24409SOL    HW174668   7.684   3.653   0.539
24409SOL    HW274669   7.711   3.581   0.409
24410SOL     OW74670   7.667   3.302   0.536
24410SOL    HW174671   7.663   3.397   0.532
24410SOL    HW274672   7.603   3.277   0.603
24411SOL     OW74673   7.715   2.940   0.935
24411SOL    HW174674   7.725   2.909   1.025
24411SOL    HW274675   7.653   3.013   0.941
24412SOL     OW74676   7.555   2.492   0.586
24412SOL    HW174677   7.518   2.404   0.595
24412SOL    HW274678   7.554   2.528   0.675
24413SOL     OW74679   7.480   3.376   0.150
24413SOL    HW174680   7.392   3.346   0.126
24413SOL    HW274681   7.465   3.458   0.198
24414SOL     OW74682   7.571   2.611   1.569
24414SOL    HW174683   7.659   2.645   1.582
24414SOL    HW274684   7.513   2.686   1.585
24415SOL     OW74685   7.635   2.825   1.257
24415SOL    HW174686   7.715   2.773   1.266
24415SOL    HW274687   7.564   2.761   1.254
24416SOL     OW74688   7.746   2.132   1.790
24416SOL    HW174689   7.809   2.184   1.840
24416SOL    HW274690   7.666   2.136   1.842
24417SOL     OW74691   7.603   2.689   0.806
24417SOL    HW174692   7.623   2.754   0.739
24417SOL    HW274693   7.527   2.725   0.852
24418SOL     OW74694   7.570   3.731   1.586
24418SOL    HW174695   7.580   3.712   1.679
24418SOL    HW274696   7.486   3.693   1.561
24419SOL     OW74697   7.934   2.068   0.870
24419SOL    HW174698   7.947   2.072   0.965
24419SOL    HW274699   7.989   2.139   0.836
24420SOL     OW74700   7.820   3.697   0.872
24420SOL    HW174701   7.892   3.637   0.893
24420SOL    HW274702   7.860   3.784   0.877
24421SOL     OW74703   7.746   2.863   0.264
24421SOL    HW174704   7.829   2.896   0.229
24421SOL    HW274705   7.739   2.774   0.231
24422SOL     OW74706   7.952   3.103   1.739
24422SOL    HW174707   7.911   3.108   1.652
24422SOL    HW274708   7.881   3.125   1.800
24423SOL     OW74709   7.631   2.125   1.525
24423SOL    HW174710   7.552   2.178   1.526
24423SOL    HW274711   7.651   2.110   1.618
24424SOL     OW74712   7.699   3.650   1.231
24424SOL    HW174713   7.750   3.582   1.276
24424SOL    HW274714   7.697   3.620   1.139
24425SOL     OW74715   7.802   2.529   0.463
24425SOL    HW174716   7.861   2.472   0.512
24425SOL    HW274717   7.716   2.513   0.502
24426SOL     OW74718   0.089   1.929   0.031
24426SOL    HW174719   0.159   1.950   0.093
24426SOL    HW274720   0.027   1.878   0.083
24427SOL     OW74721   7.983   1.875   0.507
24427SOL    HW174722   7.901   1.900   0.550
24427SOL    HW274723   8.014   1.955   0.465
24428SOL     OW74724   7.917   2.934   0.743
24428SOL    HW174725   7.850   2.942   0.811
24428SOL    HW274726   7.871   2.953   0.661
24429SOL     OW74727   7.535   2.411   1.387
24429SOL    HW174728   7.627   2.405   1.363
24429SOL    HW274729   7.531   2.482   1.451
24430SOL     OW74730   7.982   2.070   1.132
24430SOL    HW174731   8.061   2.066   1.184
24430SOL    HW274732   7.911   2.061   1.195
24431SOL     OW74733   7.858   2.668   1.274
24431SOL    HW174734   7.924   2.683   1.342
24431SOL    HW274735   7.835   2.576   1.283
24432SOL     OW74736   7.525   3.435   1.359
24432SOL    HW174737   7.506   3.513   1.307
24432SOL    HW274738   7.620   3.425   1.354
24433SOL     OW74739   7.783   2.987   0.509
24433SOL    HW174740   7.783   3.077   0.475
24433SOL    HW274741   7.769   2.932   0.432
24434SOL     OW74742  -0.021   2.477   0.866
24434SOL    HW174743   0.041   2.535   0.823
24434SOL    HW274744   0.024   2.448   0.945
24435SOL     OW74745   7.789   3.388   1.313
24435SOL    HW174746   7.788   3.349   1.226
24435SOL    HW274747   7.881   3.412   1.327
24436SOL     OW74748   7.866   2.592   1.599
24436SOL    HW174749   7.956   2.624   1.597
24436SOL    HW274750   7.875   2.497   1.586
24437SOL     OW74751   7.923   1.938   1.731
24437SOL    HW174752   7.884   1.872   1.674
24437SOL    HW274753   7.854   2.003   1.744
24438SOL     OW74754   7.947   2.767   1.032
24438SOL    HW174755   8.013   2.836   1.027
24438SOL    HW274756   7.937   2.751   1.126
24439SOL     OW74757   7.729   2.049   1.264
24439SOL    HW174758   7.691   2.083   1.345
24439SOL    HW274759   7.708   1.955   1.265
24440SOL     OW74760   7.500   3.177   1.267
24440SOL    HW174761   7.527   3.121   1.340
24440SOL    HW274762   7.502   3.266   1.305
24441SOL     OW74763   7.748   1.941   0.626
24441SOL    HW174764   7.733   2.033   0.647
24441SOL    HW274765   7.763   1.898   0.710
24442SOL     OW74766   7.797   2.775   1.803
24442SOL    HW174767   7.881   2.819   1.816
24442SOL    HW274768   7.817   2.701   1.746
24443SOL     OW74769   7.749   2.402   0.988
24443SOL    HW174770   7.715   2.313   0.994
24443SOL    HW274771   7.836   2.392   0.951
24444SOL     OW74772   7.547   3.642   0.942
24444SOL    HW174773   7.517   3.565   0.894
24444SOL    HW274774   7.636   3.657   0.909
24445SOL     OW74775   7.482   2.425   1.117
24445SOL    HW174776   7.562   2.408   1.068
24445SOL    HW274777   7.508   2.417   1.209
24446SOL     OW74778   7.616   2.396   1.736
24446SOL    HW174779   7.689   2.358   1.688
24446SOL    HW274780   7.587   2.470   1.682
24447SOL     OW74781   7.684   3.411   1.713
24447SOL    HW174782   7.668   3.476   1.781
24447SOL    HW274783   7.705   3.331   1.761
24448SOL     OW74784   7.920   2.317   0.175
24448SOL    HW174785   7.935   2.402   0.217
24448SOL    HW274786   7.839   2.329   0.125
24449SOL     OW74787   7.580   3.002   1.468
24449SOL    HW174788   7.581   2.952   1.549
24449SOL    HW274789   7.603   2.939   1.400
24450SOL     OW74790   7.539   3.135   1.007
24450SOL    HW174791   7.523   3.149   1.100
24450SOL    HW274792   7.458   3.100   0.973
24451SOL     OW74793   7.594   3.659   1.843
24451SOL    HW174794   7.546   3.590   1.889
24451SOL    HW274795   7.641   3.706   1.913
24452SOL     OW74796   7.716   2.203   0.714
24452SOL    HW174797   7.625   2.219   0.691
24452SOL    HW274798   7.714   2.182   0.807
24453SOL     OW74799   7.813   3.153   1.510
24453SOL    HW174800   7.812   3.230   1.455
24453SOL    HW274801   7.730   3.109   1.492
24454SOL     OW74802  -0.014   3.390   0.417
24454SOL    HW174803   0.027   3.319   0.466
24454SOL    HW274804   0.021   3.470   0.458
24455SOL     OW74805   7.736   3.208   0.292
24455SOL    HW174806   7.665   3.240   0.236
24455SOL    HW274807   7.718   3.247   0.378
24456SOL     OW74808   7.556   2.875   1.709
24456SOL    HW174809   7.481   2.863   1.768
24456SOL    HW274810   7.632   2.847   1.760
24457SOL     OW74811   7.550   2.062   0.245
24457SOL    HW174812   7.471   2.054   0.299
24457SOL    HW274813   7.620   2.026   0.300
24458SOL     OW74814   7.828   3.619   1.565
24458SOL    HW174815   7.741   3.657   1.551
24458SOL    HW274816   7.810   3.530   1.598
24459SOL     OW74817   7.708   3.172   1.860
24459SOL    HW174818   7.626   3.125   1.844
24459SOL    HW274819   7.709   3.186   1.955
24460SOL     OW74820   7.518   3.093   0.676
24460SOL    HW174821   7.514   3.026   0.745
24460SOL    HW274822   7.581   3.059   0.613
24461SOL     OW74823   0.098   3.299   1.549
24461SOL    HW174824   0.051   3.237   1.605
24461SOL    HW274825   0.170   3.330   1.603
24462SOL     OW74826   7.791   2.405   1.293
24462SOL    HW174827   7.837   2.361   1.365
24462SOL    HW274828   7.828   2.366   1.214
24463SOL     OW74829   7.487   2.937   0.360
24463SOL    HW174830   7.571   2.939   0.316
24463SOL    HW274831   7.473   2.845   0.382
24464SOL     OW74832   7.653   2.477   1.999
24464SOL    HW174833   7.566   2.474   2.039
24464SOL    HW274834   7.637   2.464   1.905
24465SOL     OW74835   7.674   2.143   2.853
24465SOL    HW174836   7.699   2.111   2.940
24465SOL    HW274837   7.584   2.111   2.842
24466SOL     OW74838   7.450   2.253   2.503
24466SOL    HW174839   7.371   2.279   2.551
24466SOL    HW274840   7.424   2.175   2.454
24467SOL     OW74841   7.750   3.309   2.913
24467SOL    HW174842   7.674   3.252   2.903
24467SOL    HW274843   7.796   3.303   2.829
24468SOL     OW74844   7.858   2.273   3.387
24468SOL    HW174845   7.934   2.216   3.398
24468SOL    HW274846   7.784   2.213   3.380
24469SOL     OW74847   7.668   3.577   2.340
24469SOL    HW174848   7.680   3.657   2.391
24469SOL    HW274849   7.755   3.557   2.307
24470SOL     OW74850   7.670   3.300   2.390
24470SOL    HW174851   7.652   3.394   2.395
24470SOL    HW274852   7.613   3.261   2.457
24471SOL     OW74853   7.706   2.951   2.757
24471SOL    HW174854   7.697   2.863   2.794
24471SOL    HW274855   7.649   3.005   2.813
24472SOL     OW74856   7.571   2.512   2.427
24472SOL    HW174857   7.533   2.428   2.451
24472SOL    HW274858   7.559   2.567   2.504
24473SOL     OW74859   7.495   3.448   1.979
24473SOL    HW174860   7.477   3.357   1.999
24473SOL    HW274861   7.467   3.496   2.056
24474SOL     OW74862   7.564   2.607   3.442
24474SOL    HW174863   7.654   2.640   3.444
24474SOL    HW274864   7.509   2.685   3.448
24475SOL     OW74865   7.638   2.818   3.149
24475SOL    HW174866   7.725   2.779   3.140
24475SOL    HW274867   7.583   2.770   3.087
24476SOL     OW74868   7.766   2.122   3.711
24476SOL    HW174869   7.810   2.200   3.743
24476SOL    HW274870   7.673   2.140   3.725
24477SOL     OW74871   8.010   2.602   2.115
24477SOL    HW174872   8.028   2.696   2.121
24477SOL    HW274873   7.949   2.585   2.187
24478SOL     OW74874   7.531   2.689   2.632
24478SOL    HW174875   7.608   2.680   2.689
24478SOL    HW274876   7.482   2.762   2.670
24479SOL     OW74877   7.575   3.733   3.449
24479SOL    HW174878   7.583   3.713   3.542
24479SOL    HW274879   7.490   3.696   3.424
24480SOL     OW74880   7.963   2.068   2.741
24480SOL    HW174881   7.962   2.066   2.836
24480SOL    HW274882   7.956   2.161   2.719
24481SOL     OW74883   7.812   3.688   2.732
24481SOL    HW174884   7.878   3.623   2.758
24481SOL    HW274885   7.857   3.772   2.738
24482SOL     OW74886   7.750   2.831   2.121
24482SOL    HW174887   7.840   2.846   2.094
24482SOL    HW274888   7.730   2.742   2.089
24483SOL     OW74889   7.953   3.104   3.599
24483SOL    HW174890   7.912   3.110   3.513
24483SOL    HW274891   7.883   3.126   3.661
24484SOL     OW74892   7.630   2.123   3.364
24484SOL    HW174893   7.554   2.175   3.391
24484SOL    HW274894   7.613   2.036   3.398
24485SOL     OW74895   7.706   3.652   3.090
24485SOL    HW174896   7.752   3.583   3.139
24485SOL    HW274897   7.695   3.615   3.002
24486SOL     OW74898   7.828   2.553   2.313
24486SOL    HW174899   7.878   2.511   2.383
24486SOL    HW274900   7.737   2.545   2.340
24487SOL     OW74901   0.006   1.965   1.992
24487SOL    HW174902   0.098   1.941   2.007
24487SOL    HW274903  -0.006   1.956   1.898
24488SOL     OW74904   7.965   1.869   2.342
24488SOL    HW174905   7.893   1.899   2.397
24488SOL    HW274906   8.009   1.949   2.315
24489SOL     OW74907   7.740   1.909   2.042
24489SOL    HW174908   7.818   1.958   2.017
24489SOL    HW274909   7.773   1.835   2.092
24490SOL     OW74910   7.918   2.976   2.595
24490SOL    HW174911   7.847   2.965   2.658
24490SOL    HW274912   7.876   2.971   2.509
24491SOL     OW74913   7.532   2.418   3.249
24491SOL    HW174914   7.625   2.415   3.226
24491SOL    HW274915   7.526   2.487   3.315
24492SOL     OW74916   7.987   2.051   3.006
24492SOL    HW174917   8.047   2.022   3.074
24492SOL    HW274918   7.903   2.059   3.050
24493SOL     OW74919   7.878   2.681   3.127
24493SOL    HW174920   7.960   2.682   3.175
24493SOL    HW274921   7.844   2.592   3.141
24494SOL     OW74922   7.523   3.437   3.223
24494SOL    HW174923   7.500   3.511   3.168
24494SOL    HW274924   7.618   3.429   3.215
24495SOL     OW74925   7.793   2.982   2.351
24495SOL    HW174926   7.776   3.063   2.304
24495SOL    HW274927   7.772   2.913   2.287
24496SOL     OW74928  -0.023   2.418   2.727
24496SOL    HW174929   0.016   2.497   2.688
24496SOL    HW274930   0.016   2.414   2.814
24497SOL     OW74931   7.787   3.391   3.174
24497SOL    HW174932   7.784   3.351   3.087
24497SOL    HW274933   7.880   3.412   3.187
24498SOL     OW74934   7.854   2.595   3.464
24498SOL    HW174935   7.939   2.635   3.448
24498SOL    HW274936   7.867   2.502   3.450
24499SOL     OW74937   7.936   1.955   3.586
24499SOL    HW174938   7.888   1.886   3.540
24499SOL    HW274939   7.867   2.012   3.621
24500SOL     OW74940   7.986   2.781   2.895
24500SOL    HW174941   8.008   2.874   2.902
24500SOL    HW274942   7.948   2.759   2.980
24501SOL     OW74943   7.735   2.057   3.112
24501SOL    HW174944   7.694   2.090   3.192
24501SOL    HW274945   7.717   1.963   3.112
24502SOL     OW74946   7.499   3.176   3.139
24502SOL    HW174947   7.527   3.120   3.211
24502SOL    HW274948   7.500   3.264   3.176
24503SOL     OW74949   7.742   1.932   2.491
24503SOL    HW174950   7.730   2.025   2.510
24503SOL    HW274951   7.761   1.892   2.576
24504SOL     OW74952   7.797   2.774   3.672
24504SOL    HW174953   7.883   2.816   3.679
24504SOL    HW274954   7.810   2.701   3.613
24505SOL     OW74955   7.740   2.675   2.813
24505SOL    HW174956   7.830   2.703   2.828
24505SOL    HW274957   7.738   2.584   2.840
24506SOL     OW74958   7.746   2.401   2.865
24506SOL    HW174959   7.720   2.309   2.859
24506SOL    HW274960   7.825   2.406   2.811
24507SOL     OW74961   7.460   3.174   2.049
24507SOL    HW174962   7.373   3.193   2.015
24507SOL    HW274963   7.453   3.086   2.087
24508SOL     OW74964   7.543   3.638   2.803
24508SOL    HW174965   7.512   3.561   2.756
24508SOL    HW274966   7.632   3.652   2.771
24509SOL     OW74967   7.485   2.416   2.977
24509SOL    HW174968   7.568   2.419   2.930
24509SOL    HW274969   7.509   2.416   3.070
24510SOL     OW74970   7.625   2.387   3.596
24510SOL    HW174971   7.693   2.350   3.540
24510SOL    HW274972   7.592   2.463   3.547
24511SOL     OW74973   0.212   2.367   2.164
24511SOL    HW174974   0.171   2.284   2.188
24511SOL    HW274975   0.186   2.427   2.233
24512SOL     OW74976   7.686   3.412   3.576
24512SOL    HW174977   7.670   3.476   3.645
24512SOL    HW274978   7.706   3.331   3.623
24513SOL     OW74979   7.905   2.364   2.006
24513SOL    HW174980   7.957   2.433   2.047
24513SOL    HW274981   7.815   2.395   2.013
24514SOL     OW74982   7.579   3.003   3.340
24514SOL    HW174983   7.580   2.956   3.423
24514SOL    HW274984   7.601   2.936   3.274
24515SOL     OW74985   7.538   3.125   2.881
24515SOL    HW174986   7.521   3.141   2.974
24515SOL    HW274987   7.456   3.089   2.848
24516SOL     OW74988   7.599   3.662   3.709
24516SOL    HW174989   7.549   3.593   3.753
24516SOL    HW274990   7.647   3.706   3.779
24517SOL     OW74991   7.718   2.191   2.578
24517SOL    HW174992   7.633   2.226   2.552
24517SOL    HW274993   7.711   2.178   2.672
24518SOL     OW74994   7.814   3.154   3.371
24518SOL    HW174995   7.808   3.232   3.315
24518SOL    HW274996   7.732   3.107   3.356
24519SOL     OW74997  -0.007   3.423   2.275
24519SOL    HW174998   0.000   3.353   2.339
24519SOL    HW274999   0.056   3.489   2.305
24520SOL     OW75000   7.717   3.199   2.145
24520SOL    HW175001   7.624   3.193   2.120
24520SOL    HW275002   7.716   3.247   2.228
24521SOL     OW75003   7.557   2.881   3.581
24521SOL    HW175004   7.481   2.864   3.637
24521SOL    HW275005   7.631   2.847   3.630
24522SOL     OW75006   7.506   2.195   1.906
24522SOL    HW175007   7.414   2.184   1.883
24522SOL    HW275008   7.533   2.275   1.860
24523SOL     OW75009   7.507   2.013   2.156
24523SOL    HW175010   7.493   2.092   2.104
24523SOL    HW275011   7.594   1.982   2.130
24524SOL     OW75012   7.830   3.618   3.428
24524SOL    HW175013   7.743   3.656   3.414
24524SOL    HW275014   7.812   3.530   3.462
24525SOL     OW75015   7.708   3.171   3.720
24525SOL    HW175016   7.629   3.121   3.702
24525SOL    HW275017   7.707   3.185   3.815
24526SOL     OW75018   7.540   3.088   2.535
24526SOL    HW175019   7.544   3.045   2.621
24526SOL    HW275020   7.608   3.045   2.484
24527SOL     OW75021   0.100   3.304   3.410
24527SOL    HW175022   0.052   3.241   3.464
24527SOL    HW275023   0.172   3.333   3.466
24528SOL     OW75024   7.787   2.421   3.157
24528SOL    HW175025   7.842   2.372   3.218
24528SOL    HW275026   7.813   2.389   3.070
24529SOL     OW75027   7.487   2.922   2.170
24529SOL    HW175028   7.579   2.911   2.146
24529SOL    HW275029   7.458   2.834   2.194
24530SOL     OW75030   7.656   2.472   3.860
24530SOL    HW175031   7.568   2.472   3.898
24530SOL    HW275032   7.641   2.461   3.766
24531SOL     OW75033   7.673   2.148   4.694
24531SOL    HW175034   7.719   2.086   4.750
24531SOL    HW275035   7.581   2.119   4.696
24532SOL     OW75036   7.447   2.253   4.363
24532SOL    HW175037   7.368   2.281   4.410
24532SOL    HW275038   7.420   2.175   4.315
24533SOL     OW75039   7.757   3.303   4.780
24533SOL    HW175040   7.682   3.246   4.763
24533SOL    HW275041   7.789   3.328   4.694
24534SOL     OW75042   7.873   2.183   5.163
24534SOL    HW175043   7.954   2.178   5.213
24534SOL    HW275044   7.804   2.188   5.230
24535SOL     OW75045   7.674   3.577   4.201
24535SOL    HW175046   7.681   3.655   4.257
24535SOL    HW275047   7.764   3.560   4.172
24536SOL     OW75048   7.668   3.300   4.250
24536SOL    HW175049   7.655   3.395   4.255
24536SOL    HW275050   7.613   3.265   4.320
24537SOL     OW75051   7.702   2.953   4.613
24537SOL    HW175052   7.695   2.865   4.651
24537SOL    HW275053   7.649   3.008   4.670
24538SOL     OW75054   7.573   2.513   4.289
24538SOL    HW175055   7.531   2.430   4.312
24538SOL    HW275056   7.559   2.569   4.365
24539SOL     OW75057   7.494   3.451   3.841
24539SOL    HW175058   7.477   3.359   3.861
24539SOL    HW275059   7.469   3.498   3.921
24540SOL     OW75060   7.555   2.612   5.299
24540SOL    HW175061   7.642   2.650   5.308
24540SOL    HW275062   7.496   2.688   5.300
24541SOL     OW75063   7.637   2.815   5.018
24541SOL    HW175064   7.723   2.777   5.005
24541SOL    HW275065   7.585   2.782   4.945
24542SOL     OW75066   7.763   2.139   5.541
24542SOL    HW175067   7.816   2.201   5.591
24542SOL    HW275068   7.675   2.147   5.578
24543SOL     OW75069   8.014   2.603   3.975
24543SOL    HW175070   8.029   2.697   3.981
24543SOL    HW275071   7.951   2.584   4.045
24544SOL     OW75072   7.530   2.688   4.495
24544SOL    HW175073   7.609   2.683   4.550
24544SOL    HW275074   7.479   2.759   4.532
24545SOL     OW75075   7.564   3.730   5.311
24545SOL    HW175076   7.574   3.708   5.403
24545SOL    HW275077   7.474   3.705   5.290
24546SOL     OW75078   7.963   2.066   4.620
24546SOL    HW175079   7.955   2.080   4.714
24546SOL    HW275080   7.967   2.155   4.583
24547SOL     OW75081   7.814   3.691   4.600
24547SOL    HW175082   7.893   3.638   4.606
24547SOL    HW275083   7.846   3.781   4.607
24548SOL     OW75084   7.750   2.833   3.983
24548SOL    HW175085   7.841   2.850   3.956
24548SOL    HW275086   7.730   2.746   3.947
24549SOL     OW75087   7.947   3.097   5.466
24549SOL    HW175088   7.911   3.106   5.378
24549SOL    HW275089   7.876   3.122   5.525
24550SOL     OW75090   7.614   2.148   5.269
24550SOL    HW175091   7.551   2.220   5.260
24550SOL    HW275092   7.609   2.122   5.361
24551SOL     OW75093   7.698   3.649   4.961
24551SOL    HW175094   7.756   3.599   5.018
24551SOL    HW275095   7.716   3.616   4.873
24552SOL     OW75096   7.830   2.553   4.172
24552SOL    HW175097   7.881   2.520   4.245
24552SOL    HW275098   7.739   2.544   4.200
24553SOL     OW75099   0.016   1.955   3.860
24553SOL    HW175100   0.109   1.936   3.871
24553SOL    HW275101   0.003   1.959   3.765
24554SOL     OW75102   7.971   1.871   4.215
24554SOL    HW175103   7.892   1.899   4.262
24554SOL    HW275104   8.009   1.953   4.182
24555SOL     OW75105   7.739   1.919   3.908
24555SOL    HW175106   7.767   1.990   3.850
24555SOL    HW275107   7.820   1.878   3.937
24556SOL     OW75108   7.920   2.966   4.454
24556SOL    HW175109   7.849   2.961   4.518
24556SOL    HW275110   7.876   2.966   4.369
24557SOL     OW75111   7.537   2.413   5.118
24557SOL    HW175112   7.629   2.416   5.092
24557SOL    HW275113   7.527   2.486   5.179
24558SOL     OW75114   7.949   2.074   4.888
24558SOL    HW175115   8.002   2.008   4.931
24558SOL    HW275116   7.969   2.155   4.936
24559SOL     OW75117   7.880   2.680   4.999
24559SOL    HW175118   7.971   2.681   5.027
24559SOL    HW275119   7.852   2.590   5.014
24560SOL     OW75120   7.530   3.437   5.082
24560SOL    HW175121   7.520   3.522   5.040
24560SOL    HW275122   7.625   3.420   5.079
24561SOL     OW75123   7.788   2.983   4.214
24561SOL    HW175124   7.775   3.065   4.167
24561SOL    HW275125   7.770   2.915   4.149
24562SOL     OW75126  -0.019   2.424   4.596
24562SOL    HW175127   0.022   2.502   4.560
24562SOL    HW275128   0.023   2.412   4.681
24563SOL     OW75129   7.793   3.377   5.044
24563SOL    HW175130   7.788   3.342   4.955
24563SOL    HW275131   7.883   3.407   5.053
24564SOL     OW75132   7.849   2.612   5.334
24564SOL    HW175133   7.886   2.682   5.279
24564SOL    HW275134   7.923   2.555   5.353
24565SOL     OW75135   7.932   1.952   5.446
24565SOL    HW175136   7.881   1.884   5.402
24565SOL    HW275137   7.866   2.015   5.475
24566SOL     OW75138   7.983   2.782   4.759
24566SOL    HW175139   8.004   2.875   4.757
24566SOL    HW275140   7.946   2.767   4.846
24567SOL     OW75141   7.499   3.177   5.001
24567SOL    HW175142   7.527   3.123   5.074
24567SOL    HW275143   7.503   3.266   5.033
24568SOL     OW75144   7.739   1.932   4.351
24568SOL    HW175145   7.728   2.026   4.365
24568SOL    HW275146   7.758   1.896   4.438
24569SOL     OW75147   7.805   2.784   5.549
24569SOL    HW175148   7.886   2.833   5.535
24569SOL    HW275149   7.812   2.710   5.489
24570SOL     OW75150   7.741   2.678   4.675
24570SOL    HW175151   7.830   2.708   4.688
24570SOL    HW275152   7.741   2.586   4.702
24571SOL     OW75153   7.750   2.402   4.733
24571SOL    HW175154   7.720   2.313   4.716
24571SOL    HW275155   7.829   2.411   4.679
24572SOL     OW75156   7.460   3.175   3.912
24572SOL    HW175157   7.373   3.194   3.878
24572SOL    HW275158   7.453   3.087   3.949
24573SOL     OW75159   7.541   3.642   4.658
24573SOL    HW175160   7.514   3.562   4.612
24573SOL    HW275161   7.633   3.653   4.635
24574SOL     OW75162   7.485   2.399   4.846
24574SOL    HW175163   7.566   2.414   4.796
24574SOL    HW275164   7.512   2.410   4.938
24575SOL     OW75165   7.610   2.400   5.461
24575SOL    HW175166   7.693   2.385   5.416
24575SOL    HW275167   7.571   2.474   5.415
24576SOL     OW75168   0.211   2.366   4.023
24576SOL    HW175169   0.171   2.283   4.051
24576SOL    HW275170   0.186   2.429   4.090
24577SOL     OW75171   7.685   3.410   5.437
24577SOL    HW175172   7.669   3.478   5.503
24577SOL    HW275173   7.706   3.332   5.488
24578SOL     OW75174   7.906   2.360   3.867
24578SOL    HW175175   7.961   2.427   3.908
24578SOL    HW275176   7.817   2.394   3.875
24579SOL     OW75177   7.578   3.004   5.204
24579SOL    HW175178   7.579   2.958   5.288
24579SOL    HW275179   7.598   2.937   5.139
24580SOL     OW75180   7.539   3.124   4.744
24580SOL    HW175181   7.525   3.142   4.836
24580SOL    HW275182   7.453   3.098   4.710
24581SOL     OW75183   7.596   3.655   5.567
24581SOL    HW175184   7.547   3.586   5.613
24581SOL    HW275185   7.642   3.701   5.637
24582SOL     OW75186   7.722   2.196   4.424
24582SOL    HW175187   7.638   2.231   4.395
24582SOL    HW275188   7.713   2.187   4.519
24583SOL     OW75189   7.816   3.150   5.235
24583SOL    HW175190   7.816   3.227   5.179
24583SOL    HW275191   7.731   3.109   5.219
24584SOL     OW75192  -0.004   3.421   4.137
24584SOL    HW175193   0.000   3.353   4.204
24584SOL    HW275194   0.058   3.488   4.166
24585SOL     OW75195   7.717   3.199   4.007
24585SOL    HW175196   7.625   3.194   3.981
24585SOL    HW275197   7.716   3.248   4.089
24586SOL     OW75198   7.560   2.877   5.445
24586SOL    HW175199   7.482   2.862   5.499
24586SOL    HW275200   7.633   2.851   5.501
24587SOL     OW75201   7.508   2.194   3.761
24587SOL    HW175202   7.423   2.175   3.720
24587SOL    HW275203   7.538   2.274   3.717
24588SOL     OW75204   7.503   2.013   4.019
24588SOL    HW175205   7.490   2.090   3.963
24588SOL    HW275206   7.591   1.982   3.997
24589SOL     OW75207   7.820   3.620   5.285
24589SOL    HW175208   7.733   3.657   5.276
24589SOL    HW275209   7.805   3.532   5.319
24590SOL     OW75210   7.706   3.170   5.585
24590SOL    HW175211   7.621   3.130   5.566
24590SOL    HW275212   7.704   3.186   5.680
24591SOL     OW75213   7.541   3.084   4.396
24591SOL    HW175214   7.557   3.044   4.482
24591SOL    HW275215   7.609   3.046   4.340
24592SOL     OW75216   0.095   3.303   5.271
24592SOL    HW175217   0.049   3.242   5.329
24592SOL    HW275218   0.170   3.332   5.323
24593SOL     OW75219   7.788   2.414   5.015
24593SOL    HW175220   7.843   2.348   5.056
24593SOL    HW275221   7.800   2.401   4.921
24594SOL     OW75222   7.487   2.922   4.031
24594SOL    HW175223   7.579   2.912   4.008
24594SOL    HW275224   7.458   2.834   4.055
24595SOL     OW75225   7.654   2.467   5.726
24595SOL    HW175226   7.568   2.470   5.769
24595SOL    HW275227   7.633   2.460   5.633
24596SOL     OW75228   7.677   2.138   6.576
24596SOL    HW175229   7.699   2.109   6.665
24596SOL    HW275230   7.585   2.114   6.565
24597SOL     OW75231   7.448   2.251   6.230
24597SOL    HW175232   7.372   2.283   6.279
24597SOL    HW275233   7.415   2.175   6.183
24598SOL     OW75234   7.765   3.286   6.632
24598SOL    HW175235   7.689   3.227   6.631
24598SOL    HW275236   7.768   3.323   6.544
24599SOL     OW75237   7.869   2.260   7.119
24599SOL    HW175238   7.936   2.193   7.100
24599SOL    HW275239   7.786   2.215   7.103
24600SOL     OW75240   7.662   3.571   6.066
24600SOL    HW175241   7.676   3.652   6.116
24600SOL    HW275242   7.744   3.559   6.017
24601SOL     OW75243   7.673   3.294   6.119
24601SOL    HW175244   7.658   3.389   6.119
24601SOL    HW275245   7.611   3.261   6.184
24602SOL     OW75246   7.737   2.955   6.500
24602SOL    HW175247   7.710   2.868   6.525
24602SOL    HW275248   7.668   3.013   6.532
24603SOL     OW75249   7.575   2.507   6.150
24603SOL    HW175250   7.529   2.426   6.174
24603SOL    HW275251   7.562   2.564   6.226
24604SOL     OW75252   7.497   3.447   5.705
24604SOL    HW175253   7.476   3.356   5.725
24604SOL    HW275254   7.466   3.496   5.781
24605SOL     OW75255   7.550   2.606   7.168
24605SOL    HW175256   7.634   2.651   7.166
24605SOL    HW275257   7.485   2.676   7.154
24606SOL     OW75258   7.631   2.815   6.889
24606SOL    HW175259   7.713   2.775   6.859
24606SOL    HW275260   7.568   2.796   6.819
24607SOL     OW75261   7.757   2.115   7.426
24607SOL    HW175262   7.805   2.198   7.431
24607SOL    HW275263   7.666   2.140   7.439
24608SOL     OW75264   8.016   2.602   5.839
24608SOL    HW175265   8.023   2.697   5.835
24608SOL    HW275266   7.955   2.586   5.912
24609SOL     OW75267   7.542   2.682   6.353
24609SOL    HW175268   7.611   2.679   6.419
24609SOL    HW275269   7.484   2.752   6.382
24610SOL     OW75270   7.571   3.735   7.169
24610SOL    HW175271   7.578   3.712   7.262
24610SOL    HW275272   7.490   3.695   7.140
24611SOL     OW75273   7.966   2.059   6.466
24611SOL    HW175274   7.963   2.067   6.562
24611SOL    HW275275   7.954   2.149   6.435
24612SOL     OW75276   7.810   3.694   6.456
24612SOL    HW175277   7.876   3.626   6.474
24612SOL    HW275278   7.859   3.776   6.463
24613SOL     OW75279   7.748   2.832   5.845
24613SOL    HW175280   7.827   2.855   5.797
24613SOL    HW275281   7.722   2.747   5.810
24614SOL     OW75282   7.940   3.093   7.327
24614SOL    HW175283   7.902   3.102   7.240
24614SOL    HW275284   7.869   3.118   7.386
24615SOL     OW75285   7.624   2.156   7.075
24615SOL    HW175286   7.571   2.230   7.044
24615SOL    HW275287   7.565   2.108   7.133
24616SOL     OW75288   7.708   3.654   6.809
24616SOL    HW175289   7.748   3.574   6.843
24616SOL    HW275290   7.676   3.631   6.722
24617SOL     OW75291   7.832   2.548   6.038
24617SOL    HW175292   7.872   2.486   6.099
24617SOL    HW275293   7.740   2.549   6.062
24618SOL     OW75294   0.014   1.962   5.717
24618SOL    HW175295   0.107   1.941   5.731
24618SOL    HW275296   0.004   1.963   5.622
24619SOL     OW75297   7.973   1.869   6.083
24619SOL    HW175298   7.894   1.899   6.127
24619SOL    HW275299   8.013   1.949   6.048
24620SOL     OW75300   7.741   1.915   5.769
24620SOL    HW175301   7.802   1.981   5.735
24620SOL    HW275302   7.797   1.845   5.802
24621SOL     OW75303   7.938   2.916   6.318
24621SOL    HW175304   7.871   2.936   6.382
24621SOL    HW275305   7.896   2.931   6.233
24622SOL     OW75306   7.548   2.405   6.980
24622SOL    HW175307   7.637   2.422   6.951
24622SOL    HW275308   7.527   2.478   7.039
24623SOL     OW75309   7.988   2.056   6.733
24623SOL    HW175310   8.041   2.006   6.796
24623SOL    HW275311   7.902   2.064   6.776
24624SOL     OW75312   7.871   2.678   6.842
24624SOL    HW175313   7.941   2.683   6.907
24624SOL    HW275314   7.836   2.589   6.850
24625SOL     OW75315   7.521   3.440   6.950
24625SOL    HW175316   7.486   3.504   6.888
24625SOL    HW275317   7.615   3.439   6.932
24626SOL     OW75318   7.824   2.974   6.072
24626SOL    HW175319   7.793   3.060   6.043
24626SOL    HW275320   7.789   2.913   6.007
24627SOL     OW75321  -0.023   2.422   6.453
24627SOL    HW175322   0.014   2.499   6.411
24627SOL    HW275323   0.019   2.419   6.539
24628SOL     OW75324   7.792   3.397   6.886
24628SOL    HW175325   7.790   3.348   6.804
24628SOL    HW275326   7.885   3.410   6.905
24629SOL     OW75327   7.847   2.604   7.190
24629SOL    HW175328   7.930   2.645   7.165
24629SOL    HW275329   7.863   2.510   7.178
24630SOL     OW75330   7.932   1.938   7.320
24630SOL    HW175331   7.884   1.875   7.267
24630SOL    HW275332   7.866   2.002   7.347
24631SOL     OW75333   0.038   2.798   6.660
24631SOL    HW175334   0.003   2.883   6.635
24631SOL    HW275335  -0.033   2.757   6.710
24632SOL     OW75336   7.739   2.057   6.840
24632SOL    HW175337   7.690   2.091   6.915
24632SOL    HW275338   7.717   1.963   6.838
24633SOL     OW75339   7.524   3.177   6.865
24633SOL    HW175340   7.538   3.121   6.941
24633SOL    HW275341   7.507   3.264   6.902
24634SOL     OW75342   7.737   1.934   6.210
24634SOL    HW175343   7.724   2.027   6.227
24634SOL    HW275344   7.754   1.896   6.297
24635SOL     OW75345   7.802   2.773   7.407
24635SOL    HW175346   7.884   2.821   7.396
24635SOL    HW275347   7.807   2.701   7.344
24636SOL     OW75348   7.747   2.670   6.534
24636SOL    HW175349   7.838   2.675   6.503
24636SOL    HW275350   7.739   2.581   6.570
24637SOL     OW75351   7.753   2.394   6.600
24637SOL    HW175352   7.721   2.305   6.587
24637SOL    HW275353   7.829   2.402   6.542
24638SOL     OW75354   7.461   3.173   5.772
24638SOL    HW175355   7.373   3.193   5.739
24638SOL    HW275356   7.452   3.086   5.812
24639SOL     OW75357   7.550   3.636   6.540
24639SOL    HW175358   7.514   3.563   6.488
24639SOL    HW275359   7.634   3.656   6.498
24640SOL     OW75360   7.487   2.375   6.709
24640SOL    HW175361   7.569   2.401   6.667
24640SOL    HW275362   7.503   2.385   6.802
24641SOL     OW75363   7.634   2.391   7.318
24641SOL    HW175364   7.686   2.347   7.251
24641SOL    HW275365   7.593   2.464   7.272
24642SOL     OW75366   0.216   2.367   5.887
24642SOL    HW175367   0.175   2.286   5.916
24642SOL    HW275368   0.187   2.434   5.949
24643SOL     OW75369   7.693   3.412   7.300
24643SOL    HW175370   7.671   3.477   7.367
24643SOL    HW275371   7.704   3.330   7.348
24644SOL     OW75372   7.905   2.359   5.732
24644SOL    HW175373   7.958   2.428   5.771
24644SOL    HW275374   7.815   2.392   5.740
24645SOL     OW75375   7.583   3.006   7.075
24645SOL    HW175376   7.582   2.962   7.160
24645SOL    HW275377   7.599   2.936   7.012
24646SOL     OW75378   7.540   3.117   6.607
24646SOL    HW175379   7.529   3.136   6.700
24646SOL    HW275380   7.454   3.087   6.577
24647SOL     OW75381   7.596   3.656   7.428
24647SOL    HW175382   7.547   3.587   7.473
24647SOL    HW275383   7.643   3.701   7.498
24648SOL     OW75384   7.718   2.192   6.301
24648SOL    HW175385   7.634   2.227   6.272
24648SOL    HW275386   7.709   2.179   6.395
24649SOL     OW75387   7.818   3.158   7.091
24649SOL    HW175388   7.805   3.236   7.037
24649SOL    HW275389   7.737   3.108   7.080
24650SOL     OW75390  -0.009   3.431   6.002
24650SOL    HW175391   0.046   3.362   6.040
24650SOL    HW275392   0.028   3.512   6.036
24651SOL     OW75393   7.717   3.198   5.871
24651SOL    HW175394   7.624   3.194   5.846
24651SOL    HW275395   7.717   3.244   5.954
24652SOL     OW75396   7.565   2.904   7.328
24652SOL    HW175397   7.485   2.874   7.371
24652SOL    HW275398   7.635   2.853   7.370
24653SOL     OW75399   7.508   2.191   5.622
24653SOL    HW175400   7.413   2.184   5.621
24653SOL    HW275401   7.527   2.273   5.575
24654SOL     OW75402   7.508   2.011   5.886
24654SOL    HW175403   7.493   2.092   5.839
24654SOL    HW275404   7.594   1.981   5.856
24655SOL     OW75405   7.829   3.617   7.155
24655SOL    HW175406   7.746   3.659   7.131
24655SOL    HW275407   7.804   3.533   7.192
24656SOL     OW75408   7.692   3.163   7.434
24656SOL    HW175409   7.631   3.100   7.398
24656SOL    HW275410   7.661   3.179   7.523
24657SOL     OW75411   7.532   3.094   6.274
24657SOL    HW175412   7.497   3.036   6.341
24657SOL    HW275413   7.599   3.043   6.230
24658SOL     OW75414   0.116   3.245   7.144
24658SOL    HW175415   0.036   3.228   7.194
24658SOL    HW275416   0.162   3.311   7.196
24659SOL     OW75417   7.796   2.420   6.878
24659SOL    HW175418   7.860   2.366   6.924
24659SOL    HW275419   7.803   2.392   6.786
24660SOL     OW75420   7.488   2.924   5.897
24660SOL    HW175421   7.580   2.915   5.873
24660SOL    HW275422   7.460   2.836   5.922
24661SOL     OW75423   7.659   2.460   7.585
24661SOL    HW175424   7.570   2.471   7.618
24661SOL    HW275425   7.649   2.459   7.490
24662SOL     OW75426   7.672   2.147   8.439
24662SOL    HW175427   7.700   2.112   8.523
24662SOL    HW275428   7.582   2.114   8.429
24663SOL     OW75429   7.448   2.246   8.093
24663SOL    HW175430   7.366   2.275   8.133
24663SOL    HW275431   7.424   2.170   8.041
24664SOL     OW75432   7.788   3.297   8.505
24664SOL    HW175433   7.718   3.245   8.466
24664SOL    HW275434   7.868   3.249   8.486
24665SOL     OW75435   7.846   2.268   9.027
24665SOL    HW175436   7.922   2.258   8.969
24665SOL    HW275437   7.780   2.209   8.991
24666SOL     OW75438   7.662   3.576   7.925
24666SOL    HW175439   7.680   3.656   7.975
24666SOL    HW275440   7.740   3.564   7.870
24667SOL     OW75441   7.670   3.305   7.981
24667SOL    HW175442   7.657   3.400   7.977
24667SOL    HW275443   7.614   3.277   8.054
24668SOL     OW75444   7.700   2.956   8.327
24668SOL    HW175445   7.700   2.872   8.373
24668SOL    HW275446   7.653   3.015   8.386
24669SOL     OW75447   7.575   2.510   8.019
24669SOL    HW175448   7.531   2.427   8.038
24669SOL    HW275449   7.560   2.564   8.097
24670SOL     OW75450   7.501   3.448   7.568
24670SOL    HW175451   7.476   3.357   7.585
24670SOL    HW275452   7.467   3.497   7.643
24671SOL     OW75453   7.553   2.602   9.035
24671SOL    HW175454   7.642   2.637   9.037
24671SOL    HW275455   7.497   2.679   9.027
24672SOL     OW75456   7.630   2.809   8.748
24672SOL    HW175457   7.718   2.770   8.749
24672SOL    HW275458   7.600   2.795   8.658
24673SOL     OW75459   7.749   2.111   9.290
24673SOL    HW175460   7.796   2.189   9.261
24673SOL    HW275461   7.659   2.140   9.303
24674SOL     OW75462   8.014   2.598   7.708
24674SOL    HW175463   8.026   2.693   7.696
24674SOL    HW275464   7.950   2.591   7.778
24675SOL     OW75465   7.535   2.675   8.235
24675SOL    HW175466   7.615   2.687   8.286
24675SOL    HW275467   7.479   2.749   8.258
24676SOL     OW75468   7.569   3.740   9.031
24676SOL    HW175469   7.575   3.716   9.124
24676SOL    HW275470   7.491   3.693   8.999
24677SOL     OW75471   7.964   2.059   8.329
24677SOL    HW175472   7.964   2.077   8.423
24677SOL    HW275473   7.964   2.145   8.288
24678SOL     OW75474   7.811   3.692   8.315
24678SOL    HW175475   7.864   3.613   8.322
24678SOL    HW275476   7.873   3.764   8.327
24679SOL     OW75477   7.746   2.832   7.702
24679SOL    HW175478   7.830   2.858   7.664
24679SOL    HW275479   7.724   2.750   7.658
24680SOL     OW75480   7.903   3.040   9.211
24680SOL    HW175481   7.882   3.067   9.121
24680SOL    HW275482   7.842   3.090   9.266
24681SOL     OW75483   7.637   2.119   8.938
24681SOL    HW175484   7.559   2.174   8.946
24681SOL    HW275485   7.610   2.035   8.974
24682SOL     OW75486   7.703   3.661   8.661
24682SOL    HW175487   7.747   3.583   8.697
24682SOL    HW275488   7.678   3.636   8.573
24683SOL     OW75489   7.829   2.555   7.903
24683SOL    HW175490   7.875   2.498   7.964
24683SOL    HW275491   7.737   2.550   7.929
24684SOL     OW75492   0.013   1.938   7.592
24684SOL    HW175493   0.108   1.930   7.602
24684SOL    HW275494  -0.000   1.946   7.497
24685SOL     OW75495   7.977   1.866   7.950
24685SOL    HW175496   7.896   1.896   7.990
24685SOL    HW275497   8.014   1.945   7.910
24686SOL     OW75498   7.740   1.927   7.623
24686SOL    HW175499   7.745   1.998   7.559
24686SOL    HW275500   7.831   1.904   7.641
24687SOL     OW75501   7.924   2.899   8.173
24687SOL    HW175502   7.860   2.934   8.234
24687SOL    HW275503   7.890   2.922   8.086
24688SOL     OW75504   7.545   2.409   8.841
24688SOL    HW175505   7.637   2.408   8.815
24688SOL    HW275506   7.539   2.481   8.904
24689SOL     OW75507   7.992   2.059   8.599
24689SOL    HW175508   8.037   1.990   8.647
24689SOL    HW275509   7.905   2.063   8.638
24690SOL     OW75510   7.874   2.679   8.769
24690SOL    HW175511   7.963   2.700   8.739
24690SOL    HW275512   7.859   2.590   8.739
24691SOL     OW75513   7.528   3.434   8.803
24691SOL    HW175514   7.495   3.502   8.744
24691SOL    HW275515   7.623   3.435   8.790
24692SOL     OW75516   7.803   2.975   7.933
24692SOL    HW175517   7.789   3.059   7.889
24692SOL    HW275518   7.777   2.909   7.868
24693SOL     OW75519  -0.027   2.437   8.319
24693SOL    HW175520   0.013   2.513   8.276
24693SOL    HW275521   0.019   2.431   8.403
24694SOL     OW75522   7.797   3.420   8.747
24694SOL    HW175523   7.801   3.370   8.666
24694SOL    HW275524   7.885   3.414   8.783
24695SOL     OW75525   7.832   2.626   9.038
24695SOL    HW175526   7.850   2.663   8.951
24695SOL    HW275527   7.893   2.553   9.046
24696SOL     OW75528   7.934   1.940   9.189
24696SOL    HW175529   7.894   1.878   9.127
24696SOL    HW275530   7.862   1.999   9.213
24697SOL     OW75531   8.007   2.825   8.515
24697SOL    HW175532   8.023   2.917   8.495
24697SOL    HW275533   7.912   2.818   8.521
24698SOL     OW75534   7.739   2.053   8.693
24698SOL    HW175535   7.701   2.084   8.775
24698SOL    HW275536   7.721   1.959   8.692
24699SOL     OW75537   7.467   3.175   8.736
24699SOL    HW175538   7.516   3.122   8.799
24699SOL    HW275539   7.491   3.265   8.758
24700SOL     OW75540   7.737   1.932   8.073
24700SOL    HW175541   7.726   2.025   8.088
24700SOL    HW275542   7.755   1.895   8.160
24701SOL     OW75543   7.804   2.782   9.267
24701SOL    HW175544   7.855   2.861   9.247
24701SOL    HW275545   7.824   2.722   9.195
24702SOL     OW75546   7.760   2.688   8.410
24702SOL    HW175547   7.843   2.694   8.363
24702SOL    HW275548   7.751   2.595   8.430
24703SOL     OW75549   7.747   2.403   8.457
24703SOL    HW175550   7.719   2.313   8.445
24703SOL    HW275551   7.824   2.412   8.400
24704SOL     OW75552   7.464   3.173   7.636
24704SOL    HW175553   7.377   3.194   7.603
24704SOL    HW275554   7.455   3.085   7.674
24705SOL     OW75555   7.548   3.639   8.397
24705SOL    HW175556   7.514   3.566   8.347
24705SOL    HW275557   7.634   3.657   8.358
24706SOL     OW75558   7.481   2.413   8.567
24706SOL    HW175559   7.557   2.420   8.509
24706SOL    HW275560   7.517   2.416   8.655
24707SOL     OW75561   7.642   2.386   9.182
24707SOL    HW175562   7.715   2.355   9.127
24707SOL    HW275563   7.603   2.458   9.132
24708SOL     OW75564   0.214   2.366   7.750
24708SOL    HW175565   0.165   2.287   7.774
24708SOL    HW275566   0.187   2.431   7.815
24709SOL     OW75567   7.684   3.412   9.164
24709SOL    HW175568   7.672   3.479   9.232
24709SOL    HW275569   7.702   3.331   9.213
24710SOL     OW75570   7.914   2.359   7.607
24710SOL    HW175571   7.962   2.434   7.644
24710SOL    HW275572   7.822   2.386   7.609
24711SOL     OW75573   7.577   3.004   8.928
24711SOL    HW175574   7.584   2.959   9.012
24711SOL    HW275575   7.596   2.936   8.863
24712SOL     OW75576   7.539   3.116   8.474
24712SOL    HW175577   7.509   3.140   8.562
24712SOL    HW275578   7.463   3.073   8.434
24713SOL     OW75579   7.590   3.662   9.291
24713SOL    HW175580   7.544   3.591   9.336
24713SOL    HW275581   7.641   3.705   9.360
24714SOL     OW75582   7.719   2.191   8.162
24714SOL    HW175583   7.634   2.225   8.133
24714SOL    HW275584   7.710   2.180   8.256
24715SOL     OW75585   7.825   3.145   8.978
24715SOL    HW175586   7.878   3.168   8.901
24715SOL    HW275587   7.739   3.123   8.943
24716SOL     OW75588  -0.006   3.420   7.863
24716SOL    HW175589  -0.009   3.349   7.928
24716SOL    HW275590   0.066   3.476   7.892
24717SOL     OW75591   7.720   3.190   7.744
24717SOL    HW175592   7.630   3.189   7.712
24717SOL    HW275593   7.716   3.243   7.824
24718SOL     OW75594   7.565   2.890   9.180
24718SOL    HW175595   7.488   2.863   9.229
24718SOL    HW275596   7.638   2.847   9.223
24719SOL     OW75597   7.505   2.193   7.484
24719SOL    HW175598   7.432   2.179   7.423
24719SOL    HW275599   7.538   2.280   7.462
24720SOL     OW75600   7.504   2.014   7.742
24720SOL    HW175601   7.484   2.088   7.684
24720SOL    HW275602   7.593   1.989   7.719
24721SOL     OW75603   7.826   3.622   9.021
24721SOL    HW175604   7.742   3.661   8.996
24721SOL    HW275605   7.806   3.532   9.044
24722SOL     OW75606   7.670   3.163   9.303
24722SOL    HW175607   7.624   3.103   9.244
24722SOL    HW275608   7.608   3.179   9.374
24723SOL     OW75609   7.539   3.084   8.121
24723SOL    HW175610   7.577   3.040   8.197
24723SOL    HW275611   7.596   3.060   8.048
24724SOL     OW75612   0.093   3.277   9.100
24724SOL    HW175613   0.020   3.217   9.087
24724SOL    HW275614   0.087   3.339   9.028
24725SOL     OW75615   7.797   2.412   8.729
24725SOL    HW175616   7.880   2.370   8.749
24725SOL    HW275617   7.789   2.404   8.634
24726SOL     OW75618   7.485   2.924   7.765
24726SOL    HW175619   7.576   2.913   7.737
24726SOL    HW275620   7.457   2.836   7.787
24727SOL     OW75621   7.660   2.467   9.447
24727SOL    HW175622   7.569   2.483   9.473
24727SOL    HW275623   7.658   2.462   9.352
24728SOL     OW75624   7.674   2.142  10.306
24728SOL    HW175625   7.698   2.104  10.391
24728SOL    HW275626   7.584   2.113  10.291
24729SOL     OW75627   7.455   2.260   9.955
24729SOL    HW175628   7.370   2.281   9.994
24729SOL    HW275629   7.437   2.188   9.895
24730SOL     OW75630   7.754   3.300  10.361
24730SOL    HW175631   7.679   3.241  10.350
24730SOL    HW275632   7.782   3.320  10.272
24731SOL     OW75633   7.891   2.213  10.826
24731SOL    HW175634   7.914   2.160  10.903
24731SOL    HW275635   7.798   2.193  10.811
24732SOL     OW75636   7.658   3.572   9.781
24732SOL    HW175637   7.676   3.653   9.827
24732SOL    HW275638   7.734   3.559   9.723
24733SOL     OW75639   7.670   3.308   9.857
24733SOL    HW175640   7.659   3.402   9.843
24733SOL    HW275641   7.602   3.284   9.919
24734SOL     OW75642   7.717   2.955  10.209
24734SOL    HW175643   7.700   2.867  10.245
24734SOL    HW275644   7.656   3.011  10.257
24735SOL     OW75645   7.579   2.511   9.878
24735SOL    HW175646   7.537   2.428   9.901
24735SOL    HW275647   7.566   2.567   9.954
24736SOL     OW75648   7.503   3.452   9.435
24736SOL    HW175649   7.479   3.361   9.453
24736SOL    HW275650   7.466   3.501   9.508
24737SOL     OW75651   7.547   2.607  10.887
24737SOL    HW175652   7.633   2.650  10.896
24737SOL    HW275653   7.485   2.680  10.878
24738SOL     OW75654   7.632   2.815  10.608
24738SOL    HW175655   7.717   2.773  10.606
24738SOL    HW275656   7.588   2.786  10.528
24739SOL     OW75657   7.759   2.136  11.131
24739SOL    HW175658   7.801   2.214  11.169
24739SOL    HW275659   7.669   2.139  11.163
24740SOL     OW75660   0.025   2.603   9.558
24740SOL    HW175661   0.031   2.698   9.545
24740SOL    HW275662  -0.036   2.592   9.631
24741SOL     OW75663   7.538   2.674  10.092
24741SOL    HW175664   7.614   2.679  10.150
24741SOL    HW275665   7.483   2.748  10.118
24742SOL     OW75666   7.567   3.730  10.896
24742SOL    HW175667   7.578   3.709  10.989
24742SOL    HW275668   7.484   3.689  10.872
24743SOL     OW75669   7.969   2.060  10.203
24743SOL    HW175670   7.961   2.096  10.292
24743SOL    HW275671   7.967   2.137  10.146
24744SOL     OW75672   7.798   3.686  10.169
24744SOL    HW175673   7.873   3.628  10.163
24744SOL    HW275674   7.836   3.773  10.185
24745SOL     OW75675   7.749   2.830   9.562
24745SOL    HW175676   7.831   2.863   9.525
24745SOL    HW275677   7.730   2.750   9.513
24746SOL     OW75678   7.950   3.091  11.050
24746SOL    HW175679   7.912   3.102  10.963
24746SOL    HW275680   7.881   3.117  11.110
24747SOL     OW75681   7.623   2.148  10.813
24747SOL    HW175682   7.566   2.220  10.784
24747SOL    HW275683   7.591   2.127  10.901
24748SOL     OW75684   7.713   3.655  10.536
24748SOL    HW175685   7.755   3.582  10.581
24748SOL    HW275686   7.698   3.623  10.447
24749SOL     OW75687   7.838   2.555   9.758
24749SOL    HW175688   7.876   2.478   9.801
24749SOL    HW275689   7.746   2.554   9.784
24750SOL     OW75690   0.005   1.929   9.455
24750SOL    HW175691   0.100   1.930   9.469
24750SOL    HW275692  -0.006   1.937   9.361
24751SOL     OW75693   7.984   1.881   9.872
24751SOL    HW175694   7.891   1.903   9.872
24751SOL    HW275695   8.023   1.940   9.808
24752SOL     OW75696   7.736   1.928   9.492
24752SOL    HW175697   7.743   1.998   9.427
24752SOL    HW275698   7.827   1.900   9.506
24753SOL     OW75699   7.928   2.941  10.038
24753SOL    HW175700   7.856   2.950  10.101
24753SOL    HW275701   7.887   2.949   9.952
24754SOL     OW75702   7.545   2.406  10.703
24754SOL    HW175703   7.637   2.413  10.676
24754SOL    HW275704   7.532   2.480  10.763
24755SOL     OW75705   7.986   2.064  10.483
24755SOL    HW175706   8.021   1.976  10.495
24755SOL    HW275707   7.898   2.060  10.521
24756SOL     OW75708   7.871   2.676  10.621
24756SOL    HW175709   7.963   2.687  10.599
24756SOL    HW275710   7.853   2.583  10.604
24757SOL     OW75711   7.523   3.435  10.669
24757SOL    HW175712   7.495   3.504  10.609
24757SOL    HW275713   7.618   3.430  10.658
24758SOL     OW75714   7.802   2.974   9.796
24758SOL    HW175715   7.788   3.054   9.746
24758SOL    HW275716   7.781   2.903   9.735
24759SOL     OW75717  -0.028   2.438  10.186
24759SOL    HW175718   0.012   2.513  10.142
24759SOL    HW275719   0.017   2.431  10.270
24760SOL     OW75720   7.789   3.392  10.618
24760SOL    HW175721   7.786   3.350  10.532
24760SOL    HW275722   7.881   3.412  10.632
24761SOL     OW75723   7.836   2.622  10.898
24761SOL    HW175724   7.849   2.665  10.813
24761SOL    HW275725   7.900   2.551  10.899
24762SOL     OW75726   7.919   1.940  11.042
24762SOL    HW175727   7.880   1.872  10.987
24762SOL    HW275728   7.846   1.998  11.064
24763SOL     OW75729   8.005   2.794  10.374
24763SOL    HW175730   8.023   2.885  10.350
24763SOL    HW275731   7.915   2.794  10.405
24764SOL     OW75732   7.725   2.036  10.567
24764SOL    HW175733   7.686   2.079  10.643
24764SOL    HW275734   7.696   1.945  10.573
24765SOL     OW75735   7.494   3.174  10.589
24765SOL    HW175736   7.526   3.120  10.661
24765SOL    HW275737   7.499   3.264  10.622
24766SOL     OW75738   7.717   1.933   9.935
24766SOL    HW175739   7.717   2.028   9.948
24766SOL    HW275740   7.743   1.898  10.020
24767SOL     OW75741   7.808   2.781  11.127
24767SOL    HW175742   7.886   2.834  11.111
24767SOL    HW275743   7.812   2.712  11.060
24768SOL     OW75744   7.751   2.677  10.271
24768SOL    HW175745   7.841   2.685  10.237
24768SOL    HW275746   7.743   2.584  10.295
24769SOL     OW75747   7.747   2.399  10.324
24769SOL    HW175748   7.720   2.308  10.313
24769SOL    HW275749   7.824   2.409  10.268
24770SOL     OW75750   7.470   3.175   9.499
24770SOL    HW175751   7.382   3.195   9.468
24770SOL    HW275752   7.463   3.089   9.539
24771SOL     OW75753   7.543   3.642  10.256
24771SOL    HW175754   7.506   3.567  10.209
24771SOL    HW275755   7.630   3.653  10.219
24772SOL     OW75756   7.481   2.404  10.431
24772SOL    HW175757   7.560   2.413  10.377
24772SOL    HW275758   7.513   2.408  10.521
24773SOL     OW75759   7.619   2.395  11.044
24773SOL    HW175760   7.691   2.367  10.987
24773SOL    HW275761   7.579   2.468  10.999
24774SOL     OW75762   0.229   2.326   9.660
24774SOL    HW175763   0.229   2.360   9.571
24774SOL    HW275764   0.192   2.397   9.713
24775SOL     OW75765   7.687   3.410  11.023
24775SOL    HW175766   7.672   3.477  11.090
24775SOL    HW275767   7.707   3.331  11.073
24776SOL     OW75768   7.912   2.358   9.481
24776SOL    HW175769   7.959   2.436   9.509
24776SOL    HW275770   7.820   2.385   9.477
24777SOL     OW75771   7.578   3.005  10.793
24777SOL    HW175772   7.580   2.960  10.877
24777SOL    HW275773   7.596   2.937  10.729
24778SOL     OW75774   7.539   3.122  10.330
24778SOL    HW175775   7.516   3.138  10.421
24778SOL    HW275776   7.460   3.086  10.291
24779SOL     OW75777   7.597   3.653  11.154
24779SOL    HW175778   7.547   3.586  11.199
24779SOL    HW275779   7.643   3.700  11.223
24780SOL     OW75780   7.724   2.191  10.028
24780SOL    HW175781   7.642   2.233  10.002
24780SOL    HW275782   7.715   2.178  10.122
24781SOL     OW75783   7.815   3.153  10.823
24781SOL    HW175784   7.814   3.229  10.765
24781SOL    HW275785   7.732   3.109  10.806
24782SOL     OW75786  -0.018   3.441   9.729
24782SOL    HW175787  -0.001   3.352   9.761
24782SOL    HW275788   0.061   3.490   9.753
24783SOL     OW75789   7.732   3.185   9.627
24783SOL    HW175790   7.650   3.190   9.578
24783SOL    HW275791   7.718   3.239   9.704
24784SOL     OW75792   7.562   2.887  11.038
24784SOL    HW175793   7.484   2.866  11.089
24784SOL    HW275794   7.634   2.850  11.088
24785SOL     OW75795   7.496   2.201   9.343
24785SOL    HW175796   7.434   2.181   9.273
24785SOL    HW275797   7.540   2.281   9.315
24786SOL     OW75798   7.501   2.017   9.599
24786SOL    HW175799   7.486   2.084   9.532
24786SOL    HW275800   7.590   1.986   9.583
24787SOL     OW75801   7.826   3.619  10.877
24787SOL    HW175802   7.740   3.657  10.860
24787SOL    HW275803   7.808   3.531  10.908
24788SOL     OW75804   7.705   3.167  11.166
24788SOL    HW175805   7.629   3.116  11.138
24788SOL    HW275806   7.690   3.182  11.260
24789SOL     OW75807   7.531   3.089   9.984
24789SOL    HW175808   7.552   3.034  10.059
24789SOL    HW275809   7.598   3.068   9.919
24790SOL     OW75810   0.100   3.297  10.863
24790SOL    HW175811   0.049   3.241  10.921
24790SOL    HW275812   0.172   3.329  10.918
24791SOL     OW75813   7.800   2.408  10.605
24791SOL    HW175814   7.866   2.351  10.643
24791SOL    HW275815   7.806   2.393  10.511
24792SOL     OW75816   7.488   2.926   9.627
24792SOL    HW175817   7.579   2.914   9.598
24792SOL    HW275818   7.460   2.838   9.652
24793SOL     OW75819   7.658   2.470  11.308
24793SOL    HW175820   7.572   2.468  11.350
24793SOL    HW275821   7.640   2.460  11.215
24794SOL     OW75822   7.671   2.143  12.162
24794SOL    HW175823   7.697   2.112  12.249
24794SOL    HW275824   7.583   2.107  12.149
24795SOL     OW75825   7.449   2.252  11.812
24795SOL    HW175826   7.370   2.279  11.858
24795SOL    HW275827   7.423   2.174  11.764
24796SOL     OW75828   7.786   3.271  12.212
24796SOL    HW175829   7.706   3.218  12.215
24796SOL    HW275830   7.777   3.324  12.134
24797SOL     OW75831   7.663   3.576  11.648
24797SOL    HW175832   7.678   3.654  11.701
24797SOL    HW275833   7.742   3.567  11.596
24798SOL     OW75834   7.668   3.303  11.706
24798SOL    HW175835   7.657   3.398  11.703
24798SOL    HW275836   7.607   3.274  11.774
24799SOL     OW75837   7.705   2.950  12.064
24799SOL    HW175838   7.699   2.864  12.107
24799SOL    HW275839   7.654   3.008  12.121
24800SOL     OW75840   7.576   2.514  11.734
24800SOL    HW175841   7.537   2.430  11.758
24800SOL    HW275842   7.564   2.570  11.811
24801SOL     OW75843   7.494   3.448  11.292
24801SOL    HW175844   7.477   3.356  11.313
24801SOL    HW275845   7.464   3.497  11.368
24802SOL     OW75846   7.600   2.610   0.208
24802SOL    HW175847   7.592   2.607   0.303
24802SOL    HW275848   7.526   2.665   0.180
24803SOL     OW75849   7.648   2.841  12.394
24803SOL    HW175850   7.719   2.780  12.412
24803SOL    HW275851   7.571   2.802  12.435
24804SOL     OW75852   0.022   2.615  11.415
24804SOL    HW175853   0.028   2.711  11.419
24804SOL    HW275854  -0.039   2.592  11.485
24805SOL     OW75855   7.532   2.694  11.941
24805SOL    HW175856   7.612   2.683  11.991
24805SOL    HW275857   7.486   2.766  11.985
24806SOL     OW75858   7.961   2.046  12.043
24806SOL    HW175859   7.964   2.054  12.138
24806SOL    HW275860   7.956   2.136  12.012
24807SOL     OW75861   7.820   3.694  12.041
24807SOL    HW175862   7.873   3.634  12.093
24807SOL    HW275863   7.870   3.776  12.040
24808SOL     OW75864   7.742   2.826  11.426
24808SOL    HW175865   7.815   2.850  11.369
24808SOL    HW275866   7.721   2.736  11.402
24809SOL     OW75867   7.691   3.655  12.412
24809SOL    HW175868   7.731   3.570  12.431
24809SOL    HW275869   7.615   3.634  12.357
24810SOL     OW75870   7.837   2.545  11.609
24810SOL    HW175871   7.886   2.512  11.684
24810SOL    HW275872   7.745   2.541  11.636
24811SOL     OW75873   0.040   2.003  11.276
24811SOL    HW175874   0.120   1.955  11.298
24811SOL    HW275875   0.007   1.960  11.197
24812SOL     OW75876   7.974   1.879  11.652
24812SOL    HW175877   7.898   1.900  11.705
24812SOL    HW275878   8.013   1.964  11.631
24813SOL     OW75879   7.748   1.921  11.348
24813SOL    HW175880   7.805   1.986  11.307
24813SOL    HW275881   7.808   1.862  11.393
24814SOL     OW75882   7.922   2.960  11.902
24814SOL    HW175883   7.849   2.958  11.964
24814SOL    HW275884   7.880   2.961  11.815
24815SOL     OW75885   7.987   2.064  12.310
24815SOL    HW175886   8.034   2.022  12.381
24815SOL    HW275887   7.899   2.079  12.344
24816SOL     OW75888   7.863   2.660  12.448
24816SOL    HW175889   7.897   2.674  12.536
24816SOL    HW275890   7.818   2.576  12.452
24817SOL     OW75891   7.811   2.977  11.649
24817SOL    HW175892   7.786   3.060  11.608
24817SOL    HW275893   7.782   2.910  11.587
24818SOL     OW75894  -0.017   2.414  12.048
24818SOL    HW175895   0.019   2.492  12.007
24818SOL    HW275896   0.024   2.412  12.135
24819SOL     OW75897   7.796   3.414  12.462
24819SOL    HW175898   7.795   3.350  12.391
24819SOL    HW275899   7.882   3.404  12.502
24820SOL     OW75900   7.900   2.615   0.221
24820SOL    HW175901   7.993   2.620   0.243
24820SOL    HW275902   7.856   2.594   0.303
24821SOL     OW75903   7.995   2.772  12.229
24821SOL    HW175904   7.994   2.867  12.224
24821SOL    HW275905   7.944   2.752  12.308
24822SOL     OW75906   7.733   2.062  12.418
24822SOL    HW175907   7.699   2.093  12.502
24822SOL    HW275908   7.719   1.968  12.420
24823SOL     OW75909   7.527   3.194  12.446
24823SOL    HW175910   7.549   3.120  12.503
24823SOL    HW275911   7.521   3.269  12.505
24824SOL     OW75912   7.748   1.933  11.796
24824SOL    HW175913   7.733   2.025  11.819
24824SOL    HW275914   7.760   1.889  11.881
24825SOL     OW75915   7.752   2.671  12.107
24825SOL    HW175916   7.840   2.696  12.135
24825SOL    HW275917   7.741   2.582  12.140
24826SOL     OW75918   7.741   2.401  12.166
24826SOL    HW175919   7.720   2.308  12.167
24826SOL    HW275920   7.825   2.407  12.121
24827SOL     OW75921   7.463   3.173  11.362
24827SOL    HW175922   7.376   3.193  11.328
24827SOL    HW275923   7.455   3.085  11.398
24828SOL     OW75924   7.547   3.651  12.108
24828SOL    HW175925   7.518   3.570  12.066
24828SOL    HW275926   7.638   3.661  12.080
24829SOL     OW75927   7.512   2.432  12.316
24829SOL    HW175928   7.586   2.426  12.256
24829SOL    HW275929   7.498   2.342  12.346
24830SOL     OW75930   0.214   2.369  11.466
24830SOL    HW175931   0.180   2.287  11.502
24830SOL    HW275932   0.190   2.436  11.530
24831SOL     OW75933   7.916   2.378  11.299
24831SOL    HW175934   7.969   2.442  11.347
24831SOL    HW275935   7.826   2.406  11.313
24832SOL     OW75936   7.544   3.131  12.187
24832SOL    HW175937   7.531   3.156  12.279
24832SOL    HW275938   7.461   3.090  12.162
24833SOL     OW75939   7.718   2.192  11.889
24833SOL    HW175940   7.633   2.225  11.860
24833SOL    HW275941   7.709   2.179  11.983
24834SOL     OW75942  -0.004   3.416  11.584
24834SOL    HW175943  -0.004   3.349  11.654
24834SOL    HW275944   0.055   3.484  11.616
24835SOL     OW75945   7.718   3.194  11.465
24835SOL    HW175946   7.627   3.191  11.437
24835SOL    HW275947   7.717   3.244  11.546
24836SOL     OW75948   7.506   2.192  11.210
24836SOL    HW175949   7.414   2.178  11.188
24836SOL    HW275950   7.529   2.273  11.165
24837SOL     OW75951   7.509   2.011  11.465
24837SOL    HW175952   7.493   2.089  11.412
24837SOL    HW275953   7.596   1.982  11.439
24838SOL     OW75954   7.778   3.588   0.242
24838SOL    HW175955   7.732   3.585   0.158
24838SOL    HW275956   7.830   3.508   0.243
24839SOL     OW75957   7.527   3.083  11.846
24839SOL    HW175958   7.538   3.043  11.933
24839SOL    HW275959   7.603   3.052  11.796
24840SOL     OW75960   7.484   2.921  11.482
24840SOL    HW175961   7.576   2.911  11.458
24840SOL    HW275962   7.455   2.832  11.504
24841SOL     OW75963   7.682   4.272   0.047
24841SOL    HW175964   7.664   4.342   0.110
24841SOL    HW275965   7.618   4.286  -0.023
24842SOL     OW75966   7.672   4.006   0.994
24842SOL    HW175967   7.698   3.973   1.079
24842SOL    HW275968   7.583   3.973   0.981
24843SOL     OW75969   7.446   4.108   0.646
24843SOL    HW175970   7.369   4.136   0.694
24843SOL    HW275971   7.420   4.026   0.603
24844SOL     OW75972   7.749   5.170   1.051
24844SOL    HW175973   7.672   5.114   1.039
24844SOL    HW275974   7.798   5.161   0.969
24845SOL     OW75975   7.861   4.132   1.516
24845SOL    HW175976   7.937   4.074   1.525
24845SOL    HW275977   7.786   4.073   1.516
24846SOL     OW75978   7.650   5.440   0.491
24846SOL    HW175979   7.681   5.517   0.539
24846SOL    HW275980   7.700   5.441   0.409
24847SOL     OW75981   7.667   5.166   0.534
24847SOL    HW175982   7.655   5.261   0.535
24847SOL    HW275983   7.608   5.133   0.602
24848SOL     OW75984   7.704   4.813   0.895
24848SOL    HW175985   7.696   4.725   0.931
24848SOL    HW275986   7.647   4.866   0.950
24849SOL     OW75987   7.560   4.360   0.570
24849SOL    HW175988   7.521   4.276   0.595
24849SOL    HW275989   7.552   4.414   0.649
24850SOL     OW75990   7.478   5.250   0.139
24850SOL    HW175991   7.389   5.215   0.129
24850SOL    HW275992   7.469   5.327   0.194
24851SOL     OW75993   7.559   4.467   1.578
24851SOL    HW175994   7.648   4.504   1.581
24851SOL    HW275995   7.501   4.543   1.575
24852SOL     OW75996   7.640   4.678   1.289
24852SOL    HW175997   7.727   4.639   1.279
24852SOL    HW275998   7.585   4.629   1.227
24853SOL     OW75999   7.764   3.991   1.838
24853SOL    HW176000   7.807   4.067   1.878
24853SOL    HW276001   7.671   4.001   1.862
24854SOL     OW76002   7.535   4.540   0.774
24854SOL    HW176003   7.610   4.535   0.834
24854SOL    HW276004   7.484   4.614   0.806
24855SOL     OW76005   7.573   5.597   1.584
24855SOL    HW176006   7.578   5.578   1.678
24855SOL    HW276007   7.498   5.546   1.553
24856SOL     OW76008   7.961   3.938   0.881
24856SOL    HW176009   7.962   3.931   0.976
24856SOL    HW276010   7.955   4.033   0.864
24857SOL     OW76011   7.815   5.559   0.869
24857SOL    HW176012   7.878   5.491   0.893
24857SOL    HW276013   7.864   5.641   0.876
24858SOL     OW76014   7.737   4.718   0.247
24858SOL    HW176015   7.781   4.742   0.165
24858SOL    HW276016   7.706   4.629   0.232
24859SOL     OW76017   7.955   4.970   1.740
24859SOL    HW176018   7.914   4.974   1.654
24859SOL    HW276019   7.884   4.988   1.801
24860SOL     OW76020   7.630   3.986   1.504
24860SOL    HW176021   7.549   4.033   1.525
24860SOL    HW276022   7.615   3.898   1.537
24861SOL     OW76023   7.705   5.514   1.225
24861SOL    HW176024   7.749   5.440   1.267
24861SOL    HW276025   7.689   5.484   1.135
24862SOL     OW76026   7.809   4.389   0.450
24862SOL    HW176027   7.870   4.352   0.513
24862SOL    HW276028   7.723   4.381   0.492
24863SOL     OW76029   0.074   3.815   0.043
24863SOL    HW176030   0.149   3.817   0.102
24863SOL    HW276031   0.028   3.734   0.065
24864SOL     OW76032   7.983   3.739   0.508
24864SOL    HW176033   7.902   3.766   0.549
24864SOL    HW276034   8.017   3.819   0.467
24865SOL     OW76035   7.916   4.847   0.735
24865SOL    HW176036   7.841   4.832   0.793
24865SOL    HW276037   7.881   4.835   0.647
24866SOL     OW76038   7.532   4.278   1.386
24866SOL    HW176039   7.625   4.275   1.362
24866SOL    HW276040   7.526   4.346   1.453
24867SOL     OW76041   7.988   3.912   1.145
24867SOL    HW176042   8.047   3.876   1.211
24867SOL    HW276043   7.904   3.920   1.190
24868SOL     OW76044   7.880   4.539   1.265
24868SOL    HW176045   7.963   4.535   1.312
24868SOL    HW276046   7.842   4.452   1.275
24869SOL     OW76047   7.521   5.300   1.363
24869SOL    HW176048   7.495   5.368   1.300
24869SOL    HW276049   7.616   5.292   1.352
24870SOL     OW76050   7.833   4.843   0.471
24870SOL    HW176051   7.806   4.931   0.443
24870SOL    HW276052   7.793   4.784   0.407
24871SOL     OW76053  -0.022   4.273   0.863
24871SOL    HW176054   0.017   4.350   0.822
24871SOL    HW276055   0.016   4.272   0.951
24872SOL     OW76056   7.785   5.256   1.309
24872SOL    HW176057   7.782   5.214   1.223
24872SOL    HW276058   7.877   5.277   1.322
24873SOL     OW76059   7.850   4.458   1.605
24873SOL    HW176060   7.937   4.492   1.584
24873SOL    HW276061   7.857   4.363   1.593
24874SOL     OW76062   7.935   3.815   1.732
24874SOL    HW176063   7.890   3.747   1.681
24874SOL    HW276064   7.865   3.875   1.759
24875SOL     OW76065   7.987   4.643   1.033
24875SOL    HW176066   8.011   4.735   1.045
24875SOL    HW276067   7.949   4.617   1.118
24876SOL     OW76068   7.735   3.919   1.251
24876SOL    HW176069   7.693   3.951   1.331
24876SOL    HW276070   7.718   3.825   1.251
24877SOL     OW76071   7.498   5.037   1.276
24877SOL    HW176072   7.527   4.980   1.347
24877SOL    HW276073   7.499   5.125   1.314
24878SOL     OW76074   7.744   3.800   0.625
24878SOL    HW176075   7.733   3.893   0.648
24878SOL    HW276076   7.763   3.758   0.709
24879SOL     OW76077   7.801   4.642   1.811
24879SOL    HW176078   7.892   4.673   1.817
24879SOL    HW276079   7.806   4.565   1.754
24880SOL     OW76080   7.740   4.537   0.956
24880SOL    HW176081   7.831   4.565   0.969
24880SOL    HW276082   7.739   4.445   0.981
24881SOL     OW76083   7.746   4.263   1.002
24881SOL    HW176084   7.719   4.171   0.998
24881SOL    HW276085   7.825   4.267   0.947
24882SOL     OW76086   7.546   5.504   0.944
24882SOL    HW176087   7.514   5.428   0.897
24882SOL    HW276088   7.633   5.521   0.909
24883SOL     OW76089   7.484   4.283   1.114
24883SOL    HW176090   7.567   4.281   1.066
24883SOL    HW276091   7.509   4.278   1.206
24884SOL     OW76092   7.622   4.252   1.741
24884SOL    HW176093   7.677   4.201   1.682
24884SOL    HW276094   7.591   4.325   1.687
24885SOL     OW76095   7.685   5.272   1.716
24885SOL    HW176096   7.667   5.329   1.791
24885SOL    HW276097   7.703   5.186   1.755
24886SOL     OW76098   7.909   4.167   0.177
24886SOL    HW176099   7.923   4.253   0.215
24886SOL    HW276100   7.828   4.175   0.127
24887SOL     OW76101   7.581   4.866   1.477
24887SOL    HW176102   7.583   4.821   1.562
24887SOL    HW276103   7.602   4.797   1.414
24888SOL     OW76104   7.533   4.993   1.015
24888SOL    HW176105   7.514   5.005   1.108
24888SOL    HW276106   7.460   4.940   0.982
24889SOL     OW76107   7.586   5.531   1.844
24889SOL    HW176108   7.542   5.457   1.886
24889SOL    HW276109   7.636   5.572   1.915
24890SOL     OW76110   7.715   4.056   0.717
24890SOL    HW176111   7.628   4.086   0.693
24890SOL    HW276112   7.710   4.042   0.812
24891SOL     OW76113   7.814   5.019   1.512
24891SOL    HW176114   7.809   5.093   1.451
24891SOL    HW276115   7.734   4.969   1.495
24892SOL     OW76116  -0.002   5.232   0.408
24892SOL    HW176117   0.023   5.172   0.478
24892SOL    HW276118   0.030   5.318   0.437
24893SOL     OW76119   7.742   5.058   0.299
24893SOL    HW176120   7.668   5.082   0.242
24893SOL    HW276121   7.724   5.105   0.381
24894SOL     OW76122   7.563   4.764   1.732
24894SOL    HW176123   7.485   4.737   1.780
24894SOL    HW276124   7.635   4.717   1.774
24895SOL     OW76125   7.511   3.870   0.324
24895SOL    HW176126   7.491   3.951   0.276
24895SOL    HW276127   7.606   3.872   0.335
24896SOL     OW76128   7.832   5.482   1.572
24896SOL    HW176129   7.746   5.518   1.552
24896SOL    HW276130   7.814   5.393   1.603
24897SOL     OW76131   7.698   5.024   1.847
24897SOL    HW176132   7.639   4.957   1.813
24897SOL    HW276133   7.672   5.035   1.938
24898SOL     OW76134   7.525   4.962   0.679
24898SOL    HW176135   7.544   4.909   0.756
24898SOL    HW276136   7.568   4.916   0.607
24899SOL     OW76137   0.098   5.171   1.548
24899SOL    HW176138   0.051   5.105   1.599
24899SOL    HW276139   0.172   5.196   1.603
24900SOL     OW76140   7.787   4.282   1.293
24900SOL    HW176141   7.837   4.230   1.356
24900SOL    HW276142   7.811   4.247   1.208
24901SOL     OW76143   7.491   4.799   0.366
24901SOL    HW176144   7.572   4.795   0.316
24901SOL    HW276145   7.472   4.707   0.388
24902SOL     OW76146   7.649   4.345   2.002
24902SOL    HW176147   7.561   4.340   2.038
24902SOL    HW276148   7.638   4.327   1.908
24903SOL     OW76149   7.661   4.008   2.862
24903SOL    HW176150   7.688   3.971   2.946
24903SOL    HW276151   7.575   3.969   2.845
24904SOL     OW76152   7.442   4.115   2.506
24904SOL    HW176153   7.362   4.141   2.551
24904SOL    HW276154   7.418   4.036   2.457
24905SOL     OW76155   7.753   5.175   2.907
24905SOL    HW176156   7.675   5.120   2.900
24905SOL    HW276157   7.799   5.162   2.824
24906SOL     OW76158   7.866   4.111   3.374
24906SOL    HW176159   7.929   4.051   3.415
24906SOL    HW276160   7.782   4.065   3.378
24907SOL     OW76161   7.662   5.436   2.337
24907SOL    HW176162   7.679   5.516   2.386
24907SOL    HW276163   7.748   5.408   2.305
24908SOL     OW76164   7.674   5.160   2.398
24908SOL    HW176165   7.647   5.252   2.402
24908SOL    HW276166   7.617   5.116   2.460
24909SOL     OW76167   7.710   4.798   2.794
24909SOL    HW176168   7.716   4.764   2.884
24909SOL    HW276169   7.651   4.873   2.800
24910SOL     OW76170   7.567   4.365   2.439
24910SOL    HW176171   7.524   4.280   2.449
24910SOL    HW276172   7.565   4.403   2.527
24911SOL     OW76173   7.500   5.312   1.978
24911SOL    HW176174   7.480   5.220   1.995
24911SOL    HW276175   7.468   5.359   2.055
24912SOL     OW76176   7.562   4.474   3.431
24912SOL    HW176177   7.642   4.519   3.460
24912SOL    HW276178   7.494   4.541   3.435
24913SOL     OW76179   7.631   4.681   3.109
24913SOL    HW176180   7.709   4.627   3.123
24913SOL    HW276181   7.558   4.620   3.113
24914SOL     OW76182   7.762   4.004   3.686
24914SOL    HW176183   7.809   4.065   3.743
24914SOL    HW276184   7.674   4.001   3.723
24915SOL     OW76185   7.985   4.460   2.124
24915SOL    HW176186   8.034   4.543   2.117
24915SOL    HW276187   7.935   4.469   2.205
24916SOL     OW76188   7.601   4.546   2.669
24916SOL    HW176189   7.622   4.630   2.627
24916SOL    HW276190   7.516   4.560   2.710
24917SOL     OW76191   7.573   5.596   3.447
24917SOL    HW176192   7.581   5.576   3.540
24917SOL    HW276193   7.491   5.554   3.421
24918SOL     OW76194   7.951   3.921   2.741
24918SOL    HW176195   7.957   3.925   2.836
24918SOL    HW276196   7.972   4.010   2.712
24919SOL     OW76197   7.810   5.552   2.729
24919SOL    HW176198   7.861   5.482   2.769
24919SOL    HW276199   7.865   5.630   2.735
24920SOL     OW76200   7.745   4.686   2.125
24920SOL    HW176201   7.821   4.709   2.071
24920SOL    HW276202   7.725   4.596   2.102
24921SOL     OW76203   7.955   4.982   3.594
24921SOL    HW176204   7.912   4.981   3.509
24921SOL    HW276205   7.885   4.994   3.657
24922SOL     OW76206   7.620   3.992   3.371
24922SOL    HW176207   7.534   4.029   3.387
24922SOL    HW276208   7.614   3.902   3.404
24923SOL     OW76209   7.706   5.517   3.087
24923SOL    HW176210   7.747   5.444   3.132
24923SOL    HW276211   7.681   5.482   3.001
24924SOL     OW76212   7.822   4.433   2.347
24924SOL    HW176213   7.867   4.349   2.357
24924SOL    HW276214   7.730   4.414   2.366
24925SOL     OW76215   0.016   3.825   2.000
24925SOL    HW176216   0.109   3.802   2.010
24925SOL    HW276217   0.002   3.823   1.905
24926SOL     OW76218   7.972   3.736   2.352
24926SOL    HW176219   7.895   3.763   2.401
24926SOL    HW276220   8.008   3.818   2.317
24927SOL     OW76221   7.741   3.777   2.048
24927SOL    HW176222   7.789   3.844   1.999
24927SOL    HW276223   7.808   3.720   2.085
24928SOL     OW76224   7.916   4.831   2.608
24928SOL    HW176225   7.849   4.819   2.676
24928SOL    HW276226   7.867   4.829   2.525
24929SOL     OW76227   7.536   4.285   3.239
24929SOL    HW176228   7.629   4.272   3.222
24929SOL    HW276229   7.533   4.352   3.308
24930SOL     OW76230   7.985   3.922   3.006
24930SOL    HW176231   8.045   3.881   3.069
24930SOL    HW276232   7.901   3.925   3.053
24931SOL     OW76233   7.852   4.527   3.143
24931SOL    HW176234   7.896   4.544   3.227
24931SOL    HW276235   7.835   4.432   3.145
24932SOL     OW76236   7.519   5.300   3.225
24932SOL    HW176237   7.491   5.370   3.166
24932SOL    HW276238   7.613   5.294   3.212
24933SOL     OW76239   7.775   4.833   2.366
24933SOL    HW176240   7.771   4.915   2.316
24933SOL    HW276241   7.767   4.765   2.300
24934SOL     OW76242  -0.021   4.335   2.720
24934SOL    HW176243   0.038   4.395   2.675
24934SOL    HW276244   0.025   4.312   2.801
24935SOL     OW76245   7.785   5.258   3.168
24935SOL    HW176246   7.781   5.217   3.081
24935SOL    HW276247   7.877   5.279   3.180
24936SOL     OW76248   7.871   4.460   3.457
24936SOL    HW176249   7.966   4.467   3.460
24936SOL    HW276250   7.854   4.366   3.464
24937SOL     OW76251   7.934   3.832   3.574
24937SOL    HW176252   7.890   3.756   3.536
24937SOL    HW276253   7.863   3.885   3.610
24938SOL     OW76254   7.945   4.606   2.897
24938SOL    HW176255   8.035   4.638   2.895
24938SOL    HW276256   7.926   4.594   2.990
24939SOL     OW76257   7.734   3.921   3.116
24939SOL    HW176258   7.688   3.951   3.194
24939SOL    HW276259   7.719   3.826   3.114
24940SOL     OW76260   7.516   5.039   3.131
24940SOL    HW176261   7.538   4.979   3.202
24940SOL    HW276262   7.503   5.124   3.174
24941SOL     OW76263   7.742   3.798   2.488
24941SOL    HW176264   7.728   3.890   2.510
24941SOL    HW276265   7.758   3.755   2.572
24942SOL     OW76266   7.788   4.637   3.653
24942SOL    HW176267   7.831   4.608   3.734
24942SOL    HW276268   7.824   4.579   3.585
24943SOL     OW76269   7.757   4.253   2.855
24943SOL    HW176270   7.719   4.165   2.858
24943SOL    HW276271   7.845   4.241   2.820
24944SOL     OW76272   7.464   5.036   2.051
24944SOL    HW176273   7.377   5.056   2.017
24944SOL    HW276274   7.456   4.948   2.088
24945SOL     OW76275   7.543   5.502   2.806
24945SOL    HW176276   7.510   5.426   2.758
24945SOL    HW276277   7.630   5.517   2.769
24946SOL     OW76278   7.478   4.292   2.974
24946SOL    HW176279   7.549   4.246   2.930
24946SOL    HW276280   7.500   4.288   3.067
24947SOL     OW76281   7.617   4.257   3.602
24947SOL    HW176282   7.652   4.187   3.548
24947SOL    HW276283   7.585   4.322   3.540
24948SOL     OW76284   0.207   4.240   2.157
24948SOL    HW176285   0.174   4.152   2.174
24948SOL    HW276286   0.183   4.290   2.235
24949SOL     OW76287   7.688   5.273   3.577
24949SOL    HW176288   7.666   5.334   3.648
24949SOL    HW276289   7.704   5.190   3.621
24950SOL     OW76290   7.898   4.225   2.005
24950SOL    HW176291   7.951   4.294   2.044
24950SOL    HW276292   7.808   4.257   2.011
24951SOL     OW76293   7.600   4.863   3.326
24951SOL    HW176294   7.590   4.816   3.408
24951SOL    HW276295   7.609   4.794   3.260
24952SOL     OW76296   7.538   5.000   2.869
24952SOL    HW176297   7.524   5.010   2.963
24952SOL    HW276298   7.461   4.953   2.838
24953SOL     OW76299   7.596   5.526   3.705
24953SOL    HW176300   7.548   5.456   3.750
24953SOL    HW276301   7.642   5.572   3.776
24954SOL     OW76302   7.713   4.058   2.581
24954SOL    HW176303   7.625   4.085   2.555
24954SOL    HW276304   7.705   4.037   2.674
24955SOL     OW76305   7.820   5.027   3.359
24955SOL    HW176306   7.797   5.106   3.310
24955SOL    HW276307   7.744   4.969   3.348
24956SOL     OW76308  -0.015   5.299   2.277
24956SOL    HW176309  -0.009   5.218   2.328
24956SOL    HW276310   0.059   5.352   2.307
24957SOL     OW76311   7.719   5.057   2.154
24957SOL    HW176312   7.628   5.054   2.125
24957SOL    HW276313   7.716   5.105   2.237
24958SOL     OW76314   7.555   4.763   3.578
24958SOL    HW176315   7.481   4.738   3.633
24958SOL    HW276316   7.631   4.722   3.620
24959SOL     OW76317   7.507   4.057   1.907
24959SOL    HW176318   7.418   4.038   1.875
24959SOL    HW276319   7.533   4.136   1.860
24960SOL     OW76320   7.507   3.875   2.156
24960SOL    HW176321   7.493   3.951   2.099
24960SOL    HW276322   7.594   3.843   2.132
24961SOL     OW76323   7.827   5.477   3.430
24961SOL    HW176324   7.742   5.518   3.413
24961SOL    HW276325   7.805   5.392   3.469
24962SOL     OW76326   7.705   5.031   3.714
24962SOL    HW176327   7.635   4.970   3.692
24962SOL    HW276328   7.699   5.042   3.809
24963SOL     OW76329   7.536   4.955   2.538
24963SOL    HW176330   7.503   4.898   2.607
24963SOL    HW276331   7.599   4.901   2.490
24964SOL     OW76332   0.112   5.159   3.417
24964SOL    HW176333   0.050   5.103   3.465
24964SOL    HW276334   0.158   5.207   3.486
24965SOL     OW76335   7.796   4.262   3.159
24965SOL    HW176336   7.837   4.211   3.229
24965SOL    HW276337   7.820   4.216   3.078
24966SOL     OW76338   7.486   4.783   2.176
24966SOL    HW176339   7.577   4.772   2.150
24966SOL    HW276340   7.457   4.695   2.201
24967SOL     OW76341   7.654   4.360   3.855
24967SOL    HW176342   7.569   4.350   3.897
24967SOL    HW276343   7.639   4.334   3.764
24968SOL     OW76344   7.668   4.008   4.718
24968SOL    HW176345   7.698   3.975   4.802
24968SOL    HW276346   7.579   3.972   4.708
24969SOL     OW76347   7.443   4.121   4.364
24969SOL    HW176348   7.364   4.143   4.413
24969SOL    HW276349   7.421   4.040   4.319
24970SOL     OW76350   7.754   5.176   4.769
24970SOL    HW176351   7.677   5.122   4.749
24970SOL    HW276352   7.827   5.129   4.728
24971SOL     OW76353   7.868   4.122   5.233
24971SOL    HW176354   7.943   4.063   5.234
24971SOL    HW276355   7.792   4.063   5.236
24972SOL     OW76356   7.668   5.444   4.199
24972SOL    HW176357   7.682   5.522   4.253
24972SOL    HW276358   7.756   5.414   4.177
24973SOL     OW76359   7.673   5.163   4.251
24973SOL    HW176360   7.645   5.254   4.262
24973SOL    HW276361   7.622   5.114   4.316
24974SOL     OW76362   7.704   4.811   4.623
24974SOL    HW176363   7.706   4.720   4.654
24974SOL    HW276364   7.651   4.857   4.687
24975SOL     OW76365   7.569   4.373   4.287
24975SOL    HW176366   7.532   4.288   4.311
24975SOL    HW276367   7.559   4.426   4.366
24976SOL     OW76368   7.499   5.312   3.838
24976SOL    HW176369   7.479   5.220   3.855
24976SOL    HW276370   7.468   5.358   3.916
24977SOL     OW76371   7.565   4.465   5.304
24977SOL    HW176372   7.657   4.490   5.304
24977SOL    HW276373   7.518   4.548   5.312
24978SOL     OW76374   7.634   4.682   4.991
24978SOL    HW176375   7.722   4.644   4.989
24978SOL    HW276376   7.577   4.613   4.957
24979SOL     OW76377   7.760   3.982   5.573
24979SOL    HW176378   7.804   4.063   5.599
24979SOL    HW276379   7.667   4.002   5.585
24980SOL     OW76380   7.989   4.470   3.972
24980SOL    HW176381   8.032   4.551   3.998
24980SOL    HW276382   7.934   4.447   4.047
24981SOL     OW76383   7.535   4.555   4.491
24981SOL    HW176384   7.611   4.539   4.548
24981SOL    HW276385   7.490   4.629   4.531
24982SOL     OW76386   7.580   5.594   5.309
24982SOL    HW176387   7.580   5.581   5.404
24982SOL    HW276388   7.509   5.537   5.277
24983SOL     OW76389   7.946   3.935   4.587
24983SOL    HW176390   7.961   3.924   4.681
24983SOL    HW276391   7.973   4.025   4.569
24984SOL     OW76392   7.816   5.554   4.596
24984SOL    HW176393   7.874   5.481   4.619
24984SOL    HW276394   7.870   5.632   4.605
24985SOL     OW76395   7.749   4.682   3.982
24985SOL    HW176396   7.843   4.691   3.965
24985SOL    HW276397   7.732   4.588   3.973
24986SOL     OW76398   7.929   5.068   5.457
24986SOL    HW176399   7.895   5.038   5.373
24986SOL    HW276400   7.867   5.036   5.522
24987SOL     OW76401   7.630   3.984   5.229
24987SOL    HW176402   7.551   4.034   5.251
24987SOL    HW276403   7.613   3.896   5.261
24988SOL     OW76404   7.704   5.515   4.950
24988SOL    HW176405   7.748   5.446   5.000
24988SOL    HW276406   7.698   5.479   4.861
24989SOL     OW76407   7.825   4.412   4.179
24989SOL    HW176408   7.875   4.357   4.239
24989SOL    HW276409   7.734   4.402   4.207
24990SOL     OW76410   0.006   3.832   3.847
24990SOL    HW176411   0.095   3.803   3.865
24990SOL    HW276412  -0.000   3.832   3.751
24991SOL     OW76413   7.928   3.741   4.167
24991SOL    HW176414   7.872   3.763   4.241
24991SOL    HW276415   8.001   3.802   4.173
24992SOL     OW76416   7.747   3.772   3.922
24992SOL    HW176417   7.822   3.815   3.881
24992SOL    HW276418   7.785   3.721   3.995
24993SOL     OW76419   7.909   4.872   4.459
24993SOL    HW176420   7.840   4.848   4.521
24993SOL    HW276421   7.872   4.852   4.373
24994SOL     OW76422   7.536   4.283   5.105
24994SOL    HW176423   7.629   4.276   5.084
24994SOL    HW276424   7.532   4.347   5.176
24995SOL     OW76425   7.988   3.922   4.847
24995SOL    HW176426   8.063   3.917   4.907
24995SOL    HW276427   7.912   3.921   4.905
24996SOL     OW76428   7.868   4.540   4.997
24996SOL    HW176429   7.901   4.559   5.085
24996SOL    HW276430   7.845   4.447   5.000
24997SOL     OW76431   7.520   5.294   5.083
24997SOL    HW176432   7.499   5.365   5.022
24997SOL    HW276433   7.615   5.283   5.075
24998SOL     OW76434   7.798   4.842   4.208
24998SOL    HW176435   7.776   4.920   4.157
24998SOL    HW276436   7.774   4.769   4.152
24999SOL     OW76437  -0.020   4.275   4.586
24999SOL    HW176438   0.022   4.353   4.548
24999SOL    HW276439   0.016   4.270   4.674
25000SOL     OW76440   7.783   5.256   5.028
25000SOL    HW176441   7.783   5.220   4.939
25000SOL    HW276442   7.874   5.277   5.046
25001SOL     OW76443   7.837   4.481   5.310
25001SOL    HW176444   7.888   4.560   5.328
25001SOL    HW276445   7.901   4.410   5.313
25002SOL     OW76446   7.932   3.807   5.461
25002SOL    HW176447   7.889   3.744   5.403
25002SOL    HW276448   7.862   3.867   5.487
25003SOL     OW76449   7.984   4.631   4.765
25003SOL    HW176450   8.070   4.657   4.798
25003SOL    HW276451   7.937   4.601   4.842
25004SOL     OW76452   7.738   3.920   4.973
25004SOL    HW176453   7.696   3.953   5.053
25004SOL    HW276454   7.720   3.826   4.974
25005SOL     OW76455   7.472   5.031   4.999
25005SOL    HW176456   7.510   4.972   5.063
25005SOL    HW276457   7.487   5.119   5.035
25006SOL     OW76458   7.739   3.795   4.357
25006SOL    HW176459   7.729   3.888   4.376
25006SOL    HW276460   7.761   3.754   4.441
25007SOL     OW76461   7.776   4.654   5.566
25007SOL    HW176462   7.848   4.694   5.517
25007SOL    HW276463   7.783   4.560   5.546
25008SOL     OW76464   7.741   4.537   4.672
25008SOL    HW176465   7.830   4.563   4.692
25008SOL    HW276466   7.736   4.445   4.697
25009SOL     OW76467   7.744   4.264   4.717
25009SOL    HW176468   7.718   4.172   4.718
25009SOL    HW276469   7.826   4.266   4.668
25010SOL     OW76470   7.461   5.037   3.911
25010SOL    HW176471   7.373   5.055   3.877
25010SOL    HW276472   7.454   4.949   3.949
25011SOL     OW76473   7.542   5.506   4.663
25011SOL    HW176474   7.511   5.427   4.618
25011SOL    HW276475   7.632   5.518   4.632
25012SOL     OW76476   7.487   4.291   4.835
25012SOL    HW176477   7.570   4.283   4.788
25012SOL    HW276478   7.511   4.281   4.927
25013SOL     OW76479   7.629   4.247   5.459
25013SOL    HW176480   7.695   4.209   5.401
25013SOL    HW276481   7.593   4.320   5.409
25014SOL     OW76482   0.205   4.234   4.024
25014SOL    HW176483   0.170   4.147   4.043
25014SOL    HW276484   0.186   4.285   4.103
25015SOL     OW76485   7.677   5.275   5.442
25015SOL    HW176486   7.664   5.313   5.530
25015SOL    HW276487   7.706   5.186   5.459
25016SOL     OW76488   7.897   4.226   3.857
25016SOL    HW176489   7.953   4.289   3.902
25016SOL    HW276490   7.809   4.262   3.866
25017SOL     OW76491   7.579   4.860   5.189
25017SOL    HW176492   7.590   4.817   5.274
25017SOL    HW276493   7.603   4.793   5.126
25018SOL     OW76494   7.524   5.007   4.734
25018SOL    HW176495   7.503   5.012   4.827
25018SOL    HW276496   7.464   4.941   4.699
25019SOL     OW76497   7.573   5.545   5.572
25019SOL    HW176498   7.537   5.465   5.611
25019SOL    HW276499   7.629   5.582   5.640
25020SOL     OW76500   7.711   4.058   4.438
25020SOL    HW176501   7.623   4.089   4.419
25020SOL    HW276502   7.712   4.041   4.532
25021SOL     OW76503   7.793   5.042   5.224
25021SOL    HW176504   7.791   5.098   5.146
25021SOL    HW276505   7.732   4.971   5.204
25022SOL     OW76506  -0.005   5.281   4.134
25022SOL    HW176507  -0.017   5.217   4.205
25022SOL    HW276508   0.058   5.344   4.169
25023SOL     OW76509   7.717   5.061   4.005
25023SOL    HW176510   7.625   5.055   3.980
25023SOL    HW276511   7.717   5.108   4.088
25024SOL     OW76512   7.552   4.763   5.448
25024SOL    HW176513   7.475   4.738   5.498
25024SOL    HW276514   7.625   4.722   5.494
25025SOL     OW76515   7.505   4.057   3.774
25025SOL    HW176516   7.419   4.034   3.739
25025SOL    HW276517   7.529   4.139   3.731
25026SOL     OW76518   7.506   3.876   4.018
25026SOL    HW176519   7.493   3.952   3.961
25026SOL    HW276520   7.595   3.846   3.997
25027SOL     OW76521   7.837   5.479   5.294
25027SOL    HW176522   7.748   5.512   5.282
25027SOL    HW276523   7.824   5.389   5.326
25028SOL     OW76524   7.677   5.020   5.570
25028SOL    HW176525   7.627   4.944   5.541
25028SOL    HW276526   7.666   5.022   5.665
25029SOL     OW76527   7.544   4.957   4.399
25029SOL    HW176528   7.533   4.913   4.483
25029SOL    HW276529   7.608   4.904   4.352
25030SOL     OW76530   0.103   5.182   5.270
25030SOL    HW176531   0.044   5.134   5.327
25030SOL    HW276532   0.180   5.201   5.324
25031SOL     OW76533   7.793   4.277   5.017
25031SOL    HW176534   7.839   4.229   5.086
25031SOL    HW276535   7.825   4.237   4.936
25032SOL     OW76536   7.489   4.784   4.031
25032SOL    HW176537   7.580   4.770   4.003
25032SOL    HW276538   7.458   4.698   4.058
25033SOL     OW76539   7.649   4.344   5.719
25033SOL    HW176540   7.562   4.339   5.758
25033SOL    HW276541   7.636   4.318   5.627
25034SOL     OW76542   7.673   4.005   6.580
25034SOL    HW176543   7.699   3.972   6.666
25034SOL    HW276544   7.584   3.972   6.567
25035SOL     OW76545   7.447   4.113   6.227
25035SOL    HW176546   7.366   4.141   6.271
25035SOL    HW276547   7.422   4.036   6.178
25036SOL     OW76548   7.751   5.172   6.625
25036SOL    HW176549   7.668   5.125   6.619
25036SOL    HW276550   7.808   5.127   6.561
25037SOL     OW76551   7.863   4.119   7.104
25037SOL    HW176552   7.930   4.052   7.096
25037SOL    HW276553   7.780   4.071   7.101
25038SOL     OW76554   7.663   5.434   6.054
25038SOL    HW176555   7.683   5.514   6.103
25038SOL    HW276556   7.748   5.395   6.036
25039SOL     OW76557   7.677   5.159   6.118
25039SOL    HW176558   7.636   5.245   6.124
25039SOL    HW276559   7.625   5.103   6.176
25040SOL     OW76560   7.723   4.819   6.507
25040SOL    HW176561   7.706   4.727   6.530
25040SOL    HW276562   7.650   4.867   6.545
25041SOL     OW76563   7.578   4.369   6.149
25041SOL    HW176564   7.535   4.286   6.168
25041SOL    HW276565   7.565   4.422   6.227
25042SOL     OW76566   7.498   5.316   5.698
25042SOL    HW176567   7.482   5.223   5.714
25042SOL    HW276568   7.466   5.360   5.776
25043SOL     OW76569   7.551   4.464   7.167
25043SOL    HW176570   7.638   4.504   7.170
25043SOL    HW276571   7.491   4.538   7.154
25044SOL     OW76572   7.640   4.677   6.878
25044SOL    HW176573   7.726   4.638   6.868
25044SOL    HW276574   7.585   4.631   6.814
25045SOL     OW76575   7.755   3.982   7.435
25045SOL    HW176576   7.799   4.066   7.444
25045SOL    HW276577   7.662   4.002   7.448
25046SOL     OW76578   8.013   4.448   5.829
25046SOL    HW176579   8.025   4.539   5.803
25046SOL    HW276580   7.952   4.452   5.903
25047SOL     OW76581   7.540   4.542   6.358
25047SOL    HW176582   7.613   4.536   6.420
25047SOL    HW276583   7.487   4.615   6.391
25048SOL     OW76584   7.579   5.594   7.167
25048SOL    HW176585   7.580   5.577   7.261
25048SOL    HW276586   7.504   5.545   7.135
25049SOL     OW76587   7.965   3.920   6.467
25049SOL    HW176588   7.963   3.933   6.562
25049SOL    HW276589   7.959   4.008   6.430
25050SOL     OW76590   7.806   5.521   6.440
25050SOL    HW176591   7.819   5.428   6.423
25050SOL    HW276592   7.892   5.553   6.469
25051SOL     OW76593   7.743   4.686   5.843
25051SOL    HW176594   7.769   4.694   5.751
25051SOL    HW276595   7.736   4.592   5.858
25052SOL     OW76596   7.952   4.972   7.329
25052SOL    HW176597   7.910   4.976   7.243
25052SOL    HW276598   7.880   4.986   7.391
25053SOL     OW76599   7.625   3.991   7.092
25053SOL    HW176600   7.538   4.031   7.091
25053SOL    HW276601   7.610   3.902   7.124
25054SOL     OW76602   7.721   5.521   6.803
25054SOL    HW176603   7.753   5.442   6.845
25054SOL    HW276604   7.680   5.491   6.722
25055SOL     OW76605   7.828   4.437   6.031
25055SOL    HW176606   7.890   4.393   6.088
25055SOL    HW276607   7.742   4.410   6.063
25056SOL     OW76608   0.015   3.809   5.728
25056SOL    HW176609   0.110   3.795   5.735
25056SOL    HW276610  -0.002   3.812   5.634
25057SOL     OW76611   7.977   3.722   6.092
25057SOL    HW176612   7.895   3.752   6.131
25057SOL    HW276613   8.014   3.800   6.051
25058SOL     OW76614   7.740   3.785   5.767
25058SOL    HW176615   7.757   3.857   5.706
25058SOL    HW276616   7.827   3.750   5.787
25059SOL     OW76617   7.917   4.854   6.323
25059SOL    HW176618   7.849   4.837   6.389
25059SOL    HW276619   7.873   4.841   6.239
25060SOL     OW76620   7.538   4.276   6.972
25060SOL    HW176621   7.631   4.277   6.948
25060SOL    HW276622   7.530   4.343   7.040
25061SOL     OW76623   7.988   3.922   6.735
25061SOL    HW176624   8.038   3.861   6.790
25061SOL    HW276625   7.903   3.928   6.779
25062SOL     OW76626   7.883   4.542   6.859
25062SOL    HW176627   7.975   4.534   6.886
25062SOL    HW276628   7.848   4.453   6.865
25063SOL     OW76629   7.522   5.302   6.952
25063SOL    HW176630   7.487   5.361   6.886
25063SOL    HW276631   7.616   5.297   6.932
25064SOL     OW76632   7.782   4.835   6.081
25064SOL    HW176633   7.789   4.913   6.026
25064SOL    HW276634   7.773   4.763   6.019
25065SOL     OW76635  -0.027   4.292   6.453
25065SOL    HW176636   0.016   4.366   6.411
25065SOL    HW276637   0.014   4.286   6.539
25066SOL     OW76638   7.790   5.264   6.883
25066SOL    HW176639   7.782   5.218   6.799
25066SOL    HW276640   7.884   5.275   6.895
25067SOL     OW76641   7.837   4.468   7.195
25067SOL    HW176642   7.908   4.504   7.142
25067SOL    HW276643   7.850   4.374   7.193
25068SOL     OW76644   7.933   3.812   7.324
25068SOL    HW176645   7.891   3.744   7.271
25068SOL    HW276646   7.862   3.869   7.351
25069SOL     OW76647   7.987   4.647   6.623
25069SOL    HW176648   8.007   4.740   6.630
25069SOL    HW276649   7.945   4.624   6.706
25070SOL     OW76650   7.738   3.921   6.841
25070SOL    HW176651   7.689   3.951   6.917
25070SOL    HW276652   7.723   3.827   6.837
25071SOL     OW76653   7.515   5.038   6.859
25071SOL    HW176654   7.534   4.977   6.931
25071SOL    HW276655   7.502   5.122   6.903
25072SOL     OW76656   7.738   3.795   6.209
25072SOL    HW176657   7.725   3.888   6.226
25072SOL    HW276658   7.754   3.756   6.296
25073SOL     OW76659   7.811   4.649   7.411
25073SOL    HW176660   7.897   4.686   7.392
25073SOL    HW276661   7.806   4.571   7.355
25074SOL     OW76662   7.739   4.537   6.546
25074SOL    HW176663   7.832   4.561   6.553
25074SOL    HW276664   7.737   4.444   6.568
25075SOL     OW76665   7.747   4.261   6.594
25075SOL    HW176666   7.720   4.170   6.586
25075SOL    HW276667   7.823   4.269   6.537
25076SOL     OW76668   7.454   5.044   5.785
25076SOL    HW176669   7.368   5.059   5.745
25076SOL    HW276670   7.449   4.955   5.819
25077SOL     OW76671   7.543   5.502   6.535
25077SOL    HW176672   7.507   5.427   6.488
25077SOL    HW276673   7.629   5.515   6.496
25078SOL     OW76674   7.481   4.283   6.702
25078SOL    HW176675   7.563   4.278   6.652
25078SOL    HW276676   7.509   4.276   6.793
25079SOL     OW76677   7.629   4.248   7.324
25079SOL    HW176678   7.664   4.190   7.256
25079SOL    HW276679   7.590   4.321   7.276
25080SOL     OW76680   0.215   4.226   5.890
25080SOL    HW176681   0.165   4.145   5.895
25080SOL    HW276682   0.177   4.282   5.958
25081SOL     OW76683   7.690   5.272   7.307
25081SOL    HW176684   7.665   5.323   7.384
25081SOL    HW276685   7.704   5.183   7.340
25082SOL     OW76686   7.895   4.219   5.730
25082SOL    HW176687   7.950   4.288   5.767
25082SOL    HW276688   7.806   4.253   5.738
25083SOL     OW76689   7.582   4.864   7.066
25083SOL    HW176690   7.582   4.820   7.151
25083SOL    HW276691   7.600   4.795   7.003
25084SOL     OW76692   7.526   5.006   6.594
25084SOL    HW176693   7.513   5.012   6.688
25084SOL    HW276694   7.458   4.947   6.563
25085SOL     OW76695   7.585   5.535   7.430
25085SOL    HW176696   7.541   5.460   7.470
25085SOL    HW276697   7.634   5.576   7.501
25086SOL     OW76698   7.717   4.053   6.302
25086SOL    HW176699   7.632   4.086   6.274
25086SOL    HW276700   7.708   4.040   6.396
25087SOL     OW76701   7.811   5.019   7.101
25087SOL    HW176702   7.806   5.090   7.037
25087SOL    HW276703   7.733   4.966   7.084
25088SOL     OW76704  -0.027   5.316   6.003
25088SOL    HW176705  -0.017   5.223   6.023
25088SOL    HW276706   0.057   5.354   6.027
25089SOL     OW76707   7.714   5.065   5.868
25089SOL    HW176708   7.622   5.062   5.843
25089SOL    HW276709   7.715   5.106   5.954
25090SOL     OW76710   7.567   4.774   7.328
25090SOL    HW176711   7.486   4.745   7.369
25090SOL    HW276712   7.635   4.720   7.369
25091SOL     OW76713   7.504   4.057   5.625
25091SOL    HW176714   7.414   4.038   5.597
25091SOL    HW276715   7.529   4.133   5.573
25092SOL     OW76716   7.507   3.875   5.883
25092SOL    HW176717   7.491   3.951   5.827
25092SOL    HW276718   7.594   3.845   5.859
25093SOL     OW76719   7.836   5.477   7.155
25093SOL    HW176720   7.750   5.516   7.136
25093SOL    HW276721   7.815   5.391   7.192
25094SOL     OW76722   7.683   5.018   7.427
25094SOL    HW176723   7.642   4.944   7.382
25094SOL    HW276724   7.628   5.031   7.505
25095SOL     OW76725   7.547   4.953   6.255
25095SOL    HW176726   7.528   4.901   6.333
25095SOL    HW276727   7.607   4.898   6.204
25096SOL     OW76728   0.092   5.169   7.134
25096SOL    HW176729   0.045   5.106   7.188
25096SOL    HW276730   0.168   5.195   7.186
25097SOL     OW76731   7.793   4.285   6.879
25097SOL    HW176732   7.848   4.227   6.931
25097SOL    HW276733   7.805   4.255   6.789
25098SOL     OW76734   7.486   4.786   5.898
25098SOL    HW176735   7.578   4.776   5.873
25098SOL    HW276736   7.458   4.698   5.921
25099SOL     OW76737   7.655   4.346   7.585
25099SOL    HW176738   7.566   4.340   7.620
25099SOL    HW276739   7.645   4.324   7.492
25100SOL     OW76740   7.673   4.005   8.442
25100SOL    HW176741   7.699   3.970   8.527
25100SOL    HW276742   7.584   3.972   8.428
25101SOL     OW76743   7.449   4.111   8.091
25101SOL    HW176744   7.367   4.138   8.133
25101SOL    HW276745   7.425   4.034   8.040
25102SOL     OW76746   7.757   5.160   8.495
25102SOL    HW176747   7.680   5.103   8.493
25102SOL    HW276748   7.786   5.165   8.404
25103SOL     OW76749   7.872   4.098   8.973
25103SOL    HW176750   7.923   4.033   8.926
25103SOL    HW276751   7.783   4.064   8.971
25104SOL     OW76752   7.658   5.437   7.926
25104SOL    HW176753   7.678   5.520   7.970
25104SOL    HW276754   7.741   5.410   7.887
25105SOL     OW76755   7.676   5.165   7.991
25105SOL    HW176756   7.644   5.255   7.991
25105SOL    HW276757   7.617   5.118   8.049
25106SOL     OW76758   7.733   4.817   8.368
25106SOL    HW176759   7.710   4.728   8.393
25106SOL    HW276760   7.661   4.871   8.402
25107SOL     OW76761   7.570   4.368   8.016
25107SOL    HW176762   7.527   4.284   8.034
25107SOL    HW276763   7.557   4.419   8.095
25108SOL     OW76764   7.506   5.313   7.562
25108SOL    HW176765   7.482   5.222   7.577
25108SOL    HW276766   7.471   5.360   7.638
25109SOL     OW76767   7.549   4.465   9.032
25109SOL    HW176768   7.635   4.507   9.036
25109SOL    HW276769   7.488   4.537   9.015
25110SOL     OW76770   7.637   4.678   8.748
25110SOL    HW176771   7.722   4.635   8.739
25110SOL    HW276772   7.584   4.641   8.677
25111SOL     OW76773   7.752   3.984   9.292
25111SOL    HW176774   7.789   4.067   9.264
25111SOL    HW276775   7.660   4.003   9.310
25112SOL     OW76776   8.004   4.458   7.715
25112SOL    HW176777   8.011   4.549   7.685
25112SOL    HW276778   7.942   4.462   7.788
25113SOL     OW76779   7.540   4.536   8.228
25113SOL    HW176780   7.614   4.536   8.290
25113SOL    HW276781   7.487   4.612   8.254
25114SOL     OW76782   7.579   5.602   9.032
25114SOL    HW176783   7.581   5.577   9.124
25114SOL    HW276784   7.497   5.565   8.999
25115SOL     OW76785   7.974   3.924   8.339
25115SOL    HW176786   7.968   3.941   8.433
25115SOL    HW276787   7.955   4.008   8.298
25116SOL     OW76788   7.808   5.559   8.309
25116SOL    HW176789   7.868   5.485   8.299
25116SOL    HW276790   7.865   5.634   8.325
25117SOL     OW76791   7.740   4.676   7.695
25117SOL    HW176792   7.776   4.687   7.607
25117SOL    HW276793   7.721   4.583   7.701
25118SOL     OW76794   7.911   4.933   9.182
25118SOL    HW176795   7.880   4.954   9.094
25118SOL    HW276796   7.844   4.967   9.240
25119SOL     OW76797   7.621   3.997   8.960
25119SOL    HW176798   7.534   4.032   8.943
25119SOL    HW276799   7.606   3.907   8.989
25120SOL     OW76800   7.714   5.517   8.667
25120SOL    HW176801   7.748   5.434   8.700
25120SOL    HW276802   7.676   5.495   8.582
25121SOL     OW76803   7.821   4.427   7.915
25121SOL    HW176804   7.865   4.347   7.943
25121SOL    HW276805   7.730   4.416   7.942
25122SOL     OW76806   0.013   3.808   7.592
25122SOL    HW176807   0.107   3.793   7.600
25122SOL    HW276808  -0.002   3.813   7.497
25123SOL     OW76809   8.003   3.759   7.976
25123SOL    HW176810   7.911   3.772   7.999
25123SOL    HW276811   8.021   3.828   7.913
25124SOL     OW76812   7.740   3.787   7.628
25124SOL    HW176813   7.750   3.860   7.566
25124SOL    HW276814   7.830   3.757   7.644
25125SOL     OW76815   7.925   4.829   8.177
25125SOL    HW176816   7.856   4.824   8.242
25125SOL    HW276817   7.880   4.825   8.093
25126SOL     OW76818   7.539   4.276   8.835
25126SOL    HW176819   7.632   4.275   8.812
25126SOL    HW276820   7.532   4.344   8.902
25127SOL     OW76821   7.990   3.927   8.611
25127SOL    HW176822   8.025   3.840   8.635
25127SOL    HW276823   7.903   3.928   8.650
25128SOL     OW76824   7.875   4.539   8.741
25128SOL    HW176825   7.971   4.534   8.734
25128SOL    HW276826   7.846   4.448   8.735
25129SOL     OW76827   7.521   5.300   8.811
25129SOL    HW176828   7.483   5.361   8.748
25129SOL    HW276829   7.614   5.300   8.790
25130SOL     OW76830   7.800   4.833   7.928
25130SOL    HW176831   7.785   4.912   7.876
25130SOL    HW276832   7.783   4.761   7.867
25131SOL     OW76833   7.970   4.295   8.318
25131SOL    HW176834   8.014   4.366   8.272
25131SOL    HW276835   8.014   4.290   8.403
25132SOL     OW76836   7.793   5.261   8.748
25132SOL    HW176837   7.788   5.215   8.664
25132SOL    HW276838   7.887   5.265   8.768
25133SOL     OW76839   7.832   4.488   9.056
25133SOL    HW176840   7.875   4.520   8.977
25133SOL    HW276841   7.857   4.395   9.060
25134SOL     OW76842   7.932   3.799   9.200
25134SOL    HW176843   7.896   3.737   9.136
25134SOL    HW276844   7.862   3.862   9.216
25135SOL     OW76845   8.009   4.652   8.503
25135SOL    HW176846   8.013   4.746   8.483
25135SOL    HW276847   7.930   4.643   8.557
25136SOL     OW76848   7.738   3.922   8.706
25136SOL    HW176849   7.684   3.950   8.780
25136SOL    HW276850   7.720   3.829   8.697
25137SOL     OW76851   7.514   5.036   8.725
25137SOL    HW176852   7.535   4.979   8.799
25137SOL    HW276853   7.501   5.123   8.764
25138SOL     OW76854   7.743   3.795   8.069
25138SOL    HW176855   7.728   3.888   8.087
25138SOL    HW276856   7.758   3.756   8.155
25139SOL     OW76857   7.813   4.659   9.279
25139SOL    HW176858   7.862   4.732   9.241
25139SOL    HW276859   7.822   4.588   9.215
25140SOL     OW76860   7.748   4.535   8.411
25140SOL    HW176861   7.840   4.543   8.386
25140SOL    HW276862   7.737   4.443   8.435
25141SOL     OW76863   7.746   4.260   8.461
25141SOL    HW176864   7.718   4.169   8.450
25141SOL    HW276865   7.822   4.269   8.404
25142SOL     OW76866   7.471   5.035   7.631
25142SOL    HW176867   7.383   5.056   7.600
25142SOL    HW276868   7.463   4.950   7.673
25143SOL     OW76869   7.551   5.499   8.402
25143SOL    HW176870   7.515   5.427   8.351
25143SOL    HW276871   7.634   5.519   8.360
25144SOL     OW76872   7.478   4.277   8.566
25144SOL    HW176873   7.558   4.273   8.513
25144SOL    HW276874   7.509   4.274   8.656
25145SOL     OW76875   7.631   4.246   9.182
25145SOL    HW176876   7.646   4.183   9.111
25145SOL    HW276877   7.592   4.322   9.139
25146SOL     OW76878   0.214   4.236   7.744
25146SOL    HW176879   0.172   4.151   7.758
25146SOL    HW276880   0.182   4.290   7.816
25147SOL     OW76881   7.696   5.276   9.167
25147SOL    HW176882   7.669   5.340   9.234
25147SOL    HW276883   7.699   5.193   9.214
25148SOL     OW76884   7.905   4.225   7.603
25148SOL    HW176885   7.957   4.297   7.642
25148SOL    HW276886   7.815   4.257   7.606
25149SOL     OW76887   7.589   4.868   8.934
25149SOL    HW176888   7.585   4.822   9.018
25149SOL    HW276889   7.604   4.799   8.869
25150SOL     OW76890   7.538   4.989   8.464
25150SOL    HW176891   7.518   5.002   8.556
25150SOL    HW276892   7.462   4.943   8.429
25151SOL     OW76893   7.594   5.518   9.290
25151SOL    HW176894   7.543   5.453   9.337
25151SOL    HW276895   7.637   5.569   9.358
25152SOL     OW76896   7.720   4.053   8.165
25152SOL    HW176897   7.635   4.085   8.135
25152SOL    HW276898   7.708   4.038   8.259
25153SOL     OW76899   7.812   5.034   8.950
25153SOL    HW176900   7.797   5.107   8.891
25153SOL    HW276901   7.737   4.976   8.936
25154SOL     OW76902  -0.018   5.306   7.862
25154SOL    HW176903  -0.016   5.221   7.906
25154SOL    HW276904   0.061   5.351   7.892
25155SOL     OW76905   7.727   5.052   7.753
25155SOL    HW176906   7.641   5.053   7.712
25155SOL    HW276907   7.716   5.102   7.834
25156SOL     OW76908   7.563   4.770   9.190
25156SOL    HW176909   7.480   4.743   9.229
25156SOL    HW276910   7.628   4.715   9.234
25157SOL     OW76911   7.501   4.056   7.489
25157SOL    HW176912   7.417   4.032   7.449
25157SOL    HW276913   7.526   4.138   7.446
25158SOL     OW76914   7.506   3.876   7.743
25158SOL    HW176915   7.488   3.949   7.684
25158SOL    HW276916   7.593   3.846   7.719
25159SOL     OW76917   7.832   5.476   9.020
25159SOL    HW176918   7.751   5.519   8.993
25159SOL    HW276919   7.803   5.394   9.061
25160SOL     OW76920   7.667   5.022   9.288
25160SOL    HW176921   7.623   4.949   9.243
25160SOL    HW276922   7.610   5.040   9.364
25161SOL     OW76923   7.537   4.958   8.125
25161SOL    HW176924   7.515   4.901   8.198
25161SOL    HW276925   7.594   4.905   8.069
25162SOL     OW76926   0.101   5.140   9.103
25162SOL    HW176927   0.030   5.077   9.109
25162SOL    HW276928   0.072   5.203   9.037
25163SOL     OW76929   7.794   4.279   8.739
25163SOL    HW176930   7.860   4.223   8.780
25163SOL    HW276931   7.797   4.257   8.646
25164SOL     OW76932   7.489   4.787   7.765
25164SOL    HW176933   7.579   4.773   7.735
25164SOL    HW276934   7.457   4.700   7.788
25165SOL     OW76935   7.668   4.348   9.444
25165SOL    HW176936   7.579   4.343   9.479
25165SOL    HW276937   7.659   4.324   9.352
25166SOL     OW76938   7.441   4.108   9.956
25166SOL    HW176939   7.359   4.140   9.992
25166SOL    HW276940   7.416   4.030   9.905
25167SOL     OW76941   7.773   5.136  10.336
25167SOL    HW176942   7.698   5.077  10.349
25167SOL    HW276943   7.748   5.190  10.262
25168SOL     OW76944   7.856   4.122  10.837
25168SOL    HW176945   7.926   4.060  10.856
25168SOL    HW276946   7.777   4.068  10.833
25169SOL     OW76947   7.707   5.427   9.778
25169SOL    HW176948   7.718   5.511   9.823
25169SOL    HW276949   7.623   5.435   9.733
25170SOL     OW76950   7.679   5.166   9.854
25170SOL    HW176951   7.687   5.260   9.837
25170SOL    HW276952   7.605   5.159   9.913
25171SOL     OW76953   7.704   4.813  10.209
25171SOL    HW176954   7.686   4.728  10.248
25171SOL    HW276955   7.651   4.875  10.259
25172SOL     OW76956   7.572   4.371   9.880
25172SOL    HW176957   7.523   4.291   9.894
25172SOL    HW276958   7.556   4.424   9.958
25173SOL     OW76959   7.498   5.321   9.444
25173SOL    HW176960   7.472   5.229   9.457
25173SOL    HW276961   7.475   5.364   9.526
25174SOL     OW76962   7.562   4.468  10.894
25174SOL    HW176963   7.646   4.513  10.898
25174SOL    HW276964   7.498   4.538  10.880
25175SOL     OW76965   7.626   4.677  10.579
25175SOL    HW176966   7.716   4.645  10.571
25175SOL    HW276967   7.580   4.640  10.504
25176SOL     OW76968   7.760   3.982  11.159
25176SOL    HW176969   7.807   4.062  11.185
25176SOL    HW276970   7.668   4.003  11.170
25177SOL     OW76971   8.012   4.515   9.586
25177SOL    HW176972   7.960   4.517   9.505
25177SOL    HW276973   7.950   4.488   9.653
25178SOL     OW76974   7.532   4.528  10.098
25178SOL    HW176975   7.612   4.538  10.150
25178SOL    HW276976   7.478   4.603  10.121
25179SOL     OW76977   7.577   5.597  10.891
25179SOL    HW176978   7.577   5.580  10.985
25179SOL    HW276979   7.511   5.538  10.855
25180SOL     OW76980   7.897   3.933  10.198
25180SOL    HW176981   7.938   3.930  10.285
25180SOL    HW276982   7.957   3.985  10.145
25181SOL     OW76983   7.813   5.563  10.169
25181SOL    HW176984   7.868   5.487  10.182
25181SOL    HW276985   7.872   5.638  10.180
25182SOL     OW76986   7.749   4.674   9.553
25182SOL    HW176987   7.770   4.678   9.460
25182SOL    HW276988   7.724   4.583   9.569
25183SOL     OW76989   7.903   4.892  11.093
25183SOL    HW176990   7.894   4.910  11.000
25183SOL    HW276991   7.838   4.949  11.135
25184SOL     OW76992   7.623   3.983  10.815
25184SOL    HW176993   7.555   4.037  10.854
25184SOL    HW276994   7.605   3.895  10.848
25185SOL     OW76995   7.709   5.525  10.523
25185SOL    HW176996   7.744   5.440  10.549
25185SOL    HW276997   7.663   5.508  10.441
25186SOL     OW76998   7.819   4.415   9.753
25186SOL    HW176999   7.857   4.331   9.779
25186SOL    HW277000   7.732   4.414   9.793
25187SOL     OW77001   0.011   3.799   9.461
25187SOL    HW177002   0.106   3.789   9.467
25187SOL    HW277003  -0.007   3.801   9.367
25188SOL     OW77004   8.008   3.788   9.870
25188SOL    HW177005   7.913   3.780   9.861
25188SOL    HW277006   8.036   3.832   9.789
25189SOL     OW77007   7.740   3.794   9.489
25189SOL    HW177008   7.747   3.865   9.426
25189SOL    HW277009   7.830   3.764   9.502
25190SOL     OW77010   7.916   4.796  10.038
25190SOL    HW177011   7.846   4.808  10.102
25190SOL    HW277012   7.873   4.802   9.953
25191SOL     OW77013   7.538   4.287  10.694
25191SOL    HW177014   7.632   4.282  10.674
25191SOL    HW277015   7.531   4.353  10.763
25192SOL     OW77016   7.995   3.914  10.450
25192SOL    HW177017   8.048   3.856  10.505
25192SOL    HW277018   7.914   3.926  10.500
25193SOL     OW77019   7.872   4.545  10.567
25193SOL    HW177020   7.955   4.562  10.613
25193SOL    HW277021   7.849   4.455  10.593
25194SOL     OW77022   7.521   5.313  10.676
25194SOL    HW177023   7.482   5.370  10.610
25194SOL    HW277024   7.613   5.306  10.651
25195SOL     OW77025   7.825   4.833   9.774
25195SOL    HW177026   7.797   4.916   9.736
25195SOL    HW277027   7.785   4.767   9.717
25196SOL     OW77028   7.966   4.309  10.184
25196SOL    HW177029   8.010   4.380  10.137
25196SOL    HW277030   8.013   4.302  10.267
25197SOL     OW77031   7.779   5.265  10.592
25197SOL    HW177032   7.789   5.211  10.513
25197SOL    HW277033   7.822   5.214  10.661
25198SOL     OW77034   7.850   4.485  10.914
25198SOL    HW177035   7.913   4.550  10.883
25198SOL    HW277036   7.899   4.402  10.914
25199SOL     OW77037   7.937   3.818  11.037
25199SOL    HW177038   7.892   3.748  10.989
25199SOL    HW277039   7.866   3.872  11.072
25200SOL     OW77040   7.994   4.657  10.343
25200SOL    HW177041   7.997   4.753  10.344
25200SOL    HW277042   7.945   4.634  10.422
25201SOL     OW77043   7.732   3.924  10.564
25201SOL    HW177044   7.700   3.946  10.651
25201SOL    HW277045   7.726   3.828  10.561
25202SOL     OW77046   7.490   5.050  10.592
25202SOL    HW177047   7.521   4.988  10.658
25202SOL    HW277048   7.500   5.136  10.632
25203SOL     OW77049   7.733   3.794   9.916
25203SOL    HW177050   7.723   3.889   9.926
25203SOL    HW277051   7.748   3.761  10.005
25204SOL     OW77052   7.794   4.639  11.142
25204SOL    HW177053   7.841   4.720  11.121
25204SOL    HW277054   7.818   4.579  11.072
25205SOL     OW77055   7.756   4.530  10.261
25205SOL    HW177056   7.836   4.583  10.260
25205SOL    HW277057   7.786   4.440  10.273
25206SOL     OW77058   7.742   4.178  10.279
25206SOL    HW177059   7.723   4.201  10.188
25206SOL    HW277060   7.835   4.197  10.290
25207SOL     OW77061   7.474   5.038   9.490
25207SOL    HW177062   7.386   5.057   9.458
25207SOL    HW277063   7.464   4.954   9.536
25208SOL     OW77064   7.570   5.492  10.283
25208SOL    HW177065   7.533   5.423  10.229
25208SOL    HW277066   7.644   5.525  10.231
25209SOL     OW77067   7.492   4.241  10.433
25209SOL    HW177068   7.534   4.307  10.378
25209SOL    HW277069   7.507   4.271  10.523
25210SOL     OW77070   7.631   4.250  11.041
25210SOL    HW177071   7.706   4.225  10.987
25210SOL    HW277072   7.595   4.327  10.997
25211SOL     OW77073   0.208   4.245   9.606
25211SOL    HW177074   0.172   4.157   9.618
25211SOL    HW277075   0.186   4.291   9.688
25212SOL     OW77076   7.690   5.274  11.035
25212SOL    HW177077   7.668   5.319  11.117
25212SOL    HW277078   7.704   5.183  11.060
25213SOL     OW77079   7.911   4.218   9.498
25213SOL    HW177080   7.966   4.289   9.532
25213SOL    HW277081   7.823   4.257   9.491
25214SOL     OW77082   7.564   4.857  10.774
25214SOL    HW177083   7.649   4.891  10.804
25214SOL    HW277084   7.587   4.794  10.706
25215SOL     OW77085   7.542   4.981  10.340
25215SOL    HW177086   7.520   5.004  10.430
25215SOL    HW277087   7.457   4.965  10.298
25216SOL     OW77088   7.577   5.539  11.155
25216SOL    HW177089   7.536   5.461  11.193
25216SOL    HW277090   7.632   5.574  11.226
25217SOL     OW77091   7.713   4.062  10.000
25217SOL    HW177092   7.623   4.086   9.979
25217SOL    HW277093   7.707   4.021  10.087
25218SOL     OW77094   0.003   5.252   9.732
25218SOL    HW177095   0.076   5.308   9.759
25218SOL    HW277096  -0.074   5.294   9.770
25219SOL     OW77097   7.738   5.049   9.617
25219SOL    HW177098   7.654   5.054   9.572
25219SOL    HW277099   7.726   5.101   9.696
25220SOL     OW77100   7.557   4.780  11.099
25220SOL    HW177101   7.476   4.740  11.130
25220SOL    HW277102   7.625   4.716  11.120
25221SOL     OW77103   7.497   4.056   9.352
25221SOL    HW177104   7.420   4.029   9.303
25221SOL    HW277105   7.522   4.140   9.313
25222SOL     OW77106   7.505   3.879   9.604
25222SOL    HW177107   7.485   3.949   9.543
25222SOL    HW277108   7.593   3.850   9.580
25223SOL     OW77109   7.836   5.476  10.888
25223SOL    HW177110   7.754   5.514  10.858
25223SOL    HW277111   7.811   5.392  10.926
25224SOL     OW77112   7.663   5.023  11.158
25224SOL    HW177113   7.631   4.945  11.114
25224SOL    HW277114   7.600   5.040  11.227
25225SOL     OW77115   7.534   4.947   9.992
25225SOL    HW177116   7.559   4.892  10.067
25225SOL    HW277117   7.610   4.944   9.934
25226SOL     OW77118   0.090   5.136  10.947
25226SOL    HW177119   0.027   5.073  10.914
25226SOL    HW277120   0.084   5.210  10.886
25227SOL     OW77121   7.799   4.266  10.606
25227SOL    HW177122   7.837   4.227  10.684
25227SOL    HW277123   7.860   4.243  10.536
25228SOL     OW77124   7.492   4.792   9.623
25228SOL    HW177125   7.581   4.781   9.590
25228SOL    HW277126   7.463   4.703   9.645
25229SOL     OW77127   7.655   4.327  11.311
25229SOL    HW177128   7.566   4.332  11.347
25229SOL    HW277129   7.643   4.324  11.217
25230SOL     OW77130   7.672   4.010  12.157
25230SOL    HW177131   7.703   3.973  12.239
25230SOL    HW277132   7.585   3.973  12.145
25231SOL     OW77133   7.449   4.115  11.814
25231SOL    HW177134   7.370   4.142  11.861
25231SOL    HW277135   7.423   4.037  11.766
25232SOL     OW77136   7.773   5.145  12.217
25232SOL    HW177137   7.692   5.094  12.211
25232SOL    HW277138   7.791   5.173  12.127
25233SOL     OW77139   7.663   5.438  11.648
25233SOL    HW177140   7.683   5.519  11.694
25233SOL    HW277141   7.745   5.413  11.605
25234SOL     OW77142   7.670   5.168  11.713
25234SOL    HW177143   7.651   5.262  11.711
25234SOL    HW277144   7.609   5.132  11.777
25235SOL     OW77145   7.712   4.814  12.073
25235SOL    HW177146   7.709   4.726  12.110
25235SOL    HW277147   7.656   4.867  12.129
25236SOL     OW77148   7.570   4.374  11.739
25236SOL    HW177149   7.531   4.289  11.761
25236SOL    HW277150   7.560   4.426  11.818
25237SOL     OW77151   7.503   5.316  11.291
25237SOL    HW177152   7.485   5.224  11.308
25237SOL    HW277153   7.471   5.362  11.368
25238SOL     OW77154   7.606   4.478   0.211
25238SOL    HW177155   7.584   4.448   0.299
25238SOL    HW277156   7.528   4.526   0.182
25239SOL     OW77157   7.644   4.722  12.415
25239SOL    HW177158   7.714   4.658  12.415
25239SOL    HW277159   7.566   4.673  12.441
25240SOL     OW77160   8.013   4.453  11.431
25240SOL    HW177161   8.019   4.546  11.407
25240SOL    HW277162   7.951   4.451  11.503
25241SOL     OW77163   7.537   4.548  11.951
25241SOL    HW177164   7.618   4.543  12.002
25241SOL    HW277165   7.490   4.622  11.988
25242SOL     OW77166   7.968   3.926  12.050
25242SOL    HW177167   7.967   3.937  12.145
25242SOL    HW277168   7.958   4.015  12.016
25243SOL     OW77169   7.809   5.557  12.037
25243SOL    HW177170   7.871   5.489  12.064
25243SOL    HW277171   7.860   5.638  12.040
25244SOL     OW77172   7.745   4.689  11.429
25244SOL    HW177173   7.815   4.724  11.374
25244SOL    HW277174   7.725   4.603  11.392
25245SOL     OW77175   7.674   5.521  12.403
25245SOL    HW177176   7.715   5.439  12.431
25245SOL    HW277177   7.643   5.502  12.314
25246SOL     OW77178   7.829   4.416  11.631
25246SOL    HW177179   7.869   4.348  11.685
25246SOL    HW277180   7.736   4.414  11.654
25247SOL     OW77181   0.012   3.808  11.311
25247SOL    HW177182   0.106   3.793  11.322
25247SOL    HW277183   0.001   3.817  11.216
25248SOL     OW77184   7.987   3.736  11.674
25248SOL    HW177185   7.903   3.759  11.714
25248SOL    HW277186   8.015   3.817  11.631
25249SOL     OW77187   7.739   3.787  11.352
25249SOL    HW177188   7.750   3.859  11.291
25249SOL    HW277189   7.829   3.758  11.371
25250SOL     OW77190   7.923   4.821  11.900
25250SOL    HW177191   7.851   4.818  11.964
25250SOL    HW277192   7.879   4.823  11.815
25251SOL     OW77193   7.994   3.945  12.319
25251SOL    HW177194   8.037   3.893  12.387
25251SOL    HW277195   7.902   3.949  12.346
25252SOL     OW77196   7.850   4.533  12.447
25252SOL    HW177197   7.876   4.517  12.538
25252SOL    HW277198   7.823   4.447  12.414
25253SOL     OW77199   7.794   4.838  11.658
25253SOL    HW177200   7.785   4.917  11.604
25253SOL    HW277201   7.778   4.766  11.598
25254SOL     OW77202  -0.019   4.280  12.044
25254SOL    HW177203   0.015   4.358  11.999
25254SOL    HW277204   0.020   4.284  12.131
25255SOL     OW77205   7.794   5.286  12.464
25255SOL    HW177206   7.792   5.225  12.390
25255SOL    HW277207   7.879   5.270  12.506
25256SOL     OW77208   7.912   4.453   0.202
25256SOL    HW177209   7.999   4.479   0.232
25256SOL    HW277210   7.861   4.444   0.283
25257SOL     OW77211   8.017   4.644  12.246
25257SOL    HW177212   8.011   4.739  12.233
25257SOL    HW277213   7.953   4.625  12.314
25258SOL     OW77214   7.741   3.920  12.406
25258SOL    HW177215   7.677   3.955  12.468
25258SOL    HW277216   7.731   3.825  12.412
25259SOL     OW77217   7.503   5.063  12.436
25259SOL    HW177218   7.534   4.985  12.482
25259SOL    HW277219   7.512   5.134  12.500
25260SOL     OW77220   7.744   3.793  11.794
25260SOL    HW177221   7.730   3.886  11.813
25260SOL    HW277222   7.761   3.754  11.880
25261SOL     OW77223   7.757   4.539  12.121
25261SOL    HW177224   7.852   4.553  12.127
25261SOL    HW277225   7.744   4.447  12.143
25262SOL     OW77226   7.742   4.268  12.165
25262SOL    HW177227   7.718   4.176  12.165
25262SOL    HW277228   7.825   4.272  12.118
25263SOL     OW77229   7.471   5.041  11.361
25263SOL    HW177230   7.382   5.059  11.331
25263SOL    HW277231   7.466   4.953  11.399
25264SOL     OW77232   7.549   5.507  12.123
25264SOL    HW177233   7.519   5.430  12.076
25264SOL    HW277234   7.635   5.526  12.086
25265SOL     OW77235   7.514   4.292  12.317
25265SOL    HW177236   7.587   4.296  12.256
25265SOL    HW277237   7.492   4.199  12.323
25266SOL     OW77238   0.215   4.223  11.477
25266SOL    HW177239   0.167   4.143  11.499
25266SOL    HW277240   0.186   4.287  11.543
25267SOL     OW77241   7.907   4.221  11.321
25267SOL    HW177242   7.959   4.292  11.361
25267SOL    HW277243   7.817   4.251  11.327
25268SOL     OW77244   7.531   5.003  12.175
25268SOL    HW177245   7.513   5.020  12.267
25268SOL    HW277246   7.465   4.939  12.149
25269SOL     OW77247   7.720   4.054  11.883
25269SOL    HW177248   7.635   4.088  11.856
25269SOL    HW277249   7.712   4.043  11.978
25270SOL     OW77250  -0.025   5.304  11.587
25270SOL    HW177251  -0.015   5.217  11.627
25270SOL    HW277252   0.052   5.352  11.615
25271SOL     OW77253   7.738   5.049  11.482
25271SOL    HW177254   7.656   5.052  11.432
25271SOL    HW277255   7.720   5.101  11.560
25272SOL     OW77256   7.505   4.058  11.207
25272SOL    HW177257   7.419   4.041  11.170
25272SOL    HW277258   7.536   4.138  11.164
25273SOL     OW77259   7.503   3.874  11.469
25273SOL    HW177260   7.488   3.950  11.414
25273SOL    HW277261   7.592   3.844  11.446
25274SOL     OW77262   7.763   5.444   0.244
25274SOL    HW177263   7.726   5.425   0.157
25274SOL    HW277264   7.841   5.388   0.249
25275SOL     OW77265   7.536   4.950  11.844
25275SOL    HW177266   7.553   4.904  11.926
25275SOL    HW277267   7.601   4.915  11.783
25276SOL     OW77268   7.486   4.786  11.489
25276SOL    HW177269   7.577   4.776  11.461
25276SOL    HW277270   7.457   4.697  11.509
25277SOL     OW77271   7.642   6.107   0.048
25277SOL    HW177272   7.626   6.179   0.109
25277SOL    HW277273   7.689   6.148  -0.025
25278SOL     OW77274   7.673   5.867   0.993
25278SOL    HW177275   7.699   5.832   1.079
25278SOL    HW277276   7.584   5.835   0.981
25279SOL     OW77277   7.445   5.966   0.645
25279SOL    HW177278   7.368   5.997   0.693
25279SOL    HW277279   7.416   5.887   0.601
25280SOL     OW77280   7.755   7.027   1.048
25280SOL    HW177281   7.676   6.974   1.042
25280SOL    HW277282   7.792   7.026   0.960
25281SOL     OW77283   7.870   5.964   1.522
25281SOL    HW177284   7.926   5.887   1.523
25281SOL    HW277285   7.781   5.929   1.515
25282SOL     OW77286   7.646   7.315   0.495
25282SOL    HW177287   7.682   7.392   0.539
25282SOL    HW277288   7.699   7.306   0.415
25283SOL     OW77289   7.674   7.033   0.521
25283SOL    HW177290   7.650   7.124   0.540
25283SOL    HW277291   7.633   6.982   0.591
25284SOL     OW77292   7.742   6.688   0.935
25284SOL    HW177293   7.704   6.600   0.943
25284SOL    HW277294   7.666   6.746   0.940
25285SOL     OW77295   7.559   6.220   0.576
25285SOL    HW177296   7.518   6.138   0.601
25285SOL    HW277297   7.548   6.277   0.653
25286SOL     OW77298   7.477   7.119   0.130
25286SOL    HW177299   7.390   7.080   0.119
25286SOL    HW277300   7.463   7.192   0.190
25287SOL     OW77301   7.550   6.328   1.585
25287SOL    HW177302   7.637   6.368   1.585
25287SOL    HW277303   7.491   6.401   1.569
25288SOL     OW77304   7.635   6.537   1.301
25288SOL    HW177305   7.721   6.497   1.290
25288SOL    HW277306   7.589   6.517   1.219
25289SOL     OW77307   7.761   5.857   1.845
25289SOL    HW177308   7.776   5.949   1.825
25289SOL    HW277309   7.669   5.853   1.872
25290SOL     OW77310   7.531   6.397   0.779
25290SOL    HW177311   7.605   6.401   0.840
25290SOL    HW277312   7.474   6.469   0.807
25291SOL     OW77313   7.574   7.461   1.583
25291SOL    HW177314   7.579   7.438   1.676
25291SOL    HW277315   7.497   7.414   1.550
25292SOL     OW77316   7.966   5.794   0.884
25292SOL    HW177317   7.965   5.794   0.979
25292SOL    HW277318   7.957   5.886   0.859
25293SOL     OW77319   7.809   7.424   0.862
25293SOL    HW177320   7.869   7.350   0.869
25293SOL    HW277321   7.864   7.501   0.878
25294SOL     OW77322   7.753   6.577   0.254
25294SOL    HW177323   7.844   6.599   0.236
25294SOL    HW277324   7.741   6.490   0.217
25295SOL     OW77325   7.936   6.812   1.745
25295SOL    HW177326   7.898   6.825   1.658
25295SOL    HW277327   7.867   6.840   1.805
25296SOL     OW77328   7.624   5.853   1.507
25296SOL    HW177329   7.536   5.892   1.505
25296SOL    HW277330   7.610   5.764   1.538
25297SOL     OW77331   7.712   7.374   1.220
25297SOL    HW177332   7.750   7.294   1.256
25297SOL    HW277333   7.680   7.349   1.134
25298SOL     OW77334   7.802   6.245   0.449
25298SOL    HW177335   7.868   6.228   0.517
25298SOL    HW277336   7.718   6.237   0.495
25299SOL     OW77337   0.063   5.676   0.053
25299SOL    HW177338   0.141   5.684   0.106
25299SOL    HW277339   0.068   5.588   0.015
25300SOL     OW77340   7.992   5.603   0.511
25300SOL    HW177341   7.907   5.625   0.549
25300SOL    HW277342   8.021   5.683   0.469
25301SOL     OW77343   7.931   6.668   0.738
25301SOL    HW177344   7.863   6.677   0.805
25301SOL    HW277345   7.884   6.679   0.655
25302SOL     OW77346   7.538   6.138   1.388
25302SOL    HW177347   7.631   6.139   1.365
25302SOL    HW277348   7.529   6.208   1.454
25303SOL     OW77349   7.988   5.775   1.150
25303SOL    HW177350   8.035   5.708   1.200
25303SOL    HW277351   7.904   5.784   1.194
25304SOL     OW77352   7.879   6.405   1.285
25304SOL    HW177353   7.974   6.401   1.292
25304SOL    HW277354   7.851   6.314   1.285
25305SOL     OW77355   7.524   7.157   1.362
25305SOL    HW177356   7.490   7.221   1.299
25305SOL    HW277357   7.618   7.155   1.346
25306SOL     OW77358   7.814   6.708   0.492
25306SOL    HW177359   7.794   6.797   0.464
25306SOL    HW277360   7.782   6.652   0.421
25307SOL     OW77361  -0.024   6.146   0.868
25307SOL    HW177362   0.013   6.225   0.827
25307SOL    HW277363   0.017   6.142   0.954
25308SOL     OW77364   7.793   7.119   1.304
25308SOL    HW177365   7.790   7.076   1.218
25308SOL    HW277366   7.886   7.133   1.320
25309SOL     OW77367   7.836   6.339   1.605
25309SOL    HW177368   7.885   6.382   1.535
25309SOL    HW277369   7.861   6.247   1.600
25310SOL     OW77370   7.934   5.689   1.726
25310SOL    HW177371   7.895   5.615   1.679
25310SOL    HW277372   7.860   5.738   1.760
25311SOL     OW77373   7.993   6.508   1.044
25311SOL    HW177374   8.002   6.603   1.029
25311SOL    HW277375   7.935   6.502   1.120
25312SOL     OW77376   7.737   5.781   1.254
25312SOL    HW177377   7.690   5.811   1.331
25312SOL    HW277378   7.720   5.687   1.251
25313SOL     OW77379   7.491   6.895   1.279
25313SOL    HW177380   7.526   6.841   1.349
25313SOL    HW277381   7.496   6.984   1.312
25314SOL     OW77382   7.746   5.663   0.622
25314SOL    HW177383   7.734   5.755   0.645
25314SOL    HW277384   7.762   5.620   0.706
25315SOL     OW77385   7.812   6.515   1.823
25315SOL    HW177386   7.883   6.572   1.795
25315SOL    HW277387   7.816   6.440   1.764
25316SOL     OW77388   7.742   6.397   0.957
25316SOL    HW177389   7.835   6.422   0.959
25316SOL    HW277390   7.741   6.305   0.982
25317SOL     OW77391   7.751   6.121   1.013
25317SOL    HW177392   7.722   6.031   1.004
25317SOL    HW277393   7.827   6.129   0.956
25318SOL     OW77394   7.543   7.360   0.946
25318SOL    HW177395   7.510   7.283   0.900
25318SOL    HW277396   7.627   7.378   0.905
25319SOL     OW77397   7.482   6.134   1.117
25319SOL    HW177398   7.563   6.140   1.066
25319SOL    HW277399   7.511   6.137   1.208
25320SOL     OW77400   7.632   6.109   1.735
25320SOL    HW177401   7.656   6.050   1.663
25320SOL    HW277402   7.594   6.185   1.692
25321SOL     OW77403   7.692   7.136   1.717
25321SOL    HW177404   7.671   7.197   1.788
25321SOL    HW277405   7.702   7.051   1.760
25322SOL     OW77406   7.910   6.025   0.180
25322SOL    HW177407   7.931   6.112   0.213
25322SOL    HW277408   7.820   6.032   0.150
25323SOL     OW77409   7.584   6.730   1.484
25323SOL    HW177410   7.584   6.686   1.569
25323SOL    HW277411   7.600   6.660   1.421
25324SOL     OW77412   7.530   6.872   1.011
25324SOL    HW177413   7.504   6.872   1.103
25324SOL    HW277414   7.468   6.813   0.968
25325SOL     OW77415   7.592   7.385   1.842
25325SOL    HW177416   7.545   7.315   1.887
25325SOL    HW277417   7.640   7.430   1.912
25326SOL     OW77418   7.718   5.918   0.717
25326SOL    HW177419   7.631   5.949   0.692
25326SOL    HW277420   7.711   5.903   0.811
25327SOL     OW77421   7.814   6.888   1.513
25327SOL    HW177422   7.810   6.958   1.447
25327SOL    HW277423   7.736   6.835   1.497
25328SOL     OW77424  -0.008   7.099   0.421
25328SOL    HW177425   0.027   7.036   0.485
25328SOL    HW277426   0.043   7.178   0.436
25329SOL     OW77427   7.740   6.918   0.291
25329SOL    HW177428   7.658   6.927   0.242
25329SOL    HW277429   7.727   6.969   0.371
25330SOL     OW77430   7.566   6.631   1.740
25330SOL    HW177431   7.485   6.602   1.782
25330SOL    HW277432   7.635   6.580   1.783
25331SOL     OW77433   7.513   5.733   0.323
25331SOL    HW177434   7.498   5.819   0.283
25331SOL    HW277435   7.607   5.731   0.340
25332SOL     OW77436   7.829   7.339   1.571
25332SOL    HW177437   7.748   7.381   1.544
25332SOL    HW277438   7.802   7.255   1.609
25333SOL     OW77439   7.679   6.883   1.845
25333SOL    HW177440   7.633   6.813   1.800
25333SOL    HW277441   7.626   6.900   1.923
25334SOL     OW77442   7.574   6.839   0.684
25334SOL    HW177443   7.478   6.842   0.692
25334SOL    HW277444   7.590   6.761   0.631
25335SOL     OW77445   0.108   7.012   1.595
25335SOL    HW177446   0.035   6.951   1.610
25335SOL    HW277447   0.068   7.099   1.603
25336SOL     OW77448   7.794   6.143   1.297
25336SOL    HW177449   7.856   6.086   1.343
25336SOL    HW277450   7.803   6.118   1.205
25337SOL     OW77451   7.496   6.664   0.349
25337SOL    HW177452   7.581   6.657   0.305
25337SOL    HW277453   7.478   6.576   0.380
25338SOL     OW77454   7.649   6.218   1.996
25338SOL    HW177455   7.560   6.206   2.030
25338SOL    HW277456   7.642   6.193   1.904
25339SOL     OW77457   7.676   5.869   2.854
25339SOL    HW177458   7.701   5.837   2.941
25339SOL    HW277459   7.587   5.836   2.841
25340SOL     OW77460   7.452   5.978   2.501
25340SOL    HW177461   7.374   6.003   2.550
25340SOL    HW277462   7.426   5.900   2.452
25341SOL     OW77463   7.752   7.033   2.907
25341SOL    HW177464   7.672   6.981   2.901
25341SOL    HW277465   7.804   7.007   2.831
25342SOL     OW77466   7.866   5.974   3.368
25342SOL    HW177467   7.927   5.914   3.412
25342SOL    HW277468   7.782   5.929   3.371
25343SOL     OW77469   7.660   7.304   2.336
25343SOL    HW177470   7.687   7.383   2.383
25343SOL    HW277471   7.735   7.281   2.281
25344SOL     OW77472   7.671   7.030   2.402
25344SOL    HW177473   7.650   7.123   2.403
25344SOL    HW277474   7.611   6.991   2.465
25345SOL     OW77475   7.715   6.679   2.760
25345SOL    HW177476   7.700   6.590   2.794
25345SOL    HW277477   7.654   6.734   2.811
25346SOL     OW77478   7.585   6.233   2.428
25346SOL    HW177479   7.540   6.151   2.448
25346SOL    HW277480   7.566   6.290   2.503
25347SOL     OW77481   7.500   7.174   1.981
25347SOL    HW177482   7.478   7.082   1.999
25347SOL    HW277483   7.467   7.222   2.057
25348SOL     OW77484   7.562   6.332   3.436
25348SOL    HW177485   7.648   6.373   3.445
25348SOL    HW277486   7.500   6.405   3.439
25349SOL     OW77487   7.637   6.541   3.146
25349SOL    HW177488   7.722   6.499   3.132
25349SOL    HW277489   7.575   6.487   3.098
25350SOL     OW77490   7.767   5.864   3.689
25350SOL    HW177491   7.810   5.931   3.743
25350SOL    HW277492   7.677   5.861   3.722
25351SOL     OW77493   8.014   6.346   2.103
25351SOL    HW177494   8.021   6.440   2.089
25351SOL    HW277495   7.962   6.336   2.182
25352SOL     OW77496   7.534   6.415   2.627
25352SOL    HW177497   7.608   6.403   2.687
25352SOL    HW277498   7.483   6.487   2.665
25353SOL     OW77499   7.571   7.454   3.447
25353SOL    HW177500   7.579   7.435   3.541
25353SOL    HW277501   7.488   7.414   3.421
25354SOL     OW77502   7.968   5.778   2.746
25354SOL    HW177503   7.966   5.779   2.842
25354SOL    HW277504   7.944   5.867   2.721
25355SOL     OW77505   7.789   7.402   2.722
25355SOL    HW177506   7.846   7.325   2.718
25355SOL    HW277507   7.848   7.475   2.737
25356SOL     OW77508   7.743   6.531   2.109
25356SOL    HW177509   7.791   6.553   2.029
25356SOL    HW277510   7.707   6.444   2.091
25357SOL     OW77511   7.956   6.833   3.598
25357SOL    HW177512   7.914   6.836   3.512
25357SOL    HW277513   7.885   6.851   3.660
25358SOL     OW77514   7.622   5.853   3.369
25358SOL    HW177515   7.537   5.894   3.388
25358SOL    HW277516   7.613   5.764   3.401
25359SOL     OW77517   7.705   7.375   3.087
25359SOL    HW177518   7.751   7.305   3.134
25359SOL    HW277519   7.687   7.339   3.001
25360SOL     OW77520   7.855   6.229   2.344
25360SOL    HW177521   7.848   6.166   2.273
25360SOL    HW277522   7.766   6.243   2.374
25361SOL     OW77523   0.012   5.686   1.994
25361SOL    HW177524   0.103   5.663   2.010
25361SOL    HW277525   0.000   5.674   1.899
25362SOL     OW77526   8.000   5.611   2.401
25362SOL    HW177527   7.908   5.628   2.421
25362SOL    HW277528   8.024   5.682   2.340
25363SOL     OW77529   7.738   5.643   2.047
25363SOL    HW177530   7.784   5.714   2.001
25363SOL    HW277531   7.808   5.584   2.075
25364SOL     OW77532   7.923   6.691   2.589
25364SOL    HW177533   7.851   6.686   2.651
25364SOL    HW277534   7.881   6.688   2.503
25365SOL     OW77535   7.532   6.144   3.243
25365SOL    HW177536   7.626   6.136   3.223
25365SOL    HW277537   7.528   6.211   3.311
25366SOL     OW77538   7.987   5.775   3.011
25366SOL    HW177539   8.045   5.738   3.078
25366SOL    HW277540   7.903   5.785   3.056
25367SOL     OW77541   7.872   6.396   3.125
25367SOL    HW177542   7.926   6.409   3.203
25367SOL    HW277543   7.842   6.305   3.133
25368SOL     OW77544   7.525   7.161   3.225
25368SOL    HW177545   7.498   7.233   3.168
25368SOL    HW277546   7.620   7.155   3.214
25369SOL     OW77547   7.814   6.692   2.332
25369SOL    HW177548   7.789   6.773   2.288
25369SOL    HW277549   7.790   6.623   2.270
25370SOL     OW77550  -0.006   6.162   2.718
25370SOL    HW177551   0.020   6.254   2.713
25370SOL    HW277552   0.022   6.134   2.806
25371SOL     OW77553   7.794   7.119   3.167
25371SOL    HW177554   7.788   7.077   3.081
25371SOL    HW277555   7.887   7.138   3.178
25372SOL     OW77556   7.860   6.323   3.463
25372SOL    HW177557   7.955   6.340   3.457
25372SOL    HW277558   7.853   6.228   3.463
25373SOL     OW77559   7.935   5.690   3.576
25373SOL    HW177560   7.887   5.615   3.541
25373SOL    HW277561   7.867   5.747   3.613
25374SOL     OW77562   7.982   6.485   2.893
25374SOL    HW177563   8.032   6.563   2.916
25374SOL    HW277564   7.945   6.455   2.976
25375SOL     OW77565   7.734   5.786   3.113
25375SOL    HW177566   7.688   5.815   3.192
25375SOL    HW277567   7.719   5.691   3.111
25376SOL     OW77568   7.506   6.900   3.137
25376SOL    HW177569   7.530   6.842   3.209
25376SOL    HW277570   7.503   6.987   3.177
25377SOL     OW77571   7.739   5.655   2.483
25377SOL    HW177572   7.723   5.747   2.504
25377SOL    HW277573   7.754   5.613   2.567
25378SOL     OW77574   7.794   6.501   3.665
25378SOL    HW177575   7.881   6.518   3.702
25378SOL    HW277576   7.810   6.433   3.599
25379SOL     OW77577   7.737   6.397   2.807
25379SOL    HW177578   7.826   6.427   2.826
25379SOL    HW277579   7.735   6.306   2.837
25380SOL     OW77580   7.753   6.126   2.860
25380SOL    HW177581   7.726   6.034   2.856
25380SOL    HW277582   7.832   6.129   2.806
25381SOL     OW77583   7.471   6.896   2.046
25381SOL    HW177584   7.383   6.917   2.015
25381SOL    HW277585   7.462   6.811   2.088
25382SOL     OW77586   7.530   7.363   2.804
25382SOL    HW177587   7.501   7.285   2.756
25382SOL    HW277588   7.619   7.379   2.771
25383SOL     OW77589   7.485   6.149   2.973
25383SOL    HW177590   7.569   6.143   2.928
25383SOL    HW277591   7.508   6.143   3.066
25384SOL     OW77592   7.617   6.116   3.602
25384SOL    HW177593   7.656   6.052   3.543
25384SOL    HW277594   7.588   6.187   3.545
25385SOL     OW77595   0.174   6.164   2.283
25385SOL    HW177596   0.235   6.091   2.278
25385SOL    HW277597   0.155   6.185   2.191
25386SOL     OW77598   7.686   7.134   3.577
25386SOL    HW177599   7.668   7.194   3.649
25386SOL    HW277600   7.705   7.050   3.620
25387SOL     OW77601   7.875   6.103   2.093
25387SOL    HW177602   7.937   6.172   2.069
25387SOL    HW277603   7.791   6.132   2.057
25388SOL     OW77604   7.583   6.727   3.338
25388SOL    HW177605   7.582   6.682   3.422
25388SOL    HW277606   7.602   6.658   3.274
25389SOL     OW77607   7.537   6.852   2.878
25389SOL    HW177608   7.522   6.866   2.971
25389SOL    HW277609   7.458   6.806   2.848
25390SOL     OW77610   7.594   7.387   3.706
25390SOL    HW177611   7.546   7.316   3.750
25390SOL    HW277612   7.639   7.432   3.777
25391SOL     OW77613   7.719   5.913   2.579
25391SOL    HW177614   7.635   5.947   2.550
25391SOL    HW277615   7.707   5.898   2.673
25392SOL     OW77616   7.814   6.880   3.370
25392SOL    HW177617   7.804   6.957   3.314
25392SOL    HW277618   7.734   6.830   3.356
25393SOL     OW77619  -0.012   7.147   2.276
25393SOL    HW177620  -0.016   7.070   2.332
25393SOL    HW277621   0.069   7.192   2.302
25394SOL     OW77622   7.726   6.908   2.170
25394SOL    HW177623   7.640   6.911   2.129
25394SOL    HW277624   7.717   6.961   2.249
25395SOL     OW77625   7.557   6.620   3.586
25395SOL    HW177626   7.481   6.596   3.639
25395SOL    HW277627   7.631   6.577   3.630
25396SOL     OW77628   7.502   5.917   1.907
25396SOL    HW177629   7.419   5.891   1.867
25396SOL    HW277630   7.528   5.996   1.859
25397SOL     OW77631   7.505   5.739   2.157
25397SOL    HW177632   7.491   5.812   2.097
25397SOL    HW277633   7.592   5.706   2.134
25398SOL     OW77634   7.823   7.336   3.425
25398SOL    HW177635   7.736   7.375   3.410
25398SOL    HW277636   7.804   7.251   3.464
25399SOL     OW77637   7.706   6.891   3.715
25399SOL    HW177638   7.636   6.830   3.691
25399SOL    HW277639   7.697   6.902   3.809
25400SOL     OW77640   7.533   6.818   2.539
25400SOL    HW177641   7.524   6.770   2.621
25400SOL    HW277642   7.601   6.772   2.491
25401SOL     OW77643   0.095   7.024   3.409
25401SOL    HW177644   0.047   6.964   3.465
25401SOL    HW277645   0.167   7.056   3.463
25402SOL     OW77646   7.791   6.136   3.157
25402SOL    HW177647   7.837   6.081   3.220
25402SOL    HW277648   7.814   6.099   3.072
25403SOL     OW77649   7.488   6.647   2.175
25403SOL    HW177650   7.580   6.636   2.149
25403SOL    HW277651   7.459   6.559   2.199
25404SOL     OW77652   7.654   6.210   3.860
25404SOL    HW177653   7.567   6.202   3.900
25404SOL    HW277654   7.639   6.190   3.768
25405SOL     OW77655   7.673   5.869   4.717
25405SOL    HW177656   7.699   5.835   4.803
25405SOL    HW277657   7.584   5.835   4.705
25406SOL     OW77658   7.447   5.977   4.364
25406SOL    HW177659   7.367   6.002   4.410
25406SOL    HW277660   7.424   5.898   4.315
25407SOL     OW77661   7.744   7.031   4.781
25407SOL    HW177662   7.668   6.974   4.767
25407SOL    HW277663   7.796   7.022   4.701
25408SOL     OW77664   7.862   5.988   5.233
25408SOL    HW177665   7.933   5.927   5.255
25408SOL    HW277666   7.783   5.934   5.237
25409SOL     OW77667   7.668   7.304   4.202
25409SOL    HW177668   7.679   7.384   4.254
25409SOL    HW277669   7.757   7.281   4.175
25410SOL     OW77670   7.672   7.025   4.251
25410SOL    HW177671   7.650   7.118   4.258
25410SOL    HW277672   7.617   6.982   4.317
25411SOL     OW77673   7.710   6.676   4.627
25411SOL    HW177674   7.699   6.586   4.659
25411SOL    HW277675   7.647   6.727   4.679
25412SOL     OW77676   7.571   6.234   4.287
25412SOL    HW177677   7.532   6.149   4.309
25412SOL    HW277678   7.559   6.287   4.366
25413SOL     OW77679   7.496   7.173   3.839
25413SOL    HW177680   7.478   7.081   3.857
25413SOL    HW277681   7.467   7.220   3.917
25414SOL     OW77682   7.559   6.329   5.299
25414SOL    HW177683   7.647   6.367   5.304
25414SOL    HW277684   7.501   6.404   5.295
25415SOL     OW77685   7.644   6.539   5.012
25415SOL    HW177686   7.730   6.497   5.002
25415SOL    HW277687   7.587   6.490   4.953
25416SOL     OW77688   7.759   5.867   5.550
25416SOL    HW177689   7.805   5.930   5.606
25416SOL    HW277690   7.671   5.861   5.586
25417SOL     OW77691   8.005   6.328   3.977
25417SOL    HW177692   8.027   6.420   3.987
25417SOL    HW277693   7.945   6.309   4.049
25418SOL     OW77694   7.534   6.412   4.494
25418SOL    HW177695   7.608   6.400   4.554
25418SOL    HW277696   7.485   6.485   4.531
25419SOL     OW77697   7.652   7.348   5.297
25419SOL    HW177698   7.627   7.370   5.387
25419SOL    HW277699   7.579   7.379   5.244
25420SOL     OW77700   7.970   5.801   4.605
25420SOL    HW177701   7.966   5.793   4.700
25420SOL    HW277702   7.956   5.894   4.588
25421SOL     OW77703   7.817   7.421   4.594
25421SOL    HW177704   7.887   7.359   4.618
25421SOL    HW277705   7.859   7.507   4.599
25422SOL     OW77706   7.745   6.549   3.985
25422SOL    HW177707   7.834   6.563   3.952
25422SOL    HW277708   7.724   6.459   3.961
25423SOL     OW77709   7.947   6.841   5.460
25423SOL    HW177710   7.899   6.834   5.377
25423SOL    HW277711   7.878   6.845   5.527
25424SOL     OW77712   7.627   5.850   5.228
25424SOL    HW177713   7.543   5.891   5.249
25424SOL    HW277714   7.618   5.760   5.261
25425SOL     OW77715   7.689   7.384   4.929
25425SOL    HW177716   7.742   7.307   4.951
25425SOL    HW277717   7.659   7.367   4.840
25426SOL     OW77718   7.828   6.276   4.178
25426SOL    HW177719   7.875   6.219   4.239
25426SOL    HW277720   7.736   6.268   4.204
25427SOL     OW77721   0.010   5.691   3.851
25427SOL    HW177722   0.100   5.662   3.867
25427SOL    HW277723   0.002   5.692   3.756
25428SOL     OW77724   7.969   5.600   4.201
25428SOL    HW177725   7.896   5.624   4.258
25428SOL    HW277726   8.007   5.684   4.174
25429SOL     OW77727   7.744   5.636   3.915
25429SOL    HW177728   7.819   5.685   3.881
25429SOL    HW277729   7.783   5.566   3.968
25430SOL     OW77730   7.917   6.718   4.462
25430SOL    HW177731   7.846   6.699   4.524
25430SOL    HW277732   7.878   6.705   4.376
25431SOL     OW77733   7.531   6.140   5.107
25431SOL    HW177734   7.624   6.134   5.084
25431SOL    HW277735   7.527   6.207   5.175
25432SOL     OW77736   7.986   5.777   4.870
25432SOL    HW177737   8.040   5.722   4.928
25432SOL    HW277738   7.902   5.783   4.916
25433SOL     OW77739   7.881   6.394   4.990
25433SOL    HW177740   7.963   6.382   5.039
25433SOL    HW277741   7.838   6.309   4.995
25434SOL     OW77742   7.519   7.164   5.084
25434SOL    HW177743   7.468   7.222   5.028
25434SOL    HW277744   7.609   7.173   5.052
25435SOL     OW77745   7.800   6.703   4.212
25435SOL    HW177746   7.779   6.783   4.163
25435SOL    HW277747   7.776   6.632   4.154
25436SOL     OW77748  -0.024   6.139   4.586
25436SOL    HW177749   0.017   6.215   4.545
25436SOL    HW277750   0.015   6.137   4.674
25437SOL     OW77751   7.796   7.147   5.021
25437SOL    HW177752   7.779   7.093   4.944
25437SOL    HW277753   7.892   7.158   5.023
25438SOL     OW77754   7.853   6.320   5.325
25438SOL    HW177755   7.944   6.344   5.307
25438SOL    HW277756   7.851   6.225   5.318
25439SOL     OW77757   7.933   5.691   5.446
25439SOL    HW177758   7.894   5.617   5.400
25439SOL    HW277759   7.858   5.745   5.473
25440SOL     OW77760   7.982   6.502   4.758
25440SOL    HW177761   8.019   6.587   4.780
25440SOL    HW277762   7.946   6.470   4.841
25441SOL     OW77763   7.733   5.782   4.975
25441SOL    HW177764   7.692   5.811   5.056
25441SOL    HW277765   7.719   5.687   4.973
25442SOL     OW77766   7.509   6.897   5.002
25442SOL    HW177767   7.534   6.838   5.073
25442SOL    HW277768   7.503   6.983   5.043
25443SOL     OW77769   7.748   5.659   4.351
25443SOL    HW177770   7.733   5.752   4.372
25443SOL    HW277771   7.763   5.618   4.436
25444SOL     OW77772   7.793   6.501   5.523
25444SOL    HW177773   7.854   6.477   5.594
25444SOL    HW277774   7.811   6.436   5.455
25445SOL     OW77775   7.735   6.399   4.680
25445SOL    HW177776   7.826   6.426   4.692
25445SOL    HW277777   7.734   6.306   4.703
25446SOL     OW77778   7.745   6.126   4.724
25446SOL    HW177779   7.718   6.034   4.720
25446SOL    HW277780   7.824   6.130   4.670
25447SOL     OW77781   7.460   6.899   3.913
25447SOL    HW177782   7.373   6.917   3.879
25447SOL    HW277783   7.453   6.811   3.950
25448SOL     OW77784   7.554   7.360   4.676
25448SOL    HW177785   7.520   7.286   4.627
25448SOL    HW277786   7.638   7.380   4.635
25449SOL     OW77787   7.483   6.150   4.836
25449SOL    HW177788   7.566   6.143   4.788
25449SOL    HW277789   7.508   6.142   4.928
25450SOL     OW77790   7.616   6.116   5.469
25450SOL    HW177791   7.665   6.054   5.415
25450SOL    HW277792   7.588   6.184   5.408
25451SOL     OW77793   0.210   6.091   4.024
25451SOL    HW177794   0.170   6.007   4.045
25451SOL    HW277795   0.187   6.148   4.098
25452SOL     OW77796   7.684   7.114   5.471
25452SOL    HW177797   7.648   7.164   5.544
25452SOL    HW277798   7.693   7.025   5.505
25453SOL     OW77799   7.902   6.088   3.861
25453SOL    HW177800   7.957   6.153   3.904
25453SOL    HW277801   7.813   6.122   3.870
25454SOL     OW77802   7.598   6.727   5.203
25454SOL    HW177803   7.592   6.682   5.287
25454SOL    HW277804   7.612   6.657   5.139
25455SOL     OW77805   7.529   6.857   4.738
25455SOL    HW177806   7.513   6.867   4.832
25455SOL    HW277807   7.456   6.803   4.708
25456SOL     OW77808   7.599   7.404   5.562
25456SOL    HW177809   7.547   7.335   5.602
25456SOL    HW277810   7.643   7.447   5.635
25457SOL     OW77811   7.717   5.918   4.441
25457SOL    HW177812   7.630   5.949   4.415
25457SOL    HW277813   7.709   5.902   4.535
25458SOL     OW77814   7.793   6.918   5.222
25458SOL    HW177815   7.845   6.901   5.143
25458SOL    HW277816   7.722   6.854   5.218
25459SOL     OW77817  -0.007   7.148   4.133
25459SOL    HW177818  -0.005   7.079   4.199
25459SOL    HW277819   0.051   7.216   4.168
25460SOL     OW77820   7.717   6.921   4.007
25460SOL    HW177821   7.625   6.916   3.982
25460SOL    HW277822   7.717   6.970   4.089
25461SOL     OW77823   7.560   6.637   5.461
25461SOL    HW177824   7.483   6.605   5.507
25461SOL    HW277825   7.632   6.583   5.495
25462SOL     OW77826   7.508   5.916   3.772
25462SOL    HW177827   7.419   5.897   3.744
25462SOL    HW277828   7.532   5.997   3.726
25463SOL     OW77829   7.507   5.738   4.018
25463SOL    HW177830   7.494   5.814   3.962
25463SOL    HW277831   7.595   5.707   3.995
25464SOL     OW77832   7.692   6.867   5.575
25464SOL    HW177833   7.635   6.797   5.543
25464SOL    HW277834   7.674   6.872   5.669
25465SOL     OW77835   7.539   6.819   4.399
25465SOL    HW177836   7.531   6.772   4.482
25465SOL    HW277837   7.605   6.769   4.350
25466SOL     OW77838   0.040   7.066   5.316
25466SOL    HW177839   0.022   6.982   5.358
25466SOL    HW277840   0.129   7.088   5.345
25467SOL     OW77841   7.786   6.140   5.016
25467SOL    HW177842   7.833   6.086   5.079
25467SOL    HW277843   7.809   6.103   4.930
25468SOL     OW77844   7.486   6.646   4.034
25468SOL    HW177845   7.578   6.634   4.009
25468SOL    HW277846   7.456   6.558   4.059
25469SOL     OW77847   7.648   6.219   5.723
25469SOL    HW177848   7.561   6.208   5.761
25469SOL    HW277849   7.637   6.195   5.631
25470SOL     OW77850   7.681   5.864   6.576
25470SOL    HW177851   7.705   5.834   6.663
25470SOL    HW277852   7.592   5.832   6.563
25471SOL     OW77853   7.450   5.975   6.227
25471SOL    HW177854   7.370   6.000   6.272
25471SOL    HW277855   7.425   5.897   6.176
25472SOL     OW77856   7.748   7.032   6.638
25472SOL    HW177857   7.672   6.975   6.625
25472SOL    HW277858   7.799   7.023   6.558
25473SOL     OW77859   7.870   5.967   7.094
25473SOL    HW177860   7.925   5.901   7.135
25473SOL    HW277861   7.783   5.928   7.092
25474SOL     OW77862   7.678   7.304   6.054
25474SOL    HW177863   7.689   7.382   6.108
25474SOL    HW277864   7.766   7.271   6.040
25475SOL     OW77865   7.671   7.024   6.116
25475SOL    HW177866   7.644   7.116   6.125
25475SOL    HW277867   7.617   6.977   6.179
25476SOL     OW77868   7.715   6.676   6.494
25476SOL    HW177869   7.703   6.587   6.525
25476SOL    HW277870   7.651   6.728   6.542
25477SOL     OW77871   7.568   6.233   6.151
25477SOL    HW177872   7.530   6.148   6.171
25477SOL    HW277873   7.557   6.285   6.231
25478SOL     OW77874   7.507   7.177   5.692
25478SOL    HW177875   7.484   7.086   5.709
25478SOL    HW277876   7.477   7.224   5.769
25479SOL     OW77877   7.554   6.327   7.164
25479SOL    HW177878   7.642   6.366   7.166
25479SOL    HW277879   7.495   6.402   7.154
25480SOL     OW77880   7.639   6.539   6.876
25480SOL    HW177881   7.726   6.500   6.867
25480SOL    HW277882   7.584   6.490   6.814
25481SOL     OW77883   7.762   5.851   7.439
25481SOL    HW177884   7.802   5.933   7.468
25481SOL    HW277885   7.669   5.862   7.455
25482SOL     OW77886   7.973   6.339   5.832
25482SOL    HW177887   8.052   6.387   5.860
25482SOL    HW277888   7.925   6.322   5.913
25483SOL     OW77889   7.537   6.408   6.360
25483SOL    HW177890   7.613   6.400   6.419
25483SOL    HW277891   7.488   6.483   6.396
25484SOL     OW77892   7.573   7.455   7.169
25484SOL    HW177893   7.574   7.438   7.264
25484SOL    HW277894   7.501   7.402   7.136
25485SOL     OW77895   0.067   5.844   6.494
25485SOL    HW177896   0.011   5.829   6.570
25485SOL    HW277897   0.014   5.899   6.436
25486SOL     OW77898   7.819   7.421   6.461
25486SOL    HW177899   7.887   7.359   6.485
25486SOL    HW277900   7.861   7.507   6.463
25487SOL     OW77901   7.748   6.548   5.846
25487SOL    HW177902   7.841   6.557   5.822
25487SOL    HW277903   7.727   6.457   5.827
25488SOL     OW77904   7.951   6.837   7.336
25488SOL    HW177905   7.913   6.841   7.249
25488SOL    HW277906   7.877   6.848   7.396
25489SOL     OW77907   7.625   5.853   7.091
25489SOL    HW177908   7.537   5.888   7.090
25489SOL    HW277909   7.615   5.763   7.121
25490SOL     OW77910   7.704   7.372   6.809
25490SOL    HW177911   7.749   7.297   6.849
25490SOL    HW277912   7.689   7.346   6.718
25491SOL     OW77913   7.826   6.282   6.052
25491SOL    HW177914   7.865   6.202   6.086
25491SOL    HW277915   7.734   6.276   6.077
25492SOL     OW77916   0.004   5.690   5.712
25492SOL    HW177917   0.095   5.661   5.723
25492SOL    HW277918  -0.008   5.691   5.617
25493SOL     OW77919   8.005   5.717   6.156
25493SOL    HW177920   7.920   5.673   6.150
25493SOL    HW277921   8.040   5.715   6.067
25494SOL     OW77922   7.745   5.627   5.777
25494SOL    HW177923   7.824   5.674   5.749
25494SOL    HW277924   7.777   5.540   5.803
25495SOL     OW77925   7.919   6.706   6.320
25495SOL    HW177926   7.849   6.692   6.385
25495SOL    HW277927   7.875   6.698   6.236
25496SOL     OW77928   7.535   6.140   6.969
25496SOL    HW177929   7.629   6.137   6.948
25496SOL    HW277930   7.528   6.207   7.037
25497SOL     OW77931   8.008   5.740   6.754
25497SOL    HW177932   8.028   5.687   6.831
25497SOL    HW277933   7.920   5.774   6.771
25498SOL     OW77934   7.880   6.401   6.857
25498SOL    HW177935   7.969   6.396   6.893
25498SOL    HW277936   7.845   6.313   6.866
25499SOL     OW77937   7.522   7.162   6.949
25499SOL    HW177938   7.495   7.228   6.885
25499SOL    HW277939   7.617   7.154   6.937
25500SOL     OW77940   7.787   6.703   6.078
25500SOL    HW177941   7.776   6.781   6.023
25500SOL    HW277942   7.770   6.629   6.019
25501SOL     OW77943  -0.021   6.148   6.452
25501SOL    HW177944   0.019   6.225   6.412
25501SOL    HW277945   0.017   6.144   6.540
25502SOL     OW77946   7.786   7.117   6.896
25502SOL    HW177947   7.782   7.076   6.810
25502SOL    HW277948   7.879   7.139   6.907
25503SOL     OW77949   7.842   6.328   7.193
25503SOL    HW177950   7.925   6.356   7.157
25503SOL    HW277951   7.846   6.233   7.193
25504SOL     OW77952   7.934   5.696   7.303
25504SOL    HW177953   7.891   5.619   7.267
25504SOL    HW277954   7.864   5.745   7.345
25505SOL     OW77955   7.989   6.504   6.623
25505SOL    HW177956   8.007   6.598   6.627
25505SOL    HW277957   7.947   6.484   6.707
25506SOL     OW77958   7.746   5.788   6.832
25506SOL    HW177959   7.698   5.817   6.909
25506SOL    HW277960   7.732   5.693   6.829
25507SOL     OW77961   7.498   6.899   6.861
25507SOL    HW177962   7.528   6.842   6.931
25507SOL    HW277963   7.500   6.987   6.899
25508SOL     OW77964   7.737   5.651   6.205
25508SOL    HW177965   7.723   5.744   6.223
25508SOL    HW277966   7.751   5.611   6.291
25509SOL     OW77967   7.808   6.506   7.407
25509SOL    HW177968   7.902   6.524   7.414
25509SOL    HW277969   7.802   6.435   7.343
25510SOL     OW77970   7.741   6.399   6.545
25510SOL    HW177971   7.833   6.423   6.553
25510SOL    HW277972   7.739   6.306   6.568
25511SOL     OW77973   7.749   6.123   6.591
25511SOL    HW177974   7.722   6.031   6.583
25511SOL    HW277975   7.826   6.130   6.535
25512SOL     OW77976   7.461   6.902   5.775
25512SOL    HW177977   7.373   6.921   5.741
25512SOL    HW277978   7.453   6.813   5.812
25513SOL     OW77979   7.546   7.365   6.530
25513SOL    HW177980   7.515   7.288   6.481
25513SOL    HW277981   7.634   7.381   6.496
25514SOL     OW77982   7.484   6.151   6.699
25514SOL    HW177983   7.567   6.144   6.650
25514SOL    HW277984   7.509   6.143   6.791
25515SOL     OW77985   7.622   6.111   7.325
25515SOL    HW177986   7.648   6.045   7.260
25515SOL    HW277987   7.588   6.183   7.273
25516SOL     OW77988   0.205   6.104   5.883
25516SOL    HW177989   0.178   6.012   5.891
25516SOL    HW277990   0.184   6.143   5.967
25517SOL     OW77991   7.682   7.130   7.310
25517SOL    HW177992   7.658   7.176   7.391
25517SOL    HW277993   7.699   7.040   7.338
25518SOL     OW77994   7.893   6.085   5.727
25518SOL    HW177995   7.949   6.154   5.763
25518SOL    HW277996   7.804   6.120   5.736
25519SOL     OW77997   7.582   6.728   7.064
25519SOL    HW177998   7.585   6.683   7.148
25519SOL    HW277999   7.601   6.659   7.000
25520SOL     OW78000   7.530   6.858   6.598
25520SOL    HW178001   7.511   6.869   6.691
25520SOL    HW278002   7.459   6.802   6.566
25521SOL     OW78003   7.580   7.402   7.435
25521SOL    HW178004   7.539   7.324   7.471
25521SOL    HW278005   7.636   7.434   7.505
25522SOL     OW78006   7.718   5.914   6.302
25522SOL    HW178007   7.632   5.944   6.273
25522SOL    HW278008   7.708   5.898   6.396
25523SOL     OW78009   7.813   6.884   7.105
25523SOL    HW178010   7.815   6.953   7.039
25523SOL    HW278011   7.736   6.832   7.084
25524SOL     OW78012  -0.013   7.154   6.000
25524SOL    HW178013   0.001   7.080   6.058
25524SOL    HW278014   0.047   7.222   6.031
25525SOL     OW78015   7.717   6.921   5.872
25525SOL    HW178016   7.625   6.920   5.846
25525SOL    HW278017   7.717   6.969   5.955
25526SOL     OW78018   7.568   6.635   7.325
25526SOL    HW178019   7.487   6.607   7.368
25526SOL    HW278020   7.636   6.582   7.366
25527SOL     OW78021   7.503   5.920   5.639
25527SOL    HW178022   7.420   5.895   5.599
25527SOL    HW278023   7.530   5.998   5.592
25528SOL     OW78024   7.511   5.739   5.877
25528SOL    HW178025   7.497   5.812   5.817
25528SOL    HW278026   7.599   5.706   5.856
25529SOL     OW78027   7.835   7.343   7.159
25529SOL    HW178028   7.749   7.378   7.136
25529SOL    HW278029   7.819   7.253   7.185
25530SOL     OW78030   7.675   6.875   7.428
25530SOL    HW178031   7.643   6.799   7.380
25530SOL    HW278032   7.612   6.887   7.499
25531SOL     OW78033   7.541   6.816   6.258
25531SOL    HW178034   7.534   6.768   6.340
25531SOL    HW278035   7.605   6.766   6.207
25532SOL     OW78036   0.095   7.038   7.136
25532SOL    HW178037   0.048   6.972   7.187
25532SOL    HW278038   0.173   7.057   7.188
25533SOL     OW78039   7.793   6.141   6.883
25533SOL    HW178040   7.845   6.083   6.939
25533SOL    HW278041   7.809   6.110   6.794
25534SOL     OW78042   7.487   6.647   5.896
25534SOL    HW178043   7.578   6.635   5.870
25534SOL    HW278044   7.457   6.559   5.920
25535SOL     OW78045   7.649   6.210   7.584
25535SOL    HW178046   7.561   6.203   7.621
25535SOL    HW278047   7.639   6.189   7.492
25536SOL     OW78048   7.675   5.867   8.442
25536SOL    HW178049   7.699   5.833   8.529
25536SOL    HW278050   7.586   5.833   8.428
25537SOL     OW78051   7.449   5.975   8.090
25537SOL    HW178052   7.368   6.002   8.135
25537SOL    HW278053   7.423   5.898   8.040
25538SOL     OW78054   7.751   7.039   8.484
25538SOL    HW178055   7.669   6.990   8.482
25538SOL    HW278056   7.807   6.992   8.422
25539SOL     OW78057   7.886   5.938   8.944
25539SOL    HW178058   7.914   5.849   8.966
25539SOL    HW278059   7.791   5.936   8.955
25540SOL     OW78060   7.660   7.316   7.919
25540SOL    HW178061   7.696   7.384   7.976
25540SOL    HW278062   7.700   7.332   7.834
25541SOL     OW78063   7.695   7.041   7.993
25541SOL    HW178064   7.653   7.127   7.995
25541SOL    HW278065   7.641   6.987   8.050
25542SOL     OW78066   7.731   6.683   8.367
25542SOL    HW178067   7.711   6.592   8.390
25542SOL    HW278068   7.658   6.733   8.404
25543SOL     OW78069   7.569   6.232   8.013
25543SOL    HW178070   7.528   6.148   8.033
25543SOL    HW278071   7.557   6.284   8.093
25544SOL     OW78072   7.511   7.174   7.565
25544SOL    HW178073   7.485   7.083   7.576
25544SOL    HW278074   7.470   7.220   7.638
25545SOL     OW78075   7.547   6.336   9.011
25545SOL    HW178076   7.630   6.379   9.032
25545SOL    HW278077   7.484   6.408   9.006
25546SOL     OW78078   7.638   6.542   8.738
25546SOL    HW178079   7.723   6.501   8.726
25546SOL    HW278080   7.579   6.492   8.682
25547SOL     OW78081   7.752   5.851   9.289
25547SOL    HW178082   7.783   5.941   9.275
25547SOL    HW278083   7.659   5.862   9.312
25548SOL     OW78084   7.991   6.318   7.704
25548SOL    HW178085   8.040   6.400   7.708
25548SOL    HW278086   7.934   6.321   7.780
25549SOL     OW78087   7.539   6.406   8.221
25549SOL    HW178088   7.613   6.400   8.282
25549SOL    HW278089   7.487   6.480   8.253
25550SOL     OW78090   7.576   7.458   9.028
25550SOL    HW178091   7.577   7.438   9.122
25550SOL    HW278092   7.503   7.407   8.994
25551SOL     OW78093   7.973   5.785   8.341
25551SOL    HW178094   7.966   5.800   8.435
25551SOL    HW278095   7.952   5.869   8.301
25552SOL     OW78096   7.815   7.380   8.313
25552SOL    HW178097   7.821   7.285   8.325
25552SOL    HW278098   7.899   7.414   8.344
25553SOL     OW78099   7.741   6.538   7.698
25553SOL    HW178100   7.782   6.550   7.613
25553SOL    HW278101   7.724   6.444   7.704
25554SOL     OW78102   7.950   6.828   9.191
25554SOL    HW178103   7.910   6.836   9.105
25554SOL    HW278104   7.879   6.846   9.253
25555SOL     OW78105   7.620   5.869   8.971
25555SOL    HW178106   7.530   5.902   8.967
25555SOL    HW278107   7.610   5.777   8.998
25556SOL     OW78108   7.720   7.382   8.667
25556SOL    HW178109   7.752   7.302   8.708
25556SOL    HW278110   7.677   7.353   8.587
25557SOL     OW78111   7.822   6.294   7.916
25557SOL    HW178112   7.870   6.220   7.953
25557SOL    HW278113   7.731   6.279   7.941
25558SOL     OW78114   0.013   5.680   7.580
25558SOL    HW178115   0.105   5.658   7.591
25558SOL    HW278116   0.001   5.688   7.485
25559SOL     OW78117   8.007   5.635   7.990
25559SOL    HW178118   7.912   5.642   8.003
25559SOL    HW278119   8.025   5.694   7.917
25560SOL     OW78120   7.739   5.641   7.635
25560SOL    HW178121   7.775   5.713   7.583
25560SOL    HW278122   7.814   5.585   7.654
25561SOL     OW78123   7.922   6.725   8.179
25561SOL    HW178124   7.855   6.705   8.245
25561SOL    HW278125   7.878   6.709   8.095
25562SOL     OW78126   7.538   6.138   8.829
25562SOL    HW178127   7.632   6.135   8.811
25562SOL    HW278128   7.529   6.207   8.895
25563SOL     OW78129   7.991   5.785   8.612
25563SOL    HW178130   8.020   5.697   8.638
25563SOL    HW278131   7.905   5.795   8.653
25564SOL     OW78132   7.879   6.403   8.715
25564SOL    HW178133   7.969   6.402   8.749
25564SOL    HW278134   7.849   6.313   8.726
25565SOL     OW78135   7.520   7.166   8.816
25565SOL    HW178136   7.484   7.225   8.750
25565SOL    HW278137   7.613   7.160   8.794
25566SOL     OW78138   7.795   6.696   7.932
25566SOL    HW178139   7.779   6.769   7.872
25566SOL    HW278140   7.781   6.618   7.879
25567SOL     OW78141  -0.027   6.150   8.318
25567SOL    HW178142   0.016   6.223   8.273
25567SOL    HW278143   0.015   6.148   8.404
25568SOL     OW78144   7.788   7.126   8.747
25568SOL    HW178145   7.781   7.080   8.663
25568SOL    HW278146   7.882   7.138   8.760
25569SOL     OW78147   7.832   6.340   9.073
25569SOL    HW178148   7.907   6.339   9.013
25569SOL    HW278149   7.807   6.247   9.081
25570SOL     OW78150   7.931   5.679   9.181
25570SOL    HW178151   7.886   5.607   9.136
25570SOL    HW278152   7.861   5.736   9.212
25571SOL     OW78153   7.991   6.507   8.482
25571SOL    HW178154   8.003   6.602   8.487
25571SOL    HW278155   7.945   6.484   8.563
25572SOL     OW78156   7.735   5.784   8.704
25572SOL    HW178157   7.679   5.814   8.776
25572SOL    HW278158   7.720   5.690   8.700
25573SOL     OW78159   7.532   6.902   8.722
25573SOL    HW178160   7.546   6.840   8.793
25573SOL    HW278161   7.508   6.984   8.765
25574SOL     OW78162   7.740   5.661   8.063
25574SOL    HW178163   7.724   5.754   8.080
25574SOL    HW278164   7.752   5.622   8.149
25575SOL     OW78165   7.814   6.519   9.281
25575SOL    HW178166   7.891   6.567   9.251
25575SOL    HW278167   7.810   6.442   9.224
25576SOL     OW78168   7.741   6.398   8.405
25576SOL    HW178169   7.834   6.420   8.411
25576SOL    HW278170   7.736   6.306   8.430
25577SOL     OW78171   7.748   6.123   8.461
25577SOL    HW178172   7.720   6.032   8.451
25577SOL    HW278173   7.824   6.131   8.404
25578SOL     OW78174   7.473   6.896   7.628
25578SOL    HW178175   7.384   6.916   7.599
25578SOL    HW278176   7.465   6.810   7.670
25579SOL     OW78177   7.541   7.365   8.393
25579SOL    HW178178   7.506   7.289   8.346
25579SOL    HW278179   7.627   7.379   8.354
25580SOL     OW78180   7.480   6.146   8.562
25580SOL    HW178181   7.563   6.141   8.514
25580SOL    HW278182   7.506   6.140   8.654
25581SOL     OW78183   7.660   6.111   9.161
25581SOL    HW178184   7.639   6.032   9.112
25581SOL    HW278185   7.584   6.168   9.149
25582SOL     OW78186   0.211   6.099   7.745
25582SOL    HW178187   0.171   6.013   7.755
25582SOL    HW278188   0.183   6.148   7.822
25583SOL     OW78189   7.692   7.134   9.168
25583SOL    HW178190   7.670   7.187   9.244
25583SOL    HW278191   7.705   7.046   9.203
25584SOL     OW78192   7.896   6.086   7.592
25584SOL    HW178193   7.950   6.155   7.629
25584SOL    HW278194   7.807   6.118   7.598
25585SOL     OW78195   7.585   6.726   8.930
25585SOL    HW178196   7.584   6.681   9.014
25585SOL    HW278197   7.601   6.657   8.866
25586SOL     OW78198   7.534   6.861   8.458
25586SOL    HW178199   7.523   6.870   8.552
25586SOL    HW278200   7.459   6.809   8.430
25587SOL     OW78201   7.587   7.395   9.291
25587SOL    HW178202   7.543   7.321   9.331
25587SOL    HW278203   7.636   7.436   9.362
25588SOL     OW78204   7.719   5.917   8.166
25588SOL    HW178205   7.634   5.949   8.136
25588SOL    HW278206   7.708   5.901   8.259
25589SOL     OW78207   7.812   6.881   8.964
25589SOL    HW178208   7.807   6.954   8.901
25589SOL    HW278209   7.735   6.828   8.945
25590SOL     OW78210   7.983   7.116   7.902
25590SOL    HW178211   7.970   7.029   7.864
25590SOL    HW278212   7.900   7.137   7.945
25591SOL     OW78213   7.727   6.919   7.755
25591SOL    HW178214   7.642   6.917   7.711
25591SOL    HW278215   7.711   6.966   7.837
25592SOL     OW78216   7.571   6.636   9.191
25592SOL    HW178217   7.488   6.609   9.230
25592SOL    HW278218   7.637   6.582   9.234
25593SOL     OW78219   7.503   5.916   7.495
25593SOL    HW178220   7.419   5.890   7.457
25593SOL    HW278221   7.524   5.998   7.450
25594SOL     OW78222   7.506   5.739   7.744
25594SOL    HW178223   7.491   5.812   7.684
25594SOL    HW278224   7.593   5.706   7.720
25595SOL     OW78225   7.834   7.343   9.017
25595SOL    HW178226   7.748   7.379   8.996
25595SOL    HW278227   7.816   7.256   9.052
25596SOL     OW78228   7.681   6.879   9.289
25596SOL    HW178229   7.643   6.804   9.242
25596SOL    HW278230   7.621   6.894   9.362
25597SOL     OW78231   7.549   6.825   8.120
25597SOL    HW178232   7.523   6.777   8.198
25597SOL    HW278233   7.603   6.764   8.070
25598SOL     OW78234   0.096   7.027   8.999
25598SOL    HW178235   0.046   6.967   9.055
25598SOL    HW278236   0.171   7.053   9.053
25599SOL     OW78237   7.800   6.140   8.747
25599SOL    HW178238   7.855   6.076   8.792
25599SOL    HW278239   7.805   6.115   8.654
25600SOL     OW78240   7.490   6.647   7.760
25600SOL    HW178241   7.580   6.632   7.733
25600SOL    HW278242   7.457   6.561   7.785
25601SOL     OW78243   7.653   6.201   9.441
25601SOL    HW178244   7.563   6.195   9.472
25601SOL    HW278245   7.647   6.185   9.347
25602SOL     OW78246   7.675   5.869  10.305
25602SOL    HW178247   7.700   5.836  10.391
25602SOL    HW278248   7.589   5.830  10.289
25603SOL     OW78249   7.454   5.985   9.953
25603SOL    HW178250   7.373   6.012   9.998
25603SOL    HW278251   7.428   5.910   9.900
25604SOL     OW78252   7.747   7.033  10.359
25604SOL    HW178253   7.671   6.975  10.349
25604SOL    HW278254   7.798   7.021  10.279
25605SOL     OW78255   7.869   5.966  10.822
25605SOL    HW178256   7.922   5.892  10.849
25605SOL    HW278257   7.779   5.931  10.819
25606SOL     OW78258   7.662   7.304   9.786
25606SOL    HW178259   7.681   7.384   9.834
25606SOL    HW278260   7.745   7.279   9.747
25607SOL     OW78261   7.674   7.034   9.847
25607SOL    HW178262   7.648   7.126   9.848
25607SOL    HW278263   7.618   6.993   9.913
25608SOL     OW78264   7.686   6.674  10.192
25608SOL    HW178265   7.687   6.585  10.226
25608SOL    HW278266   7.636   6.724  10.257
25609SOL     OW78267   7.584   6.228   9.873
25609SOL    HW178268   7.543   6.143   9.888
25609SOL    HW278269   7.560   6.279   9.951
25610SOL     OW78270   7.505   7.177   9.426
25610SOL    HW178271   7.482   7.085   9.440
25610SOL    HW278272   7.470   7.222   9.502
25611SOL     OW78273   7.557   6.327  10.891
25611SOL    HW178274   7.645   6.365  10.893
25611SOL    HW278275   7.499   6.402  10.884
25612SOL     OW78276   7.639   6.538  10.599
25612SOL    HW178277   7.726   6.500  10.589
25612SOL    HW278278   7.584   6.488  10.539
25613SOL     OW78279   7.757   5.845  11.167
25613SOL    HW178280   7.802   5.928  11.186
25613SOL    HW278281   7.664   5.865  11.179
25614SOL     OW78282   0.023   6.331   9.556
25614SOL    HW178283   0.014   6.425   9.540
25614SOL    HW278284  -0.033   6.314   9.631
25615SOL     OW78285   7.499   6.414  10.065
25615SOL    HW178286   7.577   6.406  10.121
25615SOL    HW278287   7.452   6.489  10.101
25616SOL     OW78288   7.576   7.448  10.893
25616SOL    HW178289   7.579   7.434  10.988
25616SOL    HW278290   7.503   7.394  10.863
25617SOL     OW78291   7.978   5.789  10.199
25617SOL    HW178292   7.971   5.792  10.294
25617SOL    HW278293   7.946   5.875  10.170
25618SOL     OW78294   7.812   7.428  10.178
25618SOL    HW178295   7.877   7.359  10.191
25618SOL    HW278296   7.862   7.510  10.188
25619SOL     OW78297   7.743   6.535   9.555
25619SOL    HW178298   7.775   6.545   9.466
25619SOL    HW278299   7.724   6.441   9.563
25620SOL     OW78300   7.957   6.833  11.048
25620SOL    HW178301   7.915   6.837  10.963
25620SOL    HW278302   7.886   6.850  11.111
25621SOL     OW78303   7.621   5.856  10.821
25621SOL    HW178304   7.532   5.891  10.821
25621SOL    HW278305   7.612   5.765  10.850
25622SOL     OW78306   7.708   7.374  10.531
25622SOL    HW178307   7.750   7.301  10.577
25622SOL    HW278308   7.692   7.342  10.443
25623SOL     OW78309   7.838   6.268   9.755
25623SOL    HW178310   7.879   6.190   9.795
25623SOL    HW278311   7.748   6.265   9.786
25624SOL     OW78312   0.009   5.661   9.446
25624SOL    HW178313   0.104   5.650   9.452
25624SOL    HW278314  -0.008   5.670   9.353
25625SOL     OW78315   8.016   5.632   9.842
25625SOL    HW178316   7.923   5.638   9.865
25625SOL    HW278317   8.026   5.695   9.770
25626SOL     OW78318   7.732   5.652   9.490
25626SOL    HW178319   7.760   5.725   9.434
25626SOL    HW278320   7.814   5.609   9.516
25627SOL     OW78321   7.908   6.715  10.040
25627SOL    HW178322   7.834   6.696  10.098
25627SOL    HW278323   7.874   6.702   9.952
25628SOL     OW78324   7.536   6.140  10.694
25628SOL    HW178325   7.629   6.137  10.672
25628SOL    HW278326   7.530   6.208  10.762
25629SOL     OW78327   7.990   5.781  10.466
25629SOL    HW178328   8.031   5.707  10.511
25629SOL    HW278329   7.905   5.792  10.509
25630SOL     OW78330   7.880   6.401  10.574
25630SOL    HW178331   7.966   6.400  10.617
25630SOL    HW278332   7.846   6.312  10.585
25631SOL     OW78333   7.522   7.166  10.677
25631SOL    HW178334   7.496   7.231  10.611
25631SOL    HW278335   7.617   7.157  10.664
25632SOL     OW78336   7.800   6.696   9.784
25632SOL    HW178337   7.785   6.775   9.732
25632SOL    HW278338   7.783   6.624   9.724
25633SOL     OW78339  -0.025   6.148  10.175
25633SOL    HW178340   0.015   6.224  10.134
25633SOL    HW278341   0.015   6.144  10.262
25634SOL     OW78342   7.784   7.117  10.619
25634SOL    HW178343   7.781   7.076  10.533
25634SOL    HW278344   7.877   7.138  10.632
25635SOL     OW78345   7.846   6.322  10.915
25635SOL    HW178346   7.932   6.352  10.886
25635SOL    HW278347   7.851   6.227  10.911
25636SOL     OW78348   7.934   5.690  11.035
25636SOL    HW178349   7.895   5.613  10.993
25636SOL    HW278350   7.860   5.737  11.073
25637SOL     OW78351   7.978   6.508  10.338
25637SOL    HW178352   8.006   6.598  10.352
25637SOL    HW278353   7.943   6.480  10.423
25638SOL     OW78354   7.737   5.789  10.566
25638SOL    HW178355   7.688   5.814  10.644
25638SOL    HW278356   7.723   5.695  10.558
25639SOL     OW78357   7.507   6.903  10.591
25639SOL    HW178358   7.532   6.844  10.662
25639SOL    HW278359   7.504   6.989  10.632
25640SOL     OW78360   7.755   5.663   9.919
25640SOL    HW178361   7.725   5.753   9.937
25640SOL    HW278362   7.753   5.620  10.005
25641SOL     OW78363   7.802   6.504  11.121
25641SOL    HW178364   7.893   6.533  11.128
25641SOL    HW278365   7.805   6.430  11.060
25642SOL     OW78366   7.727   6.403  10.253
25642SOL    HW178367   7.819   6.428  10.266
25642SOL    HW278368   7.723   6.311  10.278
25643SOL     OW78369   7.744   6.127  10.313
25643SOL    HW178370   7.718   6.035  10.307
25643SOL    HW278371   7.823   6.134  10.259
25644SOL     OW78372   7.474   6.899   9.490
25644SOL    HW178373   7.385   6.920   9.462
25644SOL    HW278374   7.466   6.812   9.530
25645SOL     OW78375   7.545   7.365  10.253
25645SOL    HW178376   7.513   7.288  10.204
25645SOL    HW278377   7.632   7.381  10.217
25646SOL     OW78378   7.483   6.154  10.424
25646SOL    HW178379   7.563   6.143  10.373
25646SOL    HW278380   7.510   6.144  10.515
25647SOL     OW78381   7.622   6.108  11.047
25647SOL    HW178382   7.650   6.044  10.981
25647SOL    HW278383   7.591   6.182  10.996
25648SOL     OW78384   0.214   6.066   9.647
25648SOL    HW178385   0.163   5.985   9.646
25648SOL    HW278386   0.175   6.118   9.717
25649SOL     OW78387   7.684   7.133  11.029
25649SOL    HW178388   7.666   7.188  11.106
25649SOL    HW278389   7.704   7.047  11.065
25650SOL     OW78390   7.911   6.090   9.464
25650SOL    HW178391   7.956   6.166   9.500
25650SOL    HW278392   7.818   6.113   9.466
25651SOL     OW78393   7.583   6.727  10.788
25651SOL    HW178394   7.584   6.682  10.873
25651SOL    HW278395   7.602   6.658  10.725
25652SOL     OW78396   7.529   6.849  10.333
25652SOL    HW178397   7.521   6.865  10.427
25652SOL    HW278398   7.442   6.817  10.307
25653SOL     OW78399   7.585   7.398  11.157
25653SOL    HW178400   7.543   7.324  11.199
25653SOL    HW278401   7.637   7.439  11.226
25654SOL     OW78402   7.719   5.921  10.030
25654SOL    HW178403   7.633   5.950  10.000
25654SOL    HW278404   7.706   5.899  10.123
25655SOL     OW78405   7.814   6.882  10.821
25655SOL    HW178406   7.808   6.955  10.760
25655SOL    HW278407   7.736   6.830  10.805
25656SOL     OW78408  -0.014   7.159   9.722
25656SOL    HW178409  -0.012   7.080   9.776
25656SOL    HW278410   0.059   7.212   9.755
25657SOL     OW78411   7.729   6.910   9.616
25657SOL    HW178412   7.644   6.913   9.572
25657SOL    HW278413   7.717   6.964   9.695
25658SOL     OW78414   7.563   6.629  11.044
25658SOL    HW178415   7.485   6.601  11.091
25658SOL    HW278416   7.635   6.580  11.085
25659SOL     OW78417   7.494   5.912   9.361
25659SOL    HW178418   7.409   5.873   9.343
25659SOL    HW278419   7.483   6.005   9.338
25660SOL     OW78420   7.502   5.734   9.610
25660SOL    HW178421   7.482   5.808   9.552
25660SOL    HW278422   7.587   5.702   9.580
25661SOL     OW78423   7.836   7.343  10.882
25661SOL    HW178424   7.748   7.377  10.864
25661SOL    HW278425   7.821   7.254  10.914
25662SOL     OW78426   7.700   6.884  11.157
25662SOL    HW178427   7.641   6.817  11.123
25662SOL    HW278428   7.675   6.895  11.249
25663SOL     OW78429   7.555   6.813   9.980
25663SOL    HW178430   7.588   6.768  10.058
25663SOL    HW278431   7.604   6.775   9.907
25664SOL     OW78432   0.099   7.035  10.860
25664SOL    HW178433   0.051   6.969  10.910
25664SOL    HW278434   0.174   7.058  10.915
25665SOL     OW78435   7.793   6.141  10.605
25665SOL    HW178436   7.847   6.083  10.658
25665SOL    HW278437   7.807   6.111  10.515
25666SOL     OW78438   7.493   6.650   9.619
25666SOL    HW178439   7.584   6.638   9.590
25666SOL    HW278440   7.462   6.562   9.638
25667SOL     OW78441   7.654   6.206  11.306
25667SOL    HW178442   7.565   6.201  11.342
25667SOL    HW278443   7.643   6.186  11.213
25668SOL     OW78444   7.669   5.871  12.155
25668SOL    HW178445   7.698   5.837  12.240
25668SOL    HW278446   7.579   5.841  12.146
25669SOL     OW78447   7.452   5.976  11.813
25669SOL    HW178448   7.371   5.999  11.859
25669SOL    HW278449   7.428   5.899  11.760
25670SOL     OW78450   7.774   7.011  12.215
25670SOL    HW178451   7.691   6.962  12.218
25670SOL    HW278452   7.790   7.024  12.121
25671SOL     OW78453   7.672   7.307  11.643
25671SOL    HW178454   7.685   7.386  11.695
25671SOL    HW278455   7.760   7.272  11.630
25672SOL     OW78456   7.670   7.027  11.705
25672SOL    HW178457   7.642   7.117  11.714
25672SOL    HW278458   7.616   6.978  11.767
25673SOL     OW78459   7.709   6.676  12.077
25673SOL    HW178460   7.701   6.589  12.116
25673SOL    HW278461   7.653   6.732  12.131
25674SOL     OW78462   7.569   6.237  11.739
25674SOL    HW178463   7.531   6.152  11.761
25674SOL    HW278464   7.557   6.290  11.817
25675SOL     OW78465   7.503   7.176  11.287
25675SOL    HW178466   7.483   7.083  11.303
25675SOL    HW278467   7.471   7.221  11.365
25676SOL     OW78468   7.600   6.327   0.200
25676SOL    HW178469   7.598   6.331   0.296
25676SOL    HW278470   7.529   6.384   0.172
25677SOL     OW78471   7.638   6.571  12.383
25677SOL    HW178472   7.715   6.518  12.402
25677SOL    HW278473   7.570   6.537  12.440
25678SOL     OW78474   8.001   6.324  11.431
25678SOL    HW178475   8.024   6.417  11.427
25678SOL    HW278476   7.940   6.318  11.504
25679SOL     OW78477   7.533   6.415  11.946
25679SOL    HW178478   7.613   6.405  11.997
25679SOL    HW278479   7.488   6.489  11.986
25680SOL     OW78480   7.962   5.783  12.046
25680SOL    HW178481   7.964   5.794  12.141
25680SOL    HW278482   7.961   5.872  12.011
25681SOL     OW78483   7.814   7.419  12.038
25681SOL    HW178484   7.873   7.356  12.079
25681SOL    HW278485   7.862   7.501  12.036
25682SOL     OW78486   7.741   6.547  11.429
25682SOL    HW178487   7.817   6.567  11.374
25682SOL    HW278488   7.721   6.455  11.411
25683SOL     OW78489   7.681   7.382  12.389
25683SOL    HW178490   7.718   7.302  12.426
25683SOL    HW278491   7.637   7.353  12.309
25684SOL     OW78492   7.824   6.286  11.633
25684SOL    HW178493   7.871   6.220  11.685
25684SOL    HW278494   7.733   6.276  11.659
25685SOL     OW78495   0.011   5.672  11.310
25685SOL    HW178496   0.104   5.652  11.321
25685SOL    HW278497  -0.001   5.682  11.216
25686SOL     OW78498   8.005   5.622  11.700
25686SOL    HW178499   7.913   5.634  11.723
25686SOL    HW278500   8.023   5.691  11.637
25687SOL     OW78501   7.738   5.646  11.356
25687SOL    HW178502   7.754   5.719  11.296
25687SOL    HW278503   7.824   5.609  11.372
25688SOL     OW78504   7.916   6.709  11.905
25688SOL    HW178505   7.845   6.695  11.969
25688SOL    HW278506   7.874   6.699  11.820
25689SOL     OW78507   7.989   5.797  12.313
25689SOL    HW178508   8.034   5.760  12.388
25689SOL    HW278509   7.897   5.801  12.340
25690SOL     OW78510   7.871   6.418  12.442
25690SOL    HW178511   7.927   6.457  12.509
25690SOL    HW278512   7.851   6.331  12.475
25691SOL     OW78513   7.795   6.701  11.657
25691SOL    HW178514   7.778   6.779  11.605
25691SOL    HW278515   7.776   6.628  11.597
25692SOL     OW78516  -0.016   6.140  12.056
25692SOL    HW178517   0.021   6.214  12.007
25692SOL    HW278518   0.027   6.143  12.141
25693SOL     OW78519   7.792   7.150  12.466
25693SOL    HW178520   7.790   7.087  12.394
25693SOL    HW278521   7.877   7.136  12.508
25694SOL     OW78522   7.901   6.312   0.205
25694SOL    HW178523   7.991   6.329   0.232
25694SOL    HW278524   7.854   6.299   0.287
25695SOL     OW78525   7.996   6.502  12.213
25695SOL    HW178526   8.003   6.598  12.212
25695SOL    HW278527   7.947   6.482  12.293
25696SOL     OW78528   7.735   5.784  12.406
25696SOL    HW178529   7.716   5.819  12.493
25696SOL    HW278530   7.719   5.690  12.414
25697SOL     OW78531   7.522   6.924  12.439
25697SOL    HW178532   7.536   6.851  12.499
25697SOL    HW278533   7.520   7.001  12.495
25698SOL     OW78534   7.742   5.658  11.789
25698SOL    HW178535   7.730   5.751  11.808
25698SOL    HW278536   7.757   5.618  11.874
25699SOL     OW78537   7.752   6.395  12.110
25699SOL    HW178538   7.842   6.422  12.130
25699SOL    HW278539   7.746   6.305  12.142
25700SOL     OW78540   7.747   6.127  12.180
25700SOL    HW178541   7.719   6.036  12.171
25700SOL    HW278542   7.830   6.132  12.132
25701SOL     OW78543   7.464   6.900  11.361
25701SOL    HW178544   7.377   6.920  11.327
25701SOL    HW278545   7.456   6.812  11.398
25702SOL     OW78546   7.547   7.368  12.116
25702SOL    HW178547   7.517   7.290  12.069
25702SOL    HW278548   7.635   7.384  12.082
25703SOL     OW78549   7.493   6.145  12.282
25703SOL    HW178550   7.574   6.154  12.232
25703SOL    HW278551   7.519   6.100  12.363
25704SOL     OW78552   0.212   6.097  11.469
25704SOL    HW178553   0.169   6.012  11.483
25704SOL    HW278554   0.185   6.150  11.544
25705SOL     OW78555   7.904   6.088  11.322
25705SOL    HW178556   7.957   6.158  11.359
25705SOL    HW278557   7.814   6.120  11.327
25706SOL     OW78558   7.531   6.865  12.178
25706SOL    HW178559   7.519   6.884  12.271
25706SOL    HW278560   7.462   6.802  12.158
25707SOL     OW78561   7.723   5.918  11.882
25707SOL    HW178562   7.637   5.951  11.855
25707SOL    HW278563   7.714   5.905  11.977
25708SOL     OW78564  -0.014   7.152  11.585
25708SOL    HW178565  -0.010   7.079  11.648
25708SOL    HW278566   0.050   7.215  11.618
25709SOL     OW78567   7.720   6.918  11.464
25709SOL    HW178568   7.629   6.916  11.435
25709SOL    HW278569   7.718   6.968  11.546
25710SOL     OW78570   7.500   5.918  11.216
25710SOL    HW178571   7.422   5.890  11.167
25710SOL    HW278572   7.526   6.000  11.173
25711SOL     OW78573   7.503   5.738  11.466
25711SOL    HW178574   7.488   5.809  11.404
25711SOL    HW278575   7.590   5.706  11.445
25712SOL     OW78576   7.767   7.303   0.249
25712SOL    HW178577   7.729   7.271   0.167
25712SOL    HW278578   7.843   7.246   0.264
25713SOL     OW78579   7.540   6.816  11.845
25713SOL    HW178580   7.539   6.777  11.932
25713SOL    HW278581   7.604   6.764  11.796
25714SOL     OW78582   7.485   6.647  11.483
25714SOL    HW178583   7.576   6.635  11.458
25714SOL    HW278584   7.455   6.559  11.507
25715SOL     OW78585   7.672   7.724   0.995
25715SOL    HW178586   7.699   7.685   1.078
25715SOL    HW278587   7.584   7.690   0.980
25716SOL     OW78588   7.428   7.824   0.650
25716SOL    HW178589   7.346   7.866   0.677
25716SOL    HW278590   7.402   7.743   0.608
25717SOL     OW78591   7.872   7.837   1.548
25717SOL    HW178592   7.924   7.821   1.469
25717SOL    HW278593   7.791   7.788   1.533
25718SOL     OW78594   7.525   0.086   0.629
25718SOL    HW178595   7.503  -0.007   0.621
25718SOL    HW278596   7.518   0.104   0.723
25719SOL     OW78597   7.760   7.728   1.839
25719SOL    HW178598   7.772   7.807   1.787
25719SOL    HW278599   7.670   7.733   1.871
25720SOL     OW78600   7.966   7.659   0.893
25720SOL    HW178601   7.964   7.659   0.989
25720SOL    HW278602   7.968   7.752   0.869
25721SOL     OW78603   7.624   7.716   1.504
25721SOL    HW178604   7.536   7.743   1.479
25721SOL    HW278605   7.614   7.628   1.539
25722SOL     OW78606   0.038   7.507   0.073
25722SOL    HW178607   0.123   7.534   0.108
25722SOL    HW278608   0.057   7.430   0.020
25723SOL     OW78609   7.994   7.459   0.515
25723SOL    HW178610   7.910   7.489   0.550
25723SOL    HW278611   8.037   7.539   0.483
25724SOL     OW78612   7.530  -0.005   1.387
25724SOL    HW178613   7.615   0.006   1.429
25724SOL    HW278614   7.486   0.080   1.399
25725SOL     OW78615   7.992   7.656   1.161
25725SOL    HW178616   8.039   7.584   1.203
25725SOL    HW278617   7.905   7.654   1.199
25726SOL     OW78618   7.979   7.946   0.893
25726SOL    HW178619   7.935   7.980   0.815
25726SOL    HW278620   8.048   8.011   0.911
25727SOL     OW78621   7.930   7.537   1.736
25727SOL    HW178622   7.889   7.470   1.682
25727SOL    HW278623   7.861   7.599   1.756
25728SOL     OW78624   7.740   7.640   1.255
25728SOL    HW178625   7.691   7.668   1.332
25728SOL    HW278626   7.725   7.545   1.250
25729SOL     OW78627   7.752   7.540   0.620
25729SOL    HW178628   7.732   7.630   0.644
25729SOL    HW278629   7.763   7.494   0.703
25730SOL     OW78630   7.758   7.969   1.058
25730SOL    HW178631   7.734   7.879   1.036
25730SOL    HW278632   7.837   7.986   1.006
25731SOL     OW78633   7.482   7.955   1.119
25731SOL    HW178634   7.569   7.950   1.078
25731SOL    HW278635   7.500   7.964   1.212
25732SOL     OW78636   7.642   7.957   1.707
25732SOL    HW178637   7.606   7.895   1.643
25732SOL    HW278638   7.566   8.011   1.732
25733SOL     OW78639   7.698   7.792   0.719
25733SOL    HW178640   7.605   7.801   0.700
25733SOL    HW278641   7.702   7.772   0.812
25734SOL     OW78642   7.509   7.597   0.319
25734SOL    HW178643   7.493   7.679   0.271
25734SOL    HW278644   7.603   7.595   0.334
25735SOL     OW78645   7.682   7.709   2.850
25735SOL    HW178646   7.704   7.683   2.940
25735SOL    HW278647   7.590   7.683   2.840
25736SOL     OW78648   7.430   7.816   2.518
25736SOL    HW178649   7.346   7.854   2.544
25736SOL    HW278650   7.406   7.735   2.473
25737SOL     OW78651   7.857   7.855   3.398
25737SOL    HW178652   7.936   7.806   3.377
25737SOL    HW278653   7.785   7.792   3.389
25738SOL     OW78654   7.549   0.064   2.510
25738SOL    HW178655   7.508  -0.023   2.505
25738SOL    HW278656   7.514   0.102   2.591
25739SOL     OW78657   7.767   7.721   3.697
25739SOL    HW178658   7.757   7.808   3.658
25739SOL    HW278659   7.684   7.704   3.741
25740SOL     OW78660   7.978   7.600   2.745
25740SOL    HW178661   7.972   7.619   2.838
25740SOL    HW278662   7.972   7.685   2.702
25741SOL     OW78663   7.629   7.707   3.364
25741SOL    HW178664   7.544   7.749   3.379
25741SOL    HW278665   7.617   7.617   3.396
25742SOL     OW78666   0.002   7.495   1.996
25742SOL    HW178667   0.096   7.510   2.010
25742SOL    HW278668  -0.010   7.505   1.902
25743SOL     OW78669   0.053   7.484   2.416
25743SOL    HW178670  -0.040   7.488   2.438
25743SOL    HW278671   0.064   7.551   2.348
25744SOL     OW78672   7.737   7.522   2.036
25744SOL    HW178673   7.751   7.598   1.980
25744SOL    HW278674   7.825   7.486   2.050
25745SOL     OW78675   7.532  -0.010   3.249
25745SOL    HW178676   7.626  -0.011   3.271
25745SOL    HW278677   7.503   0.078   3.272
25746SOL     OW78678   7.995   7.644   3.008
25746SOL    HW178679   8.053   7.637   3.084
25746SOL    HW278680   7.908   7.654   3.047
25747SOL     OW78681   7.982   7.912   2.741
25747SOL    HW178682   7.952   7.979   2.680
25747SOL    HW278683   8.020   7.962   2.814
25748SOL     OW78684   7.930   7.545   3.573
25748SOL    HW178685   7.878   7.474   3.535
25748SOL    HW278686   7.866   7.605   3.610
25749SOL     OW78687   7.742   7.642   3.113
25749SOL    HW178688   7.696   7.674   3.191
25749SOL    HW278689   7.724   7.548   3.112
25750SOL     OW78690   7.768   7.518   2.474
25750SOL    HW178691   7.743   7.609   2.489
25750SOL    HW278692   7.759   7.477   2.560
25751SOL     OW78693   7.742   7.966   2.900
25751SOL    HW178694   7.729   7.874   2.878
25751SOL    HW278695   7.829   7.987   2.865
25752SOL     OW78696   7.480   7.958   2.980
25752SOL    HW178697   7.567   7.958   2.940
25752SOL    HW278698   7.498   7.962   3.074
25753SOL     OW78699   7.649   7.951   3.598
25753SOL    HW178700   7.653   7.943   3.503
25753SOL    HW278701   7.587   8.023   3.613
25754SOL     OW78702   7.702   7.764   2.574
25754SOL    HW178703   7.612   7.790   2.556
25754SOL    HW278704   7.707   7.756   2.669
25755SOL     OW78705   7.504   7.780   1.924
25755SOL    HW178706   7.445   7.777   1.849
25755SOL    HW278707   7.525   7.873   1.934
25756SOL     OW78708   7.503   7.597   2.157
25756SOL    HW178709   7.485   7.669   2.096
25756SOL    HW278710   7.592   7.569   2.135
25757SOL     OW78711   7.673   7.716   4.718
25757SOL    HW178712   7.700   7.688   4.805
25757SOL    HW278713   7.582   7.686   4.710
25758SOL     OW78714   7.434   7.817   4.374
25758SOL    HW178715   7.350   7.854   4.404
25758SOL    HW278716   7.410   7.736   4.330
25759SOL     OW78717   7.873   7.871   5.261
25759SOL    HW178718   7.941   7.834   5.205
25759SOL    HW278719   7.799   7.811   5.252
25760SOL     OW78720   7.508   0.088   4.358
25760SOL    HW178721   7.496  -0.007   4.355
25760SOL    HW278722   7.585   0.105   4.303
25761SOL     OW78723   7.768   7.734   5.547
25761SOL    HW178724   7.813   7.807   5.588
25761SOL    HW278725   7.676   7.745   5.571
25762SOL     OW78726   7.956   7.657   4.600
25762SOL    HW178727   7.961   7.653   4.696
25762SOL    HW278728   7.958   7.751   4.580
25763SOL     OW78729   7.642   7.723   5.221
25763SOL    HW178730   7.582   7.798   5.216
25763SOL    HW278731   7.610   7.671   5.294
25764SOL     OW78732   0.008   7.541   3.845
25764SOL    HW178733   0.099   7.518   3.867
25764SOL    HW278734   0.002   7.524   3.751
25765SOL     OW78735   7.963   7.448   4.218
25765SOL    HW178736   7.890   7.482   4.270
25765SOL    HW278737   8.005   7.526   4.182
25766SOL     OW78738   7.740   7.503   3.912
25766SOL    HW178739   7.804   7.560   3.869
25766SOL    HW278740   7.792   7.439   3.959
25767SOL     OW78741   7.528  -0.020   5.176
25767SOL    HW178742   7.607  -0.009   5.123
25767SOL    HW278743   7.489   0.067   5.178
25768SOL     OW78744   7.993   7.642   4.865
25768SOL    HW178745   8.048   7.601   4.931
25768SOL    HW278746   7.908   7.653   4.909
25769SOL     OW78747   7.978   7.939   4.606
25769SOL    HW178748   7.981   8.015   4.548
25769SOL    HW278749   8.020   7.968   4.687
25770SOL     OW78750   7.896   7.523   5.420
25770SOL    HW178751   7.834   7.456   5.448
25770SOL    HW278752   7.858   7.606   5.449
25771SOL     OW78753   7.745   7.643   4.976
25771SOL    HW178754   7.704   7.672   5.058
25771SOL    HW278755   7.721   7.550   4.969
25772SOL     OW78756   7.736   7.526   4.352
25772SOL    HW178757   7.725   7.619   4.371
25772SOL    HW278758   7.757   7.486   4.437
25773SOL     OW78759   7.743   7.971   4.751
25773SOL    HW178760   7.723   7.878   4.737
25773SOL    HW278761   7.830   7.983   4.713
25774SOL     OW78762   7.496   7.944   4.873
25774SOL    HW178763   7.578   7.945   4.824
25774SOL    HW278764   7.485   8.035   4.903
25775SOL     OW78765   7.699   7.785   4.447
25775SOL    HW178766   7.606   7.797   4.428
25775SOL    HW278767   7.701   7.762   4.540
25776SOL     OW78768   7.505   7.777   3.791
25776SOL    HW178769   7.441   7.770   3.720
25776SOL    HW278770   7.545   7.863   3.778
25777SOL     OW78771   7.504   7.598   4.016
25777SOL    HW178772   7.486   7.670   3.956
25777SOL    HW278773   7.592   7.569   3.995
25778SOL     OW78774   7.673   7.723   6.581
25778SOL    HW178775   7.701   7.688   6.666
25778SOL    HW278776   7.584   7.692   6.570
25779SOL     OW78777   7.431   7.821   6.236
25779SOL    HW178778   7.347   7.855   6.266
25779SOL    HW278779   7.410   7.739   6.192
25780SOL     OW78780   7.851   7.865   7.137
25780SOL    HW178781   7.929   7.849   7.084
25780SOL    HW278782   7.790   7.795   7.112
25781SOL     OW78783   7.498   0.094   6.202
25781SOL    HW178784   7.473   0.002   6.212
25781SOL    HW278785   7.593   0.094   6.207
25782SOL     OW78786   7.757   7.720   7.440
25782SOL    HW178787   7.777   7.800   7.392
25782SOL    HW278788   7.663   7.726   7.459
25783SOL     OW78789   7.961   7.662   6.464
25783SOL    HW178790   7.963   7.659   6.560
25783SOL    HW278791   7.956   7.756   6.444
25784SOL     OW78792   7.636   7.704   7.082
25784SOL    HW178793   7.550   7.746   7.075
25784SOL    HW278794   7.618   7.617   7.116
25785SOL     OW78795  -0.004   7.541   5.694
25785SOL    HW178796   0.079   7.530   5.741
25785SOL    HW278797   0.011   7.500   5.609
25786SOL     OW78798   7.956   7.452   6.060
25786SOL    HW178799   7.888   7.485   6.119
25786SOL    HW278800   7.999   7.530   6.027
25787SOL     OW78801   7.743   7.493   5.786
25787SOL    HW178802   7.826   7.525   5.751
25787SOL    HW278803   7.769   7.426   5.850
25788SOL     OW78804   7.538  -0.011   6.975
25788SOL    HW178805   7.631  -0.007   7.001
25788SOL    HW278806   7.505   0.077   6.994
25789SOL     OW78807   7.992   7.642   6.729
25789SOL    HW178808   8.044   7.587   6.788
25789SOL    HW278809   7.907   7.651   6.773
25790SOL     OW78810   7.971   7.956   6.458
25790SOL    HW178811   7.997   8.035   6.410
25790SOL    HW278812   8.008   7.967   6.545
25791SOL     OW78813   7.925   7.529   7.339
25791SOL    HW178814   7.897   7.466   7.274
25791SOL    HW278815   7.850   7.587   7.351
25792SOL     OW78816   7.742   7.637   6.836
25792SOL    HW178817   7.700   7.666   6.917
25792SOL    HW278818   7.725   7.543   6.832
25793SOL     OW78819   7.739   7.519   6.215
25793SOL    HW178820   7.724   7.611   6.235
25793SOL    HW278821   7.758   7.478   6.299
25794SOL     OW78822   7.743   7.977   6.630
25794SOL    HW178823   7.728   7.885   6.612
25794SOL    HW278824   7.822   7.998   6.580
25795SOL     OW78825   7.477   7.943   6.711
25795SOL    HW178826   7.561   7.951   6.666
25795SOL    HW278827   7.500   7.953   6.804
25796SOL     OW78828   7.638   7.947   7.310
25796SOL    HW178829   7.692   7.923   7.235
25796SOL    HW278830   7.619   8.040   7.297
25797SOL     OW78831   7.706   7.773   6.307
25797SOL    HW178832   7.618   7.803   6.285
25797SOL    HW278833   7.705   7.760   6.402
25798SOL     OW78834   7.513   7.823   5.613
25798SOL    HW178835   7.459   7.797   5.539
25798SOL    HW278836   7.451   7.858   5.677
25799SOL     OW78837   7.513   7.597   5.894
25799SOL    HW178838   7.507   7.687   5.863
25799SOL    HW278839   7.597   7.566   5.861
25800SOL     OW78840   7.688   7.711   8.441
25800SOL    HW178841   7.711   7.684   8.529
25800SOL    HW278842   7.597   7.685   8.431
25801SOL     OW78843   7.431   7.834   8.090
25801SOL    HW178844   7.347   7.869   8.121
25801SOL    HW278845   7.408   7.752   8.047
25802SOL     OW78846   7.878   7.839   8.991
25802SOL    HW178847   7.938   7.792   8.934
25802SOL    HW278848   7.795   7.793   8.982
25803SOL     OW78849   7.506   0.104   8.041
25803SOL    HW178850   7.481   0.013   8.061
25803SOL    HW278851   7.601   0.105   8.049
25804SOL     OW78852   7.764   7.731   9.294
25804SOL    HW178853   7.767   7.812   9.243
25804SOL    HW278854   7.673   7.726   9.326
25805SOL     OW78855   8.031   7.693   8.336
25805SOL    HW178856   7.983   7.661   8.412
25805SOL    HW278857   7.977   7.766   8.303
25806SOL     OW78858   7.629   7.716   8.953
25806SOL    HW178859   7.543   7.739   8.919
25806SOL    HW278860   7.618   7.627   8.987
25807SOL     OW78861   0.010   7.495   7.595
25807SOL    HW178862   0.104   7.508   7.603
25807SOL    HW278863  -0.007   7.497   7.501
25808SOL     OW78864   0.026   7.445   7.930
25808SOL    HW178865  -0.054   7.456   7.982
25808SOL    HW278866   0.034   7.528   7.882
25809SOL     OW78867   7.744   7.519   7.631
25809SOL    HW178868   7.749   7.592   7.569
25809SOL    HW278869   7.835   7.491   7.641
25810SOL     OW78870   7.535  -0.007   8.836
25810SOL    HW178871   7.622   0.001   8.876
25810SOL    HW278872   7.497   0.081   8.845
25811SOL     OW78873   8.021   7.630   8.606
25811SOL    HW178874   8.043   7.553   8.659
25811SOL    HW278875   7.934   7.656   8.637
25812SOL     OW78876   7.963   7.974   8.310
25812SOL    HW178877   8.009   8.022   8.241
25812SOL    HW278878   8.007   8.002   8.391
25813SOL     OW78879   7.930   7.543   9.185
25813SOL    HW178880   7.889   7.476   9.132
25813SOL    HW278881   7.859   7.604   9.207
25814SOL     OW78882   7.760   7.646   8.702
25814SOL    HW178883   7.708   7.675   8.777
25814SOL    HW278884   7.742   7.552   8.696
25815SOL     OW78885   7.785   7.508   8.070
25815SOL    HW178886   7.755   7.597   8.087
25815SOL    HW278887   7.790   7.467   8.156
25816SOL     OW78888   7.745   7.971   8.484
25816SOL    HW178889   7.732   7.878   8.466
25816SOL    HW278890   7.820   7.996   8.431
25817SOL     OW78891   7.484   7.951   8.567
25817SOL    HW178892   7.569   7.957   8.524
25817SOL    HW278893   7.504   7.960   8.660
25818SOL     OW78894   7.645   7.950   9.155
25818SOL    HW178895   7.609   7.888   9.091
25818SOL    HW278896   7.573   8.010   9.173
25819SOL     OW78897   7.706   7.753   8.162
25819SOL    HW178898   7.625   7.797   8.138
25819SOL    HW278899   7.702   7.745   8.257
25820SOL     OW78900   7.499   7.785   7.500
25820SOL    HW178901   7.436   7.763   7.431
25820SOL    HW278902   7.541   7.866   7.469
25821SOL     OW78903   7.506   7.600   7.739
25821SOL    HW178904   7.488   7.670   7.676
25821SOL    HW278905   7.595   7.572   7.719
25822SOL     OW78906   7.661   7.746  10.312
25822SOL    HW178907   7.695   7.699  10.389
25822SOL    HW278908   7.578   7.704  10.293
25823SOL     OW78909   7.433   7.813   9.962
25823SOL    HW178910   7.351   7.846   9.997
25823SOL    HW278911   7.409   7.735   9.912
25824SOL     OW78912   7.839   7.872  10.851
25824SOL    HW178913   7.912   7.851  10.793
25824SOL    HW278914   7.779   7.797  10.843
25825SOL     OW78915   7.493   0.082   9.995
25825SOL    HW178916   7.488  -0.009   9.966
25825SOL    HW278917   7.583   0.108   9.976
25826SOL     OW78918   7.753   7.745  11.138
25826SOL    HW178919   7.783   7.822  11.185
25826SOL    HW278920   7.664   7.731  11.169
25827SOL     OW78921   7.958   7.669  10.203
25827SOL    HW178922   7.961   7.664  10.298
25827SOL    HW278923   7.970   7.762  10.183
25828SOL     OW78924   7.625   7.701  10.809
25828SOL    HW178925   7.543   7.743  10.834
25828SOL    HW278926   7.617   7.611  10.840
25829SOL     OW78927   0.008   7.522   9.448
25829SOL    HW178928   0.103   7.511   9.460
25829SOL    HW278929  -0.004   7.518   9.353
25830SOL     OW78930   7.996   7.469   9.842
25830SOL    HW178931   7.904   7.487   9.865
25830SOL    HW278932   8.019   7.538   9.780
25831SOL     OW78933   7.737   7.514   9.492
25831SOL    HW178934   7.770   7.587   9.441
25831SOL    HW278935   7.815   7.463   9.514
25832SOL     OW78936   7.989   7.654  10.469
25832SOL    HW178937   8.036   7.584  10.514
25832SOL    HW278938   7.902   7.654  10.509
25833SOL     OW78939   7.995   7.948  10.189
25833SOL    HW178940   7.940   7.985  10.120
25833SOL    HW278941   8.048   8.022  10.220
25834SOL     OW78942   7.928   7.560  11.033
25834SOL    HW178943   7.890   7.487  10.984
25834SOL    HW278944   7.853   7.614  11.056
25835SOL     OW78945   7.733   7.641  10.561
25835SOL    HW178946   7.690   7.667  10.643
25835SOL    HW278947   7.720   7.547  10.556
25836SOL     OW78948   7.740   7.523   9.931
25836SOL    HW178949   7.721   7.615   9.948
25836SOL    HW278950   7.756   7.484  10.017
25837SOL     OW78951   7.782   7.982  10.360
25837SOL    HW178952   7.735   7.902  10.335
25837SOL    HW278953   7.858   7.984  10.303
25838SOL     OW78954   7.540   7.968  10.524
25838SOL    HW178955   7.602   7.901  10.494
25838SOL    HW278956   7.514   8.015  10.445
25839SOL     OW78957   7.599   7.997  10.936
25839SOL    HW178958   7.678   7.944  10.928
25839SOL    HW278959   7.601   8.030  11.026
25840SOL     OW78960   7.702   7.780  10.022
25840SOL    HW178961   7.609   7.792  10.003
25840SOL    HW278962   7.706   7.772  10.117
25841SOL     OW78963   7.502   7.776   9.373
25841SOL    HW178964   7.446   7.769   9.296
25841SOL    HW278965   7.520   7.870   9.380
25842SOL     OW78966   7.503   7.600   9.602
25842SOL    HW178967   7.485   7.668   9.538
25842SOL    HW278968   7.591   7.569   9.581
25843SOL     OW78969   7.673   7.714  12.148
25843SOL    HW178970   7.702   7.680  12.233
25843SOL    HW278971   7.581   7.686  12.141
25844SOL     OW78972   7.428   7.821  11.825
25844SOL    HW178973   7.343   7.858  11.851
25844SOL    HW278974   7.405   7.739  11.780
25845SOL     OW78975   7.907   7.758   0.196
25845SOL    HW178976   7.976   7.757   0.129
25845SOL    HW278977   7.871   7.669   0.195
25846SOL     OW78978   7.531   0.079  11.814
25846SOL    HW178979   7.500  -0.011  11.811
25846SOL    HW278980   7.511   0.108  11.904
25847SOL     OW78981   7.957   7.651  12.043
25847SOL    HW178982   7.959   7.646  12.138
25847SOL    HW278983   7.964   7.745  12.024
25848SOL     OW78984  -0.005   7.535  11.295
25848SOL    HW178985   0.088   7.519  11.314
25848SOL    HW278986  -0.012   7.529  11.200
25849SOL     OW78987   7.976   7.452  11.674
25849SOL    HW178988   7.898   7.484  11.718
25849SOL    HW278989   8.012   7.528  11.628
25850SOL     OW78990   7.740   7.488  11.370
25850SOL    HW178991   7.824   7.524  11.339
25850SOL    HW278992   7.764   7.412  11.423
25851SOL     OW78993   7.523   0.027   0.053
25851SOL    HW178994   7.616   0.006   0.061
25851SOL    HW278995   7.503   0.082   0.129
25852SOL     OW78996   7.989   7.642  12.313
25852SOL    HW178997   8.025   7.569  12.364
25852SOL    HW278998   7.900   7.652  12.346
25853SOL     OW78999   7.986   7.923  12.043
25853SOL    HW179000   7.952   7.988  11.982
25853SOL    HW279001   8.024   7.975  12.114
25854SOL     OW79002   7.735   7.641  12.409
25854SOL    HW179003   7.658   7.676  12.454
25854SOL    HW279004   7.723   7.546  12.410
25855SOL     OW79005   7.740   7.526  11.794
25855SOL    HW179006   7.726   7.619  11.813
25855SOL    HW279007   7.756   7.486  11.880
25856SOL     OW79008   7.743   7.966  12.196
25856SOL    HW179009   7.725   7.875  12.173
25856SOL    HW279010   7.832   7.982  12.164
25857SOL     OW79011   7.488   7.977  12.286
25857SOL    HW179012   7.576   7.970  12.250
25857SOL    HW279013   7.502   7.981  12.381
25858SOL     OW79014   7.702   7.786  11.879
25858SOL    HW179015   7.609   7.802  11.863
25858SOL    HW279016   7.708   7.767  11.972
25859SOL     OW79017   7.494   7.781  11.230
25859SOL    HW179018   7.439   7.758  11.155
25859SOL    HW279019   7.485   7.876  11.238
25860SOL     OW79020   7.507   7.599  11.464
25860SOL    HW179021   7.491   7.670  11.401
25860SOL    HW279022   7.595   7.568  11.443
25861NA      NA79023   0.986   0.645   2.350
25862NA      NA79024   1.896   0.236   8.256
25863NA      NA79025   1.767   0.279  10.915
25864NA      NA79026   0.343   1.380  12.216
25865NA      NA79027   1.019   0.925  11.791
25866NA      NA79028   1.388   2.075   3.192
25867NA      NA79029   0.260   2.833   6.724
25868NA      NA79030   1.027   2.285   9.692
25869NA      NA79031   0.236   2.370  10.993
25870NA      NA79032   1.760   2.959  10.692
25871NA      NA79033   1.768   2.771   0.140
25872NA      NA79034   0.587   4.708   0.169
25873NA      NA79035   0.337   5.144   2.917
25874NA      NA79036   1.512   4.810   5.130
25875NA      NA79037   0.686   3.711   3.733
25876NA      NA79038   0.907   4.916   4.213
25877NA      NA79039   0.645   5.035   9.270
25878NA      NA79040   1.059   4.503   7.648
25879NA      NA79041   0.277   4.832   9.689
25880NA      NA79042   0.044   6.186   2.480
25881NA      NA79043   0.413   7.425   2.738
25882NA      NA79044   1.236   6.111   3.070
25883NA      NA79045   0.210   5.689   6.626
25884NA      NA79046   0.224   7.317   7.900
25885NA      NA79047   0.401   6.157   9.553
25886NA      NA79048   1.696   7.872   2.342
25887NA      NA79049   0.235   7.680   8.470
25888NA      NA79050   2.436   1.103   0.169
25889NA      NA79051   2.233   0.268   5.672
25890NA      NA79052   2.496   1.466   5.477
25891NA      NA79053   2.234   0.073   9.397
25892NA      NA79054   3.073   1.547  11.104
25893NA      NA79055   3.028   1.951   1.824
25894NA      NA79056   1.846   2.544   2.469
25895NA      NA79057   2.010   2.148   3.532
25896NA      NA79058   2.149   2.194   7.628
25897NA      NA79059   3.086   2.971   9.235
25898NA      NA79060   2.489   5.527   1.555
25899NA      NA79061   3.335   5.179   3.368
25900NA      NA79062   2.985   4.619   9.836
25901NA      NA79063   2.056   4.462   0.352
25902NA      NA79064   2.473   5.222  11.498
25903NA      NA79065   3.563   7.142   0.522
25904NA      NA79066   2.482   7.390   3.422
25905NA      NA79067   2.071   6.506   4.153
25906NA      NA79068   1.825   5.859   8.156
25907NA      NA79069   2.451   6.404   8.454
25908NA      NA79070   3.623   6.459   0.152
25909NA      NA79071   2.617   0.126   1.119
25910NA      NA79072   3.111   7.813  12.171
25911NA      NA79073   2.190   7.914  11.672
25912NA      NA79074   5.522   0.200   2.280
25913NA      NA79075   4.363   0.981   8.226
25914NA      NA79076   4.168   1.235  11.036
25915NA      NA79077   5.169   2.139  11.362
25916NA      NA79078   4.563   2.817  12.066
25917NA      NA79079   4.150   4.465   1.001
25918NA      NA79080   4.648   5.952   2.039
25919NA      NA79081   5.364   6.145   7.341
25920NA      NA79082   4.552   6.478   6.618
25921NA      NA79083   3.992   7.270   7.905
25922NA      NA79084   4.240   5.873   8.182
25923NA      NA79085   4.194   6.720  11.465
25924NA      NA79086   4.714   7.320   2.525
25925NA      NA79087   4.346   0.100   2.643
25926NA      NA79088   3.862   7.523   6.947
25927NA      NA79089   6.407   1.646   4.062
25928NA      NA79090   7.134   1.341   7.300
25929NA      NA79091   6.099   0.811   7.744
25930NA      NA79092   5.744   1.012  12.196
25931NA      NA79093   6.271   2.150   2.412
25932NA      NA79094   6.067   3.615   4.039
25933NA      NA79095   6.815   3.852   4.357
25934NA      NA79096   5.668   2.953   5.224
25935NA      NA79097   6.477   2.704   3.953
25936NA      NA79098   6.979   2.359   9.130
25937NA      NA79099   7.076   1.893   9.727
25938NA      NA79100   5.708   2.162  12.301
25939NA      NA79101   6.538   3.331  11.636
25940NA      NA79102   7.053   5.245   5.171
25941NA      NA79103   6.940   5.406  12.000
25942NA      NA79104   6.267   6.084   2.189
25943NA      NA79105   6.136   6.059   4.921
25944NA      NA79106   6.227   6.757   6.572
25945NA      NA79107   7.278   6.419   9.883
25946NA      NA79108   7.300   0.036   7.679
25947NA      NA79109   7.551   1.602   1.354
25948NA      NA79110   0.141   1.342   7.203
25949NA      NA79111   7.502   1.612  10.672
25950NA      NA79112   7.802   2.628   0.918
25951NA      NA79113   7.656   1.976   5.114
25952NA      NA79114   7.796   4.474   2.779
25953NA      NA79115   7.598   4.033  10.401
25954NA      NA79116   7.805   7.152   5.271
25955NA      NA79117   7.571   0.078   5.614
25956NA      NA79118   7.481   0.057  10.738
25957CL      CL79119   0.598   2.028   1.140
25958CL      CL79120   1.453   2.762   0.973
25959CL      CL79121   1.454   3.507   3.757
25960CL      CL79122   0.052   3.127   8.477
25961CL      CL79123   1.252   3.833   1.361
25962CL      CL79124   0.809   4.678   2.768
25963CL      CL79125   0.539   3.912   4.839
25964CL      CL79126   7.999   4.729   5.369
25965CL      CL79127   1.365   4.307   7.046
25966CL      CL79128   0.830   7.002   0.279
25967CL      CL79129   0.915   7.272   8.415
25968CL      CL79130   3.114   1.365   2.237
25969CL      CL79131   2.109   1.127   6.527
25970CL      CL79132   2.277   0.791   8.736
25971CL      CL79133   3.025   1.299   7.590
25972CL      CL79134   3.030   5.233   1.026
25973CL      CL79135   2.022   4.023   4.736
25974CL      CL79136   2.483   5.844   3.279
25975CL      CL79137   3.523   7.137   6.714
25976CL      CL79138   3.423   7.597   1.387
25977CL      CL79139   4.947   1.494   4.784
25978CL      CL79140   3.730   1.186   6.882
25979CL      CL79141   4.496   1.400  10.436
25980CL      CL79142   4.964   1.345   9.710
25981CL      CL79143   5.033   1.894   3.188
25982CL      CL79144   3.941   2.167   4.329
25983CL      CL79145   5.531   4.700  10.933
25984CL      CL79146   4.816   6.903   0.011
25985CL      CL79147   3.995   7.327   2.309
25986CL      CL79148   4.420   6.468   3.217
25987CL      CL79149   4.077   7.146   5.062
25988CL      CL79150   5.196   7.120   6.542
25989CL      CL79151   5.143   6.487   6.018
25990CL      CL79152   3.745   6.075   8.194
25991CL      CL79153   6.513   0.070   1.413
25992CL      CL79154   5.621   1.636   8.804
25993CL      CL79155   7.320   2.005   0.455
25994CL      CL79156   7.067   2.731   6.592
25995CL      CL79157   6.633   4.093   3.129
25996CL      CL79158   6.537   3.831   5.078
25997CL      CL79159   7.360   5.504   9.967
25998CL      CL79160   6.989   3.813  12.294
25999CL      CL79161   7.267   6.835   0.707
26000CL      CL79162   6.620   7.025   8.760
26001CL      CL79163   7.080   6.159   9.431
26002CL      CL79164   6.146   7.923  12.031
26003CL      CL79165   7.860   4.968  10.802
26004CL      CL79166   7.853   0.257   0.204
   8.00000   8.00000  12.50000
